/*--------------------------------*- C++ -*----------------------------------*\
| =========                 |                                                 |
| \\      /  F ield         | OpenFOAM: The Open Source CFD Toolbox           |
|  \\    /   O peration     | Version:  v2012                                 |
|   \\  /    A nd           | Website:  www.openfoam.com                      |
|    \\/     M anipulation  |                                                 |
\*---------------------------------------------------------------------------*/
FoamFile
{
    version     2.0;
    format      ascii;
    class       volScalarField;
    location    "0.01";
    object      T;
}
// * * * * * * * * * * * * * * * * * * * * * * * * * * * * * * * * * * * * * //

dimensions      [0 0 0 1 0 0 0];


internalField   nonuniform List<scalar> 
1000
(
299.9944878512824
299.9990197543902
299.9905658011517
299.9790048517905
299.9690455742826
299.964297968228
299.9642280316462
299.9657214577912
299.9645838442585
299.9600276129797
299.9557566485831
299.9547893846557
299.9563917835195
299.9605332695228
299.9614704555794
299.9624041993109
299.9630330742432
299.9645605725919
299.9698370359559
299.9793333590636
299.9911087745706
299.9997958711642
300.0057660846364
300.0048730209364
300.002474844953
300.0037718168595
300.009685371451
300.0209638649098
300.0322337032287
300.0400937072534
300.0417866164343
300.0384819849278
300.0360385820468
300.0387850787467
300.0445714321743
300.0512866611849
300.0517147463791
300.0449959891234
300.0328829711546
300.0228247680508
300.0193527409304
300.0214451051138
300.0260534238122
300.0265915604538
300.0207681506973
300.0082521061095
299.9914198788933
299.9795171325634
299.9793491766678
299.982767076468
299.9848490617678
299.9815999414798
299.9730856538811
299.9628376495911
299.9520847931854
299.9484137562008
299.9506114366867
299.9573048335855
299.9632029622497
299.9689782090071
299.9690262375369
299.9633706921051
299.9565367965371
299.954505213687
299.9597031765655
299.9741484338373
299.9926963432475
300.0075578272807
300.01094959169
300.0043847435759
299.9943678074443
299.9894402079885
299.9941178834
300.0103204002787
300.0338362763137
300.0537119669602
300.0619429897074
300.0575710346288
300.0457919016216
300.0334333890306
300.0263912798189
300.0276163988424
300.0362985136528
300.0455923293098
300.0519080731523
300.0502865363733
300.0411528573307
300.0293738149801
300.0161517151582
300.0049817977028
300.0032213369349
300.0050251490715
300.006907906797
300.003083208345
299.9961375824559
299.9881905506607
299.9834706341585
299.9746876390147
299.9621603714117
299.9537426526632
299.9523187492774
299.9487256420267
299.949526063237
299.954872966708
299.9601088481496
299.9651014792399
299.9652837678537
299.9625137927883
299.9580491821877
299.9567508718877
299.9603154907559
299.968698089119
299.980305338551
299.9917606738924
299.9989098408041
300.0003118973872
300.0010708949123
300.0051559487384
300.0143722943998
300.0262489236818
300.0356429570654
300.0383061011536
300.0363621218561
300.0347040957678
300.0376911389631
300.0431743457326
300.0488023623049
300.0514743190516
300.0491017129809
300.0431729699445
300.037331768129
300.0323902822943
300.0313478051493
300.0313257482757
300.0288610956088
300.0240703193813
300.0194752081622
300.0128504447193
299.9990877334098
299.9885244916201
299.986062905963
299.982422441669
299.9794200937787
299.9764344047852
299.9772793953966
299.9728109646874
299.9621914488563
299.9530577089945
299.9480893913405
299.9451155024926
299.9479078316294
299.9543426205228
299.9617374060307
299.9661055266159
299.9663996220557
299.9629738667497
299.9603522816194
299.9654104061846
299.9805690365827
299.9968598382339
300.0058940803809
300.0072276955227
300.002048674344
299.9941845614219
299.9904942312193
299.9960561918177
300.0120776453602
300.0379343947473
300.0587776646617
300.0618557852895
300.0576071912353
300.0504415156388
300.0430771415458
300.0370830622277
300.034984423695
300.0363602640644
300.0351285331098
300.0347961823319
300.036168069094
300.0364347757732
300.0383622134145
300.0315813062412
300.0162334364229
300.0041518907411
299.9985644646927
299.9970519986164
299.9975744849655
299.9978653538049
299.9911818688739
299.9743935478875
299.9567107422535
299.9513629108667
299.9534915646901
299.9580494243012
299.9612664653518
299.9611054872698
299.9573043220244
299.953314605301
299.9515482869421
299.9530644240453
299.9568874900393
299.9604243810658
299.9607794038824
299.9631785668172
299.9716997474303
299.9836994271241
299.9915531872336
299.9948566125748
299.9979975554356
300.0019588498527
300.0081374217163
300.0180531217919
300.0323819638226
300.0388508804853
300.0392924560438
300.0386362737908
300.0412048320342
300.0475741317583
300.0517329855296
300.053632783489
300.0511843152814
300.0450304444903
300.040538272815
300.0385307326895
300.0392300383728
300.0397552360466
300.0377855563796
300.0329063216774
300.0268035155004
300.019329269188
300.0114652860476
300.0030555045867
299.9878135210316
299.9745099483874
299.9697402304847
299.9693184208119
299.9673784337553
299.9645756800791
299.9622917065671
299.9593678567058
299.9541478744173
299.9505768875965
299.9496607548015
299.9518252486015
299.955895616267
299.9589921079348
299.9591311026533
299.9566601530067
299.9556372757949
299.961760844255
299.977302279503
299.9938484284942
300.0017411027303
300.002085637493
299.998170245962
299.9934329968287
299.9926897930411
299.9988391095293
300.0139255601077
300.0365106189133
300.0523923542773
300.0549705349227
300.0514228042735
300.0445526128134
300.0385361385422
300.0355046677721
300.0373488150695
300.0425087273335
300.0481842045368
300.0510008099276
300.0501776081642
300.0452482549954
300.039805064371
300.035700182798
300.0297784005655
300.0167154204487
300.0048566103327
299.999394073869
299.995055555303
299.98825483147
299.9805721157921
299.9712356444637
299.9611991963478
299.9583032950682
299.9585786000183
299.9590215375559
299.9562985062105
299.9521467436212
299.9485007937815
299.9481042884696
299.9492610786984
299.9514625365674
299.9540651113712
299.955952564083
299.9622541804461
299.9726705341757
299.9792976617978
299.9808876852466
299.9824856663187
299.9836483029757
299.9838087735625
299.9880953871158
300.0005450474818
300.0231424176109
300.0403479783319
300.0432048480872
300.0423917361912
300.0427386028808
300.0419603726142
300.040689908245
300.0393727689265
300.0387761861491
300.0423478431234
300.0489039897665
300.0528209875903
300.0536010179902
300.0517658338346
300.0487573914409
300.0461579110547
300.0386665219829
300.0240053330343
300.0096605850168
300.0039761419793
300.0025518373942
300.0031963815776
299.9998880694235
299.9871523969564
299.9662264177201
299.9554406764624
299.9536518802574
299.9550330485064
299.9574635738713
299.9595067625694
299.9596536817722
299.9574575645752
299.9541110212746
299.9501591512756
299.9480473413565
299.9481927872204
299.9495984070485
299.9500762455216
299.9528557740732
299.9618707197599
299.9785014921096
299.9928305557657
299.9983155933354
300.0006884635707
300.0028215051747
300.0087959902435
300.0214080709892
300.0318502097626
300.0340682436946
300.0353083271876
300.0350723742098
300.0342354263844
300.0328234363497
300.0333250318359
300.0373596386722
300.0464861013204
300.0551795497072
300.0575725564903
300.0571890746114
300.0558205649772
300.0546567135979
300.0516584869683
300.0440823492642
300.0306254423346
300.0166418864627
300.0079948587271
300.0026008066178
299.9962385032196
299.9850343569444
299.971860497732
299.9663479742422
299.9657443332415
299.9654031598579
299.9637986226786
299.9611218646348
299.9550603444877
299.9501019506174
299.9491627221495
299.9491235112558
299.9504108031802
299.9523606561099
299.9575768540465
299.961797930875
299.9626481431538
299.9628119689927
299.9627580692936
299.9627628396795
299.9630805336932
299.9638719985751
299.9682267711347
299.9811132747895
300.0105943184895
300.0384026974077
300.0445058276749
300.0445462011936
300.0442508975
300.0439753431201
300.0432291470328
300.042832059174
300.0430588139315
300.0439794226755
300.0447451825615
300.0465171507914
300.0481144654561
300.0488182721245
300.0492465034454
300.0495165653759
300.0491299255403
300.0483303499776
300.0475795434241
300.0440049600047
300.033649519399
300.0086083700259
299.977145960359
299.9660517587867
299.9652849418486
299.965233318547
299.964982063836
299.9647907173297
299.9649798725945
299.96440798857
299.9621532813102
299.9567733844021
299.9514233632896
299.9499833243654
299.9498480480263
299.950211554162
299.9509005222851
299.9514587704037
299.9526412519736
299.9555529038374
299.9606120131481
299.9664690783951
299.9718510157323
299.9777643523799
299.9876285810598
300.0063762991302
300.0244616235887
300.0297677603054
300.0311122314534
300.0318259305324
300.0316888933008
300.0306068758665
300.0295695061762
300.0304696811434
300.035080217791
300.0439807370622
300.0516683240271
300.0537644008445
300.0529323635932
300.0514171557574
300.0508991497426
300.0515542098279
300.0523497757025
300.0519732521374
300.0492021963971
300.0435792529553
300.0283084677799
299.9983942846622
299.9737450551294
299.969244960729
299.969224061342
299.9692381917794
299.9692723782395
299.9690201439162
299.9679187682679
299.9652815011672
299.9602664330135
299.9547709129317
299.9527603024583
299.9525261846774
299.9524202588343
299.95286132903
299.9534916738446
299.9551642943568
299.9589186880793
299.962841268337
299.9644723554835
299.9642479616714
299.9646217808904
299.9663153926955
299.9692786668292
299.9801336287287
300.0051634145711
300.0317769868594
300.0386463844429
300.0389416901266
300.0390903599519
300.0387697117977
300.0384691552021
300.0380822567557
300.0384619361902
300.0395209098008
300.0406374133299
300.0431784382609
300.0471254863825
300.0494751254981
300.0499702534107
300.0499022709413
300.0494845144353
300.0491695572366
300.0488323591161
300.0472458574916
300.0432260462682
300.0313540134817
300.0029934395884
299.9708909453207
299.961195297816
299.9606083682498
299.960770908897
299.9611233970775
299.9612819021152
299.9612773514117
299.9611791630043
299.9612012123322
299.9605140385157
299.9588834587851
299.9553257988618
299.9518450920555
299.9509280942294
299.9507609421099
299.9509588399468
299.9512743975056
299.9514010725514
299.951687399734
299.9526784232999
299.9547048052675
299.9608417834967
299.9795568815762
300.0149095905799
300.0400012438761
300.0437023128873
300.0438560323642
300.0440346874501
300.0437500174539
300.0431775183334
300.0427942746203
300.0426058813054
300.0423784900579
300.0419298420786
300.0421766706772
300.0429128908533
300.0437735846966
300.0441065206232
300.0440937673462
300.0443655855831
300.0442673897584
300.0434899349228
300.0420677595546
300.0413149329287
300.0381818136035
300.0260525137957
299.997290087999
299.9693064645399
299.9623186359524
299.9594954285431
299.9594232899902
299.9599574784904
299.9620837440475
299.9634528827641
299.9621798816056
299.9591509968079
299.9553557067649
299.9515839012856
299.9509184226739
299.951567317308
299.9550917753666
299.9602510060954
299.9629346514244
299.9624546361579
299.9588927863012
299.9547893526495
299.953859708271
299.9605044682082
299.9801609767638
300.0132144463654
300.0352217037261
300.0418782359915
300.040158592754
300.0332253655228
300.0257873556944
300.0226736203155
300.0254375421143
300.0325338386828
300.0425528203787
300.0508618409191
300.0548986252089
300.0544276249234
300.0462174712267
300.0371048971564
300.0316663416054
300.0314147149653
300.0353694283871
300.0474698249457
300.0573336127189
300.0598346429209
300.0520108777379
300.028488646857
299.989458009983
299.957434856721
299.9424163881192
299.942355921375
299.9464468172557
299.9659965119088
299.9901881362576
300.0010614638455
299.9994307793692
299.9929426110286
299.9865927312275
299.9593417279347
299.926754904069
299.9096289205715
299.9037180231252
299.9001955907228
299.9041180449831
299.926413404062
299.9496675132161
299.9626419216064
299.9676699628631
299.9754290154505
299.9726497880371
299.9652652509229
299.9622559517186
299.9758290844024
299.9930783623298
299.9950266364933
299.9943334909699
299.9995852357721
300.0269177987523
300.0560626254041
300.0750124476502
300.0865398509904
300.0935507453614
300.0962724290965
300.094560724535
300.0954301125869
300.0893155349199
300.0624768679102
300.0287222196688
300.0072179293534
299.9979959291887
300.0039177702604
300.023791948284
300.0600224296278
300.0854203193172
300.0864191567814
300.0651466460425
300.0258240541678
299.9982366767438
299.9561654983131
299.9376465247082
299.9389868536396
299.9443626894374
299.9479691044892
299.9501426106666
299.9488378593564
299.9392711043263
299.9256960284607
299.9172653474586
299.9158436906193
299.9255032497709
299.9536663543232
299.9771521310108
299.9871459139877
299.9859616545667
299.9795542731604
299.9596494795348
299.9418875821275
299.9425690318331
299.9621015627566
299.990120256899
300.0084553538273
300.032173339838
300.0409419003958
300.035656695276
300.0287115883843
300.0283015169172
300.0325351960932
300.0428813561645
300.0665212631576
300.0872789236826
300.10037237287
300.1069228483201
300.1019507708824
300.0708606392969
300.0329246764703
300.0117936696981
300.0103095788814
300.0164553261082
300.0492417063767
300.0825113905789
300.0931181238556
300.0733626699712
300.0302784732337
299.9935992526695
299.9529150987169
299.929954941333
299.9312653234017
299.9454514160616
299.9495500226938
299.9500755584635
299.9443883437496
299.932777001255
299.9209120426315
299.9157999367956
299.9136710656764
299.9146755471961
299.9285995656684
299.9567171994381
299.9770356463951
300.0010786082917
300.0092608497364
300.0099737831761
299.9902688573254
299.9675806470594
299.9543539275692
299.9532724647549
299.9669911445455
299.9982303607614
300.030213823757
300.0468583293924
300.0479232097485
300.0380114850771
300.0291310205684
300.0289767647427
300.0466517325368
300.0765035339813
300.1048029195451
300.1165358868165
300.1081406426381
300.0830147773774
300.0387656974765
300.0067508015292
299.9961590447596
300.0077671002998
300.0255669994506
300.0647971923071
300.0899327543716
300.0852747743751
300.0529783103124
300.0064674831605
299.9699229900763
299.9321675905586
299.9220869894472
299.9336043481615
299.9475094725591
299.9551062407868
299.95998302467
299.9597504730287
299.9468073249409
299.927035847878
299.9136117786232
299.9088567605131
299.9180820993021
299.9496387328045
299.9816112619798
299.9955503174799
299.9891671400222
299.9809518618289
299.9470766483511
299.9202510477655
299.9191132730117
299.9447711509836
299.9921978920834
300.0211240067864
300.059528764094
300.0711079212891
300.0596584279269
300.03882105844
300.0315410550866
300.0302122097507
300.04201423216
300.0595009076972
300.0838363527907
300.0934548961768
300.0939105768012
300.087491119666
300.0619031056997
300.0311763650241
300.0150837747245
300.0177402845171
300.019053453497
300.0472259245687
300.0745565596936
300.0764013296154
300.0490321198709
300.0025710142231
299.9820999525526
299.9415040319037
299.9202764284108
299.9238570718554
299.9427321828482
299.9514110789415
299.9595009530181
299.9565584833476
299.945475197155
299.9276278497352
299.9067324919603
299.8980668044946
299.9067073458608
299.9278319939612
299.9648062520323
299.9870974911937
299.9893838447577
299.9765764509629
299.9510044522607
299.9166023488661
299.901145060498
299.9167871050833
299.962814806655
300.0149474409076
300.0590466908585
300.0862218872984
300.0843912295879
300.0612854934876
300.0322560296734
300.0190655981013
300.0178378909717
300.0374348227776
300.0641201021848
300.0935109685024
300.1019885172099
300.0907026776505
300.0715369754767
300.0320273565911
300.0020335249986
299.9915389478554
300.00454416708
300.0194566108355
300.0613028789195
300.0915927814214
300.0946863427628
300.065088185528
300.0044161376468
299.958593264583
299.9052729237647
299.8817464651249
299.8857328267432
299.9113677344062
299.9404023153352
299.9543956263238
299.9543201981924
299.9340321618351
299.9134260270466
299.8963090107704
299.8974861125496
299.9139215466731
299.9395888350181
299.9647831394549
299.9736905707218
299.9657529352013
299.9586816948703
299.9317895605292
299.9123136780659
299.922048382995
299.9589350338647
300.0035244395124
300.0191203446948
300.0520984495249
300.0683927219797
300.0629421367809
300.0443435779434
300.0347182633502
300.0292849879351
300.0370123005712
300.0552672919733
300.0631473965478
300.0699392722059
300.0610492788441
300.0506804176092
300.0269129404406
300.0092063814797
300.002523854466
300.0126779946517
300.0202406582851
300.0506845481259
300.0732100385338
300.0688734072367
300.0324699429241
299.9747514390615
299.9371235642205
299.8978532307452
299.872432242706
299.8709857050666
299.891118254279
299.9217488466433
299.9332430134177
299.9455614630438
299.9432226901361
299.9266802442352
299.9026817578758
299.8902898530129
299.8852813644596
299.8990605992848
299.9170654994956
299.9381834557705
299.9460363252956
299.9373664443545
299.9282092872108
299.9039293583809
299.8897078728812
299.9074349347275
299.9575225373194
300.0132850677611
300.0367943993992
300.0682387654464
300.0790261624655
300.0654824725654
300.0371529732914
300.012602891002
300.006186060606
300.0055064020174
300.0188087744821
300.0384941437351
300.0488515135963
300.0478976905984
300.0334739374038
300.0110294668378
299.9899908242031
299.9810106198261
299.98646700745
299.998857247336
300.0290320976611
300.0487095957184
300.0381184875803
299.992300988394
299.9246672477284
299.8940367924787
299.8540453699512
299.8384234033538
299.8482720154041
299.8757553579013
299.9055583793421
299.9128281823103
299.9198293282421
299.9110050371326
299.8928820759237
299.8792879422755
299.8707125850145
299.8725852508852
299.8843552570942
299.8982045928475
299.908507069988
299.9062987957837
299.8963621655574
299.8784792068971
299.8651384048463
299.8774490880872
299.9213826101982
299.9820630922653
300.0123990818357
300.0396093898885
300.0555686432533
300.047500983513
300.0200770226576
299.9908029994128
299.9839033335886
299.974496894662
299.9791964692384
299.9938882597178
300.0098099230027
300.0130565646846
300.0166631660472
300.0066209167996
299.9917648422974
299.9792747088129
299.9754708226989
299.9847530489041
299.9960027113565
300.0123290436318
300.0087646072693
299.9744136810666
299.9121263955743
299.8733015897864
299.8437177503607
299.825556627595
299.8307313852167
299.8552832534327
299.8841122444013
299.8952658616247
299.9017218474164
299.8951457961408
299.8766608406227
299.8581673687951
299.8499936936503
299.8494011215672
299.8599226344455
299.8740285180669
299.8820433739097
299.882789795783
299.87561065681
299.8671429420485
299.8573062617199
299.8568382942993
299.8847351068186
299.9469447621551
299.9977308084667
)
;

boundaryField
{
    inlet
    {
        type            fixedValue;
        value           uniform 300;
    }
    outlet
    {
        type            inletOutlet;
        inletValue      uniform 300;
        value           uniform 300.000328039857;
    }
    frontAndBack
    {
        type            empty;
    }
}


// ************************************************************************* //
