/*--------------------------------*- C++ -*----------------------------------*\
| =========                 |                                                 |
| \\      /  F ield         | OpenFOAM: The Open Source CFD Toolbox           |
|  \\    /   O peration     | Version:  v2012                                 |
|   \\  /    A nd           | Website:  www.openfoam.com                      |
|    \\/     M anipulation  |                                                 |
\*---------------------------------------------------------------------------*/
FoamFile
{
    version     2.0;
    format      ascii;
    class       volVectorField;
    location    "0.01";
    object      U;
}
// * * * * * * * * * * * * * * * * * * * * * * * * * * * * * * * * * * * * * //

dimensions      [0 1 -1 0 0 0 0];


internalField   nonuniform List<vector> 
1000
(
(-0.009974057249593684 0 0)
(-0.04045077604696646 0 0)
(-0.04144583451009307 0 0)
(-0.05108683848585714 0 0)
(-0.06654146462861742 0 0)
(-0.0837025997595882 0 0)
(-0.09351313572423274 0 0)
(-0.1017343747627227 0 0)
(-0.1063773823607055 0 0)
(-0.1065959907307229 0 0)
(-0.1193323870017604 0 0)
(-0.1334331306604134 0 0)
(-0.1468348723072749 0 0)
(-0.1451164967800746 0 0)
(-0.1239614743227029 0 0)
(-0.09209594930511093 0 0)
(-0.06534018213037439 0 0)
(-0.05578021828920973 0 0)
(-0.0637407805610537 0 0)
(-0.07517012024129963 0 0)
(-0.07345644271144858 0 0)
(-0.04742877684239613 0 0)
(-0.005064196813504917 0 0)
(0.02836285307256723 0 0)
(0.04982357661480925 0 0)
(0.05732861337070622 0 0)
(0.04843964148976523 0 0)
(0.04185484871323598 0 0)
(0.05216876930647987 0 0)
(0.07913722805696136 0 0)
(0.1049495660787647 0 0)
(0.1308297460450698 0 0)
(0.139820918013253 0 0)
(0.1424002542420957 0 0)
(0.133976782177802 0 0)
(0.1222673786363729 0 0)
(0.1105708419104577 0 0)
(0.1110873339059618 0 0)
(0.1072151451404748 0 0)
(0.09727975894304404 0 0)
(0.08854655430971428 0 0)
(0.0786139449924797 0 0)
(0.06403547365497976 0 0)
(0.05046766506329046 0 0)
(0.04580369215441578 0 0)
(0.0278151758560888 0 0)
(-0.01199275810207676 0 0)
(-0.05094500946144313 0 0)
(-0.06329184941184353 0 0)
(-0.0734709259549314 0 0)
(-0.07197252515357641 0 0)
(-0.06581959183645465 0 0)
(-0.05893351275723541 0 0)
(-0.07113631630055589 0 0)
(-0.104598402813154 0 0)
(-0.1313317156677838 0 0)
(-0.1514406678413831 0 0)
(-0.1562666634104156 0 0)
(-0.1442467531178567 0 0)
(-0.1213260541431418 0 0)
(-0.1086819770115301 0 0)
(-0.08976753388745477 0 0)
(-0.08122871563500378 0 0)
(-0.07785893613781329 0 0)
(-0.08141827917533551 0 0)
(-0.08417324403396782 0 0)
(-0.06639347288226169 0 0)
(-0.03407982297324236 0 0)
(-0.01648194493570918 0 0)
(0.0078229384052765 0 0)
(0.03007462428941155 0 0)
(0.03926209506097203 0 0)
(0.04644150418948816 0 0)
(0.04610211044720108 0 0)
(0.06435663879010799 0 0)
(0.09233802869611607 0 0)
(0.1145319204362481 0 0)
(0.1287070192853979 0 0)
(0.1417642235596354 0 0)
(0.1419170428240243 0 0)
(0.1267376535704869 0 0)
(0.1192060416990369 0 0)
(0.1028269665048007 0 0)
(0.09839135158324656 0 0)
(0.1109433075246331 0 0)
(0.1183701194177921 0 0)
(0.1320526850076445 0 0)
(0.1221905217510775 0 0)
(0.08241021833812746 0 0)
(0.02502480943379662 0 0)
(-0.006082133190346361 0 0)
(-0.02210342562250361 0 0)
(-0.01496608922024868 0 0)
(-0.001644010142772526 0 0)
(0.007303320863443116 0 0)
(0.003491508925840095 0 0)
(-0.01968567380283977 0 0)
(-0.06918053862473289 0 0)
(-0.1263833814501534 0 0)
(-0.1590343315796133 0 0)
(-0.1609323906453684 0 0)
(-0.1465179863302191 0 0)
(-0.1256088266231579 0 0)
(-0.1095847048092279 0 0)
(-0.1054743849023767 0 0)
(-0.1120129191866777 0 0)
(-0.1226365760762212 0 0)
(-0.1242463098345824 0 0)
(-0.1155753992984035 0 0)
(-0.1023624973634176 0 0)
(-0.09488649042865713 0 0)
(-0.09211185171884516 0 0)
(-0.07765228292467613 0 0)
(-0.04518900457209589 0 0)
(-0.008029290079473429 0 0)
(0.01457642162495727 0 0)
(0.03026857440258753 0 0)
(0.03384699572373113 0 0)
(0.03591922754785921 0 0)
(0.05167026659218792 0 0)
(0.07703480699659512 0 0)
(0.0965772141038633 0 0)
(0.1136092368141862 0 0)
(0.1246836794864006 0 0)
(0.1301570469199449 0 0)
(0.129366509909572 0 0)
(0.130072697432089 0 0)
(0.1328470314652793 0 0)
(0.1358449205453813 0 0)
(0.1352134116556715 0 0)
(0.119642011219226 0 0)
(0.09528199099535044 0 0)
(0.08178046028540546 0 0)
(0.07600867247103103 0 0)
(0.07984461537662738 0 0)
(0.08627003340993039 0 0)
(0.0785680078375102 0 0)
(0.04266488933496806 0 0)
(-0.01628531889764294 0 0)
(-0.0550441990822908 0 0)
(-0.0606210470113368 0 0)
(-0.05102980445519208 0 0)
(-0.03751447238770388 0 0)
(-0.03742899260232919 0 0)
(-0.05576205151657333 0 0)
(-0.09277708975757894 0 0)
(-0.136433079113944 0 0)
(-0.1576931626958448 0 0)
(-0.1518137285598339 0 0)
(-0.1350157882698816 0 0)
(-0.1194005502637257 0 0)
(-0.1146480530968329 0 0)
(-0.1209483386031296 0 0)
(-0.1300125603512433 0 0)
(-0.1312559354211865 0 0)
(-0.1171319099519243 0 0)
(-0.0904607170327244 0 0)
(-0.06262827210866333 0 0)
(-0.0306473887406597 0 0)
(-0.01081758727606454 0 0)
(-0.007949508926961623 0 0)
(-0.01514690532062785 0 0)
(-0.01419523249504292 0 0)
(-0.006841866349397001 0 0)
(0.005663878836294254 0 0)
(0.01580849186403694 0 0)
(0.03786127927915529 0 0)
(0.09209243108511408 0 0)
(0.145718950066185 0 0)
(0.1629049970580592 0 0)
(0.1774973873185515 0 0)
(0.1712303223308382 0 0)
(0.1405397824225381 0 0)
(0.1023856346039148 0 0)
(0.08195363120286001 0 0)
(0.07984716679031606 0 0)
(0.09640719995106087 0 0)
(0.1181107227184081 0 0)
(0.1325918680402509 0 0)
(0.1280175832672046 0 0)
(0.1021936035186938 0 0)
(0.06755781606853252 0 0)
(0.02573610814035092 0 0)
(0.005599700822718908 0 0)
(0.00529666750143229 0 0)
(0.006746479474438984 0 0)
(0.0005396115970914178 0 0)
(-0.0155013394701131 0 0)
(-0.03130463201971778 0 0)
(-0.0675170803161631 0 0)
(-0.1108027911891152 0 0)
(-0.1297032940799731 0 0)
(-0.1392522473811654 0 0)
(-0.1433973193966264 0 0)
(-0.134416651340646 0 0)
(-0.124457021567528 0 0)
(-0.1084907231433316 0 0)
(-0.1054097295540163 0 0)
(-0.116392096172735 0 0)
(-0.1306160265955449 0 0)
(-0.1469071313281423 0 0)
(-0.1475894779362208 0 0)
(-0.1337509163579636 0 0)
(-0.1047124584592125 0 0)
(-0.06409512097200483 0 0)
(-0.02323396930247787 0 0)
(-0.004663228634879986 0 0)
(-0.00302702712499188 0 0)
(-0.004822146524442672 0 0)
(-0.005421475284921749 0 0)
(3.800310578572203e-05 0 0)
(0.02779115888194798 0 0)
(0.08182611144646718 0 0)
(0.1210189820004929 0 0)
(0.1390930865091406 0 0)
(0.1404597541231056 0 0)
(0.1338899951904285 0 0)
(0.1197486260499281 0 0)
(0.1139360594381217 0 0)
(0.1220148288086603 0 0)
(0.1355149533555221 0 0)
(0.1544485014068836 0 0)
(0.1613905762101636 0 0)
(0.1476131511253162 0 0)
(0.1229037848000004 0 0)
(0.09357492143064178 0 0)
(0.06891064707188048 0 0)
(0.05945779778198657 0 0)
(0.06496128733329387 0 0)
(0.07233183056094389 0 0)
(0.06610592301735771 0 0)
(0.03562077945563553 0 0)
(-0.02645608061112455 0 0)
(-0.08360127855616574 0 0)
(-0.1050234503663535 0 0)
(-0.1061781866282222 0 0)
(-0.1006953813142157 0 0)
(-0.09874008540611476 0 0)
(-0.1036147363381446 0 0)
(-0.1143647627270099 0 0)
(-0.1280766831357765 0 0)
(-0.1342210721624595 0 0)
(-0.1345595493139031 0 0)
(-0.1373576698256469 0 0)
(-0.140952054370245 0 0)
(-0.1411378849091363 0 0)
(-0.1332931640412926 0 0)
(-0.118492729705046 0 0)
(-0.09949045562430688 0 0)
(-0.08468087436884504 0 0)
(-0.0595204654629742 0 0)
(-0.03530776637703469 0 0)
(-0.02249025414181151 0 0)
(-0.02162610367769649 0 0)
(-0.01098371758825762 0 0)
(0.001853880694879297 0 0)
(0.01479559140354095 0 0)
(0.01947534060992183 0 0)
(0.03952781716970288 0 0)
(0.08491086875517802 0 0)
(0.1228390394791519 0 0)
(0.1341551708737619 0 0)
(0.1450092054776402 0 0)
(0.148046327175922 0 0)
(0.141272253022715 0 0)
(0.1286356161331376 0 0)
(0.1176451981667675 0 0)
(0.1085084339379362 0 0)
(0.1086368989320197 0 0)
(0.119165529659023 0 0)
(0.128386531667632 0 0)
(0.1431185816109125 0 0)
(0.1477481442278702 0 0)
(0.1353920389460206 0 0)
(0.09809942704899505 0 0)
(0.03667074544219346 0 0)
(-0.01422511980088671 0 0)
(-0.03044233885445143 0 0)
(-0.02721375017648962 0 0)
(-0.02011718615555522 0 0)
(-0.02705311777719413 0 0)
(-0.05877076141311046 0 0)
(-0.1078483130395059 0 0)
(-0.134042650627632 0 0)
(-0.1448028277791578 0 0)
(-0.1394460711594908 0 0)
(-0.1281244441105991 0 0)
(-0.1217684828724667 0 0)
(-0.1253190356181261 0 0)
(-0.1360328303763102 0 0)
(-0.1492797102499731 0 0)
(-0.1565963815777186 0 0)
(-0.1519459857048592 0 0)
(-0.1350178999682494 0 0)
(-0.1040415885332345 0 0)
(-0.06771068519608378 0 0)
(-0.04977815761979323 0 0)
(-0.04950571225175519 0 0)
(-0.0537574532519049 0 0)
(-0.05412566221039881 0 0)
(-0.04748579979025901 0 0)
(-0.03604296857077417 0 0)
(-0.004465572270495567 0 0)
(0.06332574140891196 0 0)
(0.1194855767846044 0 0)
(0.1318531453018135 0 0)
(0.13262118340729 0 0)
(0.1234929381237478 0 0)
(0.1129896850102063 0 0)
(0.107528720756308 0 0)
(0.1114559447902945 0 0)
(0.1225128640249316 0 0)
(0.1312744769375243 0 0)
(0.1415659226563541 0 0)
(0.1466955260121151 0 0)
(0.1470386855042958 0 0)
(0.1493982552205444 0 0)
(0.1476606199275491 0 0)
(0.1347837206794167 0 0)
(0.1086847332027976 0 0)
(0.06708673363291115 0 0)
(0.03056282554159895 0 0)
(0.01831353080445264 0 0)
(0.01249545636798589 0 0)
(0.002993852361511299 0 0)
(-0.01094841757840827 0 0)
(-0.0432543697456081 0 0)
(-0.09553040137345888 0 0)
(-0.1203457587649682 0 0)
(-0.124078007241363 0 0)
(-0.1261754334858068 0 0)
(-0.1274459912865656 0 0)
(-0.1262025068960056 0 0)
(-0.125689176045103 0 0)
(-0.1219364391480375 0 0)
(-0.125117252168628 0 0)
(-0.1364996940716859 0 0)
(-0.1475778054753466 0 0)
(-0.1536315576031159 0 0)
(-0.1547733278650841 0 0)
(-0.1479606103503776 0 0)
(-0.1332095156365707 0 0)
(-0.1040236003249516 0 0)
(-0.05787350200410417 0 0)
(-0.0206054363099623 0 0)
(-0.008431583002907146 0 0)
(-0.003727679797446077 0 0)
(0.005435837119202457 0 0)
(0.02709668792432238 0 0)
(0.06639056543090256 0 0)
(0.09657856725976281 0 0)
(0.1003673768713483 0 0)
(0.09824406027342444 0 0)
(0.0951567869705205 0 0)
(0.09548571970687833 0 0)
(0.09810359932561884 0 0)
(0.1031854963290268 0 0)
(0.1112269520560211 0 0)
(0.1326125212980266 0 0)
(0.155021955040671 0 0)
(0.1626135909622561 0 0)
(0.1648689586343605 0 0)
(0.1657596821224379 0 0)
(0.1614039999648782 0 0)
(0.1498415091571745 0 0)
(0.1256912061639797 0 0)
(0.08687404539719125 0 0)
(0.04769806795836576 0 0)
(0.02353961077099016 0 0)
(0.007797815646467348 0 0)
(-0.01112081468646493 0 0)
(-0.04240506514350821 0 0)
(-0.0798783854842542 0 0)
(-0.0971084657610294 0 0)
(-0.1009444308749526 0 0)
(-0.1029736109459969 0 0)
(-0.1026910987620208 0 0)
(-0.1105822032435539 0 0)
(-0.1295969256576935 0 0)
(-0.1449394072937647 0 0)
(-0.1476032969459448 0 0)
(-0.1468081173965488 0 0)
(-0.1462828760770033 0 0)
(-0.1366226621024427 0 0)
(-0.1205173700150912 0 0)
(-0.1095540765094089 0 0)
(-0.1085480706876677 0 0)
(-0.1093143878564687 0 0)
(-0.1089448832245128 0 0)
(-0.1077733836374735 0 0)
(-0.1065042854178092 0 0)
(-0.1022502648409138 0 0)
(-0.09199469740145221 0 0)
(-0.05434017151641795 0 0)
(0.03025195542894357 0 0)
(0.1101604541405096 0 0)
(0.1277844577838499 0 0)
(0.1283467074570724 0 0)
(0.1287329356793057 0 0)
(0.1277115545652018 0 0)
(0.126278906324787 0 0)
(0.12547450120777 0 0)
(0.1250312671706095 0 0)
(0.1235167900397378 0 0)
(0.1266341423468005 0 0)
(0.1349030828363548 0 0)
(0.1419293219580286 0 0)
(0.1441592187932886 0 0)
(0.1431747232734445 0 0)
(0.1415306586252125 0 0)
(0.1406548837058743 0 0)
(0.1400024195976994 0 0)
(0.1358268751175575 0 0)
(0.1269000267743154 0 0)
(0.09838444065725194 0 0)
(0.02655915536713704 0 0)
(-0.06543074393359599 0 0)
(-0.09876214438481526 0 0)
(-0.1013897314838627 0 0)
(-0.1011492471392904 0 0)
(-0.1001760047551425 0 0)
(-0.1004896334993985 0 0)
(-0.1020051338258449 0 0)
(-0.1043084634046098 0 0)
(-0.1108532310983287 0 0)
(-0.1254598044128669 0 0)
(-0.1396434355912522 0 0)
(-0.1429702962202999 0 0)
(-0.14314890728477 0 0)
(-0.1437770295724246 0 0)
(-0.1440194626447807 0 0)
(-0.1421761454950259 0 0)
(-0.1370365590513558 0 0)
(-0.1271781520718905 0 0)
(-0.1125535132163257 0 0)
(-0.09713762818007726 0 0)
(-0.08360183485843244 0 0)
(-0.06717441887294767 0 0)
(-0.03580674043246454 0 0)
(0.02214810022000905 0 0)
(0.07543655223249512 0 0)
(0.08860750012785883 0 0)
(0.08744624995402574 0 0)
(0.08505662427875578 0 0)
(0.0844330789345214 0 0)
(0.08813607249450012 0 0)
(0.09336823976768842 0 0)
(0.09862771529979326 0 0)
(0.104874132917205 0 0)
(0.1229837281971023 0 0)
(0.1414141445632279 0 0)
(0.148409065613234 0 0)
(0.1523077472880882 0 0)
(0.1551448295569131 0 0)
(0.1548425614655919 0 0)
(0.1516543754976713 0 0)
(0.1469737514162324 0 0)
(0.1424330431801715 0 0)
(0.1413731909811937 0 0)
(0.1281497458358953 0 0)
(0.0856247121173576 0 0)
(-0.00224302190497021 0 0)
(-0.07573829067982862 0 0)
(-0.09034319170189041 0 0)
(-0.0913749065437089 0 0)
(-0.09019593130723637 0 0)
(-0.08916454916260125 0 0)
(-0.08948856066210228 0 0)
(-0.09093913084816829 0 0)
(-0.09731587523091541 0 0)
(-0.1145542360495964 0 0)
(-0.1330181296564076 0 0)
(-0.1393258863762632 0 0)
(-0.1388013401700092 0 0)
(-0.1370180777995114 0 0)
(-0.1356431526415911 0 0)
(-0.1318897970673163 0 0)
(-0.1260317304122966 0 0)
(-0.1201490697297393 0 0)
(-0.1129805845047969 0 0)
(-0.106180713934064 0 0)
(-0.1013525330497762 0 0)
(-0.0975628576896054 0 0)
(-0.09724934563138493 0 0)
(-0.08823394774472719 0 0)
(-0.05900747554239348 0 0)
(0.0139014846931749 0 0)
(0.09181423073727447 0 0)
(0.1122785420395245 0 0)
(0.1130143793927261 0 0)
(0.1121955549232711 0 0)
(0.1114925279937971 0 0)
(0.1116254910434122 0 0)
(0.1123449238724659 0 0)
(0.1125804821907134 0 0)
(0.1118475269743848 0 0)
(0.1153012021050341 0 0)
(0.1253904325624381 0 0)
(0.1380133799143297 0 0)
(0.1439510286384679 0 0)
(0.144189642224151 0 0)
(0.1435013641378798 0 0)
(0.1437020084573292 0 0)
(0.1423775587027127 0 0)
(0.13976162822671 0 0)
(0.1369718378702692 0 0)
(0.1261628682404217 0 0)
(0.0911482443176911 0 0)
(0.007737628477440892 0 0)
(-0.08502818012642364 0 0)
(-0.1120855330711765 0 0)
(-0.1132433687501442 0 0)
(-0.113107369532594 0 0)
(-0.1130478053414686 0 0)
(-0.1121598354638566 0 0)
(-0.1115056294779765 0 0)
(-0.111893867947754 0 0)
(-0.1130484616956017 0 0)
(-0.1139269569558712 0 0)
(-0.1187058988253634 0 0)
(-0.1296283597985672 0 0)
(-0.1396954064999568 0 0)
(-0.1418264362369508 0 0)
(-0.1417797643474187 0 0)
(-0.141741682897364 0 0)
(-0.1415260553386976 0 0)
(-0.1404900859667632 0 0)
(-0.1389503050626855 0 0)
(-0.1375373203899009 0 0)
(-0.1316590976255226 0 0)
(-0.1125428410318909 0 0)
(-0.05941858767556128 0 0)
(0.0428706560141517 0 0)
(0.116022005792804 0 0)
(0.1269461780541358 0 0)
(0.1270924851671085 0 0)
(0.1265386884964717 0 0)
(0.1262290600818471 0 0)
(0.1254945213079757 0 0)
(0.1236485104709595 0 0)
(0.122351610521873 0 0)
(0.1221822254640655 0 0)
(0.1233968848648634 0 0)
(0.1244850937116365 0 0)
(0.1236513461547222 0 0)
(0.1232619758353165 0 0)
(0.1247108350645374 0 0)
(0.1264876978330617 0 0)
(0.1279423412865448 0 0)
(0.1287029788643707 0 0)
(0.1294785291655947 0 0)
(0.1292414097511405 0 0)
(0.1235437570604881 0 0)
(0.1076926342134876 0 0)
(0.06570848858827341 0 0)
(-0.01823276348403874 0 0)
(-0.09431850877526492 0 0)
(-0.1065281619115568 0 0)
(-0.1039421850406638 0 0)
(-0.1012692098698573 0 0)
(-0.1038860308714026 0 0)
(-0.1130346924522252 0 0)
(-0.1223264834291219 0 0)
(-0.131011130995544 0 0)
(-0.1346747764124888 0 0)
(-0.129691150764282 0 0)
(-0.1199325123674164 0 0)
(-0.1154382161997788 0 0)
(-0.1149346843161106 0 0)
(-0.123886993129697 0 0)
(-0.136832831883353 0 0)
(-0.1407923950621639 0 0)
(-0.1420383401394584 0 0)
(-0.1307028513408194 0 0)
(-0.1135823513444248 0 0)
(-0.09242201870450185 0 0)
(-0.07615621859806274 0 0)
(-0.04079681043393515 0 0)
(0.02420850190763885 0 0)
(0.06727109977898151 0 0)
(0.08057852725637506 0 0)
(0.08339317196559741 0 0)
(0.09497324092088544 0 0)
(0.109203791166407 0 0)
(0.1154875461362592 0 0)
(0.1188117052508472 0 0)
(0.1100568129671909 0 0)
(0.09762947200214782 0 0)
(0.09544954199287753 0 0)
(0.1050294904646126 0 0)
(0.1112660598309779 0 0)
(0.1359172659462915 0 0)
(0.1574448172311548 0 0)
(0.1611266995506092 0 0)
(0.1629282982447103 0 0)
(0.1519721436086272 0 0)
(0.1167289250945046 0 0)
(0.08597537952367799 0 0)
(0.05784030942269341 0 0)
(0.04058466627623236 0 0)
(0.02447005895638113 0 0)
(0.003492059815444749 0 0)
(-0.01013878880736173 0 0)
(-0.02066015392810059 0 0)
(-0.01098773960911705 0 0)
(-0.01555739119520261 0 0)
(-0.06741709919567694 0 0)
(-0.1469550725869725 0 0)
(-0.2031945141855609 0 0)
(-0.2420674491100173 0 0)
(-0.2574231333192554 0 0)
(-0.2490760806564993 0 0)
(-0.1680607039140335 0 0)
(-0.06342798083434124 0 0)
(-0.004030775645638477 0 0)
(0.01633990873797823 0 0)
(0.01134770461280011 0 0)
(-0.002498158438091417 0 0)
(-0.06618636908532945 0 0)
(-0.1384047289216544 0 0)
(-0.1892933410042999 0 0)
(-0.2195333906408443 0 0)
(-0.207936291510352 0 0)
(-0.1494850025609611 0 0)
(-0.02925335455916281 0 0)
(0.1340560704541816 0 0)
(0.272045387855633 0 0)
(0.3603342025189549 0 0)
(0.3840872381272654 0 0)
(0.3615329114054268 0 0)
(0.3148996527725629 0 0)
(0.2065758472021367 0 0)
(0.1171292430153105 0 0)
(0.06551962545310329 0 0)
(0.03052505398011077 0 0)
(-0.002266994800425287 0 0)
(-0.03288083384162586 0 0)
(-0.05444164536947824 0 0)
(-0.05659934998186696 0 0)
(-0.03300404362384308 0 0)
(0.05729397112017705 0 0)
(0.1597569327382589 0 0)
(0.2165523926238539 0 0)
(0.2382300560708863 0 0)
(0.250204039890324 0 0)
(0.2020058203424805 0 0)
(0.07318536996451144 0 0)
(-0.05450073502914447 0 0)
(-0.182284386167863 0 0)
(-0.2634568998318296 0 0)
(-0.3392678013734166 0 0)
(-0.3414602251095119 0 0)
(-0.2615686763059933 0 0)
(-0.1926310876440757 0 0)
(-0.1359134204978384 0 0)
(-0.1099455612143801 0 0)
(-0.1006027566703838 0 0)
(-0.09419197485951859 0 0)
(-0.07855716617968497 0 0)
(-0.03659290804988205 0 0)
(0.003672802564526752 0 0)
(0.01031789198448813 0 0)
(0.008599855881365106 0 0)
(-0.0178869959582599 0 0)
(-0.09323085737971329 0 0)
(-0.1636579878404157 0 0)
(-0.2103980716096773 0 0)
(-0.233736098755647 0 0)
(-0.200671867373359 0 0)
(-0.09730347742702072 0 0)
(0.02766267326680915 0 0)
(0.1683041635934404 0 0)
(0.2582638844129339 0 0)
(0.313990849288287 0 0)
(0.3014607189305118 0 0)
(0.2317190687679123 0 0)
(0.16036994936756 0 0)
(0.1051207680060583 0 0)
(0.07982175834453897 0 0)
(0.08042290790646979 0 0)
(0.08552158715122843 0 0)
(0.07412446335013044 0 0)
(0.02666428432510425 0 0)
(-0.01606553299476314 0 0)
(-0.02474199045095375 0 0)
(-0.002404979469328396 0 0)
(0.0238751240881383 0 0)
(0.1033461740975909 0 0)
(0.1900281388610024 0 0)
(0.2344775059980667 0 0)
(0.2609177298102657 0 0)
(0.2543240759393433 0 0)
(0.163060171284848 0 0)
(0.03174174363513008 0 0)
(-0.1164931889932731 0 0)
(-0.2444006515680459 0 0)
(-0.3529386403955975 0 0)
(-0.3865455637540685 0 0)
(-0.3240817061538381 0 0)
(-0.2412471996371068 0 0)
(-0.1611274509371688 0 0)
(-0.1150997670308526 0 0)
(-0.103885306033654 0 0)
(-0.1191618832948626 0 0)
(-0.1243927416976084 0 0)
(-0.09733984331245719 0 0)
(-0.0444029542790965 0 0)
(-0.0002594316212372754 0 0)
(0.01257549548438544 0 0)
(-0.01069271206736308 0 0)
(-0.07804076479577776 0 0)
(-0.1703438611509353 0 0)
(-0.2188132134495457 0 0)
(-0.2120616349620655 0 0)
(-0.1529941319208676 0 0)
(-0.04950300198879569 0 0)
(0.09858231843055812 0 0)
(0.2061329160819865 0 0)
(0.2349958543605455 0 0)
(0.2415741158783992 0 0)
(0.2189843407467365 0 0)
(0.1765078996041665 0 0)
(0.1403386911677475 0 0)
(0.1367322042823736 0 0)
(0.1102155464941706 0 0)
(0.09418114251722254 0 0)
(0.07773696182801526 0 0)
(0.07746947889254389 0 0)
(0.04699553912555746 0 0)
(0.0180661720054307 0 0)
(0.001669579411546262 0 0)
(0.00170718200615092 0 0)
(-0.0009618300832634183 0 0)
(0.03183676421592613 0 0)
(0.1109934295832834 0 0)
(0.177833238876155 0 0)
(0.2225054236266214 0 0)
(0.2543237192933092 0 0)
(0.223853011743493 0 0)
(0.09343234206118381 0 0)
(-0.03947375439799252 0 0)
(-0.2062101620220567 0 0)
(-0.3130009598002495 0 0)
(-0.3866047040594102 0 0)
(-0.3639532718221402 0 0)
(-0.2722401733945379 0 0)
(-0.1838416208493319 0 0)
(-0.1179741370579832 0 0)
(-0.0861594430794258 0 0)
(-0.08156169618802835 0 0)
(-0.07840975723828149 0 0)
(-0.07073139459201719 0 0)
(-0.03132359035096318 0 0)
(0.01497444970343732 0 0)
(0.02750198802961753 0 0)
(0.0187328865959194 0 0)
(-0.005711020220907235 0 0)
(-0.07837080024760877 0 0)
(-0.1625560429461342 0 0)
(-0.2169865106963657 0 0)
(-0.2559843375902568 0 0)
(-0.2370556293568135 0 0)
(-0.1240881387204602 0 0)
(0.0002781347171602055 0 0)
(0.1642875592876799 0 0)
(0.276923658951691 0 0)
(0.3697697892725461 0 0)
(0.3672569496958779 0 0)
(0.2833609417791133 0 0)
(0.1900500182490423 0 0)
(0.1121105216705924 0 0)
(0.06716682339142931 0 0)
(0.05979524041529753 0 0)
(0.08211424528891895 0 0)
(0.09439108221505864 0 0)
(0.07159315246191451 0 0)
(0.002942489989338091 0 0)
(-0.04370332892594006 0 0)
(-0.05634971056003366 0 0)
(-0.02880345729658502 0 0)
(0.07080638310673434 0 0)
(0.191055758856112 0 0)
(0.2779193267612158 0 0)
(0.3312314379713003 0 0)
(0.3102734372048118 0 0)
(0.1947341463622129 0 0)
(0.03409904302755636 0 0)
(-0.175545263241816 0 0)
(-0.3292528715943575 0 0)
(-0.4456858645350475 0 0)
(-0.4444138958264431 0 0)
(-0.328942871280595 0 0)
(-0.199505408477213 0 0)
(-0.08018208382108143 0 0)
(-0.01770537075529466 0 0)
(-0.005414325377421743 0 0)
(-0.02656071819577547 0 0)
(-0.05421690840981522 0 0)
(-0.05893729722064898 0 0)
(-0.04172372101243843 0 0)
(-0.01555571871513719 0 0)
(-0.004330638970772857 0 0)
(0.001669636816827663 0 0)
(-0.02746112309676238 0 0)
(-0.1052274907173122 0 0)
(-0.1669344707010799 0 0)
(-0.2195259595895548 0 0)
(-0.2354478407263634 0 0)
(-0.1842144869090138 0 0)
(-0.06357342951585836 0 0)
(0.07778979625679021 0 0)
(0.2227886697477209 0 0)
(0.3455661233860326 0 0)
(0.4056299553826625 0 0)
(0.3699977119938451 0 0)
(0.2967084152662058 0 0)
(0.185339793518122 0 0)
(0.1232141240457429 0 0)
(0.07791327482426484 0 0)
(0.06498048624879217 0 0)
(0.08710451808149856 0 0)
(0.09312839689800735 0 0)
(0.07773483844275279 0 0)
(0.03612488512496152 0 0)
(0.006635397085088054 0 0)
(-0.01077350276561938 0 0)
(0.005415560523862988 0 0)
(0.08407832174973758 0 0)
(0.1712522242050645 0 0)
(0.2375669636490813 0 0)
(0.2802825896946416 0 0)
(0.2665918883192365 0 0)
(0.1565400780798521 0 0)
(0.03854589682839743 0 0)
(-0.1349382524810184 0 0)
(-0.2619532721438724 0 0)
(-0.3888608763444007 0 0)
(-0.4101558133549753 0 0)
(-0.3267388792126254 0 0)
(-0.2295853908737933 0 0)
(-0.1028696679751301 0 0)
(-0.02347970541722339 0 0)
(0.02587732929551331 0 0)
(0.02658050386851976 0 0)
(-0.009950599831586698 0 0)
(-0.04172293304035599 0 0)
(-0.05291738569857043 0 0)
(-0.04251018163493501 0 0)
(-0.007268301915702304 0 0)
(-0.005117240590728865 0 0)
(-0.03249132253040898 0 0)
(-0.09325468778871922 0 0)
(-0.1583121173115223 0 0)
(-0.2155103140829079 0 0)
(-0.2213914036398658 0 0)
(-0.1351317983077992 0 0)
(0.01318479009811511 0 0)
(0.2095846822763723 0 0)
(0.3890610330126881 0 0)
(0.5155822656985978 0 0)
(0.5103923009583963 0 0)
(0.4015677770610097 0 0)
(0.2598294214009393 0 0)
(0.1085316511347221 0 0)
(0.009126167518180045 0 0)
(-0.02437162619833969 0 0)
(0.005945332650354172 0 0)
(0.05621518378943891 0 0)
(0.1037423406974148 0 0)
(0.1036598222922096 0 0)
(0.0778757701768137 0 0)
(0.05646494559206146 0 0)
(0.067512675796495 0 0)
(0.1381081495818645 0 0)
(0.221677093616264 0 0)
(0.3000390333353827 0 0)
(0.3553880747712172 0 0)
(0.3555068526479118 0 0)
(0.2638936297020882 0 0)
(0.1376758070200033 0 0)
(-0.04170208022140694 0 0)
(-0.2299491571717476 0 0)
(-0.4062150084815734 0 0)
(-0.453129335842514 0 0)
(-0.3842755763633663 0 0)
(-0.26032322400177 0 0)
(-0.09468715371116074 0 0)
(0.02882825732764899 0 0)
(0.1303546488904198 0 0)
(0.146506547865676 0 0)
(0.1105781804935467 0 0)
(0.04928872003294964 0 0)
(-0.01358872618599779 0 0)
(-0.05658254865240237 0 0)
(-0.05825000414926105 0 0)
(-0.02601655891388384 0 0)
(-0.0005790871403446749 0 0)
(0.005425606019408155 0 0)
(-0.02258764522216825 0 0)
(-0.06611916540690646 0 0)
(-0.1070830691163599 0 0)
(-0.109063994533362 0 0)
(-0.04366824138092566 0 0)
(0.07553421818114789 0 0)
(0.2304873206392422 0 0)
(0.4143711482783674 0 0)
(0.5495331640333895 0 0)
(0.5440104789808031 0 0)
(0.460510560484176 0 0)
(0.3304999397729079 0 0)
(0.1966023321557192 0 0)
(0.07613836708136662 0 0)
(0.007740698733218927 0 0)
(0.0112273562992912 0 0)
(0.05284690894627001 0 0)
(0.1114509238552743 0 0)
(0.1787488731912033 0 0)
(0.2090408453589286 0 0)
(0.2102727248906559 0 0)
(0.2240331109164801 0 0)
(0.2354712827624785 0 0)
(0.2520132603800789 0 0)
(0.2731664861590414 0 0)
(0.299482156121249 0 0)
(0.294733062246105 0 0)
(0.2301030488538477 0 0)
(0.1321188427998384 0 0)
(-0.005690067534980821 0 0)
(-0.1683326998152674 0 0)
(-0.3203866799304565 0 0)
(-0.3280898589823107 0 0)
(-0.2472327792201386 0 0)
(-0.131932368678008 0 0)
(-0.0006741981286016513 0 0)
(0.1126454258934305 0 0)
(0.1959905546637024 0 0)
(0.2014762058489541 0 0)
(0.1639603467404924 0 0)
(0.1087072697305204 0 0)
(0.04810227948092904 0 0)
(0.02708024553770942 0 0)
(0.03762758134147814 0 0)
(0.06408809730786891 0 0)
(0.07463937459578093 0 0)
(0.06128702001123077 0 0)
(0.02983129922475498 0 0)
(-0.01103208536183301 0 0)
(-0.01922096179124084 0 0)
(0.01602894366940215 0 0)
(0.09470083337589834 0 0)
(0.2092975465868943 0 0)
(0.3862288847314256 0 0)
(0.5657651263877882 0 0)
(0.6092910680511281 0 0)
(0.5628053312308221 0 0)
(0.4641484857960212 0 0)
(0.3328408317014542 0 0)
(0.2102437032263546 0 0)
(0.1144646023669345 0 0)
(0.1050991023095236 0 0)
(0.1413822080914394 0 0)
(0.1977031773487988 0 0)
(0.2638892588373012 0 0)
(0.3167211476925405 0 0)
(0.323201114449686 0 0)
(0.2969540242627405 0 0)
(0.2639377471502401 0 0)
(0.2459705241331333 0 0)
(0.2598098376934239 0 0)
(0.2898493223627031 0 0)
(0.3100024734798523 0 0)
(0.2965924467444219 0 0)
(0.2432590591035718 0 0)
(0.1486701802631405 0 0)
(-0.00333405018568452 0 0)
(-0.1846371822795539 0 0)
(-0.2447870129097668 0 0)
(-0.2046900505818998 0 0)
(-0.1225103041383572 0 0)
(-0.005453581637437794 0 0)
(0.1091637677064368 0 0)
(0.2156048187350648 0 0)
(0.242236992013086 0 0)
(0.2183107260614159 0 0)
(0.1765363838634372 0 0)
(0.1183896999889608 0 0)
(0.08606952382776281 0 0)
(0.0859650582741369 0 0)
(0.1105979777099051 0 0)
(0.1429970964151831 0 0)
(0.1639202811955235 0 0)
(0.1606985599312859 0 0)
(0.1319748152229238 0 0)
(0.09695666396317194 0 0)
(0.08371563718868028 0 0)
(0.1090399026539136 0 0)
(0.1828269221061881 0 0)
(0.3005002733052874 0 0)
(0.4969570097740906 0 0)
(0.6334423995526072 0 0)
)
;

boundaryField
{
    inlet
    {
        type            zeroGradient;
    }
    outlet
    {
        type            pressureInletOutletVelocity;
        value           uniform (0.6334423995526072 0 0);
    }
    frontAndBack
    {
        type            empty;
    }
}


// ************************************************************************* //
