/*--------------------------------*- C++ -*----------------------------------*\
| =========                 |                                                 |
| \\      /  F ield         | OpenFOAM: The Open Source CFD Toolbox           |
|  \\    /   O peration     | Version:  v2012                                 |
|   \\  /    A nd           | Website:  www.openfoam.com                      |
|    \\/     M anipulation  |                                                 |
\*---------------------------------------------------------------------------*/
FoamFile
{
    version     2.0;
    format      ascii;
    class       volScalarField;
    location    "0.012";
    object      p;
}
// * * * * * * * * * * * * * * * * * * * * * * * * * * * * * * * * * * * * * //

dimensions      [1 -1 -2 0 0 0 0];


internalField   nonuniform List<scalar> 
1000
(
101310.9466789561
101313.5925243362
101306.8433464804
101301.5317065357
101295.6846726135
101290.446162364
101285.9435983621
101282.0934008375
101278.7905107307
101276.5641237344
101275.9195871734
101275.9406590124
101276.320860672
101277.3500716179
101279.3333378647
101282.3375093453
101286.2528599887
101290.9059125573
101296.1498672734
101301.8812334487
101308.0156307966
101314.4628575767
101321.1164350849
101327.8543109422
101334.5441251883
101341.05155529
101347.2566228187
101353.0826502677
101358.522042784
101363.5973006648
101368.1608789067
101371.5610255678
101373.0223530537
101373.1857569591
101373.1307887191
101372.8584210231
101372.1184908948
101370.6613459683
101368.2831760166
101364.8902261713
101360.5242217091
101355.3380790883
101349.5341767174
101343.3027298339
101336.7920456761
101330.1146760479
101323.3704070815
101316.6637283456
101310.102615838
101303.7765673929
101297.7273994154
101291.9517535784
101286.5023010995
101281.7507334868
101278.586107641
101277.5039077412
101277.4287497951
101277.4774547878
101277.731184366
101278.3730930907
101279.621436882
101281.6709160054
101284.6576941124
101288.6240787146
101293.5065521302
101299.1514707576
101305.3544445395
101311.907182016
101318.6315658318
101325.3902438022
101332.0809412056
101338.6319191187
101345.006434008
101351.2021591354
101357.2145324846
101362.9184764082
101367.8253508681
101370.983046433
101372.0170443366
101372.0909081928
101372.0377082653
101371.8322040299
101371.2881589301
101370.2278466235
101368.46598762
101365.8510109016
101362.2925324218
101357.7848989163
101352.4132283606
101346.3389498543
101339.7697449938
101332.9227047878
101325.9893766291
101319.1109481408
101312.3692715377
101305.7927836817
101299.3755249873
101293.1288157095
101287.2251976155
101282.2665007154
101279.2670386447
101278.3943001361
101278.3497795584
101278.3871788329
101278.5938630813
101279.098427996
101280.0760414983
101281.692937762
101284.094996275
101287.3821254901
101291.5884373152
101296.6692732824
101302.5021889487
101308.9054979813
101315.6699254472
101322.5932746356
101329.510510475
101336.3158202075
101342.970197646
101349.4811158767
101355.8361087921
101361.8595288477
101366.9716431109
101370.175846188
101371.2005604057
101371.2786215997
101371.2365560046
101371.0786952016
101370.6525114255
101369.813947083
101368.4030061435
101366.2729183353
101363.3074539482
101359.4417517903
101354.6775710313
101349.0896280149
101342.8206773046
101336.0629207952
101329.0256768803
101321.8970910939
101314.8139169786
101307.8506544011
101301.0354002319
101294.4125283064
101288.2019449722
101283.0624147456
101280.013180534
101279.1358205558
101279.086258282
101279.1136456334
101279.2775247557
101279.6847737922
101280.4829779017
101281.8165615618
101283.8224177445
101286.6119819523
101290.2552467327
101294.7654592833
101300.0902309609
101306.114016855
101312.6725341694
101319.5762287721
101326.6402236265
101333.7162594047
101340.7139838496
101347.5919889777
101354.2977421528
101360.6262777397
101365.9819289224
101369.3666611808
101370.4929537369
101370.593292201
101370.56257649
101370.4444081758
101370.108034448
101369.4306762195
101368.2707316589
101366.4919683232
101363.9747600257
101360.6319698361
101356.4227788107
101351.3632136622
101345.5311357986
101339.0614177375
101332.1275683338
101324.9125977884
101317.5788670255
101310.2481326734
101303.0049408194
101295.9511817915
101289.3628708028
101283.9455132605
101280.7311412927
101279.7795025127
101279.7144236417
101279.735017517
101279.8658323336
101280.1980387331
101280.8597257158
101281.9791898625
101283.6835939498
101286.0851115864
101289.2684042178
101293.2772078251
101298.1040710777
101303.6869243044
101309.913543268
101316.6337386034
101323.6802675801
101330.8967179066
101338.1611670641
101345.3859832774
101352.4704184171
101359.1715249148
101364.8735061056
101368.5573026193
101369.8609558554
101369.9999707495
101369.97838228
101369.8890750396
101369.6204671326
101369.0659558002
101368.099457809
101366.595334547
101364.4361408199
101361.5252522194
101357.7985143273
101353.2348210523
101347.8641508223
101341.7691593604
101335.0763368466
101327.9376435935
101320.508420799
101312.9288217496
101305.3215484524
101297.8376300124
101290.8054681636
101284.9821824376
101281.4595814932
101280.3601637526
101280.2690343399
101280.2823459015
101280.3848141343
101280.6555492947
101281.2089083142
101282.1596980629
101283.6249722847
101285.7131260001
101288.5143644364
101292.0894995442
101296.4602244931
101301.6035106027
101307.4509365
101313.893708916
101320.7957812894
101328.0148109989
101335.4220975428
101342.9049360522
101350.32919502
101357.4244914502
101363.5610066381
101367.6776231839
101369.2614247454
101369.467124206
101369.4535230663
101369.3889433401
101369.175704284
101368.7201614758
101367.9083921156
101366.6251105304
101364.7582080144
101362.2085256353
101358.899204625
101354.785243234
101349.8621083016
101344.1702145887
101337.792037565
101330.8420042818
101323.4522336134
101315.7584995516
101307.8984431985
101300.0520040325
101292.5798691978
101286.2682564695
101282.282001439
101280.9221162889
101280.7779144518
101280.7910759154
101280.870169884
101281.0864168104
101281.5422866396
101282.3434577093
101283.600609209
101285.4203744079
101287.8969493146
101291.1021455747
101295.0764386462
101299.8226027708
101305.3027356133
101311.4399662067
101318.1270059285
101325.2411729957
101332.6589531526
101340.262099845
101347.9066281146
101355.3232414918
101361.9007250375
101366.5165967603
101368.5229023335
101368.8863075664
101368.930957554
101368.9196108724
101368.8005096369
101368.4747410136
101367.8332813758
101366.7594280671
101365.1397029545
101362.874173865
101359.8841578893
101356.11814463
101351.5569138709
101346.2174089163
101340.1538431367
101333.4524033825
101326.2191089328
101318.5673710878
101310.6185116751
101302.555213489
101294.7399704141
101287.9524629485
101283.3123297449
101281.4189063607
101281.0636968581
101280.9159225969
101280.8623074432
101280.949548582
101281.246178811
101281.8755927885
101282.9497015997
101284.5749298314
101286.8455246458
101289.8332352151
101293.580160486
101298.0955635664
101303.3552656225
101309.3033287712
101315.8573012464
101322.9176516731
101330.3761625067
101338.1163320079
101345.9975857584
101353.7540287081
101360.7449950212
101365.9683614229
101368.710324075
101369.449221657
101369.5697845719
101369.6202920009
101369.5336296852
101369.2597509692
101368.7014184093
101367.7586876036
101366.3202554596
101364.2763155825
101361.5359155802
101358.0361636744
101353.7445401467
101348.6596550045
101342.8116117784
101336.2591352066
101329.083234414
101321.3858929026
101313.299604829
101305.0102044695
101296.8604393482
101289.5923965713
101284.3147290674
101281.6966839427
101281.0221524683
101280.8971216972
101280.8598098158
101280.963918482
101281.2617507811
101281.8402546324
101282.7916576891
101284.2198651127
101286.2271091677
101288.8983066345
101292.2923411289
101296.4385545238
101301.3350228623
101306.948773275
101313.2198156593
101320.0689477973
101327.4023347577
101335.1044460009
101343.0223561523
101350.9150724167
101358.2603855931
101364.1162691659
101367.6090520742
101368.8001120504
101368.9724442099
101369.0373514845
101368.9817514413
101368.7600402752
101368.2848147572
101367.4715559483
101366.2235389967
101364.4362527997
101362.0127319848
101358.874758052
101354.9683364537
101350.2676409646
101344.7781077059
101338.5360941131
101331.6046762555
101324.0730259468
101316.0669784689
101307.7668901849
101299.4651561107
101291.7761204821
101285.785234479
101282.4053307433
101281.3307735356
101281.1832179858
101281.1345856743
101281.2165707191
101281.4729538291
101281.9834961875
101282.828984428
101284.1022124607
101285.8981969288
101288.3015091467
101291.3796786071
101295.1794643582
101299.7220027876
101304.9985417609
101310.9702323814
101317.5731389841
101324.7233978241
101332.312559824
101340.1944366217
101348.1582362442
101355.7911640536
101362.2381847423
101366.4906727047
101368.272773303
101368.5813621583
101368.6421369052
101368.6119829107
101368.4394815134
101368.0411912303
101367.3407284305
101366.2496661136
101364.6693935164
101362.5050509704
101359.6750529626
101356.1146777841
101351.7798280243
101346.6525438245
101340.745312091
101334.1013497565
101326.7939651632
101318.9348593785
101310.6900231753
101302.312896019
101294.2993442471
101287.6403556159
101283.4468917881
101281.8203566275
101281.5557741934
101281.5099129435
101281.568254926
101281.7798459543
101282.2202501748
101282.9622583704
101284.0916436056
101285.6993355026
101287.8685577906
101290.6690568443
101294.1553191836
101298.3627948719
101303.3022591143
101308.9559547612
101315.2783411095
101322.1996203726
101329.623037563
101337.4142548396
101345.3849385865
101353.2077954267
101360.1646274497
101365.1765911806
101367.6645872547
101368.2573473136
101368.3066878337
101368.297393212
101368.1666338377
101367.8365022299
101367.2363226778
101366.2856209931
101364.8905194143
101362.9565236892
101360.3995448764
101357.1496831932
101353.1532289883
101348.3768902021
101342.8135062634
101336.4858282108
101329.447866838
101321.7919911153
101313.6639219278
101305.2852620915
101297.0547632719
101289.8150444911
101284.7901533674
101282.4827670239
101281.975107593
101281.9304084528
101281.966472205
101282.1354941712
101282.5083073304
101283.1523239489
101284.1472818426
101285.5816833408
101287.5387067834
101290.0892727606
101293.2913834515
101297.1884438648
101301.8043985354
101307.1384500448
101313.1625869915
101319.8228290583
101327.0382729837
101334.6912500942
101342.6122204737
101350.5334566172
101357.8917808772
101363.6338414871
101366.8946140849
101367.9254716978
101368.0098054184
101368.0128821542
101367.9121227663
101367.6429463316
101367.134551468
101366.3128063128
101365.086791342
101363.3621585287
101361.0535001828
101358.0880749196
101354.4061302549
101349.9640170106
101344.7399997902
101338.7396766765
101331.9990366969
101324.589644901
101316.6338424206
101308.3259429001
101299.9901168003
101292.2989652293
101286.4572953979
101283.3494952423
101282.4332708353
101282.3595625512
101282.380180459
101282.5157325917
101282.8320438057
101283.3907180452
101284.2652868503
101285.5420670031
101287.3048985917
101289.6261134128
101292.5661329382
101296.1735857833
101300.481577523
101305.5021252948
101311.2220753269
101317.6026709342
101324.5793762858
101332.0520484752
101339.8702770211
101347.8102954552
101355.4399948632
101361.8319330034
101365.9019819583
101367.5275973841
101367.7705158006
101367.7534461865
101367.6775726901
101367.4568054613
101367.0250317415
101366.3147538689
101365.2407241379
101363.7096119789
101361.6335058466
101358.9353514251
101355.5499179318
101351.4262721879
101346.5324185655
101340.860602476
101334.4311647318
101327.2966681119
101319.5562406771
101311.3758917248
101303.021899714
101295.0200267983
101288.444687264
101284.4702996643
101282.9972734206
101282.7939158301
101282.81839634
101282.9218998891
101283.1881396413
101283.671034343
101284.4376508718
101285.5705323884
101287.1540779258
101289.2625175468
101291.9584732149
101295.2940909654
101299.3086891821
101304.0238697452
101309.4389892262
101315.529033562
101322.2438023427
101329.5008954462
101337.1721294686
101345.0662061374
101352.8453899505
101359.7677202659
101364.6631435354
101367.0160774162
101367.5329878114
101367.5296935246
101367.4674939843
101367.281576712
101366.9146938722
101366.3003114738
101365.3603472785
101364.0029046873
101362.138180112
101359.6865867763
101356.5793260024
101352.759500739
101348.1863253461
101342.8405032752
101336.7288258934
101329.8880465973
101322.3950591472
101314.3879320372
101306.0930647984
101297.9240458515
101290.7534471834
101285.8726412649
101283.706798039
101283.2494298425
101283.2592553607
101283.3387070962
101283.5642495495
101283.9840504453
101284.6577296853
101285.6617730777
101287.0806537802
101288.9911810501
101291.4584013095
101294.5372824841
101298.2719945688
101302.6918414092
101307.8065104411
101313.6027299272
101320.0432792875
101327.0633760716
101334.5554284638
101342.3506863963
101350.1785910936
101357.4811219979
101363.1592279107
101366.3008677037
101367.2723789423
101367.3508202688
101367.2836401488
101367.1273694632
101366.8103163351
101366.2748907037
101365.4500016408
101364.2472138278
101362.576586562
101360.3561074613
101357.5127162013
101353.9835788164
101349.7206267623
101344.6954839069
101338.9037321488
101332.3684210968
101325.1467808256
101317.3507785051
101309.1735197405
101300.9420595962
101293.3306184988
101287.5886858586
101284.623372903
101283.754608794
101283.6991524118
101283.7708518704
101283.9536717614
101284.3183605367
101284.9109479649
101285.8008095339
101287.071055321
101288.8001187431
101291.0550878705
101293.8933834475
101297.3630613573
101301.4994062318
101306.3204038908
101311.8231451079
101317.9822520674
101324.7472682314
101332.0298804148
101339.6861904535
101347.4944997259
101355.0285960789
101361.3660954849
101365.3538507644
101366.949727362
101367.1743419876
101367.1192179896
101366.987644492
101366.7112146619
101366.2395739762
101365.5114089774
101364.4457595326
101362.9522251463
101360.9460186308
101358.3511322526
101355.1004642033
101351.1393261913
101346.4306635532
101340.9596022372
101334.7369081246
101327.8037400136
101320.2479403872
101312.2309871261
101304.0209525739
101296.1394794187
101289.6505690448
101285.7747559039
101284.3453933446
101284.1374182725
101284.1990504495
101284.3463180767
101284.6638636497
101285.1885781261
101285.9804460638
101287.1173932281
101288.6793361049
101290.7365674797
101293.3494942386
101296.5693022638
101300.4353603215
101304.9716372496
101310.18362625
101316.0559730813
101322.550637348
101329.5992199665
101337.0833794057
101344.8114782172
101352.4493690023
101359.2943075343
101364.1552210019
101366.4640600511
101367.0037947483
101366.9999795231
101366.8785338514
101366.6335541074
101366.2137028461
101365.5650170425
101364.6154574844
101363.2778442141
101361.4666172495
101359.103063579
101356.1152080427
101352.4416457502
101348.0379925125
101342.8813010223
101336.9727591645
101330.3409017259
101323.0516838928
101315.2346994986
101307.1165808181
101299.1025391619
101292.0292434398
101287.2062466896
101285.095183509
101284.6147211855
101284.6246500415
101284.7500978745
101285.0249505217
101285.493847552
101286.2035268973
101287.2238534642
101288.6333379096
101290.5047535237
101292.9025242456
101295.8825460411
101299.4891938892
101303.7515979671
101308.6810683602
101314.2693229205
101320.4877963314
101327.2836209132
101334.5615524825
101342.1604031395
101349.8168372948
101356.9983411812
101362.6492658768
101365.7691902221
101366.8100985096
101366.8973246324
101366.794489878
101366.5862866097
101366.2047304281
101365.6139777255
101364.7566541509
101363.553533674
101361.919272423
101359.7718432859
101357.0342194536
101353.6382163915
101349.5313559006
101344.682573187
101339.0853149643
101332.7589154689
101325.75292771
101318.1692603377
101310.1961821283
101302.1551459369
101294.689221074
101288.9953657549
101286.0504305926
101285.1435926988
101285.0476836596
101285.1546047402
101285.3821186999
101285.8066287042
101286.4532290737
101287.3793922288
101288.6570009646
101290.3579878292
101292.550325045
101295.297243016
101298.6516910422
101302.6498254257
101307.3080749779
101312.6226533458
101318.5697763449
101325.1052498082
101332.1538650724
101339.5850552736
101347.1827338736
101354.5389248132
101360.8122550359
101364.8457014846
101366.4755730888
101366.7899326466
101366.7421638164
101366.5644799406
101366.2198449653
101365.674105747
101364.8843629941
101363.7858119745
101362.3020005142
101360.3534384669
101357.8584960574
101354.7380802961
101350.9264368907
101346.3812884217
101341.0881180829
101335.0605333986
101328.3408446295
101321.0113610415
101313.2242784555
101305.2398457665
101297.552389769
101291.1502818968
101287.243903025
101285.7914365987
101285.5115961675
101285.5358649142
101285.7224057843
101286.0975760981
101286.6928976425
101287.5504893654
101288.7286466422
101290.2895143805
101292.2964262578
101294.8162010976
101297.9141337973
101301.6421713644
101306.0292522963
101311.0784487037
101316.7681389431
101323.0548974554
101329.8716039034
101337.1084370873
101344.5872561341
101352.0023016287
101358.7086239739
101363.595366154
101365.9631875327
101366.629670387
101366.6978115653
101366.5750297111
101366.2904536859
101365.7873631122
101365.0427176482
101364.0117873865
101362.6356284828
101360.8465980974
101358.5684365445
101355.7175658282
101352.2119475863
101347.9855458579
101343.0025897577
101337.2661806234
101330.8177601758
101323.7347018113
101316.1500916776
101308.2837864365
101300.5099918073
101293.6015642959
101288.788993408
101286.6196826286
101286.0620982512
101285.972832848
101286.0786398719
101286.3714582143
101286.9026243173
101287.7051947597
101288.819981387
101290.2891647748
101292.1568198691
101294.4775622776
101297.3200291857
101300.7566897547
101304.8450552623
101309.6113068718
101315.0438531556
101321.0971771398
101327.70084537
101334.752936131
101342.0955895281
101349.4853019247
101356.440953731
101362.0014145709
101365.2302615807
101366.3567617269
101366.5482287205
101366.5508364095
101366.3714758433
101365.9652603428
101365.2862444235
101364.2971917086
101362.9651531944
101361.258334889
101359.1333048269
101356.5218879974
101353.3321813419
101349.4659178325
101344.8438229841
101339.4295879287
101333.2485511091
101326.3864281972
101318.983437062
101311.2476124181
101303.4758145403
101296.2442772181
101290.6690054662
101287.6449442344
101286.6796089329
101286.5309552773
101286.539804072
101286.7158908957
101287.1109226731
101287.7852362048
101288.8042359085
101290.2183121699
101292.0497663493
101294.3021538159
101296.9838391782
101300.1300345524
101303.818090949
101308.1652802052
101313.2793813068
101319.167805841
101325.6656609607
101332.6009248922
101339.5780284786
101347.6046166839
)
;

boundaryField
{
    inlet
    {
        type            uniformFixedValue;
        uniformValue    sine;
        uniformValueCoeffs
        {
            frequency       constant 3000;
            scale           constant 50;
            level           constant 101325;
        }
        value           uniform 101323.6421297957;
    }
    outlet
    {
        type            pressureOutletNSCBC;
        pInf            101325;
        gamma           1.4;
        etaAc           1;
        fieldInf        1;
        lInf            2.25;
        value           uniform 101351.3156475941;
    }
    frontAndBack
    {
        type            empty;
    }
}


// ************************************************************************* //
