/*--------------------------------*- C++ -*----------------------------------*\
| =========                 |                                                 |
| \\      /  F ield         | OpenFOAM: The Open Source CFD Toolbox           |
|  \\    /   O peration     | Version:  v2012                                 |
|   \\  /    A nd           | Website:  www.openfoam.com                      |
|    \\/     M anipulation  |                                                 |
\*---------------------------------------------------------------------------*/
FoamFile
{
    version     2.0;
    format      ascii;
    class       volScalarField;
    location    "0.012";
    object      pMean;
}
// * * * * * * * * * * * * * * * * * * * * * * * * * * * * * * * * * * * * * //

dimensions      [1 -1 -2 0 0 0 0];


internalField   nonuniform List<scalar> 
1000
(
101325.0376082989
101325.003102967
101325.0149800616
101325.0262632666
101325.0417500934
101325.0604755287
101325.080713321
101325.1055393288
101325.1318943185
101325.160679613
101325.1902488795
101325.2196916151
101325.2490688198
101325.2779812895
101325.3060908137
101325.3327448039
101325.3573891768
101325.3795160462
101325.3986788417
101325.4146325154
101325.4270022561
101325.435662639
101325.4403600501
101325.441084778
101325.4377434006
101325.4304649088
101325.4193242206
101325.4045909852
101325.3864281708
101325.3651137551
101325.3408226422
101325.3140341749
101325.2856293519
101325.256758892
101325.2278608143
101325.1990708311
101325.1705510991
101325.1426644678
101325.1158651084
101325.090747455
101325.0678880049
101325.0478530895
101325.0310619283
101325.0178619338
101325.0084502681
101325.0029897988
101325.0015401033
101325.0041375089
101325.0107145839
101325.0211788601
101325.0353586435
101325.0531128904
101325.0742602846
101325.0985601491
101325.1253808555
101325.1535968396
101325.1821337072
101325.2106713978
101325.2391085592
101325.2673167498
101325.294968027
101325.321695594
101325.3469411277
101325.3701838409
101325.3907993684
101325.4083296784
101325.4223152857
101325.4325260897
101325.4387417502
101325.4409447163
101325.4390842947
101325.4332745633
101325.4235513472
101325.4100780029
101325.3929009669
101325.3722044906
101325.3482002781
101325.3216426588
101325.2936981071
101325.2654770453
101325.2372326669
101325.2090800278
101325.1811243658
101325.1536324241
101325.1269362835
101325.1015150645
101325.0778794202
101325.0566187497
101325.038257269
101325.0232985259
101325.0120867076
101325.0048911211
101325.0018066438
101325.0028779379
101325.0080255371
101325.0171870984
101325.0302406292
101325.0471263156
101325.0676884002
101325.0916320615
101325.1181121221
101325.1458592967
101325.1738426801
101325.2018364411
101325.2297324004
101325.2574675972
101325.2847456706
101325.3113167662
101325.3366918558
101325.3604463396
101325.381968971
101325.4007938344
101325.4163511242
101325.4283116363
101325.4363051902
101325.4402468671
101325.4399995378
101325.4356779004
101325.4272712536
101325.4149498028
101325.398716594
101325.37876902
101325.3553386146
101325.3292804308
101325.3018219486
101325.2740936662
101325.2463292144
101325.2186503706
101325.1911094239
101325.1639490009
101325.1374058741
101325.111909012
101325.0878664055
101325.0658462991
101325.0463361127
101325.0299065205
101325.0169683706
101325.0079283468
101325.0029845845
101325.0023029154
101325.005860339
101325.0136543703
101325.0255659423
101325.0415530449
101325.0614167201
101325.0848282487
101325.1108384649
101325.1381443384
101325.1656781716
101325.1932374266
101325.2207048517
101325.2480560736
101325.2750228249
101325.3014240772
101325.326818593
101325.3508628035
101325.3729830928
101325.3927508127
101325.4095731819
101325.4230747715
101325.4327900302
101325.438533732
101325.4400554525
101325.4373884754
101325.4304515608
101325.4193949859
101325.4042030595
101325.3851060131
101325.3623488786
101325.3368453884
101325.309839927
101325.282532644
101325.2551712628
101325.2278902567
101325.2007034184
101325.1738320434
101325.1474545283
101325.1219524436
101325.0976662018
101325.0751183574
101325.0547548285
101325.037151545
101325.0227379773
101325.0120060507
101325.0052336095
101325.0027184025
101325.004523839
101325.0107570095
101325.0213318331
101325.0362498959
101325.0552804715
101325.0780698223
101325.1035905442
101325.1304886201
101325.1576370781
101325.1848231804
101325.2119238556
101325.2389436487
101325.2656345385
101325.2918652872
101325.3172343706
101325.3414585514
101325.3640051504
101325.3844898635
101325.4023236157
101325.4171279143
101325.4283775343
101325.4358245958
101325.4391128637
101325.4381872739
101325.4328719323
101325.4232615374
101325.4092963151
101325.3912051407
101325.3692345834
101325.3443244967
101325.317754313
101325.290813027
101325.263803364
101325.2368670875
101325.2099945626
101325.1833865383
101325.1571789682
101325.1317137251
101325.1072754444
101325.0843474413
101325.0633276651
101325.0447804396
101325.0291288143
101325.0169088621
101325.0084510131
101325.0041513207
101325.0041643633
101325.0087043243
101325.0177607379
101325.0313971359
101325.0494048953
101325.0714307329
101325.0964094511
101325.122915313
101325.1497250303
101325.1765805387
101325.2033610434
101325.2300849189
101325.2565279489
101325.2825914844
101325.3079101772
101325.3322485805
101325.3551114544
101325.3761563313
101325.3948137588
101325.4107124386
101325.4233048003
101325.4322972353
101325.4372649063
101325.4380683406
101325.4344463721
101325.4264152872
101325.413854922
101325.3969527755
101325.3759260969
101325.3516987604
101325.3255774435
101325.298973563
101325.2722788243
101325.2456540543
101325.2190647266
101325.1927024113
101325.1666605894
101325.1412592828
101325.1167288414
101325.0935226914
101325.0719895425
101325.0526758115
101325.0359852492
101325.0224725408
101325.0124998039
101325.0065286391
101325.004790558
101325.0075939174
101325.0150125604
101325.0271879933
101325.0439699262
101325.0650433863
101325.0893645444
101325.1154576558
101325.1419563288
101325.1685193761
101325.1950162347
101325.2214746812
101325.2476898623
101325.2735859383
101325.2988299998
101325.3232211051
101325.3463087504
101325.3677833279
101325.3871092256
101325.4039328477
101325.4177070412
101325.4281064958
101325.4346638467
101325.4371628034
101325.4352648725
101325.4288920854
101325.4178610592
101325.4023072659
101325.38236313
101325.3588917834
101325.3332448801
101325.3068955853
101325.2804548181
101325.2540829885
101325.2277782784
101325.2016799254
101325.1758765188
101325.1506511537
101325.1261595539
101325.1028358813
101325.0809735573
101325.0610878269
101325.0434896151
101325.0288351879
101325.0174675302
101325.0099020774
101325.0064140961
101325.007473969
101325.0131913021
101325.0237556699
101325.0391327667
101325.0590820018
101325.0825261853
101325.1081270101
101325.1342475697
101325.1603911065
101325.1864056052
101325.2123471457
101325.2380232102
101325.2633552021
101325.2880947728
101325.3121248997
101325.3350047112
101325.3564990376
101325.3762209696
101325.39365613
101325.4083844393
101325.4200682732
101325.4281808989
101325.4324522154
101325.4324730694
101325.4281000332
101325.4190782178
101325.4053983861
101325.3872841726
101325.3654282624
101325.340997076
101325.315602121
101325.2899792609
101325.264461421
101325.2389233588
101325.2137021491
101325.1887196037
101325.1642289952
101325.1403869794
101325.117532672
101325.0959022429
101325.0760180789
101325.0581544737
101325.0428656932
101325.0306075979
101325.0218104829
101325.016931253
101325.0163194503
101325.0202791954
101325.0290833051
101325.0426612716
101325.0609879659
101325.0831518105
101325.1077755348
101325.1334068398
101325.1591565678
101325.1848092843
101325.2103778679
101325.2357399545
101325.260772121
101325.2852794615
101325.3091247737
101325.3320023095
101325.353601842
101325.3735494563
101325.391529852
101325.406930969
101325.4195343726
101325.4287300348
101325.4343416253
101325.435744146
101325.4328752169
101325.425383494
101325.4132156026
101325.3964433062
101325.3757168424
101325.35195949
101325.3268146224
101325.3012832677
101325.2758032555
101325.2503397798
101325.225068251
101325.2000991765
101325.1755681397
101325.1516072909
101325.128590133
101325.1066659881
101325.08626376
101325.0677924286
101325.0516218569
101325.0382523755
101325.0282074891
101325.0217901871
101325.0195644715
101325.0218013737
101325.0288166493
101325.0406799231
101325.0573353904
101325.0782185377
101325.1020342002
101325.1272212682
101325.1527381406
101325.178165292
101325.2035193339
101325.2286676263
101325.2535981105
101325.2780156001
101325.3018203379
101325.3247475398
101325.3465383111
101325.3667808532
101325.3852611741
101325.4013964687
101325.4148724431
101325.4252277665
101325.4320755515
101325.4350023381
101325.4336957701
101325.4278549909
101325.4174121968
101325.4021998823
101325.3828078746
101325.3600785075
101325.3354034905
101325.310113374
101325.2848112421
101325.2595246893
101325.2343228669
101325.2094763544
101325.1849801978
101325.1610145149
101325.137870621
101325.1158006097
101325.0950707477
101325.0760696952
101325.0592685858
101325.0449866367
101325.0338474199
101325.0261303315
101325.0224598842
101325.0230412288
101325.0283588378
101325.0385077833
101325.0535224831
101325.0729843743
101325.0959121014
101325.1205921536
101325.1458848416
101325.1711532583
101325.1963547637
101325.2213323163
101325.2461966281
101325.2705861059
101325.2944215184
101325.3174134517
101325.33943094
101325.3599969615
101325.3788777938
101325.3957005262
101325.4099993826
101325.4213864328
101325.4294602228
101325.4338220906
101325.4340334577
101325.4298716268
101325.4211343752
101325.4076757224
101325.3897330379
101325.3681713348
101325.3441978864
101325.3192242618
101325.2941572715
101325.2690999374
101325.2440296918
101325.2192763386
101325.1948969101
101325.1709542627
101325.1477423218
101325.1255165171
101325.1045760001
101325.0851348199
101325.0677977778
101325.0527761901
101325.0406504156
101325.0318324372
101325.0267471323
101325.0258402408
101325.0295149397
101325.0379511843
101325.0513320823
101325.0692697881
101325.0911123154
101325.1152467827
101325.1402539084
101325.1653511163
101325.190440038
101325.2152600226
101325.2400393059
101325.264442807
101325.2882963076
101325.3114033348
101325.3335770149
101325.3545153284
101325.3737719103
101325.3911906423
101325.406267416
101325.4185778888
101325.4277931176
101325.4334596754
101325.4351976843
101325.4326321701
101325.4256027165
101325.413898979
101325.397601353
101325.3772614624
101325.3542585962
101325.3296642272
101325.3048574826
101325.2800728318
101325.2552451145
101325.2305845131
101325.2063398539
101325.1824434634
101325.1592236654
101325.1368405656
101325.1157461941
101325.0959675546
101325.0781269872
101325.062480978
101325.0495104119
101325.0396506844
101325.0333800135
101325.0310655898
101325.0331406978
101325.0399301869
101325.0516074082
101325.068034303
101325.0885551395
101325.1120384986
101325.1366180851
101325.1615928661
101325.1865590821
101325.2113424468
101325.2358981538
101325.2603407583
101325.284259231
101325.3074876052
101325.3298310191
101325.3510579438
101325.3707918852
101325.3886316298
101325.4044990915
101325.417662471
101325.4279064949
101325.4348220204
101325.4379505413
101325.4369435299
101325.431596798
101325.4216251936
101325.4070902168
101325.3881494459
101325.3661668558
101325.3422111955
101325.3176869044
101325.2931588344
101325.2686917049
101325.2440579295
101325.2199869239
101325.1962178666
101325.1730002993
101325.1505405973
101325.1292111293
101325.1092958562
101325.090856672
101325.0748125487
101325.0610526492
101325.0502273915
101325.0428974026
101325.039199502
101325.0398686388
101325.045021312
101325.0550353573
101325.0698484317
101325.089054121
101325.1115303499
101325.1358745807
101325.1604461823
101325.185355097
101325.2100906846
101325.234494517
101325.2589313309
101325.2829226501
101325.3062317107
101325.3287786564
101325.3502180728
101325.3704574654
101325.3886806456
101325.4052919217
101325.419236075
101325.4304504084
101325.4384658926
101325.4429975605
101325.4434700593
101325.4397181855
101325.4314737354
101325.4186644762
101325.4013895711
101325.3804191446
101325.3574094746
101325.3331137659
101325.308933725
101325.2847111227
101325.2603752031
101325.2363726804
101325.2127406828
101325.1895394949
101325.1670601331
101325.1455387799
101325.1254011491
101325.1066362951
101325.0900297986
101325.0756712628
101325.0640122022
101325.0555735855
101325.0508375933
101325.0500094313
101325.0536369536
101325.0620336536
101325.0751880847
101325.0930006164
101325.1143368931
101325.1381537901
101325.1625484011
101325.187175388
101325.2118332519
101325.236318061
101325.2604491537
101325.2845609211
101325.3079977373
101325.3307246841
101325.3524208484
101325.3729738291
101325.3918522379
101325.4088407479
101325.4236710727
101325.4357970726
101325.4448486224
101325.4507078901
101325.4524828128
101325.4503618547
101325.4437864746
101325.4327104208
101325.4171367855
101325.3975217757
101325.375291089
101325.3516834014
101325.3275876205
101325.3037658524
101325.2798314192
101325.255753246
101325.2323647873
101325.2092814927
101325.186764572
101325.1651527836
101325.1447006943
101325.1258625707
101325.1084658321
101325.0937250937
101325.0813126002
101325.071912262
101325.0660989116
101325.0639236527
101325.0661860552
101325.0729317948
101325.0844943616
101325.1007356357
101325.1209886405
101325.1439376711
101325.1681826661
101325.1925329163
101325.2171154685
101325.241559516
101325.2655301536
101325.2897246039
101325.3132567469
101325.3361000734
101325.3580723159
101325.3788839413
101325.3983719383
101325.4157274864
101325.4314191384
101325.4444012458
101325.4544792384
101325.461381691
101325.4646950076
101325.463975984
101325.4589850135
101325.4496497653
101325.4357592331
101325.4177334421
101325.3963683981
101325.3734974055
101325.3498421942
101325.3261245782
101325.3025863403
101325.2788203294
101325.2554534547
101325.2325351273
101325.2100411213
101325.1883796925
101325.167716516
101325.1486132102
101325.1308610571
101325.1155792572
101325.1025122795
101325.0922034785
101325.0852523063
101325.0821656159
101325.0828171258
101325.0881016222
101325.0980686555
101325.1127248618
101325.131708822
101325.1537581508
101325.1775750969
101325.2018884154
101325.22609154
101325.2506100212
101325.274681524
101325.2984701834
101325.3222480325
101325.3452582801
101325.3674606486
101325.38857577
101325.4084639905
101325.4264971997
101325.4427446202
101325.456507545
101325.4676008606
101325.4755575203
101325.4803149871
101325.480785052
101325.4775186341
101325.4697812974
101325.4576518952
101325.4412060341
101325.421128949
101325.3988510737
101325.3757434678
101325.3523118456
101325.3290286317
101325.3057565489
101325.2822230271
101325.2596370952
101325.237201145
101325.2154829196
101325.1947061498
101325.1752458087
101325.1574245035
101325.1412344341
101325.1276955097
101325.1167914721
101325.1087664614
101325.1045663071
101325.1039356578
101325.1078495383
101325.1161567881
101325.1293057295
101325.1468165234
101325.1680155683
101325.1911190158
101325.21526728
101325.2394642147
101325.2636051846
101325.2879286512
101325.3114411716
101325.3353869332
101325.3585219659
101325.3808893791
101325.402330334
101325.4225110897
101325.4412825162
101325.457805958
101325.4725810588
101325.4846536432
101325.4934963371
101325.4993695991
101325.5016110661
101325.4996065809
101325.4934937062
101325.483079565
101325.4682814191
101325.4496469991
101325.4281842049
101325.4055356093
101325.3826367127
101325.3594136839
101325.3366777553
101325.313432683
101325.2906627977
101325.2685117677
101325.2467712912
101325.2259258144
101325.2062035976
101325.1881195167
101325.1714825417
101325.1574681984
101325.1457593571
101325.1368823585
101325.1314606109
101325.1300556403
101325.1321581688
101325.1391527658
101325.1506694208
101325.1667575955
101325.1867807209
101325.2093796714
101325.2330161539
101325.2571908383
101325.2812091758
101325.3053539196
101325.3292786814
101325.3525014724
101325.3761347953
101325.3986889168
101325.4204140945
101325.4409583618
101325.4601950301
101325.4774321845
101325.492849354
101325.5056090983
101325.5158053088
101325.5225329057
101325.5262731929
101325.525560672
101325.521208172
101325.5122954162
101325.4992540144
101325.4820558698
101325.4618107161
101325.4395715709
101325.4170579427
101325.3944109074
101325.3715584902
101325.3492524775
101325.3260377333
101325.3043362531
101325.282646537
101325.2616584454
101325.2418046785
101325.2233235351
101325.2066079536
101325.1915861158
101325.1794229626
101325.170021095
101325.1632758564
101325.1606259445
101325.1619573764
101325.1671832635
101325.1771866395
101325.1917678336
101325.2104992526
101325.2324158137
101325.2556437378
101325.2795888096
101325.303674349
101325.3273936343
101325.3516622532
101325.3748656888
101325.398106427
101325.4211294184
101325.4430636069
101325.4640087717
101325.4836325697
101325.5016497581
101325.5173553917
101325.5312887274
101325.5423065187
101325.550169257
101325.5549150169
101325.5562300594
101325.5528168819
101325.5458047198
101325.5343049524
101325.5187385277
101325.4996530478
101325.478403103
101325.4559174581
101325.4336866187
101325.4113705705
101325.3889458218
101325.3670725473
101325.344093032
101325.3231205157
101325.3021813963
101325.2821059663
101325.2634229925
101325.2463023934
101325.2309243387
101325.2180638928
101325.2077318663
101325.200741379
101325.196317028
101325.1966018059
101325.2005530404
101325.2090992773
101325.2220846379
101325.2394777495
101325.2603471557
101325.2834360718
101325.306903933
101325.3308743718
101325.3548625644
101325.3783151192
101325.4026600685
101325.4248784959
101325.4484609104
101325.4707270357
101325.4917888355
101325.5119529821
101325.5304889832
101325.5470301371
101325.5612850513
101325.5733999789
101325.5825583206
101325.5880859342
101325.5906056233
101325.5894269077
101325.5834753164
101325.5738481188
101325.5598304524
101325.5421129871
101325.5216970714
101325.5000183206
101325.4776548889
101325.4556867476
101325.4338007536
101325.4116926216
101325.3906051737
101325.3676758542
101325.3475488471
101325.3275218965
101325.3085020305
101325.2911761638
101325.2752473519
101325.2616720113
101325.2508732058
101325.2428372133
101325.2382031391
101325.2364343946
101325.2396396041
101325.246130831
101325.2581242205
101325.2738868986
101325.2936661038
101325.3160089395
101325.3395835544
101325.3632409058
101325.3870814089
101325.4109747128
101325.4341422478
101325.4585850569
101325.4797718063
101325.5032602583
101325.5248878012
101325.5449002247
101325.5647242421
101325.5812734748
101325.5967108598
101325.6093967289
101325.6193369867
101325.6266202601
101325.6295744708
101325.6299587008
101325.6260457527
101325.620256932
)
;

boundaryField
{
    inlet
    {
        type            calculated;
        value           uniform 101324.9999999998;
    }
    outlet
    {
        type            calculated;
        value           uniform 101325.6116121532;
    }
    frontAndBack
    {
        type            empty;
    }
}


// ************************************************************************* //
