/*--------------------------------*- C++ -*----------------------------------*\
| =========                 |                                                 |
| \\      /  F ield         | OpenFOAM: The Open Source CFD Toolbox           |
|  \\    /   O peration     | Version:  v2012                                 |
|   \\  /    A nd           | Website:  www.openfoam.com                      |
|    \\/     M anipulation  |                                                 |
\*---------------------------------------------------------------------------*/
FoamFile
{
    version     2.0;
    format      ascii;
    class       volScalarField;
    location    "0.012";
    object      rho;
}
// * * * * * * * * * * * * * * * * * * * * * * * * * * * * * * * * * * * * * //

dimensions      [1 -3 0 0 0 0 0];


internalField   nonuniform List<scalar> 
1000
(
1.176300529470325
1.176324403862006
1.176270887394484
1.176227360914881
1.17617660381143
1.176130472719017
1.176091482291068
1.1760586713423
1.176030587589874
1.176011344571384
1.176005315422139
1.176004715984687
1.176007081978178
1.176015266082012
1.176031612080525
1.176056521920309
1.17608907061949
1.17612781853429
1.176171534024116
1.176219334090133
1.176270488370896
1.176324219315122
1.176379620975286
1.176435666860017
1.176491252993086
1.176545265425253
1.176596714042637
1.176644972034789
1.176689988641985
1.176731964202107
1.176769690549902
1.176797780296489
1.176809811105666
1.176811108890377
1.176810610470039
1.176808334401864
1.176802223241527
1.17679017668011
1.176770497507677
1.176742407566417
1.176706247516166
1.176663280036631
1.176615180139031
1.176563523931299
1.176509541615743
1.176454168131621
1.176398233327689
1.176342606371393
1.176288185267047
1.176235714386539
1.17618554207347
1.176137641324207
1.176092449039658
1.176053047219437
1.176026807682568
1.176017838503191
1.176017220144123
1.176017629670927
1.176019738518498
1.176025063065053
1.176035415441966
1.176052410720178
1.176077178027929
1.17611006838086
1.176150555197055
1.1761973643788
1.176248800922153
1.17630313744045
1.176358896764496
1.176414939781572
1.176470418282302
1.176524737308464
1.176577592131906
1.176628963449295
1.176678813471744
1.176726105257752
1.176766787724617
1.176792967490764
1.176801539930445
1.176802152096792
1.176801710784649
1.176800006824005
1.176795496243609
1.176786705430749
1.176772098188454
1.176750417761623
1.176720914603967
1.176683541593165
1.176639004154981
1.176588640433512
1.176534172133044
1.176477399084905
1.176419909446394
1.176362873911745
1.176306971244685
1.176252437320511
1.176199222797304
1.176147421622866
1.176098464723874
1.176057343155554
1.176032468901867
1.176025231325374
1.176024862112624
1.176025172252731
1.176026886264774
1.176031070588777
1.176039177869932
1.176052586639027
1.176072506579312
1.176099766075599
1.176134647801945
1.176176781154088
1.176225150460368
1.176278248822629
1.176334340655852
1.176391749186145
1.176449105902588
1.17650553344951
1.176560708462574
1.176614692975211
1.176667383697223
1.176717324406906
1.17675970874955
1.176786274378987
1.176794770097725
1.17679541728028
1.176795068513508
1.176793759709957
1.176790226293564
1.176783273897312
1.176771575991516
1.176753915660652
1.17672932913899
1.176697278483805
1.176657778036396
1.17661144699306
1.176559468674812
1.176503436447248
1.17644508570169
1.1763859763937
1.176327242453894
1.176269501678799
1.176212987119611
1.176158066824451
1.176106564516503
1.17606394343079
1.176038656469441
1.176031380577728
1.176030969552556
1.176031196661585
1.176032555690495
1.176035932974707
1.176042552416704
1.176053611691341
1.176070245981492
1.176093379302824
1.176123591928713
1.176160993494366
1.176205149294267
1.176255100888074
1.176309485719298
1.176366731757351
1.176425305863658
1.176483978640265
1.176542000924457
1.176599029427584
1.176654628651846
1.176707099304645
1.176751502939237
1.176779565380911
1.176788903284121
1.176789735161267
1.176789480489487
1.176788500762015
1.176785711935129
1.176780096058919
1.176770479114893
1.176755731574013
1.176734861542526
1.176707146433726
1.17667224761812
1.176630297721345
1.176581942021365
1.176528298504252
1.176470805566063
1.176410980479766
1.176350169408279
1.176289381923835
1.176229319118295
1.176170825970968
1.176116191499052
1.176071266575393
1.176044610202833
1.176036718332454
1.17603617862681
1.176036349394744
1.176037434216368
1.176040189168348
1.176045676472886
1.176054960063572
1.176069094446975
1.176089009785793
1.176115408035954
1.176148651708733
1.176188678781477
1.176234974271609
1.176286607293201
1.176342332183204
1.176400761946887
1.176460599492341
1.176520833804194
1.176580738268483
1.176639477581233
1.176695037520565
1.176742312742391
1.176772854773829
1.176783663165766
1.176784815703134
1.176784636702052
1.176783896251581
1.176781669252607
1.176777071871506
1.176769058755933
1.176756588220948
1.176738686477262
1.176714552310352
1.17668365365524
1.176645815303318
1.176601285547981
1.176550749423969
1.176495255432976
1.176436063320193
1.176374460948826
1.176311610341211
1.176248528904899
1.176186469039345
1.176128154148568
1.176079863124138
1.176050650722493
1.176041533350476
1.176040777609549
1.176040887983655
1.1760417377259
1.176043982896841
1.176048571839588
1.176056456623033
1.176068607930803
1.176085924608549
1.176109154613033
1.176138802096333
1.176175046755823
1.176217697383602
1.176266186330654
1.176319611178787
1.176376843563455
1.176436702984108
1.176498122142475
1.176560166453451
1.176621723756921
1.176680552311511
1.176731430482296
1.176765561092938
1.176778692183496
1.1767803975958
1.17678028481754
1.176779749378017
1.176777981430769
1.176774204578827
1.176767474292471
1.17675683472958
1.176741356360678
1.176720216981852
1.176692779228365
1.176658669806172
1.17661785089721
1.176570657318071
1.17651777261355
1.176460145275987
1.176398870544896
1.176335074043179
1.17626989696593
1.17620483136605
1.176142868308129
1.176090527941057
1.176057470627748
1.176046193250535
1.17604499738862
1.176045106521381
1.17604576242332
1.176047555726381
1.176051336197678
1.176057980206284
1.176068405579608
1.17608349656694
1.176104034240261
1.176130613995869
1.176163571315843
1.176202928991175
1.176248372465974
1.17629926402861
1.176354713753464
1.176413704119278
1.176475210769422
1.176538253103763
1.176601637198744
1.176663130254629
1.17671766480911
1.176755934870537
1.176772568940438
1.176775581872268
1.176775952046597
1.176775857960447
1.176774870495064
1.176772169581739
1.176766851311627
1.176757948099688
1.176744519073095
1.176725735633092
1.17670094531262
1.176669720879786
1.176631902770059
1.176587631212176
1.176537355425294
1.176481789734121
1.176421812934146
1.176358365166086
1.176292452234139
1.17622558885626
1.176160780987089
1.176104494474536
1.176066014811986
1.176050312900462
1.176047367174351
1.176046141686002
1.17604569705073
1.176046420522862
1.176048880439078
1.176054100095604
1.17606300753879
1.176076485295574
1.17609531487411
1.176120091166911
1.176151163134631
1.176188607392366
1.176232223196137
1.176281546419467
1.176335893075798
1.176394437578582
1.176456282364506
1.176520461244725
1.176585808511973
1.176650119503806
1.176708082513253
1.176751389393337
1.176774122727561
1.176780248814754
1.176781248373359
1.176781667114022
1.176780948602068
1.17677867790847
1.176774048849603
1.176766232784962
1.176754306885139
1.176737360700274
1.176714640055332
1.176685623374185
1.176650040842927
1.176607880698327
1.176559392259079
1.176505062133767
1.176445561707881
1.176381736312018
1.176314684328925
1.176245946543554
1.176178365092419
1.176118093983391
1.176074327543707
1.176052616481235
1.176047022658243
1.176045985782557
1.176045676350057
1.176046539704523
1.176049009592947
1.176053807060845
1.176061696926837
1.176073540834541
1.17609018652694
1.176112338114035
1.176140483772267
1.176174866648374
1.176215470569189
1.176262021855415
1.176314022776114
1.176370816296761
1.176431624077555
1.176495487933732
1.176561139694434
1.176626581106843
1.176687482507258
1.176736033878989
1.176764992313943
1.176774867246669
1.176776296022453
1.176776834152737
1.176776373172979
1.176774534990685
1.176770594956941
1.17676385232477
1.176753505137188
1.176738686859087
1.17671859348128
1.176692576378777
1.176660187715713
1.17662121314893
1.176575697489527
1.176523941892885
1.176466469038053
1.176404017994208
1.176337631883885
1.176268806009695
1.176199964884886
1.176136203069584
1.176086522335552
1.176058493384469
1.176049582210494
1.176048358542556
1.176047955234096
1.176048635121506
1.176050761274484
1.176054995143441
1.176062006671203
1.176072565362665
1.176087459133177
1.176107389244252
1.176132915592381
1.17616442578431
1.176202094900274
1.176245850127486
1.176295369050374
1.176350121219032
1.176409410952888
1.176472338751409
1.176537692259388
1.176603723570739
1.176667010102674
1.176720462942399
1.176755720194239
1.176770495414298
1.176773053882706
1.176773557753833
1.176773307745392
1.176771877552913
1.176768575375761
1.176762767919381
1.1767537220282
1.176740620095178
1.176722675583693
1.176699211972924
1.176669692512287
1.176633751396223
1.176591239477374
1.176542260005811
1.176487170998076
1.176426579971653
1.176361412815992
1.176293045661229
1.176223579912892
1.176157127525363
1.176101906740788
1.176067131222985
1.176053642598198
1.176051448445225
1.176051068119708
1.176051551938456
1.176053306633885
1.176056958851609
1.176063112229307
1.176072478053694
1.176085810355237
1.176103799232875
1.17612702298461
1.176155933320215
1.176190824040901
1.176231784285507
1.176278666553097
1.176331092931442
1.176388484364675
1.176450038293605
1.176514640585616
1.176580729493039
1.176645591260703
1.176703271365868
1.1767448256073
1.176765453396352
1.176770367903742
1.176770776978475
1.176770699914226
1.176769615799024
1.176766878714039
1.176761902691791
1.176754020517017
1.176742453830865
1.176726419138032
1.176705219178205
1.176678274290065
1.176645138996104
1.176605537051272
1.17655940882259
1.176506942645186
1.176448586024959
1.176385104532076
1.176317706176695
1.176248228299898
1.176179977424917
1.176119941247112
1.176078271082565
1.176059136313779
1.17605492636197
1.176054555676928
1.176054854746783
1.176056256420964
1.176059348109979
1.176064688851336
1.176072939886499
1.176084835123706
1.176101064296122
1.176122215453715
1.176148769478689
1.176181086160557
1.17621936386666
1.176263595751277
1.176313549270299
1.176368776527212
1.176428606390025
1.176492062913025
1.176557740130015
1.176623418092481
1.176684427445505
1.176732035179787
1.176759070090674
1.176767616832579
1.176768316034879
1.176768341542396
1.176767506154001
1.17676527443838
1.176761059389051
1.176754246378371
1.176744081580287
1.176729782721876
1.176710641623282
1.176686055081529
1.176655527538971
1.176618696901363
1.176575382714311
1.17652563110792
1.176469740165987
1.176408302948728
1.176342333573293
1.176273443040006
1.17620431932267
1.176140540064526
1.176092096835631
1.176066324463044
1.176058726353044
1.176058115101787
1.176058286083267
1.176059410196483
1.176062033318483
1.176066666321558
1.176073918983192
1.176084507093029
1.176099125881013
1.176118375112475
1.176142755748061
1.17617267091359
1.176208394965126
1.176250027340221
1.176297458713584
1.1763503674318
1.176408218076053
1.17647018000098
1.176535005817016
1.176600840013705
1.176664099845874
1.176717096058321
1.176750840773231
1.176764318622617
1.176766332636559
1.17676619111558
1.176765562055293
1.176763731693565
1.176760151898459
1.17675426304954
1.176745358350713
1.176732663973418
1.176715450991005
1.176693080458194
1.176665011415829
1.176630821398748
1.176590244904893
1.176543217372318
1.176489907150196
1.176430749738447
1.176366566757108
1.176298734463451
1.176229460696881
1.176163105294465
1.176108578311053
1.176075619642786
1.176063404089696
1.176061717678777
1.176061920694697
1.176062779035133
1.176064986919214
1.176068991488076
1.176075348912044
1.176084743691649
1.176097875699929
1.176115360455321
1.176137717180798
1.176165378187842
1.176198669371578
1.176237769670117
1.176282673515389
1.176333173221882
1.17638885224263
1.176449027042301
1.176512634503653
1.176578088275607
1.176642588000296
1.176699982113123
1.176740570179044
1.17676007821622
1.176764363875599
1.176764336566114
1.176763820877714
1.17676227945358
1.17675923765942
1.176754143867481
1.176746350694527
1.176735096208331
1.176719635806495
1.176699309561863
1.176673546951629
1.176641876083908
1.176603958598589
1.176559634256633
1.176508959079337
1.17645223748887
1.176390106735159
1.176323711360606
1.176254928459602
1.176187187562655
1.176127724725702
1.176087249547332
1.17606928863651
1.176065495760048
1.176065577245192
1.176066236129597
1.176068106516923
1.176071587854554
1.17607717455862
1.176085500901324
1.176097267377026
1.176113110902676
1.176133570819599
1.176159102855935
1.176190073156947
1.176226724547918
1.176269137145924
1.176317200649634
1.176370606148874
1.176428816188693
1.176490938372736
1.176555573270623
1.17662047744135
1.176681024265565
1.176728101811831
1.176754149043729
1.176762203768293
1.176762854122235
1.176762297142636
1.176761001518308
1.176758372857049
1.176753933686165
1.176747094590776
1.176737122341963
1.176723271209965
1.17670486117023
1.176681286383337
1.176652025753534
1.176616680558116
1.176575015297834
1.176526993070329
1.176472804684326
1.17641292434412
1.176348280143032
1.176280473051709
1.176212214945267
1.176149096865678
1.176101480876538
1.176076890209959
1.176069685709497
1.176069225824407
1.176069820421854
1.176071336518794
1.176074360817824
1.176079275035764
1.176086654483414
1.176097188356781
1.176111527050075
1.176130226847082
1.176153763830826
1.176182536387424
1.176216836955944
1.176256814484934
1.176302444617556
1.176353516655989
1.176409611937295
1.176469997908609
1.176533481172809
1.176598223352975
1.176660690576345
1.176713235495509
1.176746297966224
1.176759529276552
1.176761391541896
1.176760934519275
1.176759843659387
1.176757551802917
1.176753641465835
1.176747604300441
1.176738769059092
1.176726386208122
1.176709752728972
1.176688238360511
1.17666128664037
1.176628443981115
1.176589402949001
1.176544039967588
1.176492444010603
1.176434956030946
1.176372304073611
1.17630582681599
1.176237746960784
1.176172390162356
1.176118580079257
1.176086438982411
1.176074585571669
1.176072860877177
1.176073371987499
1.17607459325752
1.176077226606347
1.176081577962553
1.176088144762508
1.176097573214271
1.176110526017827
1.17612758604291
1.17614925414862
1.176175954692386
1.176208013998409
1.176245630647058
1.176288849973993
1.176337544412019
1.176391398260135
1.176449844086705
1.176511900381202
1.176575977973852
1.176639306245026
1.176696058753715
1.176736360753399
1.176755503234379
1.176759978135213
1.176759946508882
1.176758939620945
1.176756908517554
1.176753427563353
1.176748049353875
1.176740176608124
1.176729086500264
1.176714069614637
1.176694473274516
1.176669700629581
1.176639242424096
1.176602730474775
1.176559974287848
1.176510983439393
1.176455994220506
1.176395553190413
1.176330734621812
1.176263417533098
1.1761969619727
1.176138306226038
1.176098310588845
1.176080804026238
1.176076819649157
1.176076901993402
1.176077942317586
1.176080221622325
1.176084110092863
1.176089995314577
1.176098456651723
1.176110145151987
1.176125664264406
1.176145548172407
1.176170260306898
1.176200168522467
1.176235514216606
1.17627639097734
1.176322729895672
1.176374293849061
1.176430644193205
1.17649099092333
1.176553997311496
1.176617479798772
1.1766770232266
1.17672387546998
1.176749742697837
1.176758372798902
1.176759095988904
1.176758243401114
1.176756517210488
1.176753353758812
1.176748455868161
1.176741347845802
1.176731372816796
1.176717823166034
1.176700018752201
1.176677320857657
1.176649164034741
1.176615113011434
1.176574910009642
1.176528500438702
1.176476044317438
1.176417952208493
1.176355068809653
1.176288954984766
1.176222276144425
1.176160364978615
1.176113147854646
1.176088726272435
1.176081206062686
1.176080410713263
1.176081297395518
1.176083184130733
1.176086704508218
1.176092066626315
1.17609974708341
1.176110341968294
1.176124447765456
1.176142628094113
1.176165407220843
1.176193224118895
1.176226378465832
1.176265006311808
1.176309076042527
1.176358390192749
1.176412582045114
1.176471027722256
1.176532644373663
1.176595640153765
1.176656632377913
1.176708645330305
1.176742086672578
1.176755599852158
1.176758206185926
1.176757810144534
1.176756336990975
1.176753479654524
1.176748954970633
1.176742407259536
1.176733299216197
1.176720996953073
1.176704841373869
1.176684155613033
1.176658283798849
1.176626680605722
1.176588995309126
1.176545107307924
1.176495129152207
1.176439411358775
1.176378636107502
1.176314065118537
1.176247856220412
1.176184108532336
1.176131018478864
1.176098624037869
1.176086579078241
1.176084258423585
1.176084459684263
1.176086006636502
1.176089117848223
1.176094054718566
1.176101166523696
1.176110936678084
1.17612388050563
1.176140523169211
1.176161418706842
1.176187108485528
1.176218023144511
1.176254402484522
1.176296271775778
1.176343451494171
1.176395581301209
1.176452104387032
1.176512109907132
1.176574120611343
1.176635601253353
1.176691204546508
1.17673172074737
1.176751352272534
1.176756878037015
1.176757442994228
1.17675642502614
1.176754065635406
1.176749894551372
1.176743720742871
1.176735173345813
1.176723763637903
1.176708930757286
1.176690042375705
1.176666405454899
1.176637339678304
1.176602297356588
1.176560981682564
1.176513418106635
1.176459949949151
1.176401218460217
1.176338326886995
1.176273098077349
1.176208634969575
1.176151346637498
1.17611143762688
1.17609344810337
1.176088824186689
1.176088083932219
1.176088961373026
1.176091389657723
1.176095794500679
1.176102450025585
1.17611169466112
1.176123878175087
1.176139366030171
1.176158611079463
1.176182182424048
1.176210680904946
1.176244583281069
1.17628410646517
1.176329154112932
1.176379348544289
1.176434105472584
1.176492579542647
1.176553461642578
1.176614732665463
1.17667240356916
1.176718505838057
1.176745276177524
1.176754615928377
1.176756203372294
1.176756225006507
1.176754737970657
1.176751370099301
1.17674574044995
1.176737540276922
1.176726496367556
1.176712345072549
1.176694726241316
1.176673074568613
1.176646628005436
1.176614571709237
1.176576248252208
1.17653135637521
1.17648010591012
1.176423207295989
1.176361822880694
1.176297677296034
1.17623323172288
1.176173264314731
1.176127029977817
1.17610195069178
1.176093942711252
1.176092707710673
1.176092777004643
1.176094230784204
1.176097503388232
1.176103099634377
1.176111563718961
1.176123307591651
1.176138503483134
1.176157178311687
1.176179430865564
1.176205605019701
1.176236355041471
1.176272558237438
1.176314897147235
1.176363158799681
1.176415841963395
1.176472270894313
1.176531177529924
1.17660209443731
)
;

boundaryField
{
    inlet
    {
        type            calculated;
        value           uniform 1.176395950917642;
    }
    outlet
    {
        type            calculated;
        value           uniform 1.1766345660632;
    }
    frontAndBack
    {
        type            empty;
    }
}


// ************************************************************************* //
