/*--------------------------------*- C++ -*----------------------------------*\
| =========                 |                                                 |
| \\      /  F ield         | OpenFOAM: The Open Source CFD Toolbox           |
|  \\    /   O peration     | Version:  v2012                                 |
|   \\  /    A nd           | Website:  www.openfoam.com                      |
|    \\/     M anipulation  |                                                 |
\*---------------------------------------------------------------------------*/
FoamFile
{
    version     2.0;
    format      ascii;
    class       volScalarField;
    location    "0.012";
    object      T;
}
// * * * * * * * * * * * * * * * * * * * * * * * * * * * * * * * * * * * * * //

dimensions      [0 0 0 1 0 0 0];


internalField   nonuniform List<scalar> 
1000
(
299.9867441264507
299.9884899895989
299.9821533276084
299.9775252066303
299.9731553512422
299.9694073968599
299.9660174613007
299.9629832650185
299.9603641507802
299.9586783245953
299.9583071702139
299.9585224765225
299.9590450707502
299.9600058852309
299.9617105483202
299.9642544603322
299.9675484710469
299.9714458852402
299.975825975564
299.9806073687873
299.9857263706049
299.9911141011496
299.9966862526588
300.002343178899
300.0079745141623
300.0134666676041
300.0187169755867
300.0236583503271
300.0282813312746
300.0326015128827
300.0364902885755
300.0393922726456
300.0406500885717
300.0408028415537
300.0407672261592
300.0405413895538
300.0399094710132
300.0386680352656
300.0366465249555
300.0337657598221
300.0300622650216
300.0256665841391
300.0207505526457
300.0154752569631
300.0099659675205
300.0043174311908
299.9986134320142
299.992941685115
299.9873929082548
299.9820423163788
299.976924952882
299.972037819299
299.967425528328
299.9634028799416
299.9607228749014
299.9598053786733
299.9597404998657
299.9597802969226
299.9599938920208
299.9605369682334
299.9615937239091
299.9633288317698
299.9658575057836
299.9692154133884
299.9733486154689
299.9781269124783
299.9833771984258
299.988923119741
299.9946139136114
300.0003333596219
300.0059949505497
300.0115380339238
300.0169315717441
300.0221736386857
300.0272604057364
300.0320860762162
300.0362372911848
300.0389086542431
300.0397834291003
300.0398459712858
300.0398010286218
300.0396272246121
300.0391669899522
300.0382699973567
300.0367795034055
300.0345672595676
300.0315567638112
300.0277431770308
300.0231984405438
300.0180590579417
300.0125006810059
300.0067069496685
300.0008399211177
299.9950190660033
299.9893136623096
299.9837477932932
299.9783164338279
299.9730291835333
299.9680321103505
299.9638346931638
299.9612956453482
299.9605568610635
299.9605191750728
299.9605508368421
299.9607258010904
299.9611529235287
299.9619804816915
299.9633491832667
299.9653824934866
299.968164946953
299.9717253651145
299.9760258798322
299.9809627786898
299.9863822168339
299.9921070219583
299.997966041946
300.0038196034125
300.0095781719546
300.0152087569456
300.0207176989636
300.0260944671037
300.0311904774308
300.0355153196376
300.0382259877725
300.0390928556685
300.0391588940387
300.0391233106771
300.0389897696804
300.0386292370068
300.037919843138
300.0367262292573
300.0349242148525
300.0324154414599
300.0291449903397
300.0251142876638
300.0203864737965
300.015082255251
300.0093641911059
300.0034093499686
299.9973769156103
299.9913826103745
299.9854894919441
299.9797213555212
299.9741157771122
299.9688589185151
299.9645084590614
299.9619272949085
299.9611846036307
299.9611426506715
299.9611658376154
299.9613045658317
299.9616493071176
299.9623249913833
299.9634538672602
299.965151799014
299.9675130885587
299.9705969413649
299.974414514377
299.9789213967987
299.9840197200517
299.9895703751865
299.9954128863784
300.0013907637692
300.0073785328694
300.0132997414957
300.0191193639654
300.024792968623
300.0301471694179
300.0346780796552
300.0375414893989
300.038494294421
300.0385791797304
300.0385531988293
300.0384532367848
300.0381686796767
300.0375956596305
300.0366143808473
300.0351095822456
300.0329800401091
300.0301520014666
300.0265908822536
300.0223101771469
300.0173756887689
300.0119014591497
300.0060342364945
299.9999288330838
299.993722615396
299.9875186132507
299.9813883837243
299.9754181781246
299.9698416509619
299.9652560524345
299.9625351158063
299.9617295519867
299.9616744651147
299.9616919019633
299.9618026417222
299.9620838587498
299.9626439800427
299.9635916037537
299.9650343613976
299.9670671863111
299.9697617100181
299.9731549071497
299.9772404117286
299.9819656197608
299.9872354777139
299.9929228111209
299.9988860329755
300.0049927463891
300.0111397640855
300.0172529333304
300.0232470186592
300.0289164955391
300.0337404467288
300.0368568797651
300.0379597317092
300.0380773365851
300.0380590772386
300.0379835312328
300.0377563015741
300.0372872052523
300.0364695762574
300.0351971187109
300.0333704595205
300.0309078275393
300.0277549065149
300.0238937849459
300.0193497592502
300.0141926898284
300.0085295305755
300.0024888014889
299.9962019050446
299.9897874153187
299.9833491608229
299.9770149675948
299.9710628224015
299.9661336630481
299.9631518316095
299.9622211765488
299.9621440383241
299.9621553110931
299.962242055443
299.9624712363887
299.9629396570897
299.9637444977101
299.9649848350691
299.9667524086477
299.9691235495852
299.9721496952342
299.975849157282
299.9802023826514
299.9851513926197
299.9906040418124
299.9964451310738
300.0025541512098
300.0088221586203
300.0151537655792
300.0214354750694
300.0274385385702
300.0326301669909
300.0361127854835
300.0374526406042
300.0376266586242
300.0376151558869
300.0375605283053
300.0373801382669
300.0369947650737
300.0363080310973
300.0352224009042
300.0336430198931
300.0314859788725
300.0286862217042
300.025205629385
300.0210403072785
300.0162243799213
300.0108275564247
300.0049465867355
299.9986932046412
299.9921822561864
299.9855301900911
299.9788892800714
299.972564822131
299.9672223720531
299.9638480881541
299.962696952141
299.9625748877751
299.9625860325373
299.962652989895
299.9628360456956
299.9632219405378
299.9639001283014
299.9649642917291
299.9665046824329
299.9686010148816
299.9713140440047
299.9746779869502
299.9786951370188
299.9833333498496
299.9885274964426
299.9941867092293
300.0002071054971
300.0064841146691
300.012917642555
300.0193858376938
300.0256608542457
300.0312256247935
300.03513064594
300.0368279374328
300.0371353711961
300.0371731469721
300.0371635511719
300.0370627984014
300.0367872093973
300.0362445519428
300.0353360938289
300.033965824797
300.0320491855177
300.0295195818763
300.0263333946739
300.0224743098109
300.0179565983364
300.0128260584654
300.0071555419385
300.0010346888865
299.9945594072248
299.9878323162836
299.9810079898477
299.9743932306086
299.9686480369226
299.9647202959483
299.9631175297153
299.9628168484184
299.9626917604103
299.9626463777299
299.9627202299373
299.9629713291333
299.9635041262647
299.9644133493584
299.9657890757858
299.9677110660326
299.9702400253665
299.9734115487369
299.977233425374
299.9816851291334
299.9867192484118
299.9922659323267
299.9982408819885
300.0045524593729
300.01110203224
300.0177706197244
300.0243332367647
300.0302478826495
300.0346668716491
300.0369865170264
300.0376116038378
300.0377135986798
300.0377563284761
300.0376830170963
300.0374513261163
300.0369789938626
300.0361814672146
300.034964578575
300.0332354188226
300.0309170185341
300.0279561347343
300.0243252061005
300.02002299577
300.0150749032044
300.0095305398617
300.003458374133
299.9969446299102
299.9901013651486
299.9830858043973
299.9761880184998
299.9700361634618
299.965568809563
299.9633526666946
299.9627816792557
299.9626758427494
299.9626442604499
299.9627323906103
299.9629845063952
299.963474207529
299.9642795610415
299.9654885139999
299.9671875903027
299.9694486469571
299.9723214930707
299.9758309198201
299.9799752429846
299.9847264906071
299.9900338210179
299.995830134748
300.0020359558314
300.0085534612613
300.0152532054281
300.0219312578985
300.0281458129181
300.0330999894058
300.0360548429748
300.0370624498315
300.0372082394325
300.0372631507785
300.0372161167516
300.0370285569659
300.0366265291475
300.035938530139
300.0348827269611
300.0333706936205
300.0313203789589
300.0286655801368
300.0253605747084
300.0213834578019
300.0167387622535
300.0114571747794
300.0055919862288
299.9992185717281
299.9924433426675
299.9854188727217
299.9783925965351
299.9718845133243
299.9668135110243
299.963952484594
299.9630428780863
299.9629179739895
299.9628768082725
299.9629462100258
299.9631632388122
299.9635954102166
299.9643111069393
299.9653888720149
299.9669091242663
299.96894343271
299.9715489307331
299.9747651587203
299.9786099571673
299.983075858341
299.988129914568
299.993717944355
299.9997689045179
300.0061909559432
300.0128603420937
300.0195986708438
300.026056683943
300.0315110564183
300.0351086488175
300.0366162680463
300.0368773266985
300.0369287415572
300.0369032335524
300.0367573034986
300.0364203603579
300.0358277833633
300.034904760527
300.033567859777
300.0317368151793
300.029342580817
300.0263303655149
300.0226628131475
300.0183246677163
300.0133264222658
300.0077045638392
300.0015210401178
299.9948702932281
299.9878927261243
299.9808027845462
299.974020157061
299.968383725515
299.964834070937
299.9634572239152
299.9632332564973
299.9631944359663
299.9632438234486
299.9634229354419
299.9637957348075
299.9644238359226
299.9653798397965
299.9667407077413
299.9685768714052
299.9709473453615
299.9738982166692
299.9774594474273
299.9816401031566
299.9864250908284
299.9917757975563
299.9976330812099
300.0039149924738
300.0105077926345
300.0172520783428
300.0238709111137
300.0297566972866
300.0339968545721
300.0361016597531
300.0366031200391
300.0366448612154
300.0366369991471
300.0365263813673
300.0362470985725
300.0357393587128
300.0349350785132
300.033754831767
300.032118664701
300.0299554178591
300.0272059249605
300.0238247040404
300.0197835335318
300.0150762880456
300.009722140509
300.0037667087993
299.997288070654
299.9904094645165
299.9833183748396
299.9763522665325
299.9702243906119
299.9659710081594
299.9640178397046
299.9635881093294
299.96355027192
299.9635808002859
299.9637238772403
299.9640394608929
299.9645846127168
299.9654268256711
299.9666410079847
299.9682975554661
299.9704564803612
299.9731668504316
299.9764653667182
299.9803722469487
299.9848867569425
299.989985122057
299.9956215862408
300.0017276112047
300.0082035560872
300.0149059075932
300.0216081075095
300.0278336843895
300.0326915751422
300.0354501591077
300.0363222415638
300.0363935855732
300.0363961887589
300.0363109497325
300.0360832335579
300.0356531417708
300.0349579570903
300.0339207573057
300.0324617146965
300.0305085576632
300.0279997206762
300.0248846152166
300.021126263397
300.0167062141917
300.0116291313925
300.0059253853545
299.9996554475558
299.9929227640149
299.985891710265
299.9788366053445
299.9723267527995
299.9673820717682
299.9647513878739
299.9639758129535
299.9639134190907
299.9639308719986
299.964045616273
299.9643133711373
299.964786281298
299.9655265866029
299.9666073464727
299.968099518964
299.9700643139441
299.9725528511202
299.9756062580035
299.9792525117759
299.9835017293335
299.9883427145231
299.9937425968637
299.9996466881145
300.0059701730497
300.0125857153741
300.0193039375263
300.0257592337057
300.0311670164359
300.0346102749451
300.0359855157001
300.0361910184015
300.0361765775643
300.0361123906593
300.0359256273853
300.0355603557383
300.0349594710587
300.0340508504171
300.0327555288044
300.0309991193932
300.0287164120418
300.025852188662
300.0223633146768
300.0182226641239
300.0134236081709
300.0079832799058
300.0019460718151
299.9953957820979
299.9884728221099
299.9814024951874
299.9746297856354
299.969064185454
299.9656999918295
299.9644530967917
299.9642809559127
299.9643016777424
299.964389292194
299.9646146614542
299.9650234248797
299.9656723502677
299.9666313036332
299.9679717178261
299.9697564120513
299.972038372129
299.9748617073095
299.9782596585342
299.9822504603247
299.9868335092046
299.9919875682714
299.9976700817389
300.0038112464262
300.010302527176
300.0169820060112
300.023563902844
300.0294205134857
300.0335620873111
300.0355526384662
300.0359899327185
300.0359871450319
300.0359345251584
300.035777243691
300.0354668685811
300.034947110537
300.0341519091933
300.033003514167
300.0314259403737
300.0293518386621
300.0267229770558
300.0234911809118
300.0196218933973
300.0150987257148
300.0099273506416
300.0041387853356
299.9977980115486
299.991021788016
299.9840016525458
299.9770876202933
299.9710182872514
299.9668868948671
299.9650535539128
299.9646663972561
299.9646747134965
299.9647419674
299.9649328858687
299.9652882406767
299.9658584960057
299.9667083910346
299.9679094227233
299.9695265956116
299.9716149506869
299.9742209896527
299.9773820646556
299.981122934212
299.9854517433038
299.9903571966201
299.9958077250642
300.0017484337209
300.0080882072394
300.0146841967591
300.0213074433166
300.0274858324448
300.0322896300264
300.0349474371475
300.0357693165897
300.0358356751645
300.0357788411033
300.0356466389702
300.0353784184982
300.0349254569489
300.0342276089088
300.0332100533876
300.0317966913724
300.0299181246835
300.0275125199917
300.0245266848407
300.0209199063224
300.0166681193045
300.011767517062
300.0062375246027
300.0001264848468
299.993529064022
299.9866086117692
299.9796418829098
299.9731995432804
299.968339320921
299.9658292694486
299.965093875392
299.9650469310646
299.9651076220244
299.9652623753128
299.9655710778073
299.9660726900528
299.9668259329457
299.9679011506989
299.9693647243953
299.9712734256969
299.9736758358339
299.9766126002542
299.9801135444102
299.9841938416923
299.9888509712557
299.9940633894848
299.9997883257848
300.0059509762791
300.0124295136322
300.0190363063131
300.0254107322527
300.0307724749632
300.0341461240772
300.0354962111226
300.035686229224
300.0356395940632
300.0355282844041
300.0352944299204
300.0348954295648
300.0342794098073
300.0333778744898
300.0321143373089
300.0304170551563
300.0282217047391
300.0254714875284
300.0221200954726
300.0181361265657
300.0135069326242
300.0082415489943
300.0023747212978
299.9959806988379
299.9891960569396
299.982247613658
299.9755768602543
299.9700844625319
299.9668037374365
299.9655938137234
299.9654177653643
299.9654699344272
299.9655945920998
299.9658633873289
299.9663075456539
299.9669778389782
299.9679402239386
299.9692623385239
299.9710036692691
299.9732153279481
299.9759406130092
299.9792128110626
299.9830521640838
299.9874632671539
299.9924330634801
299.9979292921218
300.003894000618
300.0102269821257
300.0167660297752
300.0232283960951
300.0290195491152
300.0331319416651
300.035085195738
300.035541800481
300.0355385715067
300.0354358288448
300.0352285794948
300.034873391713
300.0343246107512
300.0335212881179
300.0323896634648
300.0308573421153
300.0288577152239
300.0263298654032
300.0232218070097
300.0194959422032
300.0151327974953
300.0101333087944
300.0045215429936
299.9983532284954
299.9917379532107
299.9848674503826
299.9780846407796
299.9720977202143
299.9680152987535
299.9662283448853
299.9658216433892
299.9658300463969
299.9659362329542
299.9661688881339
299.9665657970472
299.9671665191252
299.9680301883983
299.9692232541353
299.9708073044358
299.9728368539088
299.9753591910971
299.9784118438835
299.98201942706
299.9861914631978
299.990920884685
299.9961834521902
300.0019343578102
300.008092937297
300.0145227407259
300.0210009186124
300.0270769312737
300.0318577515435
300.0344971972182
300.0353777885827
300.035451578836
300.0353645808866
300.035188443092
300.0348656519841
300.0343658820577
300.0336405915871
300.0326227503174
300.0312401483136
300.0294233757485
300.0271072451669
300.0242340397447
300.0207593189191
300.0166567465372
300.0119207135212
300.0065675055408
300.0006389734026
299.9942212743675
299.9874736653363
299.9806681575093
299.9743490424682
299.969529564046
299.9670367871132
299.9662691719392
299.9661879859361
299.966278490257
299.966471073026
299.966830407853
299.9673777340631
299.96816169627
299.9692431345659
299.970682927197
299.972538594734
299.9748636370445
299.9777028431592
299.981086778656
299.9850293022837
299.9895271549521
299.9945601466682
300.0000908117422
300.0060554402112
300.0123434877905
300.0187720712678
300.0249959947467
300.0303034700377
300.0337157877427
300.035094638784
300.0353605806184
300.035320167511
300.0351698476784
300.0348782902336
300.0344166006691
300.0337484834283
300.0328191093674
300.0315637925236
300.0299152719443
300.0278044696466
300.0251644444785
300.0219395286399
300.0180939041848
300.0136152285187
300.0085149453612
300.0028287792894
299.9966263019974
299.9900362370311
299.9832787817823
299.9767723032364
299.97135343551
299.9680468739185
299.9668174066406
299.9665805287012
299.9666010702638
299.9667589699127
299.9670765391521
299.9675804585008
299.9683063767268
299.9693036333557
299.9706248232195
299.9723235428725
299.9744563327461
299.9770784353655
299.9802337857308
299.9839468342909
299.9882201296508
299.9930353142695
299.9983555745745
300.0041240459453
300.0102477367742
300.0165758636684
300.0228496978998
300.0285235972697
300.0326578607255
300.0346610220124
300.0352248556247
300.0352825008111
300.0351786278255
300.0349378790841
300.0345122695873
300.033882304646
300.0330101387669
300.0318458991381
300.0303323497659
300.0284049591945
300.0259929966192
300.0230270229982
300.019451124835
300.0152349810882
300.0103811485752
300.0049246180766
299.9989307843103
299.9925121958435
299.9858548560806
299.9792754439249
299.973428132736
299.9693545839781
299.9675183467938
299.9670463683535
299.9669708068569
299.9670603677016
299.9673082273033
299.9677578398454
299.9684371833918
299.9693807986203
299.9706243822697
299.9722052311014
299.9741695593028
299.9765754427911
299.9794841918443
299.9829444452588
299.9869783133503
299.9915759285842
299.9966987072726
300.0022869805678
300.0082544399951
300.0144674582265
300.0207199702762
300.0266049178682
300.0313092260839
300.034040833624
300.034993837546
300.0351558141298
300.0351580166048
300.0350062730621
300.0346626120885
300.0340881636683
300.0332514243833
300.0321245164909
300.0306805366491
300.0288827306121
300.0266734017866
300.0239747642631
300.0207036299857
300.0167928631492
300.0122116677332
300.006981399257
300.0011745000555
299.9949095522877
299.9883625867498
299.9817848903759
299.9756642582662
299.9709454095903
299.9683861051022
299.9675696709844
299.9674444146265
299.9674529472551
299.9676036483563
299.9679388703813
299.9685085453034
299.9693675650199
299.9705600800624
299.9721081878577
299.9740155245063
299.9762816312937
299.9789230387225
299.9820018866392
299.9856416207616
299.9899872089656
299.9951147636619
300.0009187362409
300.0070619984749
300.0126967264607
300.0183752057168
)
;

boundaryField
{
    inlet
    {
        type            fixedValue;
        value           uniform 300;
    }
    outlet
    {
        type            temperatureOutletNSCBC;
        pInf            101325;
        gamma           1.4;
        etaAc           1;
        fieldInf        1;
        lInf            2.25;
        value           uniform 300.0210810152218;
    }
    frontAndBack
    {
        type            empty;
    }
}


// ************************************************************************* //
