/*--------------------------------*- C++ -*----------------------------------*\
| =========                 |                                                 |
| \\      /  F ield         | OpenFOAM: The Open Source CFD Toolbox           |
|  \\    /   O peration     | Version:  v2012                                 |
|   \\  /    A nd           | Website:  www.openfoam.com                      |
|    \\/     M anipulation  |                                                 |
\*---------------------------------------------------------------------------*/
FoamFile
{
    version     2.0;
    format      ascii;
    class       volVectorField;
    location    "0.012";
    object      U;
}
// * * * * * * * * * * * * * * * * * * * * * * * * * * * * * * * * * * * * * //

dimensions      [0 1 -1 0 0 0 0];


internalField   nonuniform List<vector> 
1000
(
(-0.00275526100118751 0 0)
(-0.03442050236694461 0 0)
(-0.04261313064726836 0 0)
(-0.05781425639217997 0 0)
(-0.07171309497721069 0 0)
(-0.08461374092083884 0 0)
(-0.09561814632141502 0 0)
(-0.105028044498779 0 0)
(-0.1131097591084839 0 0)
(-0.1186123377290879 0 0)
(-0.1201843739456485 0 0)
(-0.1200590602724092 0 0)
(-0.1191904972292833 0 0)
(-0.1166551418692158 0 0)
(-0.1118017801317874 0 0)
(-0.1044454126621257 0 0)
(-0.09485824359663578 0 0)
(-0.08346463700495291 0 0)
(-0.07062513892699737 0 0)
(-0.05659364544219957 0 0)
(-0.04157575467059435 0 0)
(-0.02579171796339481 0 0)
(-0.00950389742379645 0 0)
(0.006987426212616089 0 0)
(0.02336031447530398 0 0)
(0.03928879117522056 0 0)
(0.05447707194294552 0 0)
(0.06873285669076289 0 0)
(0.08203938619600322 0 0)
(0.09445994748516813 0 0)
(0.1056336808621822 0 0)
(0.1139526827255301 0 0)
(0.1175198175985282 0 0)
(0.1179167581376197 0 0)
(0.1177966075277476 0 0)
(0.1171201321474146 0 0)
(0.1153130610536556 0 0)
(0.1117472063360298 0 0)
(0.1059278646415868 0 0)
(0.09762558747954719 0 0)
(0.08694277584181198 0 0)
(0.0742521897409963 0 0)
(0.06004803000580256 0 0)
(0.04479715381130977 0 0)
(0.02886399630352602 0 0)
(0.01252196548752305 0 0)
(-0.003987812246551677 0 0)
(-0.02040736769081266 0 0)
(-0.03646697362817668 0 0)
(-0.05194931878868321 0 0)
(-0.06676082799753541 0 0)
(-0.08090952391087156 0 0)
(-0.09425246260479755 0 0)
(-0.1058756278036154 0 0)
(-0.1136212726582416 0 0)
(-0.1162846424238305 0 0)
(-0.1164783789983454 0 0)
(-0.1163344850394547 0 0)
(-0.1157281433998572 0 0)
(-0.1141516295316143 0 0)
(-0.1110953764767478 0 0)
(-0.1060775276164756 0 0)
(-0.09876430144886636 0 0)
(-0.08905128925706338 0 0)
(-0.07709629339980606 0 0)
(-0.06327721984305779 0 0)
(-0.04809200728461866 0 0)
(-0.03204802572012896 0 0)
(-0.01558485184344682 0 0)
(0.0009561519536465545 0 0)
(0.0173285076378926 0 0)
(0.03336566113120312 0 0)
(0.04897439897246953 0 0)
(0.06413402323840627 0 0)
(0.07883410785394174 0 0)
(0.09279224647912168 0 0)
(0.1048182978560848 0 0)
(0.112550513393976 0 0)
(0.1150574814033332 0 0)
(0.1152224363780845 0 0)
(0.1151335295000793 0 0)
(0.1146057517861891 0 0)
(0.1132820493469053 0 0)
(0.1106866997397222 0 0)
(0.1063750917630469 0 0)
(0.09997610556195843 0 0)
(0.09126994942171059 0 0)
(0.08024040506787287 0 0)
(0.06709351488477605 0 0)
(0.0522268635528842 0 0)
(0.03615189637094774 0 0)
(0.01939635325714266 0 0)
(0.002423043886990446 0 0)
(-0.01441891721578168 0 0)
(-0.03091912588177449 0 0)
(-0.04701037624032641 0 0)
(-0.06272338673178676 0 0)
(-0.07803130112994582 0 0)
(-0.09248717373566147 0 0)
(-0.1046098503855806 0 0)
(-0.1119461679857655 0 0)
(-0.1141046267202067 0 0)
(-0.1142332951317722 0 0)
(-0.1141000879299066 0 0)
(-0.1136176428065582 0 0)
(-0.1123751495529126 0 0)
(-0.1099822301413737 0 0)
(-0.1060235961564156 0 0)
(-0.1001421902119991 0 0)
(-0.09209226469239259 0 0)
(-0.08179264076986677 0 0)
(-0.06935446104535171 0 0)
(-0.05507488010468079 0 0)
(-0.03939622053606694 0 0)
(-0.0228347435785124 0 0)
(-0.005890419721578485 0 0)
(0.01103712239464624 0 0)
(0.02769745396024362 0 0)
(0.04399088881933845 0 0)
(0.05992137719672424 0 0)
(0.07546095888506439 0 0)
(0.09020260201646718 0 0)
(0.1027297368396864 0 0)
(0.1105729714527138 0 0)
(0.1130594713212218 0 0)
(0.1132368790878539 0 0)
(0.1131726569107949 0 0)
(0.1127620895093516 0 0)
(0.1117267188670259 0 0)
(0.1096738426590716 0 0)
(0.1062210443926824 0 0)
(0.101008588148071 0 0)
(0.09375333115892502 0 0)
(0.08429456636752482 0 0)
(0.07263474062097766 0 0)
(0.05895888946021422 0 0)
(0.04361885700897642 0 0)
(0.02708163875898005 0 0)
(0.009854619637880558 0 0)
(-0.007598151772831955 0 0)
(-0.02493383441840159 0 0)
(-0.04197331485724094 0 0)
(-0.05866118437850921 0 0)
(-0.07488746219469666 0 0)
(-0.09009290316912993 0 0)
(-0.1026609074040506 0 0)
(-0.1101227108500403 0 0)
(-0.1122904728466873 0 0)
(-0.1124249452069674 0 0)
(-0.1123235433071331 0 0)
(-0.1119429648398372 0 0)
(-0.11093945047285 0 0)
(-0.1089858808491998 0 0)
(-0.1057209276168437 0 0)
(-0.1008094987706542 0 0)
(-0.09397797335638219 0 0)
(-0.08505715183110032 0 0)
(-0.07401581013772106 0 0)
(-0.06097962514902421 0 0)
(-0.04622984236816451 0 0)
(-0.03017276038965237 0 0)
(-0.01327620913557196 0 0)
(0.00401210941007701 0 0)
(0.02133595311559632 0 0)
(0.03846845184767076 0 0)
(0.05529639662729614 0 0)
(0.07169671688924691 0 0)
(0.0871876430353251 0 0)
(0.1003085752545596 0 0)
(0.1085895574613489 0 0)
(0.1113265720988621 0 0)
(0.1115632143977114 0 0)
(0.1115230294470978 0 0)
(0.1112099475376081 0 0)
(0.1103945405841736 0 0)
(0.1087359264801672 0 0)
(0.1058974008258699 0 0)
(0.1015446800178745 0 0)
(0.09538613083500108 0 0)
(0.08720683501368613 0 0)
(0.07690547449374871 0 0)
(0.06452317271032958 0 0)
(0.05025232276934834 0 0)
(0.03441990331373714 0 0)
(0.01744668354178111 0 0)
(-0.0002161048241882739 0 0)
(-0.01816483605934018 0 0)
(-0.03610512660476489 0 0)
(-0.05384057563997319 0 0)
(-0.07111904966054151 0 0)
(-0.08724799191892015 0 0)
(-0.1004994226188009 0 0)
(-0.1083684188222872 0 0)
(-0.1107139697566888 0 0)
(-0.1108829724907757 0 0)
(-0.1108042221103064 0 0)
(-0.1105018517536846 0 0)
(-0.1096827385121992 0 0)
(-0.1080634517340898 0 0)
(-0.1053226905409234 0 0)
(-0.1011493066323137 0 0)
(-0.09526812404204671 0 0)
(-0.08747367540926532 0 0)
(-0.07765960904884185 0 0)
(-0.06584195305638668 0 0)
(-0.05217177996680485 0 0)
(-0.03692751319659053 0 0)
(-0.02047934626468313 0 0)
(-0.003232190918458155 0 0)
(0.01443547753553326 0 0)
(0.03221923371690742 0 0)
(0.04989616827599798 0 0)
(0.06722657676610738 0 0)
(0.08363062938255121 0 0)
(0.09759496526152549 0 0)
(0.106604990664044 0 0)
(0.1097805662031077 0 0)
(0.1101157320272362 0 0)
(0.110091381611755 0 0)
(0.1098515098018712 0 0)
(0.1092015370811825 0 0)
(0.1078434252855818 0 0)
(0.1054782722968453 0 0)
(0.1017976855869858 0 0)
(0.09651511473677288 0 0)
(0.08939250709409886 0 0)
(0.08027190232661098 0 0)
(0.0691035698229388 0 0)
(0.05596208670601388 0 0)
(0.04104652351045168 0 0)
(0.02466355354865409 0 0)
(0.007188812795944212 0 0)
(-0.01099283343842468 0 0)
(-0.02954324785033919 0 0)
(-0.04817061337114898 0 0)
(-0.06650005646388071 0 0)
(-0.08371336057175981 0 0)
(-0.097960546199391 0 0)
(-0.1065879418887025 0 0)
(-0.109293445758497 0 0)
(-0.1095219546462085 0 0)
(-0.1094645620759137 0 0)
(-0.1092311579454167 0 0)
(-0.1085623933074358 0 0)
(-0.107208552774503 0 0)
(-0.1048806987784274 0 0)
(-0.1012927258454333 0 0)
(-0.09617897824312747 0 0)
(-0.0893201698050855 0 0)
(-0.08056764702221626 0 0)
(-0.06986632752857172 0 0)
(-0.05727241072610013 0 0)
(-0.04295679385184237 0 0)
(-0.02718714719870933 0 0)
(-0.01029216851734495 0 0)
(0.007382164439410055 0 0)
(0.02551439373129653 0 0)
(0.04382301211618541 0 0)
(0.06198795718717155 0 0)
(0.07935814847623335 0 0)
(0.09438259020841917 0 0)
(0.1044491284368331 0 0)
(0.1083131337125388 0 0)
(0.1088139213020774 0 0)
(0.108805942818437 0 0)
(0.1086268153738327 0 0)
(0.1081132692943602 0 0)
(0.1069978564355927 0 0)
(0.1050124088118666 0 0)
(0.1018730447367776 0 0)
(0.097305649811305 0 0)
(0.09106596001781213 0 0)
(0.08296525863712118 0 0)
(0.07289515142385872 0 0)
(0.0608457432691825 0 0)
(0.04691435556411332 0 0)
(0.03130229551447501 0 0)
(0.01429355716909245 0 0)
(-0.003785738108280098 0 0)
(-0.02260858835913997 0 0)
(-0.04184550522067352 0 0)
(-0.06105410245723094 0 0)
(-0.07934433690704812 0 0)
(-0.09479773140231544 0 0)
(-0.104579828273287 0 0)
(-0.1079417286987867 0 0)
(-0.1083087255410571 0 0)
(-0.108281477141617 0 0)
(-0.1081006809959323 0 0)
(-0.107548426109673 0 0)
(-0.1063979976870897 0 0)
(-0.1043888117607784 0 0)
(-0.1012613979541201 0 0)
(-0.09676847575627065 0 0)
(-0.09069394870052143 0 0)
(-0.08287105951975278 0 0)
(-0.07320094102746127 0 0)
(-0.06166910711804111 0 0)
(-0.04835372648400757 0 0)
(-0.03342090675908339 0 0)
(-0.01710731704794113 0 0)
(0.0003069904178436805 0 0)
(0.01852734112260862 0 0)
(0.03726057167313504 0 0)
(0.05613701441810798 0 0)
(0.07446000726709967 0 0)
(0.09069943974798937 0 0)
(0.1021006111205702 0 0)
(0.1070429865387885 0 0)
(0.107864446353186 0 0)
(0.1078162461531393 0 0)
(0.1075542185097446 0 0)
(0.1070001900161803 0 0)
(0.1059523273498749 0 0)
(0.1041805346582715 0 0)
(0.1014376527348588 0 0)
(0.09746976359298408 0 0)
(0.09203458109882434 0 0)
(0.08491886418235128 0 0)
(0.07595939498995115 0 0)
(0.06506563227758434 0 0)
(0.05223595793490627 0 0)
(0.03756215849840615 0 0)
(0.02122161903093107 0 0)
(0.003462429610644011 0 0)
(-0.015414223660454 0 0)
(-0.03506151519915685 0 0)
(-0.05498223320783736 0 0)
(-0.07424140028750673 0 0)
(-0.09085389756072658 0 0)
(-0.1020096434340651 0 0)
(-0.1062972637245195 0 0)
(-0.1068071749978802 0 0)
(-0.1066365628923018 0 0)
(-0.1060952981431914 0 0)
(-0.1053153062200615 0 0)
(-0.1040982955274674 0 0)
(-0.1022202868702486 0 0)
(-0.09946109469360709 0 0)
(-0.09559447258086336 0 0)
(-0.09039198932749173 0 0)
(-0.0836495744895111 0 0)
(-0.07521245081050643 0 0)
(-0.06499306741452043 0 0)
(-0.05298241962677332 0 0)
(-0.03925415054268167 0 0)
(-0.02395879322110291 0 0)
(-0.007305946228868508 0 0)
(0.01045538721119695 0 0)
(0.02903884990259082 0 0)
(0.04808106556458746 0 0)
(0.06689410515083727 0 0)
(0.08386073254260995 0 0)
(0.09648298730140968 0 0)
(0.1029763703474607 0 0)
(0.1044982445120216 0 0)
(0.1045286132796357 0 0)
(0.1041801431986236 0 0)
(0.103572204735973 0 0)
(0.1025498358737294 0 0)
(0.1009467525341113 0 0)
(0.09857724259842414 0 0)
(0.0952063318327573 0 0)
(0.09057230465387363 0 0)
(0.08443190465181424 0 0)
(0.07659096042471371 0 0)
(0.06691743003084186 0 0)
(0.05534937120717427 0 0)
(0.04190238762050989 0 0)
(0.02666998169533229 0 0)
(0.009814350258892079 0 0)
(-0.008434202490932735 0 0)
(-0.02775432116869496 0 0)
(-0.04767936731527441 0 0)
(-0.06734341205290752 0 0)
(-0.0848856409393854 0 0)
(-0.09755375404407421 0 0)
(-0.103686614529858 0 0)
(-0.1050218826373459 0 0)
(-0.1050210432743763 0 0)
(-0.1046203457458566 0 0)
(-0.1039471374841981 0 0)
(-0.1028278273775502 0 0)
(-0.1011178426741159 0 0)
(-0.09864856748030143 0 0)
(-0.09520953800090808 0 0)
(-0.09057006057525815 0 0)
(-0.08451338849280032 0 0)
(-0.07686195478929067 0 0)
(-0.06749463952066651 0 0)
(-0.0563590332079047 0 0)
(-0.04347683504492641 0 0)
(-0.02893996035073669 0 0)
(-0.01289741323115713 0 0)
(0.004451126808092717 0 0)
(0.02283471238078792 0 0)
(0.04187406844106512 0 0)
(0.06096038631606259 0 0)
(0.07878087748682724 0 0)
(0.09298065886968022 0 0)
(0.101358135234774 0 0)
(0.1040529075753098 0 0)
(0.1042781840197998 0 0)
(0.1040340884375361 0 0)
(0.1035031290357143 0 0)
(0.1025703088776901 0 0)
(0.1010758024344872 0 0)
(0.09887356248010785 0 0)
(0.0957813538693173 0 0)
(0.09157871785982394 0 0)
(0.08603465355747814 0 0)
(0.07893497106469263 0 0)
(0.07010468809953457 0 0)
(0.05942745723692691 0 0)
(0.04685929300123345 0 0)
(0.0324332031446512 0 0)
(0.01625529901751317 0 0)
(-0.00149110635649885 0 0)
(-0.02051677174546424 0 0)
(-0.04038407284927659 0 0)
(-0.06036448494833724 0 0)
(-0.07892513364751562 0 0)
(-0.09337810301180233 0 0)
(-0.1014340495405954 0 0)
(-0.1038190130558428 0 0)
(-0.1039950828923772 0 0)
(-0.1037250747836868 0 0)
(-0.1031813577723269 0 0)
(-0.1022051332784516 0 0)
(-0.1006611078456079 0 0)
(-0.09840828571614432 0 0)
(-0.09527273384303647 0 0)
(-0.09105639992878573 0 0)
(-0.08555973770446718 0 0)
(-0.07859957138900053 0 0)
(-0.07002581611074568 0 0)
(-0.05973954657174634 0 0)
(-0.04770728321585152 0 0)
(-0.03396634702516013 0 0)
(-0.01861982299982026 0 0)
(-0.001831635098594929 0 0)
(0.0161591136405099 0 0)
(0.03500723868904719 0 0)
(0.0541909932989374 0 0)
(0.07267392075866072 0 0)
(0.08832479637013033 0 0)
(0.09862424736565784 0 0)
(0.1028646714172319 0 0)
(0.1034805464227676 0 0)
(0.1033560438004426 0 0)
(0.1029502020824323 0 0)
(0.10216260417933 0 0)
(0.100831256514313 0 0)
(0.0988279195888318 0 0)
(0.09600093308432338 0 0)
(0.09216093050386985 0 0)
(0.08710213539409077 0 0)
(0.08062191575183467 0 0)
(0.07253511964018576 0 0)
(0.06269114096100886 0 0)
(0.05099349729529972 0 0)
(0.0374155739224127 0 0)
(0.02200758184749669 0 0)
(0.004902166761822184 0 0)
(-0.01366108091352409 0 0)
(-0.03329478171278099 0 0)
(-0.05337788930561388 0 0)
(-0.07268328035101415 0 0)
(-0.08876167124429001 0 0)
(-0.09883920987124609 0 0)
(-0.1026511090616298 0 0)
(-0.1031686185732984 0 0)
(-0.1030131516215575 0 0)
(-0.1026036118719185 0 0)
(-0.1017882077138796 0 0)
(-0.1004263101113018 0 0)
(-0.09839221501696607 0 0)
(-0.09553343979735887 0 0)
(-0.09167380831226073 0 0)
(-0.08663418041548322 0 0)
(-0.08024387796036726 0 0)
(-0.0723490149566296 0 0)
(-0.06282697267409776 0 0)
(-0.05160388647224257 0 0)
(-0.03866790533568021 0 0)
(-0.0240737480753214 0 0)
(-0.007940897304600913 0 0)
(0.009535331577096722 0 0)
(0.0280509726811671 0 0)
(0.04714851584786096 0 0)
(0.0660206186986898 0 0)
(0.08289280054417873 0 0)
(0.09508195277383547 0 0)
(0.1011199977225038 0 0)
(0.1024854647157483 0 0)
(0.1024841426095457 0 0)
(0.1022121487715654 0 0)
(0.101588450759655 0 0)
(0.1004427843000325 0 0)
(0.09865441316111084 0 0)
(0.09608848437939771 0 0)
(0.09257526119769384 0 0)
(0.08793101846803315 0 0)
(0.08197301910421954 0 0)
(0.07452350207717641 0 0)
(0.06541970291692002 0 0)
(0.0545339815971338 0 0)
(0.04179474820275092 0 0)
(0.02720043338255799 0 0)
(0.01082827461650286 0 0)
(-0.007142245475987827 0 0)
(-0.02638522492734851 0 0)
(-0.04637248806980968 0 0)
(-0.06613424628251548 0 0)
(-0.08358762068965545 0 0)
(-0.09569447165343545 0 0)
(-0.1012177999085798 0 0)
(-0.1023639536567775 0 0)
(-0.102323610617459 0 0)
(-0.1020471366585203 0 0)
(-0.1014051911490305 0 0)
(-0.1002425272431096 0 0)
(-0.09843937464061857 0 0)
(-0.09585437286376133 0 0)
(-0.09232462536165452 0 0)
(-0.08768753921399212 0 0)
(-0.08178859484675441 0 0)
(-0.07448124884814829 0 0)
(-0.06563559550364734 0 0)
(-0.0551553675543205 0 0)
(-0.04299416684742771 0 0)
(-0.02916502516277571 0 0)
(-0.0137427421910731 0 0)
(0.003124817268112162 0 0)
(0.02118458010669116 0 0)
(0.04004638921087795 0 0)
(0.05907066404064029 0 0)
(0.07685882758407533 0 0)
(0.09079055041947214 0 0)
(0.09873101686936059 0 0)
(0.1012604769116662 0 0)
(0.1014679134772897 0 0)
(0.1013046843573186 0 0)
(0.1008632480551433 0 0)
(0.09991771926224499 0 0)
(0.09835902802908146 0 0)
(0.09605889619919966 0 0)
(0.0928615882279962 0 0)
(0.08859812839197764 0 0)
(0.08310156860439827 0 0)
(0.07620730941818644 0 0)
(0.06775569618224681 0 0)
(0.05760671832011523 0 0)
(0.04566055111068935 0 0)
(0.03187548418584172 0 0)
(0.0162803169062362 0 0)
(-0.001004831076584702 0 0)
(-0.0197235100713632 0 0)
(-0.03943300268180353 0 0)
(-0.05935670542930338 0 0)
(-0.07783158026321636 0 0)
(-0.09189699595690436 0 0)
(-0.09937930085202225 0 0)
(-0.1015371195554926 0 0)
(-0.1016643186353375 0 0)
(-0.1015108561912848 0 0)
(-0.1010390985531524 0 0)
(-0.1000761635092543 0 0)
(-0.0985049162337306 0 0)
(-0.09619125832058797 0 0)
(-0.09298010480609437 0 0)
(-0.08871729637342966 0 0)
(-0.08325982986544607 0 0)
(-0.07647194716967161 0 0)
(-0.06822692407018624 0 0)
(-0.05841989173589426 0 0)
(-0.04698339298669065 0 0)
(-0.03389919295027796 0 0)
(-0.01920488258759972 0 0)
(-0.003002823614010935 0 0)
(0.01451179892773434 0 0)
(0.0330116878509487 0 0)
(0.05196461203017638 0 0)
(0.0703047041336932 0 0)
(0.08576842613894511 0 0)
(0.09569390333758798 0 0)
(0.09970028136261119 0 0)
(0.1003109345329981 0 0)
(0.1002876656208608 0 0)
(0.09999723190499178 0 0)
(0.09925919091285344 0 0)
(0.09793655480280099 0 0)
(0.09590830399418712 0 0)
(0.09302702174352882 0 0)
(0.08912901719941836 0 0)
(0.08405771750925453 0 0)
(0.07766394047419461 0 0)
(0.0697986151966077 0 0)
(0.06031931975966463 0 0)
(0.04911000556174541 0 0)
(0.03610149995984157 0 0)
(0.02128587283480008 0 0)
(0.00473252981101467 0 0)
(-0.01337175374121657 0 0)
(-0.03266587293657044 0 0)
(-0.05251921335815096 0 0)
(-0.07165534884063283 0 0)
(-0.08746041616475535 0 0)
(-0.09702122790626075 0 0)
(-0.1005270227768968 0 0)
(-0.1009926219158793 0 0)
(-0.100950034482223 0 0)
(-0.1006318090565047 0 0)
(-0.099877658940075 0 0)
(-0.09854569599131956 0 0)
(-0.09650905062305536 0 0)
(-0.09361587687529936 0 0)
(-0.08971394331021601 0 0)
(-0.08466762864757545 0 0)
(-0.0783525509019829 0 0)
(-0.07064978610693722 0 0)
(-0.0614534143253503 0 0)
(-0.05068503691057747 0 0)
(-0.03830676052875821 0 0)
(-0.02432916449937306 0 0)
(-0.008816794070337084 0 0)
(0.008087606772247014 0 0)
(0.0261154867477652 0 0)
(0.04482808260461286 0 0)
(0.06343109023776983 0 0)
(0.08011782596571961 0 0)
(0.0919749279363876 0 0)
(0.09771232593037456 0 0)
(0.09905972690209314 0 0)
(0.09917863889656411 0 0)
(0.09901684358637446 0 0)
(0.09849230703235587 0 0)
(0.09741474186968391 0 0)
(0.09566251029074042 0 0)
(0.0930936189310981 0 0)
(0.08954961229463058 0 0)
(0.08487995407630242 0 0)
(0.07894640659285593 0 0)
(0.07161162061247796 0 0)
(0.06273876916751835 0 0)
(0.0522067232701242 0 0)
(0.03992954698428298 0 0)
(0.02587252982162145 0 0)
(0.010065144519636 0 0)
(-0.007367421998152113 0 0)
(-0.02613941575650143 0 0)
(-0.04573636936885851 0 0)
(-0.06518450732767969 0 0)
(-0.08235197337941691 0 0)
(-0.09403989163997485 0 0)
(-0.09920869818597271 0 0)
(-0.1003124407820506 0 0)
(-0.1003530826822842 0 0)
(-0.1001739248497242 0 0)
(-0.09961718381863495 0 0)
(-0.09851965854936814 0 0)
(-0.0967588753419469 0 0)
(-0.09418477143491566 0 0)
(-0.09064349105581934 0 0)
(-0.0860002877837855 0 0)
(-0.08013707743236945 0 0)
(-0.07294195472466057 0 0)
(-0.06431143591359861 0 0)
(-0.05416289244568449 0 0)
(-0.04244690300247527 0 0)
(-0.02915525368979168 0 0)
(-0.01432614503402921 0 0)
(0.001938714754161406 0 0)
(0.01943094491819199 0 0)
(0.03779267690566079 0 0)
(0.05640040963274518 0 0)
(0.07388165193880451 0 0)
(0.08754214800479597 0 0)
(0.09518802351979651 0 0)
(0.09766604154623239 0 0)
(0.09793564702840193 0 0)
(0.09792559561626686 0 0)
(0.0975871691522133 0 0)
(0.09674557267996779 0 0)
(0.09526957028332073 0 0)
(0.09301679685406586 0 0)
(0.08982914859199809 0 0)
(0.08555454852878262 0 0)
(0.0800595759993654 0 0)
(0.07321910384720876 0 0)
(0.06490696226898254 0 0)
(0.05500312009550299 0 0)
(0.04341208822991178 0 0)
(0.03008077635597355 0 0)
(0.01501098861334184 0 0)
(-0.001718020065898655 0 0)
(-0.01989355695343254 0 0)
(-0.03910395805516197 0 0)
(-0.05858990475429535 0 0)
(-0.07670394680574277 0 0)
(-0.09040755466081882 0 0)
(-0.09750310907269993 0 0)
(-0.09958417665417583 0 0)
(-0.0997178572162178 0 0)
(-0.09968389096344792 0 0)
(-0.09930443224554786 0 0)
(-0.09843529975998222 0 0)
(-0.09694596064690233 0 0)
(-0.09468723598925932 0 0)
(-0.09150044961431784 0 0)
(-0.08724843771039241 0 0)
(-0.08181715243790548 0 0)
(-0.07510150000293367 0 0)
(-0.06700180746523988 0 0)
(-0.05743347353202622 0 0)
(-0.04633910064341597 0 0)
(-0.03369779836168297 0 0)
(-0.0195310591749298 0 0)
(-0.003910876954280743 0 0)
(0.01300756141588764 0 0)
(0.03092921696048238 0 0)
(0.04934795130972053 0 0)
(0.06725826121050697 0 0)
(0.08244787064569158 0 0)
(0.09206881181899543 0 0)
(0.09596084493354511 0 0)
(0.09659849941382703 0 0)
(0.0967230803564095 0 0)
(0.09653316268284619 0 0)
(0.09592802801808192 0 0)
(0.09472353812398583 0 0)
(0.09278374184024601 0 0)
(0.08995011528574229 0 0)
(0.08606691420606585 0 0)
(0.08100275300926911 0 0)
(0.07464051755517902 0 0)
(0.06686234350895404 0 0)
(0.05755180060574688 0 0)
(0.04660923445093081 0 0)
(0.03396914211349625 0 0)
(0.01961447096259333 0 0)
(0.003591035147927251 0 0)
(-0.01395129653577413 0 0)
(-0.03268032331698714 0 0)
(-0.05198566695173497 0 0)
(-0.07063959400563885 0 0)
(-0.08608419766137002 0 0)
(-0.09529752926700759 0 0)
(-0.09864548856577304 0 0)
(-0.09913633276265288 0 0)
(-0.0991866590889115 0 0)
(-0.09894856863524538 0 0)
(-0.09829719249172091 0 0)
(-0.09706607889554149 0 0)
(-0.09511249416255586 0 0)
(-0.09227345189062806 0 0)
(-0.08840456821210763 0 0)
(-0.08339202098513171 0 0)
(-0.07713708646370981 0 0)
(-0.0695447328498715 0 0)
(-0.06052926327145761 0 0)
(-0.05002723733914834 0 0)
(-0.03800817444826771 0 0)
(-0.02448040970373341 0 0)
(-0.009495155630746249 0 0)
(0.006829839770950194 0 0)
(0.02425576142485933 0 0)
(0.04237215835273862 0 0)
(0.06042360362449335 0 0)
(0.07670702709255248 0 0)
(0.08829508545068367 0 0)
(0.09383943704469813 0 0)
(0.09526270714340909 0 0)
(0.0954356531811433 0 0)
(0.09539308338357158 0 0)
(0.09499526362686418 0 0)
(0.09405555365164567 0 0)
(0.09242627456117067 0 0)
(0.08994458348167945 0 0)
(0.08644931618574234 0 0)
(0.0818041245233459 0 0)
(0.07589564504714409 0 0)
(0.06861722365588939 0 0)
(0.05986200947322604 0 0)
(0.04953071271780182 0 0)
(0.03754823786402109 0 0)
(0.02388097357291761 0 0)
(0.008549975608633622 0 0)
(-0.008339331023284598 0 0)
(-0.02652615445208101 0 0)
(-0.04551833199144367 0 0)
(-0.06438883693524951 0 0)
(-0.08111084674944051 0 0)
(-0.09248379227191129 0 0)
(-0.09742682729126131 0 0)
(-0.09856981693878651 0 0)
(-0.09862711638670255 0 0)
(-0.09854378379173963 0 0)
(-0.09808630795261618 0 0)
(-0.09710499154542972 0 0)
(-0.09545220954082392 0 0)
(-0.09295644204322365 0 0)
(-0.08946301822448771 0 0)
(-0.08485617755677938 0 0)
(-0.07904411608970634 0 0)
(-0.07193957874147915 0 0)
(-0.06345878199542326 0 0)
(-0.05353275410461833 0 0)
(-0.04211930656670441 0 0)
(-0.02921232996385389 0 0)
(-0.01484800276679916 0 0)
(0.0008828551602271095 0 0)
(0.01779330561071718 0 0)
(0.03554034025796478 0 0)
(0.05351844531758305 0 0)
(0.070461810616484 0 0)
(0.08386016570266594 0 0)
(0.0912862725387862 0 0)
(0.09377457993218273 0 0)
(0.09403960102496485 0 0)
(0.0941590891003151 0 0)
(0.09393070598436189 0 0)
(0.09324689551200023 0 0)
(0.09192420515953942 0 0)
(0.0897967311782196 0 0)
(0.08668823945234902 0 0)
(0.0824534865450281 0 0)
(0.07698341863774738 0 0)
(0.07018298866160573 0 0)
(0.06195624031492347 0 0)
(0.0522088832566952 0 0)
(0.04086071360685468 0 0)
(0.0278625112763072 0 0)
(0.01321378658130376 0 0)
(-0.0030163840143283 0 0)
(-0.02063452113048129 0 0)
(-0.0392368063233368 0 0)
(-0.05807810372743673 0 0)
(-0.07562349528760912 0 0)
(-0.0890193584156577 0 0)
(-0.09589469998875279 0 0)
(-0.09791418616705257 0 0)
(-0.09807982666118797 0 0)
(-0.09810968050960693 0 0)
(-0.09781440913773581 0 0)
(-0.09707269367940966 0 0)
(-0.09571793415152149 0 0)
(-0.09357217566173749 0 0)
(-0.09045955104711477 0 0)
(-0.08624871001500264 0 0)
(-0.08085077125335241 0 0)
(-0.07419448382373191 0 0)
(-0.0662106250041653 0 0)
(-0.05683364295380158 0 0)
(-0.04601242078354399 0 0)
(-0.03372304583110047 0 0)
(-0.01998003950277034 0 0)
(-0.004846810683862709 0 0)
(0.01153174182965053 0 0)
(0.0288665376512167 0 0)
(0.04666093461086839 0 0)
(0.06396631219525215 0 0)
(0.07875750853034619 0 0)
(0.08820579665786124 0 0)
(0.09196057047062087 0 0)
(0.0927105887625692 0 0)
(0.09280083915285646 0 0)
(0.09271320747082872 0 0)
(0.0922565149740923 0 0)
(0.09123889032804851 0 0)
(0.08947953011905858 0 0)
(0.08678022818170247 0 0)
(0.0829713803401065 0 0)
(0.07793213170398752 0 0)
(0.07157687657999846 0 0)
(0.0638329619187563 0 0)
(0.0546273993058531 0 0)
(0.0438869263657622 0 0)
(0.03155105580684344 0 0)
(0.01759397238553928 0 0)
(0.002047113287412461 0 0)
(-0.01495753813952934 0 0)
(-0.03310052190027585 0 0)
(-0.05178233048512699 0 0)
(-0.06983371717920832 0 0)
(-0.08485833335182437 0 0)
(-0.0938885038940345 0 0)
(-0.0970943020818676 0 0)
(-0.09766264329673169 0 0)
(-0.09761750610052558 0 0)
(-0.09745224993798433 0 0)
(-0.09691407585969422 0 0)
(-0.09585122637205293 0 0)
(-0.09406985449203509 0 0)
(-0.09136503705271203 0 0)
(-0.0875735906643559 0 0)
(-0.08258916552808558 0 0)
(-0.07634698822566474 0 0)
(-0.06880270177022753 0 0)
(-0.05991709036833501 0 0)
(-0.04965080626610453 0 0)
(-0.03797152748938346 0 0)
(-0.02486992374521597 0 0)
(-0.01037482000540028 0 0)
(0.005420442249585019 0 0)
(0.02229455980368307 0 0)
(0.03983331553662664 0 0)
(0.05728824356726415 0 0)
(0.07307389151723792 0 0)
(0.08451861177016377 0 0)
(0.08997164140458858 0 0)
(0.09137027919551038 0 0)
(0.09141394725723767 0 0)
(0.09140095851430002 0 0)
(0.09108913039093153 0 0)
(0.09034396200218556 0 0)
(0.08895802348227543 0 0)
(0.08670492466334019 0 0)
(0.08337193844692704 0 0)
(0.07880166288619371 0 0)
(0.07289302112208372 0 0)
(0.06558329087787046 0 0)
(0.05683205068973247 0 0)
(0.04660790209950028 0 0)
(0.03487637329751845 0 0)
(0.02160199477430142 0 0)
(0.0067734934631939 0 0)
(-0.009548648029811731 0 0)
(-0.02714036839618433 0 0)
(-0.04552475236832548 0 0)
(-0.0638055207960576 0 0)
(-0.08006680468667528 0 0)
(-0.09129551085703007 0 0)
(-0.09619758623339483 0 0)
(-0.0972615715023525 0 0)
(-0.09722679911322427 0 0)
(-0.09705582051199395 0 0)
(-0.09661547956376565 0 0)
(-0.09577653493540832 0 0)
(-0.0943452055346878 0 0)
(-0.09209225681812269 0 0)
(-0.08879808224250317 0 0)
(-0.08429880117466505 0 0)
(-0.07849668342662738 0 0)
(-0.07135193154121734 0 0)
(-0.06286524246367943 0 0)
(-0.05305074855720714 0 0)
(-0.04191052588260301 0 0)
(-0.02943096722037199 0 0)
(-0.01560557266739535 0 0)
(-0.0004684184669845929 0 0)
(0.01584383840205862 0 0)
(0.03300855219674853 0 0)
(0.05043712673508609 0 0)
(0.06692318959561698 0 0)
(0.08008505905439396 0 0)
(0.08758570022577558 0 0)
(0.0900028206789041 0 0)
(0.09030899692188819 0 0)
(0.09011819904730259 0 0)
(0.08981694858256002 0 0)
(0.08917734630361393 0 0)
(0.08806906442976567 0 0)
(0.08627428380693586 0 0)
(0.08352594614348349 0 0)
(0.07957041738842015 0 0)
(0.07421837672838426 0 0)
(0.06736749601674823 0 0)
(0.05899780597261232 0 0)
(0.04914474947443673 0 0)
(0.03786019833167655 0 0)
(0.02517208429393466 0 0)
(0.01106932998854489 0 0)
(-0.004471119996567062 0 0)
(-0.02137365036225728 0 0)
(-0.03930291724242601 0 0)
(-0.05756598581053455 0 0)
(-0.07468880344532064 0 0)
(-0.08788287497232163 0 0)
(-0.09490598169678618 0 0)
(-0.09693018519032383 0 0)
(-0.09710762362432641 0 0)
(-0.09688170802520132 0 0)
(-0.09643442578690123 0 0)
(-0.09560817948169241 0 0)
(-0.09431079664163329 0 0)
(-0.09239339462957968 0 0)
(-0.0896480773819939 0 0)
(-0.08584076048791318 0 0)
(-0.08074454720674089 0 0)
(-0.07417493385061513 0 0)
(-0.06603708122803278 0 0)
(-0.05637924533040503 0 0)
(-0.04540551399866546 0 0)
(-0.03337396517341453 0 0)
(-0.02036285193365352 0 0)
(-0.006205443901186745 0 0)
(0.009542488059426681 0 0)
(0.02580136823086177 0 0)
(0.04520236586733115 0 0)
)
;

boundaryField
{
    inlet
    {
        type            zeroGradient;
    }
    outlet
    {
        type            velocityOutletNSCBCx;
        pInf            101325;
        gamma           1.4;
        etaAc           1;
        fieldInf        (-1 0 0);
        lInf            2.25;
        value           uniform (0.0527352426290198 0 0);
    }
    frontAndBack
    {
        type            empty;
    }
}


// ************************************************************************* //
