/*--------------------------------*- C++ -*----------------------------------*\
| =========                 |                                                 |
| \\      /  F ield         | OpenFOAM: The Open Source CFD Toolbox           |
|  \\    /   O peration     | Version:  v2012                                 |
|   \\  /    A nd           | Website:  www.openfoam.com                      |
|    \\/     M anipulation  |                                                 |
\*---------------------------------------------------------------------------*/
FoamFile
{
    version     2.0;
    format      ascii;
    class       volVectorField;
    location    "0.012";
    object      UMean;
}
// * * * * * * * * * * * * * * * * * * * * * * * * * * * * * * * * * * * * * //

dimensions      [0 1 -1 0 0 0 0];


internalField   nonuniform List<vector> 
1000
(
(-2.821049598469141e-05 0 0)
(1.937174783135694e-06 0 0)
(1.954291831002386e-05 0 0)
(5.310769001961161e-05 0 0)
(9.245082472427359e-05 0 0)
(0.0001341847651751697 0 0)
(0.0001877203396027284 0 0)
(0.0002446499862586164 0 0)
(0.0003111914798612722 0 0)
(0.0003810139995357851 0 0)
(0.0004536126788003494 0 0)
(0.0005257545015827843 0 0)
(0.0005975089759685281 0 0)
(0.0006683088892669877 0 0)
(0.0007370337303311412 0 0)
(0.0008023734754397319 0 0)
(0.0008626602641855479 0 0)
(0.0009168286029420469 0 0)
(0.0009637488987689092 0 0)
(0.00100275682313924 0 0)
(0.001033105317519007 0 0)
(0.001054241361322272 0 0)
(0.001065830207106176 0 0)
(0.001067528329961326 0 0)
(0.001059434068314288 0 0)
(0.001041541323597425 0 0)
(0.00101435665196079 0 0)
(0.0009782206830975567 0 0)
(0.0009338460760584069 0 0)
(0.0008816124111809401 0 0)
(0.00082222991369086 0 0)
(0.0007566170748243377 0 0)
(0.0006871587195449399 0 0)
(0.0006164550856231684 0 0)
(0.0005457811816712639 0 0)
(0.0004752919740305041 0 0)
(0.0004055276823078605 0 0)
(0.0003372594055478982 0 0)
(0.0002716976715826739 0 0)
(0.0002102069305807835 0 0)
(0.0001542885258971162 0 0)
(0.0001052301863696967 0 0)
(6.416547344628631e-05 0 0)
(3.18324765037943e-05 0 0)
(8.823425904851751e-06 0 0)
(-4.562464930812884e-06 0 0)
(-8.084382220409612e-06 0 0)
(-1.74935452872612e-06 0 0)
(1.437624826722103e-05 0 0)
(3.997173059680215e-05 0 0)
(7.470884820304449e-05 0 0)
(0.0001181559237582709 0 0)
(0.0001699423913492836 0 0)
(0.0002294183951721064 0 0)
(0.0002951060744608703 0 0)
(0.0003641693291012614 0 0)
(0.0004340538328662622 0 0)
(0.0005038947147332382 0 0)
(0.000573560285380379 0 0)
(0.00064257447742254 0 0)
(0.0007103238559295056 0 0)
(0.0007757083858155108 0 0)
(0.0008375734409410226 0 0)
(0.0008944156635039936 0 0)
(0.0009449512498255462 0 0)
(0.0009878047536660448 0 0)
(0.001022107915857161 0 0)
(0.001047039817540763 0 0)
(0.001062323020101113 0 0)
(0.001067654474785687 0 0)
(0.001063167094064297 0 0)
(0.00104887896363029 0 0)
(0.001025155490555338 0 0)
(0.0009921133079718162 0 0)
(0.0009501458362966612 0 0)
(0.0008994192581657521 0 0)
(0.0008407458945406205 0 0)
(0.0007756910075555438 0 0)
(0.0007073776950164758 0 0)
(0.0006382407570479911 0 0)
(0.0005691766217194538 0 0)
(0.0005002473727146847 0 0)
(0.0004318619826083453 0 0)
(0.000364558425375886 0 0)
(0.0002992535685195806 0 0)
(0.0002370156443622689 0 0)
(0.0001792005937671763 0 0)
(0.0001271422476627404 0 0)
(8.223570518818998e-05 0 0)
(4.559588021212689e-05 0 0)
(1.818694514647721e-05 0 0)
(5.46544597060006e-07 0 0)
(-6.967599620247367e-06 0 0)
(-4.376044533309262e-06 0 0)
(8.256746566577934e-06 0 0)
(3.065396474717031e-05 0 0)
(6.264926987079351e-05 0 0)
(0.0001039520420685621 0 0)
(0.0001543238102388339 0 0)
(0.0002129052766871359 0 0)
(0.0002777835593089489 0 0)
(0.0003456787660325424 0 0)
(0.0004142295505192484 0 0)
(0.0004827057297848779 0 0)
(0.0005510878316281653 0 0)
(0.0006189016537069929 0 0)
(0.0006857754349801996 0 0)
(0.000750744448711524 0 0)
(0.0008129541784039571 0 0)
(0.0008710247700786206 0 0)
(0.0009238070450581546 0 0)
(0.0009698026267270194 0 0)
(0.001007982723940478 0 0)
(0.001037167511013369 0 0)
(0.001056836549476177 0 0)
(0.001066387990985677 0 0)
(0.001065886009131236 0 0)
(0.001055205472443363 0 0)
(0.001034735157797201 0 0)
(0.0010044850470363 0 0)
(0.000964850252404148 0 0)
(0.0009159369826615747 0 0)
(0.0008586856474416906 0 0)
(0.000794835499029348 0 0)
(0.0007277293374783866 0 0)
(0.0006597764359673044 0 0)
(0.0005919138435841466 0 0)
(0.0005241140948505407 0 0)
(0.000456774488332979 0 0)
(0.0003902488943629859 0 0)
(0.0003253540770054844 0 0)
(0.0002628940238103359 0 0)
(0.0002041201921142416 0 0)
(0.0001501688759077973 0 0)
(0.0001024824640864914 0 0)
(6.221572192298184e-05 0 0)
(3.060623157385562e-05 0 0)
(8.430129463794871e-06 0 0)
(-3.615179093768571e-06 0 0)
(-5.333793975553375e-06 0 0)
(3.426248655152376e-06 0 0)
(2.245588209785107e-05 0 0)
(5.167628772128732e-05 0 0)
(9.075500794319762e-05 0 0)
(0.0001394439061500994 0 0)
(0.0001966950194895676 0 0)
(0.0002604512432091442 0 0)
(0.0003272351457050022 0 0)
(0.0003947132726070233 0 0)
(0.0004621045056568992 0 0)
(0.0005294530551798045 0 0)
(0.0005963113603965337 0 0)
(0.0006624409134193333 0 0)
(0.0007269732820840648 0 0)
(0.000789251462128419 0 0)
(0.0008480129616000754 0 0)
(0.0009022741905724353 0 0)
(0.0009505652143476042 0 0)
(0.0009918536251101882 0 0)
(0.001024802232889101 0 0)
(0.001048694517077376 0 0)
(0.001062648281752551 0 0)
(0.001066485799093421 0 0)
(0.001059845111414404 0 0)
(0.00104298553776718 0 0)
(0.00101581310590182 0 0)
(0.0009787470336862858 0 0)
(0.0009318920512805956 0 0)
(0.0008763151222579242 0 0)
(0.0008137948382425195 0 0)
(0.0007478212578645681 0 0)
(0.0006808757688926117 0 0)
(0.0006140221316417244 0 0)
(0.0005471754112778772 0 0)
(0.0004807191614554735 0 0)
(0.0004148871440516817 0 0)
(0.0003504084570576736 0 0)
(0.0002879269765463457 0 0)
(0.0002285649090356105 0 0)
(0.0001733128295246021 0 0)
(0.0001235510822939831 0 0)
(8.039544348874821e-05 0 0)
(4.519556599971846e-05 0 0)
(1.88557056089482e-05 0 0)
(2.359563323905689e-06 0 0)
(-3.874245925260268e-06 0 0)
(6.267097025486776e-07 0 0)
(1.580635087636572e-05 0 0)
(4.178074672119776e-05 0 0)
(7.821743791523706e-05 0 0)
(0.0001248894416875116 0 0)
(0.0001805985610043353 0 0)
(0.0002431716039281092 0 0)
(0.00030894109440729 0 0)
(0.0003754910838371184 0 0)
(0.0004419562429702 0 0)
(0.0005084172496549842 0 0)
(0.000574453107091624 0 0)
(0.0006399185148703018 0 0)
(0.0007040227197920092 0 0)
(0.0007662484759074373 0 0)
(0.0008254410580392525 0 0)
(0.0008807566142256675 0 0)
(0.0009307910996246981 0 0)
(0.0009745697615495576 0 0)
(0.001010692369818507 0 0)
(0.001038356952690082 0 0)
(0.00105646496455336 0 0)
(0.001064640508993936 0 0)
(0.001062251034471896 0 0)
(0.001049370530768114 0 0)
(0.001025727251211131 0 0)
(0.0009916722970342759 0 0)
(0.0009472708921431326 0 0)
(0.000893628339964124 0 0)
(0.0008325501991163027 0 0)
(0.0007676477275015884 0 0)
(0.00070159347747217 0 0)
(0.0006356073683027998 0 0)
(0.0005695955619959721 0 0)
(0.000503916702545984 0 0)
(0.0004387214295782972 0 0)
(0.0003746662643138992 0 0)
(0.0003122666165547768 0 0)
(0.0002525423591686653 0 0)
(0.0001963489448356298 0 0)
(0.000144993057597427 0 0)
(9.951531108572544e-05 0 0)
(6.129893587328351e-05 0 0)
(3.13036111045015e-05 0 0)
(1.069590713877063e-05 0 0)
(8.191566641833452e-08 0 0)
(2.064053484947445e-07 0 0)
(1.123274809894196e-05 0 0)
(3.349669143138448e-05 0 0)
(6.678893403021955e-05 0 0)
(0.000110962811495699 0 0)
(0.0001647989397654722 0 0)
(0.0002260477276263661 0 0)
(0.0002908526336934348 0 0)
(0.00035657609766908 0 0)
(0.0004222318582410383 0 0)
(0.0004879079946743667 0 0)
(0.0005532193348424377 0 0)
(0.0006180795298465032 0 0)
(0.0006817703988741245 0 0)
(0.00074387869701618 0 0)
(0.0008033443904341933 0 0)
(0.0008594408015016561 0 0)
(0.0009108414212774961 0 0)
(0.000956640672735076 0 0)
(0.0009954407559232474 0 0)
(0.001026393015063515 0 0)
(0.001048284566089503 0 0)
(0.001060570044702287 0 0)
(0.001062414418459095 0 0)
(0.001053677932328513 0 0)
(0.001033899389679019 0 0)
(0.001003283552097701 0 0)
(0.0009617906932685343 0 0)
(0.0009104619268816896 0 0)
(0.0008510492102198248 0 0)
(0.0007872489875179881 0 0)
(0.0007220140936680092 0 0)
(0.0006568089984340303 0 0)
(0.0005915451316643114 0 0)
(0.0005265740953616805 0 0)
(0.0004619644930961009 0 0)
(0.0003983318187955355 0 0)
(0.0003360740174314189 0 0)
(0.0002761409218581299 0 0)
(0.0002192543838785259 0 0)
(0.0001666546981221946 0 0)
(0.0001192901961774296 0 0)
(7.853721080843773e-05 0 0)
(4.536729464667315e-05 0 0)
(2.105191469511463e-05 0 0)
(6.33926629290789e-06 0 0)
(2.180750619952982e-06 0 0)
(8.956683459844572e-06 0 0)
(2.722186315602957e-05 0 0)
(5.694724865680376e-05 0 0)
(9.813383330039167e-05 0 0)
(0.0001496477779784105 0 0)
(0.0002092914526628415 0 0)
(0.0002730766857778818 0 0)
(0.000338019537110081 0 0)
(0.0004029261891140109 0 0)
(0.0004678712816094092 0 0)
(0.0005325066645420733 0 0)
(0.0005967944953547622 0 0)
(0.0006600925937600176 0 0)
(0.0007220581011466063 0 0)
(0.0007817231044746043 0 0)
(0.0008384448626818499 0 0)
(0.0008909762069092183 0 0)
(0.0009384573204989738 0 0)
(0.0009795325206626525 0 0)
(0.001013314096199758 0 0)
(0.00103853828159215 0 0)
(0.001054542430664703 0 0)
(0.001060376195894563 0 0)
(0.001055707791091676 0 0)
(0.001039927662259611 0 0)
(0.00101305094615935 0 0)
(0.0009749725332358157 0 0)
(0.0009264478834622151 0 0)
(0.0008691639383375143 0 0)
(0.0008068244908648414 0 0)
(0.0007425937019577854 0 0)
(0.0006781622238584232 0 0)
(0.0006136251596466699 0 0)
(0.0005492761109531503 0 0)
(0.0004851146487944878 0 0)
(0.0004217319838594361 0 0)
(0.0003594917663591691 0 0)
(0.000299193983349813 0 0)
(0.0002415680622418865 0 0)
(0.0001878259529115127 0 0)
(0.0001388468972333528 0 0)
(9.588734108077215e-05 0 0)
(6.006800284241889e-05 0 0)
(3.263257438345101e-05 0 0)
(1.431649629345065e-05 0 0)
(6.146001373640628e-06 0 0)
(8.850526253695404e-06 0 0)
(2.306512004125263e-05 0 0)
(4.888458286565215e-05 0 0)
(8.663313134874076e-05 0 0)
(0.0001352768385888274 0 0)
(0.0001927378514045924 0 0)
(0.000255349306403651 0 0)
(0.0003197806812416336 0 0)
(0.000384383962649102 0 0)
(0.0004492674524369428 0 0)
(0.0005140398221179625 0 0)
(0.0005786462201562667 0 0)
(0.0006424882267673102 0 0)
(0.0007051987228296262 0 0)
(0.0007660259472966906 0 0)
(0.0008240993007418054 0 0)
(0.0008782283887741541 0 0)
(0.0009278114287475829 0 0)
(0.0009710539287652564 0 0)
(0.001007426164885006 0 0)
(0.001035546110948623 0 0)
(0.001054747182348841 0 0)
(0.001063926980845041 0 0)
(0.001062592565914835 0 0)
(0.001050063753574379 0 0)
(0.001026203507370417 0 0)
(0.0009906280808204208 0 0)
(0.0009442086153036149 0 0)
(0.0008883521158748913 0 0)
(0.0008262610382464162 0 0)
(0.0007615701642338392 0 0)
(0.0006962302476899296 0 0)
(0.0006307371288420604 0 0)
(0.000565197634741515 0 0)
(0.0005000580432614387 0 0)
(0.0004354642656434416 0 0)
(0.000371854975276821 0 0)
(0.0003100675260909827 0 0)
(0.0002506434433733548 0 0)
(0.0001946132989714957 0 0)
(0.0001430863677498105 0 0)
(9.717326680744904e-05 0 0)
(5.798759328154867e-05 0 0)
(2.688160778214058e-05 0 0)
(4.566350324043243e-06 0 0)
(-7.572716343102204e-06 0 0)
(-9.0462528622128e-06 0 0)
(1.114782869321683e-06 0 0)
(2.323973263698959e-05 0 0)
(5.749850120573734e-05 0 0)
(0.0001033385825904992 0 0)
(0.0001588303384340355 0 0)
(0.0002202798622093551 0 0)
(0.0002845677345484277 0 0)
(0.0003492664168471192 0 0)
(0.0004141309572680796 0 0)
(0.0004788877692956151 0 0)
(0.0005435032846441123 0 0)
(0.0006073322855593295 0 0)
(0.0006701929403120445 0 0)
(0.000731282738393534 0 0)
(0.0007901258374651819 0 0)
(0.0008453707109359965 0 0)
(0.0008963962504045406 0 0)
(0.000941924320341682 0 0)
(0.0009808768330560446 0 0)
(0.0010122123882076 0 0)
(0.001034928048160036 0 0)
(0.001048239942210934 0 0)
(0.001051105339105198 0 0)
(0.001042940340528501 0 0)
(0.001023477667889906 0 0)
(0.0009922402559679896 0 0)
(0.0009497760349105302 0 0)
(0.0008972551938237547 0 0)
(0.0008374429546250062 0 0)
(0.0007739573845616524 0 0)
(0.0007096048893301431 0 0)
(0.0006449321342356675 0 0)
(0.0005803294659540108 0 0)
(0.0005158300998452486 0 0)
(0.0004519689333432524 0 0)
(0.0003889207018812098 0 0)
(0.0003273364984336814 0 0)
(0.0002679836029928026 0 0)
(0.0002115664776528204 0 0)
(0.0001589640270028119 0 0)
(0.0001116930506723612 0 0)
(7.042069083224077e-05 0 0)
(3.670465991595588e-05 0 0)
(1.144919021775491e-05 0 0)
(-4.289588274424572e-06 0 0)
(-9.53584988885432e-06 0 0)
(-3.331306534662024e-06 0 0)
(1.472292588259207e-05 0 0)
(4.507552510544835e-05 0 0)
(8.723190178738263e-05 0 0)
(0.0001399430676104629 0 0)
(0.0001997772895330885 0 0)
(0.000263192096751687 0 0)
(0.0003275253471425976 0 0)
(0.0003919668124515255 0 0)
(0.0004563300903065061 0 0)
(0.0005205275927797743 0 0)
(0.0005841992805275489 0 0)
(0.0006468888487096539 0 0)
(0.0007079924271179127 0 0)
(0.0007670899431124256 0 0)
(0.0008230697475218102 0 0)
(0.0008750654321405084 0 0)
(0.0009222027661514591 0 0)
(0.0009632478778752422 0 0)
(0.0009971260598673202 0 0)
(0.001022948771266734 0 0)
(0.001039563570019242 0 0)
(0.001046293393158892 0 0)
(0.001042101887268249 0 0)
(0.001026717912445821 0 0)
(0.0009996901165045759 0 0)
(0.0009610429223287916 0 0)
(0.0009118259447044309 0 0)
(0.0008544453301952994 0 0)
(0.0007921176526163687 0 0)
(0.0007284317033878443 0 0)
(0.0006643518146871416 0 0)
(0.0006003407473404162 0 0)
(0.0005362474770338236 0 0)
(0.0004729008276322127 0 0)
(0.0004101131478402607 0 0)
(0.0003486580642735106 0 0)
(0.000289030167781996 0 0)
(0.0002322496807704451 0 0)
(0.0001787224228809473 0 0)
(0.0001299382095181905 0 0)
(8.685941334593771e-05 0 0)
(5.063505150698361e-05 0 0)
(2.24585572097093e-05 0 0)
(3.333160582297832e-06 0 0)
(-5.622405482444104e-06 0 0)
(-3.561398316635033e-06 0 0)
(1.022602905778513e-05 0 0)
(3.633295126493829e-05 0 0)
(7.447618085624724e-05 0 0)
(0.0001238267426316509 0 0)
(0.000181495080936669 0 0)
(0.0002436897203294285 0 0)
(0.0003073752963737567 0 0)
(0.0003713029664290405 0 0)
(0.0004351377489165612 0 0)
(0.0004987579467520049 0 0)
(0.0005620872029379704 0 0)
(0.0006245161745176986 0 0)
(0.0006855446976065287 0 0)
(0.0007446450034865101 0 0)
(0.0008011551576967953 0 0)
(0.0008539954354726485 0 0)
(0.0009021829521713823 0 0)
(0.0009450922807342823 0 0)
(0.0009811294344123176 0 0)
(0.001009644692549894 0 0)
(0.001029364249117838 0 0)
(0.001039661443161966 0 0)
(0.001039213232342986 0 0)
(0.001027823582473156 0 0)
(0.001004843571990792 0 0)
(0.0009702871363551304 0 0)
(0.0009244871397042688 0 0)
(0.0008697560248116475 0 0)
(0.0008089447024765857 0 0)
(0.0007458534611888272 0 0)
(0.0006822968007232305 0 0)
(0.0006188094766154922 0 0)
(0.0005550665446110122 0 0)
(0.0004920801205391221 0 0)
(0.0004295902037628904 0 0)
(0.0003682197669892328 0 0)
(0.0003083770321524791 0 0)
(0.0002511086408423397 0 0)
(0.0001968949754482382 0 0)
(0.0001466848023622851 0 0)
(0.0001019300641673481 0 0)
(6.351831094140633e-05 0 0)
(3.249984345395478e-05 0 0)
(1.031403212637999e-05 0 0)
(-2.42511854850142e-06 0 0)
(-4.366110239719064e-06 0 0)
(5.19066668288044e-06 0 0)
(2.68958057297905e-05 0 0)
(6.085474374606501e-05 0 0)
(0.0001063782187491795 0 0)
(0.0001613802643436013 0 0)
(0.0002221169840461906 0 0)
(0.0002849344569809038 0 0)
(0.0003482651506313912 0 0)
(0.0004115180368138044 0 0)
(0.0004744998998645944 0 0)
(0.0005373809662567363 0 0)
(0.0005995122481406677 0 0)
(0.0006603141949916911 0 0)
(0.0007194585177539987 0 0)
(0.0007761441518303906 0 0)
(0.0008297915188950546 0 0)
(0.0008788774094815871 0 0)
(0.000923246268168004 0 0)
(0.0009613347481148715 0 0)
(0.0009921328356939276 0 0)
(0.001014742423750606 0 0)
(0.001028255194395523 0 0)
(0.001031499217325448 0 0)
(0.001023921838680753 0 0)
(0.001004939096610832 0 0)
(0.0009744323727623738 0 0)
(0.0009323978388591445 0 0)
(0.0008804681575045148 0 0)
(0.0008216666668679689 0 0)
(0.000759175288656356 0 0)
(0.0006961299939129582 0 0)
(0.0006330625268934838 0 0)
(0.0005698350168208756 0 0)
(0.0005070477210215772 0 0)
(0.0004448162643471125 0 0)
(0.0003835620415689223 0 0)
(0.0003236117608310152 0 0)
(0.0002657857727270289 0 0)
(0.0002109880582968744 0 0)
(0.0001596412493006718 0 0)
(0.0001131676703633746 0 0)
(7.282625392912413e-05 0 0)
(3.918332243231092e-05 0 0)
(1.396820197897093e-05 0 0)
(-2.135162220148497e-06 0 0)
(-7.930120406082168e-06 0 0)
(-2.670517289340418e-06 0 0)
(1.462992944770994e-05 0 0)
(4.412643993956923e-05 0 0)
(8.5685759858001e-05 0 0)
(0.0001373514957405589 0 0)
(0.0001963468758902887 0 0)
(0.0002579187881769733 0 0)
(0.0003207023966548674 0 0)
(0.0003833430728328364 0 0)
(0.000445897619042056 0 0)
(0.0005079074029824007 0 0)
(0.0005697647144460383 0 0)
(0.0006303860538586661 0 0)
(0.0006894391746557249 0 0)
(0.0007462444776477081 0 0)
(0.0008003504385818179 0 0)
(0.0008504670427908123 0 0)
(0.0008957229444721388 0 0)
(0.0009357950631210843 0 0)
(0.000968674719162759 0 0)
(0.0009938277620994498 0 0)
(0.001010373510989177 0 0)
(0.001017018135048916 0 0)
(0.001013111458517509 0 0)
(0.0009980732107858245 0 0)
(0.0009715429803768285 0 0)
(0.0009335007443064666 0 0)
(0.0008846973319232124 0 0)
(0.0008280949632209404 0 0)
(0.0007667241541053831 0 0)
(0.0007040088921768693 0 0)
(0.0006413252898341023 0 0)
(0.000578685358227776 0 0)
(0.0005157965350245608 0 0)
(0.0004540266579464619 0 0)
(0.0003929074000662986 0 0)
(0.0003328602383346838 0 0)
(0.0002746961684766008 0 0)
(0.0002191112306873349 0 0)
(0.0001671103445847072 0 0)
(0.0001187428123994654 0 0)
(7.683893809156031e-05 0 0)
(4.08214137215707e-05 0 0)
(1.261336260309279e-05 0 0)
(-6.611620761057229e-06 0 0)
(-1.626763792029674e-05 0 0)
(-1.507607964307337e-05 0 0)
(-2.11217899433971e-06 0 0)
(2.285789439484831e-05 0 0)
(6.013576820904171e-05 0 0)
(0.0001082701684874765 0 0)
(0.0001646957259867465 0 0)
(0.000225411234220572 0 0)
(0.0002870017922580197 0 0)
(0.000349118404172698 0 0)
(0.0004112059935184013 0 0)
(0.0004723967071548139 0 0)
(0.0005340190372236886 0 0)
(0.0005942177487746534 0 0)
(0.0006531648235200148 0 0)
(0.0007100143061317883 0 0)
(0.0007643356051310325 0 0)
(0.0008153690062951837 0 0)
(0.0008614444531865467 0 0)
(0.0009030422737005385 0 0)
(0.0009380065525884127 0 0)
(0.000965358909143606 0 0)
(0.0009846770293879881 0 0)
(0.0009946584147635796 0 0)
(0.0009943157208661877 0 0)
(0.0009830100309235162 0 0)
(0.0009604593263172826 0 0)
(0.0009263174635852727 0 0)
(0.0008812461153597949 0 0)
(0.0008268413775796919 0 0)
(0.0007673647131216354 0 0)
(0.0007046782261737391 0 0)
(0.0006424596619327549 0 0)
(0.0005801927008283589 0 0)
(0.0005176708281621942 0 0)
(0.0004560324418514752 0 0)
(0.000394914684079497 0 0)
(0.0003349718099292367 0 0)
(0.000276532559505498 0 0)
(0.000220299362354881 0 0)
(0.0001674700622793811 0 0)
(0.0001179518680390495 0 0)
(7.403250782644314e-05 0 0)
(3.622377577743454e-05 0 0)
(5.149664467911972e-06 0 0)
(-1.724961337077303e-05 0 0)
(-3.01480389570711e-05 0 0)
(-3.298480374786239e-05 0 0)
(-2.441954920239035e-05 0 0)
(-3.857504590156003e-06 0 0)
(2.887847326340178e-05 0 0)
(7.323564911767964e-05 0 0)
(0.0001266094748820689 0 0)
(0.0001859066064638673 0 0)
(0.0002466520199364929 0 0)
(0.0003078455065931448 0 0)
(0.0003693687173514024 0 0)
(0.0004303406575281538 0 0)
(0.0004908069845947873 0 0)
(0.0005508971352488262 0 0)
(0.0006097129707949185 0 0)
(0.0006665293523874778 0 0)
(0.0007210288045224762 0 0)
(0.0007725056598274131 0 0)
(0.0008198126294735932 0 0)
(0.0008621397276165605 0 0)
(0.0008992145764716344 0 0)
(0.0009285603604394589 0 0)
(0.00095046492014051 0 0)
(0.0009635531436978959 0 0)
(0.0009664376690129217 0 0)
(0.0009588334300918062 0 0)
(0.0009402216095073356 0 0)
(0.0009100061433759909 0 0)
(0.0008687045392553849 0 0)
(0.0008172550722434422 0 0)
(0.0007593317359951555 0 0)
(0.0006977553313819591 0 0)
(0.0006353592308499033 0 0)
(0.0005734267936702658 0 0)
(0.0005116610352227331 0 0)
(0.0004493914482756869 0 0)
(0.0003889423909012215 0 0)
(0.0003289100986009431 0 0)
(0.0002702570139462931 0 0)
(0.0002135785630959156 0 0)
(0.0001597603903624674 0 0)
(0.0001096679755190902 0 0)
(6.340863748416631e-05 0 0)
(2.394042091431543e-05 0 0)
(-9.473450352003191e-06 0 0)
(-3.490262579806844e-05 0 0)
(-5.109294572562497e-05 0 0)
(-5.777581881347199e-05 0 0)
(-5.334727697215456e-05 0 0)
(-3.721498912085572e-05 0 0)
(-8.987835402005958e-06 0 0)
(3.106082771869928e-05 0 0)
(8.135891431639605e-05 0 0)
(0.0001383408516492417 0 0)
(0.000198434811347634 0 0)
(0.000258714042075241 0 0)
(0.000319412538937885 0 0)
(0.0003801574861323868 0 0)
(0.0004395467527398157 0 0)
(0.0004997399474008183 0 0)
(0.0005579603155244045 0 0)
(0.0006148316726987539 0 0)
(0.0006694201674255702 0 0)
(0.0007211479357806111 0 0)
(0.0007695242909130177 0 0)
(0.0008125060796866899 0 0)
(0.0008511774245452494 0 0)
(0.0008828201580191273 0 0)
(0.0009068413656119813 0 0)
(0.0009225399434190009 0 0)
(0.0009290477837234525 0 0)
(0.0009248181195916898 0 0)
(0.0009098732681415732 0 0)
(0.000883608425895134 0 0)
(0.0008460450697748098 0 0)
(0.0007980565352447503 0 0)
(0.0007419057544619128 0 0)
(0.0006817264574649048 0 0)
(0.0006197063765252794 0 0)
(0.0005575206586836214 0 0)
(0.0004962066230833087 0 0)
(0.0004342941621097816 0 0)
(0.0003737203591784404 0 0)
(0.0003136374189690886 0 0)
(0.0002550451309758409 0 0)
(0.0001979186218507414 0 0)
(0.0001433479655522046 0 0)
(9.233526741431418e-05 0 0)
(4.472661249084766e-05 0 0)
(3.255453553033395e-06 0 0)
(-3.208073517188726e-05 0 0)
(-6.073886109195087e-05 0 0)
(-8.019447743268997e-05 0 0)
(-8.992916380278778e-05 0 0)
(-8.987499250000411e-05 0 0)
(-7.811639142131516e-05 0 0)
(-5.438771688220422e-05 0 0)
(-1.879189530865222e-05 0 0)
(2.785866607008538e-05 0 0)
(8.230350652942551e-05 0 0)
(0.0001411926796363771 0 0)
(0.000200977686407427 0 0)
(0.0002604906198211798 0 0)
(0.0003207250517508183 0 0)
(0.0003801744773661188 0 0)
(0.0004388273068033894 0 0)
(0.0004973047646034188 0 0)
(0.0005540502368851685 0 0)
(0.0006086338116711708 0 0)
(0.0006606318661465504 0 0)
(0.0007095501378148393 0 0)
(0.0007537112965053989 0 0)
(0.0007934206088475935 0 0)
(0.0008269772075282314 0 0)
(0.000852964666868769 0 0)
(0.0008713428041077422 0 0)
(0.0008810050764706187 0 0)
(0.0008799031956388706 0 0)
(0.0008686858007680048 0 0)
(0.0008463485809571127 0 0)
(0.0008126539102876806 0 0)
(0.0007681445763022773 0 0)
(0.0007146625255568276 0 0)
(0.0006556020437267051 0 0)
(0.000594293297652356 0 0)
(0.0005323033398636436 0 0)
(0.0004707393872972982 0 0)
(0.0004097188691934586 0 0)
(0.0003481456411455365 0 0)
(0.0002889096894395295 0 0)
(0.000229936864756965 0 0)
(0.0001725613650553505 0 0)
(0.0001173846539529553 0 0)
(6.525021074494129e-05 0 0)
(1.704693843287568e-05 0 0)
(-2.708694382633797e-05 0 0)
(-6.424764784904047e-05 0 0)
(-9.500231566194272e-05 0 0)
(-0.0001177841617753005 0 0)
(-0.000131091257833888 0 0)
(-0.0001346058557337898 0 0)
(-0.0001272453401674178 0 0)
(-0.0001079418294600623 0 0)
(-7.686094639872259e-05 0 0)
(-3.43799919075142e-05 0 0)
(1.737092995694803e-05 0 0)
(7.428431426573276e-05 0 0)
(0.0001335002037285882 0 0)
(0.0001926180585970314 0 0)
(0.0002514186119817429 0 0)
(0.0003109733187848688 0 0)
(0.0003685009875839132 0 0)
(0.0004272082276250434 0 0)
(0.0004833105803112039 0 0)
(0.0005381148635169315 0 0)
(0.0005901998944384868 0 0)
(0.0006393946205448768 0 0)
(0.0006848945035966213 0 0)
(0.0007249014901638353 0 0)
(0.0007603159196968554 0 0)
(0.0007887928519215993 0 0)
(0.0008088529099299034 0 0)
(0.0008212517288416656 0 0)
(0.0008242228092908731 0 0)
(0.0008160615640774445 0 0)
(0.0007974876568747828 0 0)
(0.0007676791338799262 0 0)
(0.000726811254611189 0 0)
(0.0006763173699206458 0 0)
(0.0006188679668523146 0 0)
(0.0005583514396013243 0 0)
(0.0004968441918164055 0 0)
(0.0004348863717495551 0 0)
(0.0003741693147551719 0 0)
(0.0003129829547669404 0 0)
(0.0002530206891594829 0 0)
(0.0001942412580787173 0 0)
(0.0001367529654339078 0 0)
(8.097634081391205e-05 0 0)
(2.796143555720174e-05 0 0)
(-2.120449312912353e-05 0 0)
(-6.688962159840269e-05 0 0)
(-0.0001060104528525209 0 0)
(-0.000139018908404223 0 0)
(-0.000164972427966677 0 0)
(-0.0001816074259366028 0 0)
(-0.0001882148260578885 0 0)
(-0.0001854329221112907 0 0)
(-0.0001705517716338045 0 0)
(-0.0001439085362713226 0 0)
(-0.0001057596938516937 0 0)
(-5.75283783267177e-05 0 0)
(-2.472077798184024e-06 0 0)
(5.535281525511006e-05 0 0)
(0.0001141846384333666 0 0)
(0.0001723300178806081 0 0)
(0.0002306823083460616 0 0)
(0.0002889261803621947 0 0)
(0.0003453210507081291 0 0)
(0.0004024993125776958 0 0)
(0.0004568835201513902 0 0)
(0.0005090945992661796 0 0)
(0.000558509603609274 0 0)
(0.0006046767604141772 0 0)
(0.0006459078297202926 0 0)
(0.0006824758154534159 0 0)
(0.0007126496503760654 0 0)
(0.0007353718328043734 0 0)
(0.0007497991315676843 0 0)
(0.000755824346134788 0 0)
(0.0007512004184284999 0 0)
(0.0007360869299322341 0 0)
(0.0007102517180878383 0 0)
(0.0006731638083156163 0 0)
(0.0006258039856202989 0 0)
(0.0005707196972229139 0 0)
(0.0005108378714443029 0 0)
(0.0004499745977091807 0 0)
(0.000388594364753806 0 0)
(0.0003267847546646234 0 0)
(0.0002667937543673163 0 0)
(0.0002052902326402478 0 0)
(0.0001477688398439364 0 0)
(8.949475511197289e-05 0 0)
(3.352891815942639e-05 0 0)
(-2.028344459298529e-05 0 0)
(-7.072433992219721e-05 0 0)
(-0.0001169601489858852 0 0)
(-0.0001590267035416542 0 0)
(-0.0001940188378804277 0 0)
(-0.0002219068797697423 0 0)
(-0.0002426697518175535 0 0)
(-0.0002527519449410054 0 0)
(-0.0002527491066572976 0 0)
(-0.0002428340568994201 0 0)
(-0.0002206839954023793 0 0)
(-0.0001869535289097467 0 0)
(-0.000142659353136826 0 0)
(-9.010953849106127e-05 0 0)
(-3.378565093009061e-05 0 0)
(2.450130197970067e-05 0 0)
(8.233807912471886e-05 0 0)
(0.0001394774429132756 0 0)
(0.0001975010624929975 0 0)
(0.0002539013888811329 0 0)
(0.0003098640727739022 0 0)
(0.0003645694134737331 0 0)
(0.0004168363154693319 0 0)
(0.0004663572714358025 0 0)
(0.0005128143687739974 0 0)
(0.0005555008532005874 0 0)
(0.0005924802781873043 0 0)
(0.0006247315758532072 0 0)
(0.0006496567767132833 0 0)
(0.0006662514326992616 0 0)
(0.000674937535872229 0 0)
(0.0006742555138089627 0 0)
(0.0006620862699371365 0 0)
(0.0006397964471554409 0 0)
(0.0006066991448241823 0 0)
(0.0005628351746247213 0 0)
(0.0005100860842492768 0 0)
(0.000452060999683528 0 0)
(0.0003909878585330666 0 0)
(0.0003302303766724599 0 0)
(0.0002690086233239593 0 0)
(0.0002074578242699317 0 0)
(0.0001481454173283962 0 0)
(8.702070856477388e-05 0 0)
(3.10755726017873e-05 0 0)
(-2.588352448175587e-05 0 0)
(-8.026167613698921e-05 0 0)
(-0.0001316543577260766 0 0)
(-0.0001792153906299103 0 0)
(-0.0002223680098352935 0 0)
(-0.0002598197472501982 0 0)
(-0.0002905448289882103 0 0)
(-0.0003132031638582149 0 0)
(-0.0003282847191518737 0 0)
(-0.0003315591486273926 0 0)
(-0.0003250914623361516 0 0)
(-0.0003077845439926597 0 0)
(-0.0002783544106162195 0 0)
(-0.0002381471296507323 0 0)
(-0.0001889558068626117 0 0)
(-0.0001339193345282626 0 0)
(-7.750869547798386e-05 0 0)
(-1.956742202753203e-05 0 0)
(3.766864566194647e-05 0 0)
(9.344071301739685e-05 0 0)
(0.0001511024539473793 0 0)
(0.0002049326426836976 0 0)
(0.000261593025865614 0 0)
(0.0003125844818253078 0 0)
(0.0003625318335362923 0 0)
(0.0004091377450648283 0 0)
(0.0004520913321062397 0 0)
(0.0004910915885103022 0 0)
(0.0005236954631653231 0 0)
(0.0005508529940639124 0 0)
(0.0005704318197091567 0 0)
(0.000580684891794649 0 0)
(0.000583191233316853 0 0)
(0.000575590550068554 0 0)
(0.0005561352542801089 0 0)
(0.0005265159340418733 0 0)
(0.0004864302533342649 0 0)
(0.0004365996984451471 0 0)
(0.0003800827175968055 0 0)
(0.0003204015989274438 0 0)
(0.0002590693057287408 0 0)
(0.0001985563768767476 0 0)
(0.0001378171350840286 0 0)
(7.599432814524423e-05 0 0)
(1.798499305151894e-05 0 0)
(-4.296655965968552e-05 0 0)
(-9.647728264993837e-05 0 0)
(-0.0001528562582610665 0 0)
(-0.0002047899798055507 0 0)
(-0.0002537152760891331 0 0)
(-0.0002975947007428805 0 0)
(-0.0003373114299417476 0 0)
(-0.000370199837172868 0 0)
(-0.0003962194892214488 0 0)
(-0.0004133926255575616 0 0)
(-0.0004221463646623265 0 0)
(-0.0004184279690766444 0 0)
(-0.0004057751932213464 0 0)
(-0.0003809617122947695 0 0)
(-0.0003445370710783247 0 0)
(-0.00029890557812451 0 0)
(-0.0002463481122016823 0 0)
(-0.0001905289021974182 0 0)
(-0.000134498150427322 0 0)
(-7.753074793244074e-05 0 0)
(-2.07162695767028e-05 0 0)
(3.371925189516147e-05 0 0)
(9.04937234091554e-05 0 0)
(0.0001422565087518318 0 0)
(0.0001996017356233146 0 0)
(0.0002454257167295701 0 0)
(0.0002930124682488975 0 0)
(0.0003359407732201966 0 0)
(0.0003765262772136329 0 0)
(0.0004098017625750834 0 0)
(0.0004390055751786362 0 0)
(0.0004603388213010541 0 0)
(0.0004746263940065909 0 0)
(0.0004779780963386702 0 0)
(0.0004752834766952493 0 0)
(0.000458453465969936 0 0)
(0.0004345591154245181 0 0)
)
;

boundaryField
{
    inlet
    {
        type            calculated;
        value           uniform (-2.821049598469141e-05 0 0);
    }
    outlet
    {
        type            calculated;
        value           uniform (0.0004163024506130961 0 0);
    }
    frontAndBack
    {
        type            empty;
    }
}


// ************************************************************************* //
