/*--------------------------------*- C++ -*----------------------------------*\
| =========                 |                                                 |
| \\      /  F ield         | OpenFOAM: The Open Source CFD Toolbox           |
|  \\    /   O peration     | Version:  v2012                                 |
|   \\  /    A nd           | Website:  www.openfoam.com                      |
|    \\/     M anipulation  |                                                 |
\*---------------------------------------------------------------------------*/
FoamFile
{
    version     2.0;
    format      ascii;
    class       volScalarField;
    location    "0.012";
    object      p;
}
// * * * * * * * * * * * * * * * * * * * * * * * * * * * * * * * * * * * * * //

dimensions      [1 -1 -2 0 0 0 0];


internalField   nonuniform List<scalar> 
1000
(
101311.5967835637
101314.2459455392
101307.4645340492
101302.1306170718
101296.2192004863
101290.8947473155
101286.3114709379
101282.3908476006
101278.9914027915
101276.612951713
101275.8460624461
101275.8438111098
101276.1659834413
101277.0913930594
101278.9541917901
101281.8558685092
101285.6986206656
101290.3008667322
101295.5056518868
101301.2061694389
101307.3202243821
101313.7612885666
101320.4255128548
101327.1913794118
101333.924464166
101340.4854743045
101346.7479499203
101352.6344963912
101358.1543874595
101363.3642591478
101368.12489334
101371.6987242113
101373.219481773
101373.396680732
101373.3515404513
101373.1255635392
101372.476430703
101371.1479470894
101368.9072677862
101365.6258767366
101361.3233120033
101356.1534160611
101350.3357449442
101344.0780365047
101337.5362630904
101330.8216675124
101324.0301613843
101317.2653913723
101310.6390113882
101304.2418071189
101298.0990944305
101292.1664261704
101286.4660203898
101281.4462657036
101278.1903030492
101277.1603656875
101277.0954030246
101277.128038922
101277.3481356795
101277.9063503083
101279.0300681403
101280.9320569057
101283.7813166602
101287.6532203682
101292.5042957562
101298.1794773339
101304.4545575679
101311.0960647063
101317.9079345467
101324.7451196958
101331.5042132383
101338.1196217232
101344.5767113434
101350.9161229723
101357.1798307555
101363.2343910606
101368.4302499045
101371.5859894158
101372.4951999222
101372.5532966036
101372.4984887007
101372.3257655857
101371.8510950203
101370.9074304016
101369.2965090159
101366.8396307146
101363.4102982026
101358.9708332027
101353.5898994821
101347.4335190017
101340.7328130217
101333.7380436979
101326.6700948194
101319.6823079065
101312.8434071194
101306.1425722099
101299.5158903984
101292.9259152849
101286.5883171478
101281.3555968287
101278.4784838451
101277.7946666435
101277.7749136481
101277.8050503413
101277.9885551222
101278.4285519048
101279.2964967078
101280.765399771
101283.0040629015
101286.146116611
101290.2616339044
101295.3322797615
101301.2419200917
101307.7921678171
101314.7405537761
101321.8484986523
101328.9275565577
101335.8768077669
101342.6987115171
101349.4695202301
101356.2305830343
101362.7467988044
101368.1476199263
101371.1667936435
101371.9290111153
101371.9698017998
101371.9259914322
101371.7881827765
101371.4157701286
101370.6769987006
101369.4091624909
101367.4485587005
101364.6487142344
101360.9081262305
101356.1950701683
101350.5640690541
101344.1592442599
101337.1975308907
101329.9264257631
101322.564630519
101315.2495114416
101308.0164728869
101300.8286092785
101293.6919204962
101286.9357876363
101281.5875856926
101278.8724739364
101278.2988407682
101278.2864683606
101278.3126662246
101278.4626317534
101278.8204157934
101279.5242182621
101280.7193372809
101282.5574398635
101285.1771815726
101288.6839422149
101293.1262390692
101298.4761759494
101304.6233986151
101311.387432708
101318.5477066811
101325.8891665374
101333.2556359763
101340.5870676665
101347.902794699
101355.1873109608
101362.123804766
101367.7324989949
101370.7447587509
101371.4686735184
101371.5062097992
101371.4717633221
101371.3626697036
101371.0645722427
101370.4690431859
101369.438483458
101367.8273321555
101365.4927648782
101362.3143158512
101358.2142416027
101353.1762559985
101347.2596818185
101340.6013060126
101333.3946384363
101325.8458036486
101318.1216982787
101310.316157738
101302.4659267367
101294.671296714
101287.4050772898
101281.8614230126
101279.2210740359
101278.709617435
101278.7000712027
101278.7221239882
101278.8464738063
101279.1428986811
101279.7267889268
101280.7224853529
101282.2649505165
101284.4866464015
101287.5032065011
101291.3945397102
101296.1859803059
101301.836452855
101308.2381425172
101315.2297748929
101322.6268849772
101330.2675322711
101338.0530557371
101345.9418706351
101353.8399083606
101361.3208986861
101367.2660870491
101370.367040635
101371.087605459
101371.1248179272
101371.0973147271
101371.0098838928
101370.7669709063
101370.2777423706
101369.4242717388
101368.077782221
101366.1049217934
101363.3817819775
101359.8094264485
101355.3300364501
101349.9423902447
101343.71080542
101336.7577907048
101329.2366246204
101321.293017899
101313.0362030586
101304.5541270872
101296.0418908982
101288.1361513026
101282.2378770079
101279.5468901503
101279.0539852662
101279.044388343
101279.0626603981
101279.1667953502
101279.4159083742
101279.9082077122
101280.751191469
101282.0646440169
101283.9715348603
101286.587882385
101290.0081244202
101294.2891604293
101299.4381349873
101305.4071745571
101312.0972383642
101319.3759141568
101327.1108235391
101335.2028409395
101343.5793769529
101352.0853702152
101360.1927856423
101366.6317531246
101369.978159944
101370.7584529366
101370.8009891317
101370.7791111009
101370.7091090965
101370.5093261643
101370.1026050595
101369.3868141161
101368.248038317
101366.5639618622
101364.2138433661
101361.0899714075
101357.1105361685
101352.2335195465
101346.4672074938
101339.8693444266
101332.5312197615
101324.552836899
101316.0249600801
101307.050689054
101297.8845704444
101289.2850536364
101282.8484964697
101279.9082448249
101279.3545207839
101279.3330350401
101279.343063761
101279.4275775266
101279.6405792762
101280.0666574794
101280.7987004617
101281.9408989681
101283.6026759683
101285.8921868528
101288.9068785077
101292.722232799
101297.3802778783
101302.8812742048
101309.1834556035
101316.2143265694
101323.8906894463
101332.1367004453
101340.8768531212
101349.9255008883
101358.6978425218
101365.8035082449
101369.5923055636
101370.5842161842
101370.6468286532
101370.5914845899
101370.4470982513
101370.1926139322
101369.7655393041
101369.0934118553
101368.0900307249
101366.6572597614
101364.686590535
101362.0626265706
101358.6732705305
101354.4253872662
101349.259795896
101343.1566262494
101336.1261634381
101328.201497579
101319.4326865888
101309.9261542986
101300.0052513089
101290.5219867877
101283.2817670559
101279.8284045534
101278.8733237102
101278.8292228586
101279.0532588771
101279.4441578135
101280.0200476851
101280.7752174673
101281.6937280727
101282.8870670212
101284.4363330849
101286.4164929926
101288.8980490231
101291.9526529233
101295.6537236893
101300.06546849
101305.2312778959
101311.1776977875
101317.9315810709
101325.5211473822
101333.9575889978
101343.1483544254
101352.4721768901
101360.5484541232
101365.9498314175
101368.4550910372
101370.9768486251
101373.1060239688
101375.1666004133
101377.1674233569
101378.9910096599
101380.4585850819
101381.4806730986
101381.6930401492
101380.8985391484
101379.1932539674
101376.324254829
101372.1706846686
101366.6909232108
101359.9378754356
101352.0097654343
101342.9947250738
101332.971439177
101322.1198373643
101310.8698597981
101300.1795685631
101291.7442568677
101286.6920984656
101284.2019495802
101283.0107646041
101282.4871728822
101282.5737787454
101283.0131069564
101283.6334585041
101284.4658330224
101285.5386737474
101286.9271095605
101288.702983093
101290.9559095311
101293.7835264311
101297.2744526951
101301.4936246024
101306.4820630601
101312.2706291156
101318.9050006335
101326.4400881963
101334.8475002937
101343.8929515876
101353.1164512962
101361.3241108631
101367.6598954663
101370.9379413887
101373.1809584749
101375.1216432967
101376.9981531995
101378.7941024697
101380.438951326
101381.8215129039
101382.8757526195
101383.3249198075
101382.9505835521
101381.740581075
101379.5067416517
101376.0712824334
101371.3221439039
101365.2288081998
101357.8289014095
101349.2133841861
101339.4941466641
101328.8591395168
101317.7158216512
101306.824155254
101297.5498784367
101291.36003063
101288.1729613639
101286.6877547448
101286.0659608081
101285.9419175698
101286.2996535938
101286.8701145727
101287.6215672247
101288.5498776006
101289.7102066524
101291.1859125735
101293.0923655312
101295.5628690231
101298.7263933972
101302.6868976291
101307.5130058447
101313.2415581975
101319.894352056
101327.4816833774
101335.944528976
101345.0478165309
101354.3702522427
101363.0628329042
101370.2380839598
101374.7026856429
101376.6298482408
101378.4553939158
101380.0374288825
101381.5603969582
101382.9975529451
101384.2431168881
101385.1969400334
101385.7092325031
101385.6101131525
101384.8101031617
101383.1533692708
101380.3940290128
101376.3598034374
101370.965076244
101364.1979950922
101356.1027931758
101346.7707460102
101336.3771782448
101325.2829769915
101314.1138965532
101304.0157717603
101296.6388998215
101292.5731370303
101290.6835745205
101289.8603605782
101289.5573644118
101289.834583716
101290.3233576878
101290.9790158619
101291.7534431993
101292.6895672947
101293.8706373393
101295.417343271
101297.4770279054
101300.209959435
101303.76870768
101308.2775472367
101313.8191092394
101320.4302361997
101328.0944999763
101336.7265616819
101346.1296550796
101355.871205197
101365.2370333844
101373.326777849
101378.8445847203
101381.299904225
101382.9701059313
101384.362898821
101385.5859570287
101386.6994690047
101387.6779643171
101388.4484603246
101388.8987898352
101388.9208041912
101388.4013376526
101387.1491209899
101384.9335587341
101381.5925359228
101376.9850307405
101370.9822998307
101363.5270784532
101354.682996064
101344.6086650993
101333.6037465317
101322.2097249204
101311.3564184989
101302.6647514143
101297.3961017289
101294.8500673244
101293.6622877036
101293.1809604901
101293.3506431735
101293.7957088228
101294.4206926686
101295.1507725788
101295.9845340891
101296.9594215297
101298.1751564456
101299.7938095954
101302.0171258267
101305.0478860698
101309.0598380383
101314.1878444709
101320.5242076233
101328.0930000957
101336.8226650936
101346.5245003635
101356.7969510386
101367.0017029647
101376.2033400287
101382.9430141857
101386.5513187903
101388.4913870622
101390.0210004013
101391.0899135087
101391.8774961886
101392.4711022898
101392.903243512
101393.130785628
101393.0959873527
101392.6821615548
101391.6756647676
101389.8862271042
101387.1232481539
101383.1901929538
101377.9233297001
101371.2202481185
101363.0527111398
101353.4722329295
101342.6860539661
101331.1811862319
101319.7529161486
101309.8204578347
101303.1017095561
101299.5309386717
101297.7050044119
101296.8530293407
101296.6519940674
101297.1102996984
101297.7861028223
101298.6340097594
101299.5290028485
101300.4566516627
101301.4839301449
101302.7635837247
101304.5031022786
101306.9340543753
101310.2862674278
101314.7662391368
101320.5332725053
101327.6761929855
101336.1912341102
101345.9754328055
101356.6909538902
101367.7209351823
101378.2040702267
101386.5504473915
101391.645705111
101394.6028563469
101396.7316336618
101398.0086863827
101398.748259784
101399.1124046865
101399.1859346682
101399.0768860309
101398.7707658673
101398.2009114489
101397.2378747648
101395.7005892565
101393.380304821
101390.061938352
101385.5321156483
101379.6003492115
101372.152884631
101363.1943078742
101352.8436086554
101341.4598528328
101329.7229966656
101318.7494809578
101310.3782035519
101305.4538234169
101302.7218125973
101301.0956361902
101300.4317392658
101300.5507898187
101301.1491064887
101301.9936542989
101303.0041897977
101304.0646347563
101305.1622317717
101306.3714705441
101307.8570895592
101309.8460401816
101312.595319308
101316.3560227349
101321.3427646244
101327.7234612764
101335.6052855301
101344.9844127003
101355.6288945365
101366.9934917924
101378.4525240364
101388.5318491818
101395.4098392196
101399.9616055759
101403.3574416446
101405.5393515898
101406.9025326418
101407.7040833557
101408.0679464153
101408.0542009721
101407.7524232059
101407.2106733267
101406.3700531176
101405.1287430123
101403.2954498331
101400.6168454632
101396.8349737627
101391.7341871541
101385.1429172364
101376.9412914866
101367.1050879885
101355.8870414687
101343.950039984
101332.1562475448
101322.0924529583
101315.3776189748
101311.291462909
101308.4893592114
101306.9623386592
101306.3631695863
101306.4811683266
101307.098614892
101307.9218438889
101308.8931869517
101309.9370490063
101311.0861070936
101312.4424303624
101314.1857203257
101316.5609073544
101319.8427149134
101324.2927352619
101330.1255762733
101337.4756617248
101346.3470453164
101356.6188093964
101367.9103378345
101379.6247334606
101390.7240018751
101399.2612642582
101405.133910793
101409.9878098272
101413.5893591483
101416.3334416759
101418.4846138121
101420.1814509924
101421.4932037403
101422.4871377095
101423.2141804957
101423.4823980018
101423.1708487749
101422.2695688705
101420.5307650898
101417.6863996779
101413.4500208529
101407.5733096355
101399.9040853775
101390.4284709969
101379.2906950578
101366.9809675004
101354.1906888462
101342.3839420327
101333.5993561713
101327.2767777345
101322.3747131433
101319.1095490264
101317.1248447966
101316.1125746781
101315.7354212677
101315.8887032861
101316.3863897433
101317.004765076
101317.8162404959
101318.8702253042
101320.3011177036
101322.297705821
101325.1197691465
101329.0643944527
101334.4037122046
101341.3292251138
101349.9164534914
101360.154280675
101371.7502110087
101384.0388936635
101396.2217186499
101406.5262447309
101414.2614406533
101420.9223427967
101426.1391564812
101430.2943927166
101433.6861193811
101436.4783290842
101438.7600549295
101440.5853697885
101441.9822415354
101443.028306891
101443.4128588618
101442.9060827248
101441.5472991355
101439.111315946
101435.3828860663
101430.1159289928
101423.1231524957
101414.3174274094
101403.6731419913
101391.4673919253
101378.4827659501
101365.6986517355
101355.0853561279
101346.7487508196
101339.7858146973
101334.5030368549
101330.6615081248
101327.9990588397
101326.2651458288
101325.2385259602
101324.6642654279
101324.4377212683
101324.5466762003
101324.9874527402
101325.8944794624
101327.4515433702
101329.882553103
101333.4197125288
101338.3156006809
101344.8187392819
101353.1215250429
101363.3107236513
101375.1728358449
101388.0082137873
101401.1565313483
101413.0079225533
101422.5373024875
101430.8815456921
101437.5967533064
101442.9370086466
101447.2060963605
101450.6287072272
101453.3829345297
101455.6205796071
101457.3884052634
101458.6608433044
101459.4659344571
101459.4606019143
101458.38450318
101456.1920734499
101452.6703108001
101447.7182147727
101441.1771020812
101432.8642789208
101422.6739967784
101410.831820595
101398.1082342283
101385.1141942767
101373.1154372758
101363.8474194814
101355.5494766077
101348.8407438492
101343.6212156682
101339.6646969958
101336.7497308284
101334.6602628895
101333.1719208969
101332.1199628309
101331.3467377658
101331.0136748348
101331.2858615601
101332.2286147417
101334.1294269174
101337.2230460649
101341.7391742418
101347.8889798575
101355.8761971328
101365.8452177557
101377.7077744069
101390.849839713
101404.7638382277
101417.9308347894
101429.0447712599
101438.8878837453
101447.0035683137
101453.4687477233
101458.5227503295
101462.4140072459
101465.3887588286
101467.6724000944
101469.4324699635
101470.7418972542
101471.695159046
101471.9490747096
101471.2059554233
101469.4186345382
101466.331362483
101461.7786235018
101455.5908838201
101447.6359620093
101437.8861957687
101426.488226628
101413.9225650741
101400.7484506672
101387.9799987452
101377.571453731
101368.5401059596
101360.8749418674
101354.7516976648
101350.0071980197
101346.3985509849
101343.6691939147
101341.5738405342
101339.9115038083
101338.5858636243
101337.5561324982
101337.0345912842
101337.3461261573
101338.6840171097
101341.300537137
101345.4438627787
101351.3204200797
101359.1225393594
101368.9917987549
101380.8962590102
101394.3155572352
101408.8740921525
101423.1243808576
101435.7581926504
101447.0492505528
101456.5510925817
101464.1871962912
101470.1321532862
101474.5969503038
101477.8330163341
101480.138697399
101481.8169831521
101483.0377103636
101483.9042270859
101484.2297218631
101483.7715651929
101482.3832546462
101479.7634947969
101475.6586599023
101469.8954145381
101462.4137184002
101453.2213626475
101442.3269914768
101429.9683289232
101416.7634416565
101403.4685476189
101391.7040767002
101381.7259198144
101372.9534345438
101365.7813671934
101360.1244552905
101355.8112010691
101352.6216426115
101350.2778908978
101348.5096292404
101347.1869875616
101346.2629846903
101345.7224460327
101345.8583658642
101346.9496883856
101349.1747823228
101352.7827907199
101357.9328486985
101364.7695640312
101373.3890674129
101383.7648294
101395.5819285598
101408.1442125478
101420.7757677267
101432.4049138664
101441.9708930736
101449.579189224
101455.6519393322
101459.9027349214
101462.4461819849
101463.7085128938
101463.8767656875
101463.2623464258
101462.3477644207
101461.1310657711
101459.6594776095
101457.8655735751
101455.5886488661
101452.6277980661
101448.7590943031
101443.7478787033
101437.3671991773
101429.480125292
101420.1241031806
101409.5009085893
101398.059338046
101386.4040197544
101375.09533582
101365.4245129217
101357.8460417877
101351.0532897786
101345.4836439356
101340.9977406048
101337.5032431856
101334.9850940624
101333.4116876118
101332.7256171058
101332.688910492
101333.4214391979
101334.8543991487
101336.7361643164
101339.1678179771
101342.2489519967
101346.2760630682
101351.6393773056
101358.7223973488
101367.7314963585
101378.6585741746
101391.0470972726
101404.5444125982
101417.9696613888
101429.5756985878
101439.8481202465
101448.3106019485
101454.8788470794
101459.7850881763
101463.232739803
101465.4374213014
101466.5842599388
101466.9204829698
101466.5546114582
101465.6670756337
101464.4111439359
101462.6885290147
101460.357182909
101457.1361326096
101452.7251976687
101446.8739739686
101439.457815659
101430.4856803227
101420.0580447534
101408.5321733907
101396.5732302026
101384.6881164997
101373.9230377363
101365.5409363793
101358.0505822012
101351.8989703103
101347.0346609228
101343.2914770279
101340.4849651987
101338.4061439536
101336.8804077912
101335.8647875708
101335.4341696876
101335.9986898222
101337.8815394285
101340.9641423631
101344.8292340245
101349.0213053241
101353.39083156
101358.6677235145
101365.9962018621
101376.6311566726
101389.070297234
101409.6167197971
)
;

boundaryField
{
    inlet
    {
        type            uniformFixedValue;
        uniformValue    sine;
        uniformValueCoeffs
        {
            frequency       constant 3000;
            scale           constant 50;
            level           constant 101325;
        }
        value           uniform 101325;
    }
    outlet
    {
        type            characteristicVelocityInletOutletPressure;
        UName           U;
        pName           p;
        TName           T;
        phiName         phi;
        rhoName         rho;
        U               (0 0 0);
        p               101325;
        T               300;
        value           uniform 101409.6167197971;
    }
    frontAndBack
    {
        type            empty;
    }
}


// ************************************************************************* //
