/*--------------------------------*- C++ -*----------------------------------*\
| =========                 |                                                 |
| \\      /  F ield         | OpenFOAM: The Open Source CFD Toolbox           |
|  \\    /   O peration     | Version:  v2012                                 |
|   \\  /    A nd           | Website:  www.openfoam.com                      |
|    \\/     M anipulation  |                                                 |
\*---------------------------------------------------------------------------*/
FoamFile
{
    version     2.0;
    format      ascii;
    class       volScalarField;
    location    "0.012";
    object      pMean;
}
// * * * * * * * * * * * * * * * * * * * * * * * * * * * * * * * * * * * * * //

dimensions      [1 -1 -2 0 0 0 0];


internalField   nonuniform List<scalar> 
1000
(
101325.0376502872
101325.0029696261
101325.0147764488
101325.0259880157
101325.0414228718
101325.0600925889
101325.08027034
101325.1050721764
101325.1314253801
101325.1602448269
101325.1898779454
101325.2193637628
101325.2488011332
101325.2777836749
101325.3059935619
101325.3327590802
101325.3575223471
101325.3797798895
101325.3990501989
101325.4151342671
101325.4276045716
101325.4363858742
101325.4411673954
101325.4419822086
101325.4386895024
101325.4314615844
101325.4203338902
101325.4056092199
101325.3874227733
101325.3660531048
101325.341610072
101325.3146183384
101325.2860186772
101325.2570232437
101325.2279856142
101325.1990657446
101325.1703805097
101325.1423100786
101325.1152787137
101325.0899191844
101325.0668000401
101325.0465323814
101325.0295263395
101325.0161522006
101325.0065870145
101325.0010121844
101324.9994680344
101325.0020101795
101325.0085546618
101325.019018967
101325.0332258713
101325.0510753647
101325.072425074
101325.0970673936
101325.1242658017
101325.1527575453
101325.1814952325
101325.2102357274
101325.2388690278
101325.2673084025
101325.2952053994
101325.3222419523
101325.347820164
101325.3714311238
101325.3923933669
101325.4102474693
101325.4244862458
101325.4348985435
101325.4412399392
101325.4435317434
101325.4417082369
101325.4359164333
101325.4261621707
101325.4126114355
101325.3952369808
101325.374183906
101325.3496363291
101325.3225363204
101325.2942060227
101325.2657076614
101325.2371833296
101325.2087493761
101325.1804991124
101325.1526775795
101325.1256096398
101325.0997610255
101325.0756619544
101325.0539193435
101325.0351056292
101325.0197510057
101325.0082370699
101325.0008310627
101324.997628398
101324.9986480508
101325.0038018635
101325.0130217563
101325.0262268241
101325.0434203851
101325.0645264991
101325.0891981028
101325.116361835
101325.1445549092
101325.1728884371
101325.201223836
101325.2294622934
101325.2575547647
101325.2852158696
101325.3122233707
101325.338083099
101325.3623794972
101325.3844639942
101325.4038439047
101325.4198962925
101325.4322598715
101325.4405371377
101325.444645653
101325.4444625431
101325.4401209197
101325.4316095072
101325.4190637477
101325.40240977
101325.3817787147
101325.3574417271
101325.3305427459
101325.302517794
101325.2743674344
101325.2461888484
101325.2180909854
101325.1901281103
101325.1625110352
101325.1354751467
101325.1094168208
101325.0847619693
101325.0620749444
101325.0418977135
101325.0248299926
101325.0113481472
101325.001883646
101324.9966648131
101324.9958470116
101324.9994085696
101325.007343433
101325.0195851428
101325.036157017
101325.0569324253
101325.0814511023
101325.1084291825
101325.1363469689
101325.1643683289
101325.1923988814
101325.2203421593
101325.2481740458
101325.2756483062
101325.3025990183
101325.3286041577
101325.3533209807
101325.3761660829
101325.3966765087
101325.4142169374
101325.4283572579
101325.4385884177
101325.4446906053
101325.4464080649
101325.4437624972
101325.4366721021
101325.4252310336
101325.4093599739
101325.3892229112
101325.3651865217
101325.3385324765
101325.3107759938
101325.2829012991
101325.2549956482
101325.2271623186
101325.1994286217
101325.1719804542
101325.1449961411
101325.1188181028
101325.0937963661
101325.0704389118
101325.0492350209
101325.0307828634
101325.0155869272
101325.0041742806
101324.9968922317
101324.9940496883
101324.9957614584
101325.0021438826
101325.0131995936
101325.0289886487
101325.0493350057
101325.073646688
101325.1004418845
101325.1281274224
101325.155896951
101325.1836810056
101325.2113860579
101325.2390047905
101325.2663213287
101325.2932081969
101325.3192984731
101325.3443065332
101325.3677099194
101325.3890898051
101325.4078333542
101325.4234929329
101325.435503691
101325.4435440158
101325.4472356209
101325.4464649276
101325.441032288
101325.4309403238
101325.4160625581
101325.3965644468
101325.3728982484
101325.3464895435
101325.3189616526
101325.2913147646
101325.2636352564
101325.2360203863
101325.2084803066
101325.1811799427
101325.1542571288
101325.1280107509
101325.1027316791
101325.0788750248
101325.0568753931
101325.0373035972
101325.0206597706
101325.0075133012
101324.9982900969
101324.9934227095
101324.9931637512
101324.997777921
101325.007389359
101325.0221426723
101325.0418664466
101325.065863811
101325.0924572266
101325.1199415605
101325.1475037087
101325.1750827288
101325.2025908669
101325.2300316384
101325.2572131018
101325.2840357406
101325.3101777213
101325.3353981033
101325.3592295302
101325.3812962878
101325.40102328
101325.417968106
101325.4315468016
101325.4413745786
101325.4469829702
101325.4481343764
101325.4445067613
101325.4359803679
101325.4223405864
101325.4037039784
101325.3805596866
101325.3544474766
101325.3271331322
101325.2996810879
101325.2721952268
101325.2447666482
101325.2173946366
101325.1902252973
101325.1633676883
101325.1370848274
101325.1116209402
101325.0873823937
101325.0647550538
101325.0442711031
101325.0264108079
101325.0117533146
101325.000770525
101324.9939805796
101324.9917535307
101324.9944915879
101325.0024607681
101325.0159189926
101325.0347541079
101325.0582463655
101325.084568349
101325.1118615361
101325.1392398658
101325.1666357042
101325.1939662429
101325.2212444036
101325.2483035509
101325.2750646276
101325.3012468905
101325.3266424578
101325.3508257244
101325.3734636186
101325.3940209632
101325.4120474431
101325.4269864026
101325.4384015144
101325.4457556118
101325.4487505938
101325.4469564429
101325.4401081195
101325.4279332854
101325.4104420894
101325.3880759688
101325.3624214901
101325.3354519615
101325.3082442379
101325.2809663572
101325.2537173229
101325.2264641312
101325.1993273582
101325.1724195962
101325.1459870453
101325.1202021306
101325.0955355477
101325.0723196567
101325.0511020454
101325.0322894496
101325.0165447523
101325.0042982634
101324.9960287774
101324.9921512725
101324.9932081352
101324.9995358175
101325.0113242085
101325.0289249268
101325.0513613114
101325.0767949613
101325.1033272965
101325.1301677414
101325.1571512315
101325.1841580284
101325.2114057343
101325.2385105509
101325.2655797597
101325.2922546544
101325.3185447209
101325.3436779798
101325.3674001228
101325.3890614795
101325.4082971867
101325.4240437158
101325.4363092574
101325.4441238811
101325.4474809234
101325.4455982692
101325.4382174781
101325.4251839386
101325.4066199459
101325.3832074288
101325.3565038898
101325.328132124
101325.3008827476
101325.2744633292
101325.249310271
101325.2256306419
101325.2034538271
101325.1831233098
101325.164192465
101325.1469228396
101325.131489789
101325.1172410399
101325.1051169248
101325.0955008352
101325.0877175443
101325.0828262836
101325.0809515585
101325.082615454
101325.0882890014
101325.0985773952
101325.1145419648
101325.1355045199
101325.1605354206
101325.1888584992
101325.2173249018
101325.2467558043
101325.2762303145
101325.3056813402
101325.3350330734
101325.3636994539
101325.3929260257
101325.4214347296
101325.4491804768
101325.4762230671
101325.5017023648
101325.5255975847
101325.5476274969
101325.5664687481
101325.581881019
101325.593130843
101325.6001914527
101325.6023739336
101325.5989453793
101325.5903947359
101325.5765880702
101325.5565324227
101325.5337032947
101325.5064732095
101325.4805437133
101325.4549439211
101325.430551069
101325.4077837149
101325.3859257462
101325.3666322404
101325.3487994197
101325.332503501
101325.3179807473
101325.3049140925
101325.293478208
101325.2844219063
101325.2775694064
101325.2729760286
101325.2710577019
101325.2728285855
101325.278986679
101325.2887624959
101325.3051003339
101325.3274101023
101325.3526057757
101325.3826205946
101325.4127825673
101325.4439070149
101325.4753718486
101325.5069465049
101325.538650075
101325.5694929847
101325.6005220558
101325.6313944422
101325.6613365041
101325.6901201947
101325.7176764832
101325.7433724811
101325.7674476956
101325.7893157346
101325.8073012198
101325.8217207266
101325.8322790559
101325.8387249819
101325.8389243416
101325.8352628511
101325.8266075604
101325.811107077
101325.7919532967
101325.7686141754
101325.7441750064
101325.7204886202
101325.6974985979
101325.6761085684
101325.6558220321
101325.637164989
101325.6209902841
101325.6063024464
101325.5928704902
101325.5814514467
101325.5712179811
101325.5633877535
101325.5581596087
101325.5545182099
101325.5534404293
101325.5559397496
101325.5627607531
101325.5730078812
101325.5892732911
101325.6124936382
101325.6391705079
101325.669892483
101325.7028738519
101325.7355074704
101325.7691020025
101325.8026083823
101325.8365386905
101325.8700699467
101325.9026799019
101325.9363070979
101325.9687284234
101325.9991875583
101326.0289980291
101326.0563633682
101326.0824942269
101326.1067104225
101326.1273914699
101326.1442177194
101326.1580195581
101326.1677361477
101326.1725170272
101326.1722333725
101326.16862983
101326.1591500069
101326.1436388819
101326.1252663663
101326.1035637452
101326.0825006683
101326.0616762938
101326.0423402925
101326.0243827772
101326.0070696628
101325.9929328128
101325.9801245511
101325.9681433363
101325.9586286396
101325.950027116
101325.9439845868
101325.9403623954
101325.9388094061
101325.9388260835
101325.9427860089
101325.9503532729
101325.9624692741
101325.9780134931
101326.0021376426
101326.0314372821
101326.0625221177
101326.0980387979
101326.1327439074
101326.1684418417
101326.2038328884
101326.2398005851
101326.2758444121
101326.3107777123
101326.3462000896
101326.3814252765
101326.414480938
101326.4462210523
101326.4759408017
101326.5042008574
101326.530299936
101326.5540263228
101326.5724930472
101326.5890745454
101326.6015454568
101326.6105393932
101326.6130520011
101326.6139157889
101326.6102641522
101326.5988917166
101326.5852499705
101326.5676842501
101326.5501990368
101326.5323128749
101326.5154695157
101326.5004370765
101326.4860901943
101326.4734730475
101326.4636496043
101326.4542711818
101326.4463451856
101326.440138876
101326.4361405238
101326.4344590468
101326.4352752227
101326.4372833073
101326.4427667597
101326.4520017753
101326.4659023855
101326.4827572787
101326.5068286153
101326.5383481164
101326.571058677
101326.6082612857
101326.6456898839
101326.6838280505
101326.7213229899
101326.7589180409
101326.797412399
101326.8351625902
101326.8720067422
101326.9101275048
101326.9461450017
101326.9799439503
101327.0123372987
101327.0428723184
101327.0714009078
101327.0972753685
101327.1194149968
101327.1370325467
101327.1525887723
101327.1641668502
101327.1708506849
101327.1735087323
101327.1752527731
101327.1686946904
101327.1588839666
101327.1463656788
101327.1328897513
101327.1190315794
101327.1052779363
101327.0938435078
101327.0835403976
101327.0736776594
101327.0674510921
101327.0614810522
101327.0562002606
101327.0531299785
101327.0516104323
101327.0527126488
101327.0559503451
101327.061960926
101327.0681754475
101327.0807265475
101327.0961987881
101327.1165249198
101327.1401164993
101327.1744375212
101327.2099656094
101327.2487192204
101327.2895750232
101327.330286404
101327.3710186786
101327.4106951609
101327.4510986948
101327.4918748999
101327.5309168758
101327.5709028995
101327.6102984337
101327.6467419323
101327.681730446
101327.7147716583
101327.7461742006
101327.7748932541
101327.8006778691
101327.8204194139
101327.8385059145
101327.8527464017
101327.8633879883
101327.8676770908
101327.8732228914
101327.8715613491
101327.8647524598
101327.8564390836
101327.8466071852
101327.8372984096
101327.8274748977
101327.8192243771
101327.8140097944
101327.8092551674
101327.8064776997
101327.8067851962
101327.8064366796
101327.8078772496
101327.8114344012
101327.81754026
101327.8260426449
101327.8368799736
101327.8494396055
101327.8648960602
101327.8857711043
101327.9115303229
101327.9396332699
101327.9758763895
101328.0183667391
101328.0603895945
101328.1062878651
101328.1516434159
101328.19746755
101328.2417164303
101328.2852357501
101328.3297141675
101328.3732993423
101328.4154353334
101328.4587914796
101328.4990746186
101328.5371478933
101328.57369801
101328.608442887
101328.6408711161
101328.669930525
101328.6956524452
101328.7154354186
101328.7337678363
101328.7489860213
101328.7584957269
101328.7652175921
101328.771879569
101328.7683092734
101328.7645603304
101328.7588311658
101328.7539842547
101328.7491573602
101328.7452743907
101328.7444582651
101328.7470402001
101328.7505900718
101328.7589573998
101328.7679392423
101328.7783820266
101328.7920598892
101328.8084430383
101328.8277914435
101328.8495509043
101328.8745711088
101328.8996935214
101328.9309637261
101328.9664758811
101329.0061492619
101329.0491907117
101329.1029816072
101329.1546946219
101329.2093980624
101329.2633985249
101329.3175995922
101329.3705267624
101329.421170212
101329.4712589128
101329.521376623
101329.5690888918
101329.6171713856
101329.6637850246
101329.7065199345
101329.7472751707
101329.7862562125
101329.8230686918
101329.8567921356
101329.8875109975
101329.9123994536
101329.935259828
101329.955062245
101329.9708340142
101329.9816437136
101329.9953495159
101330.0002499212
101330.002974269
101330.0043098414
101330.006464985
101330.0095975049
101330.0133384597
101330.0200226807
101330.0305372742
101330.0440172403
101330.0612300513
101330.0823030861
101330.1037928766
101330.1282128291
101330.1558783092
101330.1868241226
101330.2205829801
101330.2569994325
101330.2952015605
101330.336127946
101330.3823213918
101330.4326462155
101330.4859413714
101330.547001463
101330.6133105415
101330.6773349382
101330.7419418919
101330.8059867152
101330.8690365616
101330.9291541831
101330.9873016019
101331.0439297048
101331.0993450802
101331.1519487293
101331.204790985
101331.2532034335
101331.2983412961
101331.3412324335
101331.381988739
101331.4199273788
101331.4543991422
101331.4851680609
101331.5106874067
101331.5355434682
101331.5568913694
101331.5736096861
101331.5890244695
101331.6056113222
101331.6137335652
101331.6229523774
101331.6318013981
101331.6422774407
101331.6537992461
101331.6671237138
101331.6844655395
101331.70583707
101331.7300521218
101331.7599375481
101331.7908772435
101331.8241696068
101331.8607546173
101331.9004973325
101331.9435265096
101331.9889878702
101332.0371159952
101332.0860196804
101332.1403379091
101332.1982474674
101332.259776364
101332.3235739643
101332.40113388
101332.4717686893
101332.5457916968
101332.6177315278
101332.6894915202
101332.7587537026
101332.8244761019
101332.8887457007
101332.9502722088
101333.0095662196
101333.0671764762
101333.1220638001
101333.1719978284
101333.2186038538
101333.2628599251
101333.3045781519
101333.3427746189
101333.3778089393
101333.4074600633
101333.4353484368
101333.4609289686
101333.4842111525
101333.5018600007
101333.5264503222
101333.5401980897
101333.5569850167
101333.5718846235
101333.5888934529
101333.6071653794
101333.6268044326
101333.6499420214
101333.6763950032
101333.707403118
101333.7422837897
101333.7812555137
101333.8210941542
101333.8642704533
101333.910563052
101333.9602514686
101334.0126740488
101334.0680372776
101334.1240307533
101334.1835842403
101334.2474577949
101334.3154938265
101334.3833066701
101334.4640790988
101334.5419206695
101334.6218021179
101334.6998554594
101334.7781855072
101334.854594741
101334.928043746
101334.9983547338
101335.0665756921
101335.1318348354
101335.1942497477
101335.2559957513
101335.3105919037
101335.3616942438
101335.4102585423
101335.4553550926
101335.4974155397
101335.5363415183
101335.5703881628
101335.6019466457
101335.6317078906
101335.6606172899
101335.6842672225
101335.7119070192
101335.7354555086
101335.7574607765
101335.7801701296
101335.8037352483
101335.8292471706
101335.8562418789
101335.8851472094
101335.9186080272
101335.9545844574
101335.9957434369
101336.0414612422
101336.0884092955
101336.138060118
101336.1910914704
101336.2471408773
101336.3064267852
101336.3685556996
101336.4322124169
101336.4981566269
101336.5673316269
101336.6415072355
101336.7163823145
101336.7973792446
101336.8850712197
101336.9683147325
101337.0536885502
101337.1375137534
101337.2209374514
101337.3013179117
101337.3785167504
101337.4532134392
101337.5242986419
101337.5926076235
101337.6600596788
101337.7228284563
101337.7794352262
101337.8335135994
101337.8845761281
101337.9325543383
101337.9771594005
101338.018560531
101338.0545459272
101338.0898840647
101338.1224787603
101338.1528688565
101338.1799689964
101338.2111909264
101338.2332394197
101338.2558069568
101338.2774923516
101338.299869186
101338.3218947014
101338.3446549715
101338.3686363777
101338.3951560715
101338.4227032448
101338.4553877333
101338.490485337
101338.5238163458
101338.5608665173
101338.6006730175
101338.6424543294
101338.6868391937
101338.7345558556
101338.7812846698
101338.8347481037
101338.8899739041
101338.9522359915
101339.0116696563
101339.0890379947
101339.1570253123
101339.2292701139
101339.3030262705
101339.376331287
101339.448073379
101339.5170752321
101339.5836682619
101339.6470871827
101339.7066139139
101339.7641371753
101339.8223106458
101339.8719976563
101339.9194849908
101339.9655007496
101340.007887786
101340.047503209
101340.0842813514
101340.1150651897
101340.1441227586
101340.1698114436
101340.1960521669
101340.2125772942
101340.2415164152
101340.2547253164
101340.2713949595
101340.2895991584
101340.3080505094
101340.3281184877
101340.3486155872
101340.3720706774
101340.3981267775
101340.4258361702
101340.4561739694
101340.4957443698
101340.5325142788
101340.5703681376
101340.6140189978
101340.6593463252
101340.7073231615
101340.7582644717
101340.8112545301
101340.8659713416
101340.9249930696
101340.9885662247
101341.0538585429
101341.1279609485
101341.2030828932
101341.275391466
101341.3512195601
101341.4284547035
101341.5044738799
101341.5771277449
101341.6482013703
101341.7166243401
101341.7808757916
101341.8401536167
101341.9005057569
101341.9557424302
101342.0032006015
101342.0517011241
101342.0963315546
101342.138149861
101342.1771650475
101342.212749939
101342.2457924091
101342.2783015427
101342.2996349881
101342.319423779
101342.3557768232
)
;

boundaryField
{
    inlet
    {
        type            calculated;
        value           uniform 101325.0000003295;
    }
    outlet
    {
        type            calculated;
        value           uniform 101342.3557768232;
    }
    frontAndBack
    {
        type            empty;
    }
}


// ************************************************************************* //
