/*--------------------------------*- C++ -*----------------------------------*\
| =========                 |                                                 |
| \\      /  F ield         | OpenFOAM: The Open Source CFD Toolbox           |
|  \\    /   O peration     | Version:  v2012                                 |
|   \\  /    A nd           | Website:  www.openfoam.com                      |
|    \\/     M anipulation  |                                                 |
\*---------------------------------------------------------------------------*/
FoamFile
{
    version     2.0;
    format      ascii;
    class       volScalarField;
    location    "0.012";
    object      rho;
}
// * * * * * * * * * * * * * * * * * * * * * * * * * * * * * * * * * * * * * //

dimensions      [1 -3 0 0 0 0 0];


internalField   nonuniform List<scalar> 
1000
(
1.17630606128542
1.176329856800349
1.176276009507496
1.176232338460509
1.176181099139715
1.176134253097794
1.176094572041311
1.176061163790395
1.176032271228186
1.176011751192698
1.176004696026224
1.176003911253623
1.176005782297351
1.176013080814755
1.1760284269752
1.176052490745273
1.176084442624801
1.176122778445931
1.176166182454938
1.176213742835219
1.17626474543505
1.176318441136586
1.176373944183659
1.176430231529092
1.176486181543564
1.176540638714143
1.176592559035877
1.176641310144493
1.176686982054699
1.176730059292099
1.176769404999072
1.176798922657091
1.176811436611971
1.176812844615467
1.176812426699694
1.176810536690195
1.176805185621401
1.176794214949253
1.17677568430912
1.176748527151558
1.176712899470667
1.176670070887381
1.176621858565637
1.17656998400238
1.176515741346026
1.176460055316147
1.176403724424644
1.17634761163706
1.176292646051303
1.176239583060615
1.176188634342404
1.176139432013307
1.176092159873029
1.176050535899746
1.176023541538174
1.176015007041175
1.176014473906381
1.176014751592602
1.176016581871209
1.176021211691782
1.176030529703845
1.176046301035653
1.176069927187554
1.176102033481812
1.176142259633689
1.176189319744408
1.176241354412874
1.176296427367356
1.176352912538016
1.176409606932424
1.176465652900358
1.176520506406713
1.176574046030513
1.176626608725061
1.176678542535437
1.176728741135624
1.176771819352858
1.176797982756415
1.176805520483181
1.176806001853045
1.176805547206832
1.176804115044378
1.176800179680792
1.176792356027058
1.1767790002444
1.176758630665867
1.176730198340091
1.176693390623144
1.176648776501071
1.176597732169393
1.176542173647463
1.176484175784054
1.176425569979634
1.176367627715331
1.176310918907603
1.176255353904404
1.176200402774737
1.176145755024511
1.176093199184369
1.176049805090686
1.176025945408574
1.176020274530812
1.176020110708723
1.176020360610474
1.176021882388121
1.176025531249772
1.176032729061832
1.176044910557935
1.176063475526941
1.17608953201708
1.176123660921695
1.176165709913529
1.176214715617087
1.176269032602551
1.176326649992838
1.176385589306275
1.176444287910709
1.17650190903223
1.176558473125197
1.176614612484618
1.176670669971268
1.176724696378277
1.176769474244485
1.176794505747044
1.176800825132639
1.17680116330722
1.176800800070798
1.176799657512807
1.176796569904415
1.176790444882419
1.176779933457957
1.176763678343176
1.176740465041027
1.176709451821573
1.176670375404236
1.176623687532394
1.176570582815921
1.176512859645807
1.176452569936508
1.176391526991101
1.176330869818865
1.176270892026619
1.176211287620031
1.176152106382424
1.176096079837841
1.17605172810729
1.176029211903654
1.176024454779044
1.176024352162523
1.17602456940041
1.176025813041056
1.176028780116086
1.176034616700348
1.17604452772225
1.176059770896641
1.176081495984895
1.176110576728909
1.176147415245138
1.176191779911917
1.176242755291313
1.176298844510476
1.17635821829136
1.17641909323816
1.176480174292779
1.176540963559079
1.176601621354293
1.176662019128365
1.176719530221629
1.176766031616571
1.176791005821919
1.176797007646573
1.176797318832528
1.176797033221362
1.176796128722464
1.176793657234682
1.176788719794569
1.176780175576962
1.176766817723729
1.176747462021684
1.176721109569151
1.176687115598021
1.176645344810411
1.17659628874073
1.176541081195319
1.176481326350644
1.176418733086038
1.176354685134194
1.176289960504711
1.176224863856907
1.17616022684947
1.176099970431393
1.176053997893771
1.176032101701856
1.176027860199584
1.176027781011833
1.17602796386098
1.176028995057531
1.176031453270375
1.176036295413604
1.176044552623789
1.176057344101707
1.176075768272625
1.176100783950646
1.176133053624575
1.176172787140517
1.176219643580264
1.176272728572923
1.17633070447643
1.176392041429873
1.176455396451743
1.176519951356287
1.176585361271348
1.176650846204832
1.176712871949147
1.176762163283617
1.176787872861163
1.176793846907466
1.17679415539967
1.176793927343456
1.176793202433099
1.176791188456859
1.17678713232151
1.176780056306915
1.176768892720909
1.176752535906276
1.176729958452829
1.17670033992901
1.176663200736036
1.176618530458332
1.176566862037687
1.176509210898976
1.176446847642133
1.176380980195799
1.176312514098468
1.176242178459054
1.176171591038966
1.17610603147993
1.176057118220537
1.176034802111103
1.176030714454711
1.176030634840429
1.176030786326239
1.176031649872169
1.176033715721343
1.176037798296299
1.176044789061853
1.176055681356846
1.176071494904397
1.176093191739497
1.176121554875827
1.176157055964124
1.176199753991219
1.176249251659281
1.176304727360346
1.176365082791901
1.176429219993993
1.176496316805559
1.176565771155433
1.176636297232699
1.176703517011785
1.17675690238572
1.176784647024273
1.176791116268977
1.17679146889592
1.17679128747284
1.176790707055628
1.176789050657095
1.176785678570119
1.176779744029137
1.176770302566011
1.176756340038193
1.176736855318546
1.176710955257543
1.176677961389219
1.176637525091632
1.176589714758902
1.176535008820381
1.176474163835278
1.176408008638871
1.176337295498119
1.176262879021794
1.176186869773237
1.176115557267213
1.176062180272592
1.176037797075058
1.17603320504769
1.176033026839377
1.176033109968009
1.176033810792634
1.17603557717063
1.17603911057561
1.176045181315432
1.176054653418118
1.176068434279155
1.176087420748643
1.176112420826131
1.176144060301088
1.176182687476696
1.176228304235101
1.176280563914605
1.176338865023236
1.176402517336422
1.176470891632889
1.176543361520937
1.176618387450815
1.176691120606736
1.176750033760051
1.176781446263478
1.176789670003342
1.176790189087732
1.176789730211839
1.176788533087772
1.176786423166836
1.17678288233052
1.176777309792968
1.176768990863776
1.176757111884261
1.176740773173044
1.176719017899833
1.176690916531847
1.176655696683802
1.176612867413529
1.176562263638598
1.176503970239512
1.176438261134875
1.176365550905047
1.176286721521475
1.176204453874087
1.176125813155774
1.176065771709974
1.176037133366396
1.176029212903943
1.176028847156091
1.176030705057174
1.176033946723683
1.176038722503915
1.176044985034779
1.176052602122763
1.176062498308466
1.176075346108182
1.17609176716468
1.176112346070705
1.176137676918906
1.176168368417224
1.176204952834376
1.176247789761766
1.176297099051215
1.17635310304297
1.176416035348185
1.176485988324075
1.176562194087893
1.176639501116105
1.176706462712364
1.176751245483639
1.176772016316267
1.17679292377234
1.176810576275709
1.176827659939977
1.176844248104035
1.176859366768914
1.176871533822014
1.176880007485019
1.176881768097506
1.176875181195318
1.176861043322654
1.176837257434246
1.176802821286354
1.176757389427491
1.176701399986948
1.176635666763026
1.176560919840425
1.176477810955582
1.176387831365678
1.176294545608912
1.176205898108168
1.176135947823893
1.176094051728778
1.176073401391699
1.176063523049975
1.176059180958964
1.17605989915363
1.176063542414537
1.17606868686961
1.176075589591013
1.176084486440489
1.176096000422562
1.176110727275103
1.176129410100491
1.176152858496245
1.176181807224785
1.176216794602355
1.176258160568721
1.176306160756399
1.17636117359932
1.176423654013655
1.176493366114392
1.176568366830369
1.176644841882859
1.176712892656287
1.176765422377564
1.176792600168749
1.176811196523206
1.176827286205189
1.176842843749327
1.176857733311964
1.176871370084158
1.176882832281198
1.176891572468847
1.176895296280578
1.176892192806948
1.176882161188301
1.176863641332308
1.176835159137323
1.176795785243892
1.176745266190055
1.176683913362717
1.176612480262973
1.176531893888303
1.176443711927921
1.176351312377131
1.176260996709203
1.176184090588829
1.176132760730631
1.176106331309884
1.176094014836149
1.176088858424529
1.176087829748348
1.176090796358176
1.176095527043304
1.176101758646994
1.176109456874239
1.176119079141509
1.176131316689862
1.17614712621069
1.176167613079757
1.176193846690054
1.176226688959397
1.176266708715154
1.176314211142602
1.176369376615934
1.176432290071686
1.176502461614926
1.176577941650519
1.176655236751203
1.176727307738248
1.176786797082117
1.176823812106208
1.176839789631106
1.176854924588428
1.176868040619674
1.176880666894315
1.176892581683766
1.176902908026963
1.176910815663226
1.176915062796291
1.176914241028802
1.176907608528804
1.176893873342817
1.176870996866348
1.176837550575131
1.176792824280349
1.176736719198489
1.176669601417155
1.176592226970713
1.176506048763021
1.176414058450252
1.176321444348291
1.176237708146235
1.176176535800136
1.176142820115569
1.176127150610995
1.176120323943823
1.176117811278196
1.176120110163211
1.176124163401556
1.176129600556458
1.176136022615893
1.17614378555168
1.17615357970404
1.176166405883762
1.176183485898624
1.176206148696911
1.176235659319841
1.176273048080535
1.176318999864168
1.176373819760974
1.176437371050417
1.176508945566342
1.176586911258097
1.176667681078668
1.176745333600826
1.176812404420953
1.176858150867013
1.176878506945752
1.176892353825243
1.176903900781655
1.176914040513516
1.176923272022302
1.17693138415562
1.176937771870346
1.176941505271085
1.176941687764613
1.176937381157143
1.176926999736439
1.17690863169911
1.176880932874551
1.176842733837726
1.176792966794252
1.176731156374363
1.176657829375078
1.176574300042748
1.176483052190081
1.176388575066828
1.176298578647295
1.176226504773394
1.176182814729899
1.176161701601163
1.176151851812622
1.176147860345928
1.176149267454004
1.17615295820081
1.176158140933271
1.176164195177406
1.176171109195694
1.176179193487096
1.176189274982381
1.176202697629685
1.176221134340206
1.176246266554588
1.176279534864296
1.17632205729234
1.176374598802644
1.176437358459657
1.176509742283449
1.176590184955244
1.176675356466495
1.176759964217822
1.176836253061763
1.176892129081495
1.176922043706051
1.176938127687294
1.176950808758652
1.176959670416078
1.176966199725495
1.176971120892833
1.176974703459587
1.176976589841247
1.17697630134257
1.176972870589472
1.176964526405558
1.176949691341379
1.176926785142
1.176894178246641
1.176850512894316
1.176794939530123
1.176727223362863
1.176647790658569
1.176558358782102
1.176462964989352
1.176368203240417
1.176285842137051
1.176230128227454
1.176200517862751
1.176185376307191
1.176178311278285
1.176176644179578
1.176180444684281
1.176186048782629
1.176193080044454
1.17620050175371
1.176208194241841
1.176216712882125
1.17622732429382
1.176241749036872
1.176261907294885
1.176289704732997
1.176326853438761
1.176374673994324
1.176433902401521
1.176504506739487
1.176585632476045
1.176674477697258
1.176765927364299
1.176852840490885
1.17692203650058
1.176964278176689
1.176988793819643
1.177006441873392
1.177017028882237
1.177023160062699
1.177026178869679
1.177026788428715
1.177025884376905
1.17702334657393
1.177018622378748
1.177010638627443
1.176997894208026
1.176978658461694
1.176951148146121
1.176913594058929
1.176864416560136
1.176802671955256
1.176728397472524
1.176642578723122
1.176548191880715
1.176450874158923
1.176359882880447
1.176290467268369
1.176249632970018
1.176226978132677
1.176213493199356
1.176207987873995
1.176208975089973
1.176213936582909
1.176220939913545
1.176229319663111
1.176238113260851
1.176247214916355
1.176257242319608
1.176269561519261
1.176286054420584
1.176308852015001
1.176340036261486
1.176381386464049
1.176434294522907
1.176499648452859
1.176577415712859
1.17666567219436
1.176759896421765
1.176854900527018
1.176938463327443
1.176995484089497
1.177033219074314
1.177061370865392
1.177079458956963
1.177090759700936
1.177097404510747
1.177100420907046
1.177100306937374
1.177097805178146
1.177093314067123
1.177086345341778
1.177076054897384
1.177060856861805
1.177038651035665
1.177007298750448
1.176965011925572
1.176910367705229
1.176842371578106
1.176760821793772
1.176667812683562
1.176568839444759
1.176471050301713
1.176387603055607
1.176331923528291
1.176298040509481
1.176274804817411
1.176262142338807
1.176257173850338
1.176258152329136
1.176263272367613
1.176270098789578
1.176278153391776
1.176286809323763
1.176296337551525
1.176307584443134
1.176322040086823
1.176341735415003
1.176368948326316
1.176405847703086
1.176454212652517
1.176515157193326
1.17658871415638
1.176673880048287
1.176767498218225
1.176864619198537
1.176956637375087
1.177027413425846
1.177076098139873
1.17711633673725
1.177146193062235
1.177168940907778
1.177186773522165
1.177200839735376
1.17721171366703
1.177219952966327
1.177225979826177
1.177228203215231
1.177225620584463
1.177218149336243
1.177203735328896
1.17718015648681
1.177145037948011
1.177096320747948
1.177032742615849
1.176954187541405
1.176861850059002
1.17675979314424
1.176653748292686
1.176555854591114
1.176483016580799
1.176430591335405
1.176389943988395
1.176362869322728
1.176346412078667
1.17633801825376
1.176334890858413
1.176336161872352
1.176340288697592
1.176345416269502
1.176352145035357
1.176360884701606
1.176372749680164
1.176389305347501
1.176412705679468
1.176445413891013
1.176489686083441
1.176547109575131
1.176618309752991
1.176703193438252
1.176799334421745
1.17690121548827
1.177002215418538
1.177087640957621
1.177151764866632
1.177206981866243
1.177250227060257
1.177284671775955
1.177312787097326
1.177335932578687
1.177354846352608
1.177369976726037
1.17738155559373
1.1773902265416
1.177393414118852
1.177389213368478
1.177377950213685
1.177357757932044
1.1773268520761
1.177283192426672
1.177225225837446
1.177152229178179
1.177063988996323
1.176962801126584
1.176855152364749
1.176749162050374
1.176661166690987
1.176592045625117
1.176534312761496
1.176490510102094
1.176458657297658
1.176436580864923
1.176422203551106
1.176413690946291
1.176408929223918
1.176407050728035
1.17640795413797
1.176411608953738
1.17641912987016
1.176432040804789
1.176452198275334
1.176481527480946
1.176522122419137
1.176576043220681
1.176644884354751
1.176729364134545
1.176827711135561
1.176934123580864
1.177043126405395
1.177141373985995
1.177220369815121
1.177289539439674
1.177345203991648
1.177389470375309
1.177424857171956
1.177453227142875
1.177476056682428
1.177494604174574
1.177509257308924
1.17751980422752
1.177526477415969
1.177526433183434
1.177517513621925
1.177499341042583
1.177470149717328
1.177429102100202
1.177374882331533
1.177305975263379
1.17722150323838
1.177123334804032
1.177017856018969
1.176910131181061
1.176810654089996
1.176733814229415
1.176665015396985
1.176609391635965
1.176566114523559
1.176533309089922
1.176509139441095
1.176491814340052
1.176479473485019
1.176470750944144
1.176464339546829
1.176461577851323
1.176463834712102
1.176471651716925
1.176487412663873
1.17651306386038
1.176550509601117
1.176601500297562
1.176667724435673
1.176750378118304
1.176848728145724
1.17695768241928
1.177073031885461
1.17718218444752
1.177274314298973
1.177355907111604
1.17742317899934
1.177476768568015
1.177518660289045
1.177550913811295
1.177575570434045
1.177594498546741
1.177609086910383
1.177619940059074
1.177627841102229
1.177629945642209
1.17762378629777
1.177608972098649
1.177583383151755
1.177545647256912
1.177494358694889
1.177428421098855
1.177347604173406
1.177253122250006
1.177148957321215
1.177039744473726
1.176933890655351
1.17684759830533
1.176772721569497
1.176709170025001
1.176658401495366
1.176619063704459
1.176589143189438
1.176566512957364
1.176549139387425
1.176535356083441
1.17652436445053
1.176515826330341
1.176511501905489
1.176514084995275
1.176525178191091
1.176546873165253
1.176581227411957
1.17662995200714
1.176694640859153
1.176776466711964
1.176875163314588
1.176986414982932
1.177107106496087
1.177225237852949
1.177329965080401
1.177423558416299
1.177502318340299
1.177565611810982
1.177614886921495
1.177651893099583
1.177678714723549
1.177697824843144
1.177711734856002
1.177721852471636
1.177729034292343
1.177731732026641
1.17772793471695
1.177716428114848
1.177694714955847
1.177660692868482
1.177612924724226
1.177550912200459
1.177474718972223
1.177384415560647
1.177281971223603
1.1771725082609
1.17706229498688
1.176964765348272
1.176882042028605
1.176809312308995
1.176749849778966
1.176702948337556
1.176667186660654
1.176640741391903
1.176621308722374
1.176606647504502
1.176595681006418
1.176588019734356
1.176583537908253
1.176584664839174
1.17659371336044
1.176612162373628
1.176642077412195
1.176684777518682
1.176741461063648
1.17681292422677
1.176898945965288
1.176996914195899
1.177101056635706
1.177205769532945
1.177302169364481
1.177381464184962
1.177444529713478
1.177494866051329
1.17753009990321
1.177551181744462
1.177561644760123
1.17756303934027
1.177557946613714
1.177550365908886
1.177540281028881
1.177528083415705
1.177513214166048
1.17749434118554
1.177469799118535
1.177437731707997
1.177396193605871
1.177343303145878
1.177277924622563
1.177200367589519
1.177112303751717
1.177017452748681
1.176920826546397
1.176827070962964
1.176746891857359
1.176684058525121
1.176627738455651
1.176581558598979
1.176544363905634
1.176515389090241
1.176494509534747
1.176481463342908
1.176475774625469
1.176475470248508
1.176481544113824
1.176493425683749
1.176509028544583
1.176529190794303
1.176554738108675
1.176588128709501
1.17663259778951
1.176691324502576
1.176766019012027
1.176856612927771
1.176959319932066
1.177071215167371
1.177182508730663
1.177278717853973
1.177363869058223
1.177434015037131
1.177488458170012
1.177529124314011
1.177557700292474
1.177575973993173
1.177585480101069
1.177588267309513
1.177585235339462
1.177577880678708
1.177567474474408
1.177553202485655
1.177533886422037
1.177507194668626
1.177470634779856
1.177422125973631
1.177360630291676
1.177286219482909
1.177199727968177
1.177104124892304
1.177004940546514
1.176906401785348
1.176817204676089
1.176747827286154
1.176685897720434
1.176635097122102
1.176594963992398
1.176564085912669
1.176540886174723
1.176523522821649
1.176510287410814
1.176500566755614
1.176495755222789
1.176498630991643
1.176510341654226
1.176530082971001
1.176555017984376
1.176582683683907
1.176615868592913
1.176666634594647
1.176745822991872
1.176859225767396
1.176991882919271
1.177214773541207
)
;

boundaryField
{
    inlet
    {
        type            calculated;
        value           uniform 1.176411716172193;
    }
    outlet
    {
        type            calculated;
        value           uniform 1.177394140061197;
    }
    frontAndBack
    {
        type            empty;
    }
}


// ************************************************************************* //
