/*--------------------------------*- C++ -*----------------------------------*\
| =========                 |                                                 |
| \\      /  F ield         | OpenFOAM: The Open Source CFD Toolbox           |
|  \\    /   O peration     | Version:  v2012                                 |
|   \\  /    A nd           | Website:  www.openfoam.com                      |
|    \\/     M anipulation  |                                                 |
\*---------------------------------------------------------------------------*/
FoamFile
{
    version     2.0;
    format      ascii;
    class       volScalarField;
    location    "0.012";
    object      T;
}
// * * * * * * * * * * * * * * * * * * * * * * * * * * * * * * * * * * * * * //

dimensions      [0 0 0 1 0 0 0];


internalField   nonuniform List<scalar> 
1000
(
299.9872583616149
299.9890341417162
299.9826864560243
299.978029277158
299.9735917872829
299.9697716930373
299.9663188920869
299.9632284818385
299.9605297067969
299.958719227565
299.9582473916498
299.9584408922136
299.9589178609776
299.9597971235721
299.9614000217351
299.9638561896637
299.9670874377794
299.9709395239813
299.9752830972597
299.9800343124015
299.9851318102621
299.9905103345582
299.9960882101007
300.0017664898941
300.0074331935094
300.0129706098191
300.0182706266991
300.0232654489426
300.0279596541664
300.032397414978
300.0364565818078
300.0395085735676
300.0408191028836
300.0409845840709
300.0409575317204
300.0407705718285
300.0402136014973
300.0390786727547
300.0371712925301
300.0343829271519
300.0307315128229
300.0263485576941
300.0214204901648
300.0161231888274
300.0105883060757
300.0049093170599
299.9991665230624
299.9934467217674
299.9878435885103
299.9824333391202
299.9772370080475
299.9722168508551
299.9673918335191
299.9631416811746
299.9603836761484
299.9595100923629
299.9594536716472
299.9594795037841
299.9596645404081
299.9601369376471
299.9610884195305
299.9626989014617
299.9651113835014
299.9683894994325
299.9724962564168
299.9773002422791
299.9826115790563
299.9882326115226
299.9939974038595
299.9997832407612
300.0055026718632
300.0111002551844
300.016563664768
300.0219273255574
300.0272267680284
300.0323491015105
300.036744818227
300.0394145408968
300.0401837773443
300.0402329998458
300.0401866978979
300.0400406218646
300.0396390660667
300.038840745825
300.037477939885
300.0353994531331
300.032498235885
300.0287423556139
300.0241898274224
300.0189810311963
300.0133114405191
300.0073927548522
300.00141185199
299.9954984882591
299.9897108340907
299.9840397495901
299.9784311565513
299.9728533679751
299.9674889435132
299.9630595489802
299.9606240552947
299.9600451937491
299.9600284752706
299.960053991926
299.9602093377708
299.9605818063619
299.96131653507
299.9625599702052
299.9644549841899
299.9671146601243
299.9705982602663
299.9748901943059
299.9798920827565
299.9854359347797
299.9913164748278
299.9973317549436
300.0033222898841
300.0092026881336
300.0149750466248
300.0207038968497
300.0264242272272
300.0319371386473
300.0365061943007
300.0390603122296
300.0397051156349
300.0397396257902
300.0397025678264
300.0395859919914
300.0392709503722
300.0386459826752
300.0375734399038
300.0359148205173
300.033546184452
300.0303816164577
300.026394213374
300.021630024374
300.0162109011501
300.0103203173159
300.0041676366488
299.9979378950149
299.9917473325845
299.9856259193527
299.9795424294123
299.9735019454433
299.9677832788266
299.9632561413713
299.9609577891744
299.960472203169
299.9604617329452
299.9604839149574
299.9606108675502
299.9609137396681
299.9615095181919
299.9625211934735
299.964077139215
299.9662947024786
299.9692630456884
299.9730231796016
299.9775514188996
299.9827542778524
299.9884789305728
299.9945386387491
300.0007513667582
300.0069849368557
300.0131885372486
300.0193785298106
300.0255417961797
300.0314103106816
300.0361552433651
300.0387035208765
300.039315925952
300.039347685039
300.0393185505376
300.0392262685931
300.0389740958382
300.0384703066525
300.0375984935216
300.0362355067786
300.0342605013622
300.0315715318073
300.0281027765758
300.0238403891589
300.0188344783255
300.0132006923158
300.0071026878763
300.0007148230612
299.9941782922297
299.987572486015
299.9809284920839
299.974331190431
299.9681807983439
299.9634882275867
299.9612531696239
299.960820220603
299.9608121450209
299.9608308215597
299.9609360930482
299.9611870259594
299.9616812997405
299.9625241657009
299.9638298606738
299.9657104955829
299.9682639225323
299.9715577364914
299.9756133198263
299.980395830389
299.9858139340089
299.9917310593575
299.9979910294732
300.0044567562935
300.0110447239114
300.0177197264048
300.0244021595699
300.030731386636
300.035761015555
300.0383843345921
300.038993910189
300.0390253978303
300.0390021395527
300.0389281863856
300.0387226995203
300.038308838304
300.0375868387379
300.0364477526543
300.0347787538405
300.0324749931344
300.0294527314214
300.0256629968993
300.0211046834012
300.015832124132
300.009948887649
300.00358459003
299.9968624635786
299.9898748922441
299.9826962635748
299.9754916757944
299.9688000203187
299.9638072910801
299.9615293747536
299.9611121325972
299.9611040157135
299.9611194942686
299.9612076556805
299.961418539979
299.9618352826311
299.9625488784189
299.9636607180842
299.9652748817804
299.9674895547778
299.9703846402883
299.9740082499923
299.9783663651855
299.9834183882074
299.9890804122499
299.995240294876
300.0017859380868
300.0086334013553
300.0157212127968
300.0229181346642
300.0297774130173
300.0352248121841
300.0380557873639
300.0387158931749
300.0387518854629
300.0387333867954
300.0386741789553
300.038505179107
300.0381611164973
300.0375555899114
300.0365922255519
300.0351675372739
300.033179361532
300.0305365445727
300.027169828746
300.0230436030298
300.0181648001119
300.0125821886175
300.0063729187419
299.9996215201116
299.9924047139495
299.9848096730552
299.9770517700155
299.9697729559055
299.9643246163141
299.9618357040397
299.9613669804166
299.9613487997644
299.961357299103
299.9614288516913
299.9616091674763
299.9619698531413
299.9625895370967
299.9635564115623
299.9649630926821
299.9669011150734
299.9694529368999
299.9726824091181
299.9766250501446
299.9812810107159
299.9866148601055
299.9925651556673
299.9990613999837
300.0060393257381
300.013434959938
300.0210911515896
300.0285130861168
300.0345245639994
300.0377298022096
300.0385689292665
300.0386219031689
300.0385750914534
300.0384529570314
300.0382376818437
300.0378763997053
300.0373078093579
300.0364589835198
300.0352468939068
300.0335797316923
300.0313598515839
300.0284923856669
300.0248984902482
300.0205280275548
300.0153640994076
300.0094153059168
300.0027095319797
299.9952890139578
299.9872436885167
299.9788471070828
299.9708203658339
299.9646917853024
299.9617685266317
299.960960050841
299.9609227244556
299.9611123781871
299.9614432870439
299.961930790574
299.9625700511114
299.9633475746357
299.9643577311066
299.9656691626314
299.9673453164013
299.9694458546729
299.9720314043016
299.9751640768104
299.9788981730001
299.9832703599743
299.9883030339085
299.9940188366197
300.0004415508137
300.0075805338649
300.0153573465305
300.0232462230892
300.030079124122
300.0346487168588
300.0367681256291
300.038901456495
300.0407026465055
300.0424457792209
300.0441383410308
300.0456809535664
300.0469223950578
300.0477869880435
300.047966636043
300.0472945789274
300.0458520793429
300.043425143392
300.0399114747452
300.0352757697652
300.0295626573932
300.0228550884089
300.015227467858
300.006746204144
299.9975633824366
299.988042705541
299.9789949740623
299.9718552504459
299.9675788542405
299.9654710208151
299.9644627111313
299.9640195012083
299.9640928163191
299.9644647092635
299.9649898342157
299.965694428251
299.9666025645687
299.9677778333154
299.9692810386815
299.9711880218296
299.9735814053318
299.9765361667476
299.9801072252791
299.9843292444953
299.989228274637
299.9948428894414
300.001219455353
300.0083338258509
300.0159876347084
300.0237915940077
300.0307356149443
300.0360956813838
300.0388688054421
300.0407662962276
300.0424080055161
300.0439954045059
300.0455146355564
300.0469060321933
300.0480755468675
300.0489673276595
300.0493472776088
300.0490306390137
300.0480071183948
300.0461175153666
300.0432113972466
300.0391938944706
300.0340390782164
300.0277786353319
300.0204893548536
300.0122657274873
300.0032666088779
299.9938366468268
299.9846189236092
299.976769442675
299.9715302411414
299.9688325623716
299.9675753996243
299.9670490751112
299.9669440794705
299.9672468960889
299.967729776146
299.9683658545324
299.9691516305728
299.9701337934786
299.9713828964153
299.9729965827162
299.9750876659499
299.9777652794089
299.9811173708982
299.9852019637744
299.9900501627606
299.9956803234378
300.0021010495352
300.0092622704866
300.0169649544144
300.0248525560605
300.0322067695233
300.0382769302926
300.0420537572502
300.0436840049575
300.0452282743962
300.046566537041
300.0478548204285
300.0490705035207
300.0501241116861
300.0509309350664
300.0513642727263
300.051280436035
300.0506037371152
300.0492023423387
300.0468682325076
300.0434556181199
300.038891979272
300.0331671580034
300.0263184130058
300.0184227833379
300.0096284192326
300.0002405184563
299.9907885138991
299.9822421712763
299.9759985089232
299.9725571765791
299.97095778818
299.9702609873204
299.970004519628
299.9702391739381
299.9706528973167
299.9712078750796
299.9718633798391
299.9726557462321
299.9736554359275
299.9749645968549
299.9767079288661
299.9790210601435
299.9820330860665
299.9858491317958
299.990539052367
299.996133925269
300.0026197236128
300.0099240932021
300.0178803992418
300.0261225307137
300.0340462365075
300.0408899205227
300.0455575875585
300.0476345511226
300.0490473650202
300.0502255085793
300.0512600667081
300.0522019549723
300.0530296312419
300.0536813644051
300.0540622796863
300.0540809041712
300.0536415175076
300.0525823242958
300.0507082510022
300.0478821264388
300.0439845888596
300.0389066220264
300.032599630361
300.0251172562009
300.0165934884238
300.0072816764565
299.9976398685594
299.9884548982283
299.98109876495
299.9766394550645
299.9744844733088
299.9734791173373
299.9730717118427
299.9732153369422
299.9735920532341
299.9741210539822
299.9747390062205
299.9754447120257
299.9762698636844
299.9772988628869
299.9786688783316
299.9805506485819
299.9831157728599
299.9865112545627
299.99085115768
299.9962134925252
300.0026184936709
300.0100054467518
300.0182145102413
300.0269057832363
300.0355391575063
300.0433233441144
300.0490244838357
300.0520766614677
300.0537176902399
300.0550115162537
300.0559156506505
300.0565818201102
300.0570839152087
300.0574494368839
300.0576419007781
300.0576124702001
300.0572624480723
300.0564111223662
300.0548975435825
300.0525604642675
300.0492335888541
300.0447783304707
300.0391079284898
300.0321983226843
300.0240928859902
300.01496673197
300.0052317392406
299.9955607812749
299.9871549808415
299.9814685856973
299.9784463669529
299.9769009110717
299.9761797997444
299.9760096442666
299.9763975583029
299.9769695613506
299.9776872281391
299.9784447428505
299.9792298915871
299.9800993592381
299.9811824227828
299.9826546866752
299.9847121224132
299.9875492076221
299.9913406452068
299.9962211571998
300.0022657770393
300.0094711421594
300.017749927057
300.0268160875826
300.0361475967442
300.0450157940763
300.0520759195842
300.0563857440723
300.0588869843435
300.0606875313617
300.0617676662071
300.0623931964998
300.0627011904471
300.0627633854571
300.0626711586746
300.0624122492896
300.0619302708786
300.0611157343926
300.0598154854383
300.0578529419932
300.0550461442174
300.0512145452656
300.0461969118705
300.0398968641889
300.0323180806992
300.0235609953933
300.0139291719956
300.0039977865061
299.9947115698216
299.9876269691564
299.9834592766467
299.9811470125014
299.9797706605658
299.9792087508444
299.9793095142666
299.9798159205802
299.9805307296264
299.9813860208292
299.9822835461829
299.9832125069458
299.9842359462726
299.9854932860808
299.9871765938983
299.9895033509606
299.9926860194613
299.9969061508024
300.0023057300881
300.0089752845636
300.0169113662147
300.0259174846336
300.0355321391004
300.0452259151247
300.053751866112
300.0595694971011
300.0634193821146
300.066291501297
300.0681368734676
300.0692897848255
300.0699676941717
300.0702754298222
300.0702638100593
300.0700085943576
300.0695504210256
300.0688394716896
300.0677896278799
300.0662390931705
300.0639735889411
300.0607748945944
300.0564605333606
300.0508852597607
300.0439474949471
300.0356265121218
300.026135851519
300.0160361247085
300.0060567359324
299.9975405245548
299.9918579350436
299.9883998010837
299.9860283099569
299.9847359325491
299.9842288277324
299.9843286964129
299.9848512725538
299.9855480111706
299.9863701003141
299.9872535565343
299.9882260319631
299.9893739062215
299.9908492559227
299.9928593507001
299.9956366539035
299.9994024834527
300.0043383499334
300.0105578537108
300.0180642245604
300.026754919713
300.0363076899152
300.0462174167891
300.0556060222783
300.0628269701652
300.0677938961998
300.0718990403867
300.0749449285822
300.0772655914255
300.0790848029044
300.0805197751432
300.0816290830953
300.0824696171237
300.0830844492166
300.0833112724727
300.0830478159042
300.0822856471149
300.0808152033882
300.0784097888154
300.0748270958727
300.0698570055059
300.0633706324575
300.0553559933226
300.0459347888263
300.0355214009384
300.0247005488135
300.014710911943
300.007277758889
300.0019275763423
299.997779273565
299.9950160936629
299.9933364856071
299.9924798180649
299.9921606385242
299.9922903633226
299.9927115578743
299.9932348898754
299.9939216341024
299.994813597768
299.9960245122464
299.9977141317419
300.0001022718034
300.0034402894849
300.0079583772867
300.0138184406845
300.0210841808839
300.0297459400414
300.0395559794327
300.0499512167514
300.0602560249404
300.0689713689294
300.0755132135295
300.0811462195887
300.0855578002687
300.089071543711
300.0919395743513
300.094300607645
300.096229956029
300.0977733599775
300.0989544805802
300.0998389718765
300.1001641270033
300.0997356381785
300.098586739487
300.0965269920922
300.0933743455094
300.0889206304561
300.0830073195988
300.0755605124795
300.0665582651085
300.0562346079971
300.0452512134165
300.0344364559605
300.025457350213
300.0184039118157
300.0125123949339
300.0080423082437
300.0047916450666
300.0025386552356
300.0010713805577
300.0002026275241
299.9997166739216
299.9995249680248
299.9996171780946
299.9999901925255
300.0007577554147
300.0020753790404
300.0041325206693
300.0071256331224
300.011268368948
300.0167708877337
300.02379578364
300.0324161968165
300.0424511816134
300.0533085881419
300.0644297100355
300.0744529667494
300.0825117835146
300.0895679132058
300.0952461821769
300.0997616193096
300.1033712110806
300.10626501452
300.1085936546338
300.1104855058624
300.1119801238295
300.1130559038814
300.1137365589466
300.1137320589163
300.1128222977605
300.1109687141694
300.1079911786198
300.1038042174617
300.0982735338561
300.0912444592791
300.08262730743
300.0726125063639
300.0618513874741
300.0508605550676
300.0407106680917
300.0328701517279
300.0258498671697
300.0201737987169
300.0157575149947
300.0124097636435
300.0099432479532
300.0081752030513
300.0069157988418
300.0060256483487
300.0053713571667
300.0050895266506
300.0053198606197
300.0061176237912
300.007726063021
300.0103437807378
300.0141650748338
300.0193685018684
300.026126252324
300.0345602201401
300.0445953904268
300.0557120009627
300.0674804834137
300.0786160787787
300.0880145502916
300.0963377473627
300.103199822407
300.1086660565746
300.1129389812344
300.116228755291
300.1187436324003
300.1206742066339
300.1221621385663
300.1232690960139
300.1240749569397
300.124289613966
300.123661418238
300.1221504773042
300.1195405398317
300.1156916069492
300.110460230241
300.1037344703665
300.0954906888582
300.0858525848857
300.0752262009391
300.0640842824404
300.0532844701361
300.0444799855947
300.0368399425898
300.0303552408663
300.0251747435815
300.0211605603224
300.018107298999
300.0157979511753
300.0140250146222
300.0126184488047
300.0114967653468
300.0106254586808
300.0101841552174
300.0104477721017
300.0115798450298
300.0137937953332
300.0172995494913
300.0222716504375
300.0288726346066
300.0372220061141
300.0472923893587
300.0586432296826
300.0709565292706
300.0830078911458
300.0936911916866
300.1032382544947
300.1112718763694
300.117727660013
300.1227534559108
300.1265278040665
300.129263363276
300.1312123991923
300.1326310669817
300.1336629482871
300.1343954127121
300.1346705542244
300.1342832882099
300.1331097655894
300.1308952643388
300.1274253290799
300.1225533214181
300.1162283114584
300.1084566579303
300.0992453966276
300.0887952280672
300.0776285327957
300.0663846941256
300.0564342877689
300.0479941070848
300.0405732794403
300.0345059377204
300.0297201503311
300.0260709773808
300.0233724214509
300.0213894302457
300.0198933266564
300.0187742465188
300.017992448295
300.0175350959568
300.0176501078174
300.0185734955774
300.0204561406579
300.0235087884333
300.0278659878464
300.033649936918
300.0409417527213
300.0497187255344
300.0597141742557
300.0703390421119
300.0810215727677
300.0908555274686
300.0989442069571
300.105377153918
300.1105115243244
300.1141053432776
300.1162556383994
300.117322829973
300.1174650737384
300.1169456446179
300.1161724562651
300.1151438474144
300.1138997351231
300.11238310633
300.1104580817856
300.1079547802883
300.1046838334073
300.1004467657916
300.0950515731801
300.088382313875
300.0804704500756
300.0714863929111
300.0618094989746
300.0519510424189
300.0423850205221
300.0342038549538
300.0277923591756
300.0220453064563
300.0173328657419
300.0135372360793
300.0105803753287
300.0084496062956
300.007118230036
300.0065376947755
300.0065066383257
300.0071265036435
300.0083390600407
300.0099313625803
300.0119889226553
300.0145959827249
300.018003377003
300.0225412003916
300.028533781405
300.0361554894225
300.0453991667548
300.0558782935756
300.0672943095117
300.0786482962822
300.0884628812992
300.0971490799232
300.1043044097368
300.1098578678668
300.1140059950349
300.1169208499229
300.1187847166589
300.1197541359509
300.1200382733279
300.1197288211263
300.1189780569491
300.1179153437013
300.1164574618496
300.1144845195691
300.1117596038597
300.1080299094781
300.1030848495025
300.0968199376396
300.0892429726363
300.0804380433435
300.0707048615044
300.0606015135209
300.0505503720198
300.0414308291838
300.0343099542205
300.0279288627154
300.0226723610205
300.0185061433366
300.0152986430565
300.0129060012337
300.0111793212732
300.0100373878396
300.0095093841028
300.0094614682662
300.0103994322494
300.0129874276134
300.0170793879269
300.0221633066852
300.0275186588556
300.0319916923967
300.0346674161066
300.0361685417386
300.0387325779478
300.0417268987272
300.0457095486792
)
;

boundaryField
{
    inlet
    {
        type            fixedValue;
        value           uniform 300;
    }
    outlet
    {
        type            characteristicVelocityInletOutletTemperature;
        UName           U;
        pName           p;
        TName           T;
        phiName         phi;
        rhoName         rho;
        U               (0 0 0);
        p               101325;
        T               300;
        value           uniform 300;
    }
    frontAndBack
    {
        type            empty;
    }
}


// ************************************************************************* //
