/*--------------------------------*- C++ -*----------------------------------*\
| =========                 |                                                 |
| \\      /  F ield         | OpenFOAM: The Open Source CFD Toolbox           |
|  \\    /   O peration     | Version:  v2012                                 |
|   \\  /    A nd           | Website:  www.openfoam.com                      |
|    \\/     M anipulation  |                                                 |
\*---------------------------------------------------------------------------*/
FoamFile
{
    version     2.0;
    format      ascii;
    class       volVectorField;
    location    "0.012";
    object      U;
}
// * * * * * * * * * * * * * * * * * * * * * * * * * * * * * * * * * * * * * //

dimensions      [0 1 -1 0 0 0 0];


internalField   nonuniform List<vector> 
1000
(
(-0.0009938314089704494 0 0)
(-0.03284393904925484 0 0)
(-0.04105967604347566 0 0)
(-0.05636107421840329 0 0)
(-0.07040533475037236 0 0)
(-0.08351774708472895 0 0)
(-0.09471558264401952 0 0)
(-0.104296411352644 0 0)
(-0.1126265939447455 0 0)
(-0.1185065157938958 0 0)
(-0.1203394805844997 0 0)
(-0.1203050748912097 0 0)
(-0.119572778925745 0 0)
(-0.1172886532594535 0 0)
(-0.1127313053021701 0 0)
(-0.105625858985106 0 0)
(-0.09621623207636322 0 0)
(-0.08494661762970659 0 0)
(-0.07220300331124076 0 0)
(-0.05824738413186811 0 0)
(-0.0432792354147248 0 0)
(-0.02750964238989945 0 0)
(-0.01119556345423911 0 0)
(0.005363572778282751 0 0)
(0.02184214457047957 0 0)
(0.03790293836030561 0 0)
(0.05323252476946011 0 0)
(0.06763501298697405 0 0)
(0.08113692622541684 0 0)
(0.09388858963339282 0 0)
(0.1055475318006742 0 0)
(0.1142901253201496 0 0)
(0.1179990801607301 0 0)
(0.1184286362588867 0 0)
(0.1183403337384278 0 0)
(0.1177708392657105 0 0)
(0.1161886653123287 0 0)
(0.1129373310000022 0 0)
(0.1074536738578853 0 0)
(0.09942428434652391 0 0)
(0.08889795566494925 0 0)
(0.07624753598812219 0 0)
(0.06200809629318556 0 0)
(0.04669220295833044 0 0)
(0.03068540011706773 0 0)
(0.01425425944195546 0 0)
(-0.002374093443136723 0 0)
(-0.01893949715504791 0 0)
(-0.03515526748738277 0 0)
(-0.05080500050611077 0 0)
(-0.06584874166352113 0 0)
(-0.08039321320158686 0 0)
(-0.09434923143892791 0 0)
(-0.1066126749954781 0 0)
(-0.1145780534778433 0 0)
(-0.1171323525472535 0 0)
(-0.1173145250975003 0 0)
(-0.1171741905047194 0 0)
(-0.1166728148154627 0 0)
(-0.11529408246761 0 0)
(-0.1125437624910084 0 0)
(-0.1078878445083792 0 0)
(-0.1009118683133413 0 0)
(-0.09142875527323746 0 0)
(-0.07954972967086023 0 0)
(-0.06565826806939065 0 0)
(-0.05029781786009593 0 0)
(-0.03403407224072239 0 0)
(-0.01735408200188144 0 0)
(-0.0006235588369204606 0 0)
(0.0159119398632728 0 0)
(0.03210973949962273 0 0)
(0.04792770420733145 0 0)
(0.06343658389277489 0 0)
(0.07874085558643815 0 0)
(0.09355784735448608 0 0)
(0.1063049574949706 0 0)
(0.1140359361721921 0 0)
(0.1162234517485288 0 0)
(0.1163368995875586 0 0)
(0.1162738120944758 0 0)
(0.1158077653897706 0 0)
(0.114659535186244 0 0)
(0.1123491252854799 0 0)
(0.1084065107044095 0 0)
(0.102393654395466 0 0)
(0.09400436086031799 0 0)
(0.08314273528060535 0 0)
(0.06997230915880738 0 0)
(0.05490337805068265 0 0)
(0.03850788979568818 0 0)
(0.02139325140947392 0 0)
(0.004089420390316907 0 0)
(-0.01302375419686254 0 0)
(-0.02976118674676259 0 0)
(-0.04615134651261003 0 0)
(-0.06237676984578283 0 0)
(-0.07853292558819791 0 0)
(-0.09405347587829119 0 0)
(-0.106838809091339 0 0)
(-0.1138695650447937 0 0)
(-0.1155719886243833 0 0)
(-0.1156534441298027 0 0)
(-0.115518829218661 0 0)
(-0.1151031288767181 0 0)
(-0.1140158042995137 0 0)
(-0.1118914687043308 0 0)
(-0.1082955511811137 0 0)
(-0.1028147897318662 0 0)
(-0.09511937180000507 0 0)
(-0.08504114807659313 0 0)
(-0.07262862277866348 0 0)
(-0.05816224197255481 0 0)
(-0.04212268068866194 0 0)
(-0.02510882488852535 0 0)
(-0.007713509484074604 0 0)
(0.009607268598781308 0 0)
(0.02662064312770541 0 0)
(0.04332864477045011 0 0)
(0.05989532961548683 0 0)
(0.07642214585812294 0 0)
(0.09236782982688338 0 0)
(0.1056082765254647 0 0)
(0.1130043426035239 0 0)
(0.1148420829718167 0 0)
(0.1149181052548811 0 0)
(0.1148644579390721 0 0)
(0.1144955563136597 0 0)
(0.1135937035431463 0 0)
(0.1117851971165972 0 0)
(0.1086823981078114 0 0)
(0.1038839831597912 0 0)
(0.09703443752703933 0 0)
(0.08788289509433465 0 0)
(0.0763478526249483 0 0)
(0.06256542435860114 0 0)
(0.04689351442459118 0 0)
(0.02985933550875267 0 0)
(0.01205988600269231 0 0)
(-0.005966536165723115 0 0)
(-0.02387043919800925 0 0)
(-0.04156617876231031 0 0)
(-0.05916442919134236 0 0)
(-0.07665412418434907 0 0)
(-0.09319929173624551 0 0)
(-0.1062742508141714 0 0)
(-0.1129105656205382 0 0)
(-0.1143351081045836 0 0)
(-0.1143929171978932 0 0)
(-0.1142823500112615 0 0)
(-0.1139400125161172 0 0)
(-0.113056671543743 0 0)
(-0.1113339190659359 0 0)
(-0.1084082203861751 0 0)
(-0.1039081251881452 0 0)
(-0.09749196691321085 0 0)
(-0.08890443639420878 0 0)
(-0.07802971559965649 0 0)
(-0.0649329324342596 0 0)
(-0.04988023880309869 0 0)
(-0.03331806893067121 0 0)
(-0.01579359260215564 0 0)
(0.002171448590974987 0 0)
(0.0202060686544846 0 0)
(0.03815905015301962 0 0)
(0.0560594781305612 0 0)
(0.07387118588678955 0 0)
(0.09084649203629808 0 0)
(0.104590920987174 0 0)
(0.1119671476807241 0 0)
(0.1137160562894076 0 0)
(0.1137899353737681 0 0)
(0.1137488597128542 0 0)
(0.1134558058995614 0 0)
(0.1127341488134819 0 0)
(0.1112762968378586 0 0)
(0.1087542629048048 0 0)
(0.104811031287522 0 0)
(0.09909967385494371 0 0)
(0.09132356203779939 0 0)
(0.08128909657480336 0 0)
(0.06895844378948053 0 0)
(0.05448124693065318 0 0)
(0.03818929720978325 0 0)
(0.02054863250062516 0 0)
(0.002066025118331671 0 0)
(-0.01683894399866651 0 0)
(-0.0359376050634254 0 0)
(-0.05515708233077413 0 0)
(-0.07425452264554537 0 0)
(-0.09204785719472926 0 0)
(-0.1056051854902399 0 0)
(-0.1120605154811384 0 0)
(-0.1133287739233971 0 0)
(-0.1133751793464595 0 0)
(-0.1132832135169831 0 0)
(-0.1129989226629656 0 0)
(-0.1122671982769987 0 0)
(-0.1108379352525324 0 0)
(-0.1084004323333921 0 0)
(-0.1046241246392379 0 0)
(-0.09918283614566174 0 0)
(-0.09179570484803039 0 0)
(-0.08226956364434802 0 0)
(-0.07053965591379303 0 0)
(-0.05670320980839075 0 0)
(-0.04102829005144805 0 0)
(-0.02391578811621748 0 0)
(-0.005812984644250666 0 0)
(0.01289301260379468 0 0)
(0.03195613189077327 0 0)
(0.05125927067907044 0 0)
(0.0705752679016613 0 0)
(0.08888413313914152 0 0)
(0.1034487785406649 0 0)
(0.1110396197463897 0 0)
(0.1127836342088361 0 0)
(0.1128610470388478 0 0)
(0.1128299605701569 0 0)
(0.1125934829449278 0 0)
(0.1120058549326889 0 0)
(0.1108081585085956 0 0)
(0.1087195631931253 0 0)
(0.1054240395583611 0 0)
(0.1005975293012649 0 0)
(0.09393540653976637 0 0)
(0.08519267829569292 0 0)
(0.07422944057832689 0 0)
(0.06104655239796185 0 0)
(0.04579897196295202 0 0)
(0.02877996750281398 0 0)
(0.01036649922990695 0 0)
(-0.009075450643839756 0 0)
(-0.02927974572194834 0 0)
(-0.0500457990611311 0 0)
(-0.07089766175069391 0 0)
(-0.09025581697574675 0 0)
(-0.104684024444749 0 0)
(-0.1112653970134457 0 0)
(-0.1124859881536996 0 0)
(-0.1125280967363905 0 0)
(-0.1124517528569486 0 0)
(-0.1122137592762874 0 0)
(-0.1115987786502947 0 0)
(-0.1103937356779785 0 0)
(-0.1083300822000997 0 0)
(-0.1051144200388794 0 0)
(-0.1004441388517772 0 0)
(-0.09403712135610701 0 0)
(-0.08566414384617384 0 0)
(-0.07518345712191074 0 0)
(-0.06257487173914605 0 0)
(-0.04795933917718291 0 0)
(-0.03158433213034484 0 0)
(-0.01376995953229532 0 0)
(0.005167207060881778 0 0)
(0.02497946931794093 0 0)
(0.04547630772168189 0 0)
(0.06628257207292554 0 0)
(0.08612549798921462 0 0)
(0.1018956384972919 0 0)
(0.1100845713169077 0 0)
(0.1119777310802154 0 0)
(0.1120724007294152 0 0)
(0.1120504170312808 0 0)
(0.1118596028340735 0 0)
(0.1113770863829511 0 0)
(0.1103806975493831 0 0)
(0.1086276981174869 0 0)
(0.1058386366866595 0 0)
(0.1017167335473494 0 0)
(0.09596620006700705 0 0)
(0.0883219426676579 0 0)
(0.0785856174289544 0 0)
(0.06665722682098682 0 0)
(0.05255354908777559 0 0)
(0.03640843493623478 0 0)
(0.01844482340111394 0 0)
(-0.001086647192607082 0 0)
(-0.02196604031369846 0 0)
(-0.04395142371582118 0 0)
(-0.06641411487553101 0 0)
(-0.08747269039990084 0 0)
(-0.1032171422228087 0 0)
(-0.1104019139295876 0 0)
(-0.1117392087349947 0 0)
(-0.1117724286353718 0 0)
(-0.1116995265904145 0 0)
(-0.1114978386405985 0 0)
(-0.1109878072551999 0 0)
(-0.109983562644181 0 0)
(-0.1082460692181878 0 0)
(-0.1055081765449619 0 0)
(-0.1014847559718444 0 0)
(-0.09589492592896569 0 0)
(-0.08849010585013053 0 0)
(-0.07908535903574887 0 0)
(-0.06758760392811665 0 0)
(-0.054012901330014 0 0)
(-0.03848531155363032 0 0)
(-0.02120858090854359 0 0)
(-0.002410788845585436 0 0)
(0.01771031654203428 0 0)
(0.03897212074419453 0 0)
(0.06093209212032494 0 0)
(0.08219152504644966 0 0)
(0.0994032059178387 0 0)
(0.1085558328779457 0 0)
(0.1109352409374456 0 0)
(0.1111304918992762 0 0)
(0.1112390436344887 0 0)
(0.1112379983536567 0 0)
(0.1110295173904668 0 0)
(0.1103977759156795 0 0)
(0.1090860536627742 0 0)
(0.1067950412041798 0 0)
(0.1032123728643162 0 0)
(0.09804304906444065 0 0)
(0.09103567916919235 0 0)
(0.0820045603648123 0 0)
(0.07084401675635649 0 0)
(0.057534121960723 0 0)
(0.04214154584188328 0 0)
(0.02480455825122139 0 0)
(0.005695824980961555 0 0)
(-0.01505346685512506 0 0)
(-0.03728511558142383 0 0)
(-0.06037447853711576 0 0)
(-0.08243749016213635 0 0)
(-0.09926671176805453 0 0)
(-0.1072091537968706 0 0)
(-0.1094183153513313 0 0)
(-0.1096852196909732 0 0)
(-0.1102098645215256 0 0)
(-0.1106306113602045 0 0)
(-0.1109090842126759 0 0)
(-0.1108270209695259 0 0)
(-0.1100930736149592 0 0)
(-0.1082981559047978 0 0)
(-0.1050791289341757 0 0)
(-0.1000981222970168 0 0)
(-0.09305173468017372 0 0)
(-0.08371388137957184 0 0)
(-0.07197357140352714 0 0)
(-0.05784331076389745 0 0)
(-0.04144835092604715 0 0)
(-0.02300362991288778 0 0)
(-0.002777160019037515 0 0)
(0.01892212392405207 0 0)
(0.04174945766907195 0 0)
(0.06517558500950993 0 0)
(0.08739176539809486 0 0)
(0.104520454260539 0 0)
(0.1127845310062927 0 0)
(0.1133356199910181 0 0)
(0.1104555189764015 0 0)
(0.1056979951562923 0 0)
(0.0998439339900257 0 0)
(0.0935180526006197 0 0)
(0.08708231133511968 0 0)
(0.08074892627091576 0 0)
(0.07464633264113128 0 0)
(0.06722657064254188 0 0)
(0.06043376452063354 0 0)
(0.05304548988703354 0 0)
(0.04494793247670358 0 0)
(0.0357832798443808 0 0)
(0.02534056623476922 0 0)
(0.01344968571233908 0 0)
(-6.968042410604152e-05 0 0)
(-0.01546724608238335 0 0)
(-0.03301374643825675 0 0)
(-0.05267446231606106 0 0)
(-0.07371625759963073 0 0)
(-0.09403321394715757 0 0)
(-0.1096398486959543 0 0)
(-0.1178635977709403 0 0)
(-0.1206908968411686 0 0)
(-0.1212955273381691 0 0)
(-0.1210010458718248 0 0)
(-0.1198553593973672 0 0)
(-0.1187986517935847 0 0)
(-0.1176259858336756 0 0)
(-0.1162974504899551 0 0)
(-0.1144060585001644 0 0)
(-0.1115772234002911 0 0)
(-0.1074182507778273 0 0)
(-0.101564180925613 0 0)
(-0.09368420241049319 0 0)
(-0.08352855412283673 0 0)
(-0.07097078578959755 0 0)
(-0.05601111645776629 0 0)
(-0.03873776774109029 0 0)
(-0.01928267362806681 0 0)
(0.002138889320102737 0 0)
(0.02506186856984766 0 0)
(0.0486063077701463 0 0)
(0.07141941735452106 0 0)
(0.09032338275758313 0 0)
(0.1028450398723916 0 0)
(0.1064609369024652 0 0)
(0.1051255262932912 0 0)
(0.1016220665727242 0 0)
(0.09658637675721703 0 0)
(0.09071421272590423 0 0)
(0.08432497272357482 0 0)
(0.07763742968107443 0 0)
(0.07098271490887666 0 0)
(0.06395788964345189 0 0)
(0.05669918316423432 0 0)
(0.04946160081440454 0 0)
(0.04174874593943834 0 0)
(0.03309996361678465 0 0)
(0.02316029874431639 0 0)
(0.0117183859839136 0 0)
(-0.001415353547349287 0 0)
(-0.0164932808074108 0 0)
(-0.03377688678930958 0 0)
(-0.05325028212255788 0 0)
(-0.07427169979872569 0 0)
(-0.09527584862575485 0 0)
(-0.1131007118821966 0 0)
(-0.1242433373017521 0 0)
(-0.1289349779054277 0 0)
(-0.130306183852118 0 0)
(-0.1305162089862807 0 0)
(-0.1294348354751108 0 0)
(-0.1281891807516445 0 0)
(-0.1264923951424866 0 0)
(-0.1244835265197707 0 0)
(-0.1219848350141736 0 0)
(-0.1187802870747138 0 0)
(-0.1146091721238252 0 0)
(-0.1091729745846129 0 0)
(-0.1021472007995453 0 0)
(-0.09322717849728558 0 0)
(-0.08217394658777528 0 0)
(-0.06883868499432418 0 0)
(-0.05316793048887765 0 0)
(-0.03519751687760126 0 0)
(-0.01506111228096342 0 0)
(0.006913977910656039 0 0)
(0.02999157901518192 0 0)
(0.05294209091140186 0 0)
(0.07337160423877764 0 0)
(0.08862690462473691 0 0)
(0.09565612667431517 0 0)
(0.09616590429096057 0 0)
(0.09396493822459917 0 0)
(0.09005912004946721 0 0)
(0.08504712383906833 0 0)
(0.0792241098971837 0 0)
(0.07277061195279172 0 0)
(0.06599559310169133 0 0)
(0.05903606294362332 0 0)
(0.05132735229161019 0 0)
(0.04400326357203841 0 0)
(0.03626984733797844 0 0)
(0.02781951774701653 0 0)
(0.0182933281994816 0 0)
(0.007387341701311507 0 0)
(-0.00520037330692683 0 0)
(-0.01972832306902958 0 0)
(-0.03638940863487969 0 0)
(-0.05524692734407492 0 0)
(-0.07592562332472166 0 0)
(-0.09729429548545872 0 0)
(-0.1167915932996625 0 0)
(-0.1305206283366321 0 0)
(-0.1371472679211221 0 0)
(-0.1394540997240998 0 0)
(-0.1400458081770279 0 0)
(-0.1392735435768701 0 0)
(-0.1380310280900567 0 0)
(-0.1361051071072829 0 0)
(-0.1336951428463758 0 0)
(-0.1307064730386237 0 0)
(-0.1270145459116568 0 0)
(-0.1224531507180309 0 0)
(-0.1168437928462003 0 0)
(-0.1099819297039771 0 0)
(-0.1016386810697192 0 0)
(-0.09157529280302272 0 0)
(-0.0795769978189111 0 0)
(-0.06549770189671586 0 0)
(-0.04927643238188793 0 0)
(-0.03093574887652319 0 0)
(-0.01063056537943911 0 0)
(0.01119902479421626 0 0)
(0.03349676587520423 0 0)
(0.05439466655907607 0 0)
(0.0714445781345955 0 0)
(0.0815204268436483 0 0)
(0.08389707232544633 0 0)
(0.08289426304174101 0 0)
(0.08025263182331267 0 0)
(0.07629930258636293 0 0)
(0.07133457775612691 0 0)
(0.06554499327794702 0 0)
(0.05914782175477683 0 0)
(0.05235481858545993 0 0)
(0.04464884208871312 0 0)
(0.03723967079994427 0 0)
(0.02943232928227497 0 0)
(0.02097694487161169 0 0)
(0.01154940308160645 0 0)
(0.0008650592793152773 0 0)
(-0.01132213585387326 0 0)
(-0.02524214869595368 0 0)
(-0.04113599862381059 0 0)
(-0.05919022018721595 0 0)
(-0.07920103776919071 0 0)
(-0.100306694106601 0 0)
(-0.1206521471668428 0 0)
(-0.136585627564544 0 0)
(-0.1452521742439074 0 0)
(-0.1484232788428802 0 0)
(-0.1492831988496257 0 0)
(-0.1488916652488976 0 0)
(-0.1477106768876499 0 0)
(-0.1458923518153089 0 0)
(-0.1434756685377098 0 0)
(-0.1403228428109949 0 0)
(-0.1363325871649133 0 0)
(-0.1314109194234535 0 0)
(-0.1254660344209538 0 0)
(-0.1183917374022812 0 0)
(-0.1100648168598344 0 0)
(-0.1003324347725786 0 0)
(-0.08902249848219873 0 0)
(-0.07599561389372919 0 0)
(-0.06117698106693466 0 0)
(-0.04453680206857041 0 0)
(-0.02608655025178928 0 0)
(-0.00601950661759613 0 0)
(0.01492626592742502 0 0)
(0.03536460693440258 0 0)
(0.05313680608758136 0 0)
(0.06483240974584571 0 0)
(0.06886147411153433 0 0)
(0.0689125760849056 0 0)
(0.06731246241978313 0 0)
(0.06427669520754462 0 0)
(0.06014350912003151 0 0)
(0.05513109061401392 0 0)
(0.04941065339711046 0 0)
(0.04308281903236025 0 0)
(0.03615694397235932 0 0)
(0.02894135337137124 0 0)
(0.02111059398692403 0 0)
(0.01255772444928327 0 0)
(0.003151485131825113 0 0)
(-0.007327444817482324 0 0)
(-0.01917059494421967 0 0)
(-0.03267206053129812 0 0)
(-0.04802158909587519 0 0)
(-0.06531810922880044 0 0)
(-0.08451601084880211 0 0)
(-0.1050418837722435 0 0)
(-0.1255074453703554 0 0)
(-0.1428951202728532 0 0)
(-0.1534113252332705 0 0)
(-0.1574923709255469 0 0)
(-0.1586338870000507 0 0)
(-0.158781079457856 0 0)
(-0.1572955924321648 0 0)
(-0.1557262984512955 0 0)
(-0.1533171032568159 0 0)
(-0.1502216200050216 0 0)
(-0.1462806371942019 0 0)
(-0.1413909004087268 0 0)
(-0.135411112989083 0 0)
(-0.1282135020472943 0 0)
(-0.1197014068240566 0 0)
(-0.1098167475740616 0 0)
(-0.0985312701468536 0 0)
(-0.08583247982741275 0 0)
(-0.07170263565444882 0 0)
(-0.05610014413314255 0 0)
(-0.03902527842063651 0 0)
(-0.02060658684795128 0 0)
(-0.001347827715084231 0 0)
(0.0177847663983184 0 0)
(0.03520084586607805 0 0)
(0.04747552273740922 0 0)
(0.05228634851694823 0 0)
(0.05280026427704829 0 0)
(0.0515163787637287 0 0)
(0.04869449997951319 0 0)
(0.04502258212114223 0 0)
(0.04075661467643022 0 0)
(0.03567010103983208 0 0)
(0.03012410458924645 0 0)
(0.0240021121577519 0 0)
(0.01724868082158126 0 0)
(0.009832516585501291 0 0)
(0.001632225671389064 0 0)
(-0.007552215915032572 0 0)
(-0.01794231376738547 0 0)
(-0.02971054326039165 0 0)
(-0.04297819000356073 0 0)
(-0.05787135227565841 0 0)
(-0.07453301233731083 0 0)
(-0.09300512431448425 0 0)
(-0.1128159067045694 0 0)
(-0.1328681080315617 0 0)
(-0.1510719765260423 0 0)
(-0.1634930913710542 0 0)
(-0.1685984928891857 0 0)
(-0.1697594703618781 0 0)
(-0.1695154321769266 0 0)
(-0.1681883732563925 0 0)
(-0.1657945796327534 0 0)
(-0.1633724635006052 0 0)
(-0.1602628621355328 0 0)
(-0.1564807981719948 0 0)
(-0.1518366042248422 0 0)
(-0.1461631757103436 0 0)
(-0.139256666029646 0 0)
(-0.1309594655424943 0 0)
(-0.1211950520420886 0 0)
(-0.1099599941150229 0 0)
(-0.09728311997358156 0 0)
(-0.0832001428603311 0 0)
(-0.06776940593648735 0 0)
(-0.05113138760854369 0 0)
(-0.03349266756974432 0 0)
(-0.01517551461020045 0 0)
(0.002952188976173004 0 0)
(0.01972089017153289 0 0)
(0.03237540723296135 0 0)
(0.03747717478305099 0 0)
(0.0375875603927062 0 0)
(0.03537272046786473 0 0)
(0.03142844613949773 0 0)
(0.02666925370452216 0 0)
(0.02157154789586355 0 0)
(0.01621687880317878 0 0)
(0.01019792876169481 0 0)
(0.004051178270837616 0 0)
(-0.002773986592303509 0 0)
(-0.0103305169091056 0 0)
(-0.01872752747098074 0 0)
(-0.02806205680194595 0 0)
(-0.03848105499669646 0 0)
(-0.05019315083748826 0 0)
(-0.06340184482911267 0 0)
(-0.07820570014687876 0 0)
(-0.09453100179403064 0 0)
(-0.1122588172375639 0 0)
(-0.1311382714032881 0 0)
(-0.1502552281822577 0 0)
(-0.1681116572112077 0 0)
(-0.1815817150319505 0 0)
(-0.1875973931614292 0 0)
(-0.1886953533644108 0 0)
(-0.1878199602493436 0 0)
(-0.1854515501327618 0 0)
(-0.1823979231632553 0 0)
(-0.1785191647614217 0 0)
(-0.1748636093014762 0 0)
(-0.1705500613040195 0 0)
(-0.1656292903633667 0 0)
(-0.15981490794607 0 0)
(-0.1529086595671197 0 0)
(-0.1447789417759308 0 0)
(-0.1353532304408969 0 0)
(-0.1245878283184876 0 0)
(-0.112463882815177 0 0)
(-0.09900404642376175 0 0)
(-0.08427949304028551 0 0)
(-0.06837413989592603 0 0)
(-0.05138970238364533 0 0)
(-0.03357581363945986 0 0)
(-0.01586773697219454 0 0)
(0.0006157908737112116 0 0)
(0.01426364161761296 0 0)
(0.02081384713452485 0 0)
(0.02113058106570403 0 0)
(0.01823071263878639 0 0)
(0.01272299941361127 0 0)
(0.005606531489787591 0 0)
(-0.002443250185696267 0 0)
(-0.01113049440552616 0 0)
(-0.0202987475495051 0 0)
(-0.02971816027505753 0 0)
(-0.03928534888851143 0 0)
(-0.04972887578579754 0 0)
(-0.06040303094819207 0 0)
(-0.07141707734782152 0 0)
(-0.08293340795208246 0 0)
(-0.09517704210951587 0 0)
(-0.1083593936155035 0 0)
(-0.1226066834924305 0 0)
(-0.1379366367879902 0 0)
(-0.1543486788898949 0 0)
(-0.1717900266851236 0 0)
(-0.1893287522111139 0 0)
(-0.2055551548216432 0 0)
(-0.2181367877414714 0 0)
(-0.2235063568196176 0 0)
(-0.2236486058171512 0 0)
(-0.2212631540859634 0 0)
(-0.2168391776261478 0 0)
(-0.2113238669614799 0 0)
(-0.2052293000204016 0 0)
(-0.1990400436439248 0 0)
(-0.192550413269701 0 0)
(-0.1862525635922868 0 0)
(-0.179339254676773 0 0)
(-0.171712679498875 0 0)
(-0.1630501502175746 0 0)
(-0.1532872286479514 0 0)
(-0.1424815297175465 0 0)
(-0.130719189251196 0 0)
(-0.1180184969819725 0 0)
(-0.1043365974121788 0 0)
(-0.08962873138067198 0 0)
(-0.07397776426191471 0 0)
(-0.05769247078295459 0 0)
(-0.04160810682663631 0 0)
(-0.02671579305803019 0 0)
(-0.01395696868500408 0 0)
(-0.007378792631037192 0 0)
(-0.007142037774917788 0 0)
(-0.01062124940144411 0 0)
(-0.0173585744386637 0 0)
(-0.02630829179378252 0 0)
(-0.03663564651146964 0 0)
(-0.04784881398481083 0 0)
(-0.05954603920574702 0 0)
(-0.0713848485855926 0 0)
(-0.08321088565383776 0 0)
(-0.09469008147012814 0 0)
(-0.106638607941202 0 0)
(-0.1185447933788291 0 0)
(-0.1306378316530385 0 0)
(-0.142925765388894 0 0)
(-0.1555683524785447 0 0)
(-0.1688396668443257 0 0)
(-0.1831346210985053 0 0)
(-0.1986916273447811 0 0)
(-0.2153258822869292 0 0)
(-0.2320044938073286 0 0)
(-0.2472354077577445 0 0)
(-0.2597679926074621 0 0)
(-0.265638497270525 0 0)
(-0.2653794898518604 0 0)
(-0.2618190718937619 0 0)
(-0.2554211569381744 0 0)
(-0.2471905154076567 0 0)
(-0.2379689412471916 0 0)
(-0.2283914789517565 0 0)
(-0.2187873275561699 0 0)
(-0.2094524041993591 0 0)
(-0.2001270506701921 0 0)
(-0.1905383062022083 0 0)
(-0.180616621024681 0 0)
(-0.1700431296139027 0 0)
(-0.1587617155762138 0 0)
(-0.1468943899204484 0 0)
(-0.1345410653980876 0 0)
(-0.1217298739449176 0 0)
(-0.1084045270155361 0 0)
(-0.09456205029530969 0 0)
(-0.08037687308167649 0 0)
(-0.06635917580486128 0 0)
(-0.05336702932659294 0 0)
(-0.0420661042753254 0 0)
(-0.03603091201199046 0 0)
(-0.03577853837281818 0 0)
(-0.03909830668102319 0 0)
(-0.04585689287649843 0 0)
(-0.05519473310042827 0 0)
(-0.06627047917287932 0 0)
(-0.07849876556771039 0 0)
(-0.09144981412759716 0 0)
(-0.104696400470632 0 0)
(-0.1178664201795558 0 0)
(-0.1306381737382469 0 0)
(-0.142658902280778 0 0)
(-0.1559251946500228 0 0)
(-0.1678070284622944 0 0)
(-0.1799763710223226 0 0)
(-0.1921896096447662 0 0)
(-0.2046735273287699 0 0)
(-0.217759307067154 0 0)
(-0.2317174468726428 0 0)
(-0.2466235155000898 0 0)
(-0.2621966531462339 0 0)
(-0.2771958559803159 0 0)
(-0.2901045472837482 0 0)
(-0.2978859536004511 0 0)
(-0.2992604294430669 0 0)
(-0.2964172842029954 0 0)
(-0.2900957177258614 0 0)
(-0.2809910821863361 0 0)
(-0.270066184905206 0 0)
(-0.2581654934583428 0 0)
(-0.2459447372525389 0 0)
(-0.2337832228771738 0 0)
(-0.2217249679613867 0 0)
(-0.2100344990420034 0 0)
(-0.1982269567289229 0 0)
(-0.1862037639009339 0 0)
(-0.1740114361043675 0 0)
(-0.1616652703611208 0 0)
(-0.149231891233934 0 0)
(-0.1368653707093 0 0)
(-0.1245934194291496 0 0)
(-0.1123692886109291 0 0)
(-0.1002273226200636 0 0)
(-0.08834490077358206 0 0)
(-0.07734764080296783 0 0)
(-0.06761784643303476 0 0)
(-0.06224047020779108 0 0)
(-0.06194077832402937 0 0)
(-0.06489139802019471 0 0)
(-0.07115509493938907 0 0)
(-0.0800348587930943 0 0)
(-0.09086796112398392 0 0)
(-0.1031255741762245 0 0)
(-0.1163434636279006 0 0)
(-0.1299862017959474 0 0)
(-0.1436109990257257 0 0)
(-0.1570720512555997 0 0)
(-0.1699295766905151 0 0)
(-0.1831112057066777 0 0)
(-0.195549138958161 0 0)
(-0.2078992352466429 0 0)
(-0.2201056874334877 0 0)
(-0.2322960010977014 0 0)
(-0.2445615950558518 0 0)
(-0.2571264996985411 0 0)
(-0.270351577093043 0 0)
(-0.2844163453495199 0 0)
(-0.2983506358526243 0 0)
(-0.3107175071541077 0 0)
(-0.3200004004778487 0 0)
(-0.3234281999721081 0 0)
(-0.3219594009425694 0 0)
(-0.3171298827504599 0 0)
(-0.309062354200849 0 0)
(-0.2984677543470265 0 0)
(-0.2860907345528222 0 0)
(-0.2726185976607259 0 0)
(-0.2586643760152776 0 0)
(-0.2446329385487831 0 0)
(-0.2306668644261793 0 0)
(-0.2170910692986835 0 0)
(-0.2036947641083171 0 0)
(-0.1899594701369056 0 0)
(-0.1768689649626353 0 0)
(-0.1642088305366212 0 0)
(-0.1521894448424124 0 0)
(-0.1408591681212164 0 0)
(-0.1301827267804002 0 0)
(-0.1201496573973477 0 0)
(-0.1106960410790538 0 0)
(-0.1021143363633815 0 0)
(-0.09437189011198321 0 0)
(-0.09005541004415833 0 0)
(-0.08999843309109885 0 0)
(-0.09278681515028279 0 0)
(-0.09863382534037402 0 0)
(-0.1069672565324535 0 0)
(-0.1173434806830279 0 0)
(-0.1293027216279343 0 0)
(-0.1423365890996943 0 0)
(-0.1558950136677949 0 0)
(-0.1695708477442796 0 0)
(-0.1832329311827276 0 0)
(-0.1964847331561106 0 0)
(-0.209737358489271 0 0)
(-0.2227786088808439 0 0)
(-0.2354711907959013 0 0)
(-0.2478369626054204 0 0)
(-0.2598827427782056 0 0)
(-0.271696593144705 0 0)
(-0.283563284402539 0 0)
(-0.2958195283185193 0 0)
(-0.3085341094367742 0 0)
(-0.3210260662880034 0 0)
(-0.3323633569870669 0 0)
(-0.3419607354978088 0 0)
(-0.3466651723569228 0 0)
(-0.3462516633637081 0 0)
(-0.3424941668910252 0 0)
(-0.3353149010781539 0 0)
(-0.3252734194955437 0 0)
(-0.3130781585469334 0 0)
(-0.2994264419803671 0 0)
(-0.284980491376606 0 0)
(-0.2703136720889041 0 0)
(-0.2557775579754134 0 0)
(-0.2416682616663708 0 0)
(-0.2281340147796705 0 0)
(-0.2140378875750505 0 0)
(-0.2010525595319798 0 0)
(-0.1883232268755702 0 0)
(-0.1760451491374822 0 0)
(-0.1642444668804073 0 0)
(-0.1528862064544547 0 0)
(-0.1418681017765194 0 0)
(-0.1310055548178845 0 0)
(-0.1201699599077539 0 0)
(-0.1096974870176469 0 0)
(-0.1000678344331813 0 0)
(-0.09277163933272589 0 0)
(-0.08915124534952812 0 0)
(-0.08816517678049582 0 0)
(-0.08904904198012736 0 0)
(-0.09212991141021747 0 0)
(-0.09717678538243392 0 0)
(-0.1033711542241908 0 0)
(-0.1117013727924327 0 0)
(-0.1195434350814127 0 0)
(-0.1280790737018394 0 0)
(-0.1369362008137288 0 0)
(-0.1461805557955692 0 0)
(-0.1558593714484008 0 0)
(-0.1660205582172168 0 0)
(-0.1767541882552304 0 0)
(-0.1881319930313531 0 0)
(-0.2001821282341335 0 0)
(-0.2128976722107035 0 0)
(-0.2263272321708225 0 0)
(-0.2405765354121714 0 0)
(-0.2555006984593358 0 0)
(-0.2701175122116999 0 0)
(-0.2832514107478187 0 0)
(-0.2941056903603502 0 0)
(-0.2996118605436685 0 0)
(-0.2996423447614424 0 0)
(-0.2960746484260386 0 0)
(-0.2889266741871788 0 0)
(-0.2788187059700784 0 0)
(-0.2665737236687293 0 0)
(-0.2530288563094013 0 0)
(-0.239099401391677 0 0)
(-0.2254577309118592 0 0)
(-0.2125059258766511 0 0)
(-0.2010894149488579 0 0)
(-0.1904032294941055 0 0)
(-0.1794542629787952 0 0)
(-0.1680197333696974 0 0)
(-0.1557429671958803 0 0)
(-0.1427986894255358 0 0)
(-0.129596485509686 0 0)
(-0.1166462729055786 0 0)
(-0.1044124977238162 0 0)
(-0.09314332373661556 0 0)
(-0.08344961631686425 0 0)
(-0.07549409168138491 0 0)
(-0.07042711641448597 0 0)
(-0.06912822943475753 0 0)
(-0.0706721127175952 0 0)
(-0.07500148418329881 0 0)
(-0.08176972096891637 0 0)
(-0.09036835228956895 0 0)
(-0.1002102985241537 0 0)
(-0.1108469332396567 0 0)
(-0.1220775726126072 0 0)
(-0.133716145250874 0 0)
(-0.1452482993936991 0 0)
(-0.1564769461011897 0 0)
(-0.1678679192895827 0 0)
(-0.1793578751654152 0 0)
(-0.1911807454227385 0 0)
(-0.2032965836757816 0 0)
(-0.2155366826788564 0 0)
(-0.2277805880260158 0 0)
(-0.2401978323295401 0 0)
(-0.2530969694752029 0 0)
(-0.2665533644874816 0 0)
(-0.2800347528996258 0 0)
(-0.292629939773892 0 0)
(-0.3035306717209206 0 0)
(-0.3102403479423428 0 0)
(-0.3116065436696467 0 0)
(-0.3093420492261805 0 0)
(-0.3037787697786634 0 0)
(-0.2951149484699463 0 0)
(-0.2839314266587648 0 0)
(-0.2707794712801103 0 0)
(-0.2562065277668996 0 0)
(-0.2408152627639252 0 0)
(-0.2253605665189339 0 0)
(-0.2105779742681301 0 0)
(-0.1969284733721376 0 0)
(-0.1861165852329167 0 0)
(-0.1765171286628762 0 0)
(-0.1667334738085848 0 0)
(-0.1553261100746333 0 0)
(-0.1412966281321855 0 0)
(-0.1257046988613746 0 0)
(-0.111666239107332 0 0)
(-0.1008575618208816 0 0)
(-0.09593499022459651 0 0)
(-0.08643490671557288 0 0)
)
;

boundaryField
{
    inlet
    {
        type            zeroGradient;
    }
    outlet
    {
        type            characteristicPressureInletOutletVelocity;
        UName           U;
        pName           p;
        TName           T;
        phiName         phi;
        rhoName         rho;
        U               (0 0 0);
        p               101325;
        T               300;
        value           uniform (-0.08643490671557288 0 0);
    }
    frontAndBack
    {
        type            empty;
    }
}


// ************************************************************************* //
