/*--------------------------------*- C++ -*----------------------------------*\
| =========                 |                                                 |
| \\      /  F ield         | OpenFOAM: The Open Source CFD Toolbox           |
|  \\    /   O peration     | Version:  v2012                                 |
|   \\  /    A nd           | Website:  www.openfoam.com                      |
|    \\/     M anipulation  |                                                 |
\*---------------------------------------------------------------------------*/
FoamFile
{
    version     2.0;
    format      ascii;
    class       volVectorField;
    location    "0.012";
    object      UMean;
}
// * * * * * * * * * * * * * * * * * * * * * * * * * * * * * * * * * * * * * //

dimensions      [0 1 -1 0 0 0 0];


internalField   nonuniform List<vector> 
1000
(
(-2.867615265458935e-05 0 0)
(1.046850651350079e-06 0 0)
(1.853511692635775e-05 0 0)
(5.18975524911914e-05 0 0)
(9.114667964514273e-05 0 0)
(0.0001326655361150041 0 0)
(0.0001861667239779919 0 0)
(0.000242944453299298 0 0)
(0.0003095287169711061 0 0)
(0.0003794257202477801 0 0)
(0.0004521480388564508 0 0)
(0.0005244105291629946 0 0)
(0.0005962868259917107 0 0)
(0.0006672637235839821 0 0)
(0.0007362213978255789 0 0)
(0.0008018368800471442 0 0)
(0.0008624066710727187 0 0)
(0.0009168826571711708 0 0)
(0.0009640778418665289 0 0)
(0.001003372227296624 0 0)
(0.001034001016628018 0 0)
(0.001055389101869671 0 0)
(0.001067227181215463 0 0)
(0.001069096112632343 0 0)
(0.001061167350647103 0 0)
(0.001043344879117115 0 0)
(0.001016235885155249 0 0)
(0.0009800744098018563 0 0)
(0.0009356814942713761 0 0)
(0.0008832652201727332 0 0)
(0.0008235504057884906 0 0)
(0.0007573950711748445 0 0)
(0.0006874995813393271 0 0)
(0.0006164412674359627 0 0)
(0.000545463488760724 0 0)
(0.0004746170983865272 0 0)
(0.0004044779245878148 0 0)
(0.0003357223641264355 0 0)
(0.0002696248560427418 0 0)
(0.0002075046566383198 0 0)
(0.000150976528457623 0 0)
(0.0001013206522872782 0 0)
(5.9749002207895e-05 0 0)
(2.696437008017916e-05 0 0)
(3.597359360795548e-06 0 0)
(-1.009269380390863e-05 0 0)
(-1.382875845914436e-05 0 0)
(-7.649815528656346e-06 0 0)
(8.404852247230638e-06 0 0)
(3.398410494239041e-05 0 0)
(6.880169256689325e-05 0 0)
(0.0001124633373902417 0 0)
(0.0001647515554053396 0 0)
(0.0002250485831023602 0 0)
(0.0002916734109975168 0 0)
(0.0003614050265817992 0 0)
(0.0004317792315321045 0 0)
(0.0005020930614534086 0 0)
(0.0005722742209911251 0 0)
(0.0006418043778909145 0 0)
(0.0007102006330966065 0 0)
(0.0007762920613339348 0 0)
(0.0008390101181523598 0 0)
(0.0008967123237687451 0 0)
(0.0009481301226079635 0 0)
(0.0009917376416792281 0 0)
(0.001026691984337243 0 0)
(0.00105207762131853 0 0)
(0.001067701829828444 0 0)
(0.0010732122710319 0 0)
(0.001068847001475158 0 0)
(0.001054564276274056 0 0)
(0.001030791709293869 0 0)
(0.0009975307124937777 0 0)
(0.0009551074920506938 0 0)
(0.0009034694563734268 0 0)
(0.0008434926286013419 0 0)
(0.0007770809205971354 0 0)
(0.0007078551387009935 0 0)
(0.0006380028098222639 0 0)
(0.0005682665144593897 0 0)
(0.0004986465892874744 0 0)
(0.0004295278681894365 0 0)
(0.0003614253758969848 0 0)
(0.0002951969990339827 0 0)
(0.0002319206037701568 0 0)
(0.0001729567333928758 0 0)
(0.0001197276013969305 0 0)
(7.369982761390952e-05 0 0)
(3.6099737559238e-05 0 0)
(7.934885293577191e-06 0 0)
(-1.021098019883141e-05 0 0)
(-1.8028874567951e-05 0 0)
(-1.555523195167835e-05 0 0)
(-2.923623889035425e-06 0 0)
(1.962412402072767e-05 0 0)
(5.197720330795337e-05 0 0)
(9.404537498013142e-05 0 0)
(0.0001457286687544195 0 0)
(0.0002061018140147864 0 0)
(0.0002726377305291695 0 0)
(0.0003416418555711856 0 0)
(0.0004110298396754654 0 0)
(0.0004803445371805921 0 0)
(0.0005495653419537118 0 0)
(0.0006182420933634243 0 0)
(0.0006860643401084906 0 0)
(0.0007520817089886038 0 0)
(0.0008154926131531899 0 0)
(0.000874870504522463 0 0)
(0.0009290388053213006 0 0)
(0.0009763799363276608 0 0)
(0.001015777472426393 0 0)
(0.001045938529132031 0 0)
(0.001066303403930117 0 0)
(0.001076258966175423 0 0)
(0.001075911218409224 0 0)
(0.001065177595083817 0 0)
(0.001044447873987088 0 0)
(0.001013643921013763 0 0)
(0.0009729856391644612 0 0)
(0.0009223819153548606 0 0)
(0.0008629216769748345 0 0)
(0.0007969979206984653 0 0)
(0.0007285194916106266 0 0)
(0.0006595203962774291 0 0)
(0.0005906374171294026 0 0)
(0.0005218234317604315 0 0)
(0.0004534290903661998 0 0)
(0.0003858050800556857 0 0)
(0.0003196771599152929 0 0)
(0.000255866469721252 0 0)
(0.0001955642596213714 0 0)
(0.0001400030411428607 0 0)
(9.065940309813335e-05 0 0)
(4.884705087874114e-05 0 0)
(1.588686422065708e-05 0 0)
(-7.31723173806245e-06 0 0)
(-2.005041727688871e-05 0 0)
(-2.209333890363452e-05 0 0)
(-1.333921700416349e-05 0 0)
(6.043746049875828e-06 0 0)
(3.605584849808854e-05 0 0)
(7.65837845794848e-05 0 0)
(0.000127477794902593 0 0)
(0.0001874592333337368 0 0)
(0.000253555644319487 0 0)
(0.0003218674156890836 0 0)
(0.0003905096677973818 0 0)
(0.0004590677583090795 0 0)
(0.0005275685329609869 0 0)
(0.0005956080211267121 0 0)
(0.0006629713823747542 0 0)
(0.0007288513908594191 0 0)
(0.0007926171189962941 0 0)
(0.0008530264158007251 0 0)
(0.0009090554696189664 0 0)
(0.000959166204032401 0 0)
(0.001002205598778627 0 0)
(0.001036718624690562 0 0)
(0.001061865089074373 0 0)
(0.001076702532950624 0 0)
(0.001081005540515865 0 0)
(0.001074425899571697 0 0)
(0.001057172544826494 0 0)
(0.001029073021853944 0 0)
(0.0009903286636568148 0 0)
(0.000940937275725349 0 0)
(0.0008822116596892544 0 0)
(0.0008168875615554876 0 0)
(0.0007490632711974723 0 0)
(0.0006807414368036764 0 0)
(0.0006125297750176823 0 0)
(0.0005443546794674177 0 0)
(0.0004765316258246092 0 0)
(0.0004093104538114692 0 0)
(0.0003433194733306996 0 0)
(0.0002792057202789482 0 0)
(0.0002180163150997975 0 0)
(0.0001608044994937434 0 0)
(0.0001089587149898199 0 0)
(6.374899835165288e-05 0 0)
(2.660406262018573e-05 0 0)
(-1.377458475835628e-06 0 0)
(-1.915120152835034e-05 0 0)
(-2.615897899446216e-05 0 0)
(-2.192285193137317e-05 0 0)
(-6.349059474575046e-06 0 0)
(2.076779352885472e-05 0 0)
(5.937017325180411e-05 0 0)
(0.0001092238176148338 0 0)
(0.0001686906145849016 0 0)
(0.0002343466480023539 0 0)
(0.0003020806597346019 0 0)
(0.0003701152239770139 0 0)
(0.0004380658117269207 0 0)
(0.0005059831976479119 0 0)
(0.0005735030987622753 0 0)
(0.0006404780837060473 0 0)
(0.0007062044159496427 0 0)
(0.0007701762664803945 0 0)
(0.0008313015538684189 0 0)
(0.0008886951547444148 0 0)
(0.000940937621583215 0 0)
(0.000986920354553942 0 0)
(0.001025156030711563 0 0)
(0.001054656554678361 0 0)
(0.001074241256640286 0 0)
(0.001083374265777329 0 0)
(0.001081387232347744 0 0)
(0.001068188773318139 0 0)
(0.001043393275730151 0 0)
(0.001007076874121903 0 0)
(0.0009592533172730912 0 0)
(0.0009014314931773346 0 0)
(0.0008367096806324696 0 0)
(0.0007694410354593435 0 0)
(0.0007016801906390717 0 0)
(0.0006340229610758318 0 0)
(0.0005663785479196098 0 0)
(0.0004990348247747412 0 0)
(0.0004321700426642709 0 0)
(0.0003663351465252834 0 0)
(0.0003020492638962414 0 0)
(0.0002402356956624405 0 0)
(0.0001817974743805361 0 0)
(0.0001280096396499242 0 0)
(8.005555499190111e-05 0 0)
(3.937262645660874e-05 0 0)
(7.14334240437895e-06 0 0)
(-1.537663493529436e-05 0 0)
(-2.734470072328011e-05 0 0)
(-2.792736230978126e-05 0 0)
(-1.668620022121135e-05 0 0)
(6.898913760235317e-06 0 0)
(4.296139736323142e-05 0 0)
(9.129594795284198e-05 0 0)
(0.0001499898803830977 0 0)
(0.0002151549889613505 0 0)
(0.0002823920140709537 0 0)
(0.0003499230382148099 0 0)
(0.000417371824134836 0 0)
(0.000484804243891156 0 0)
(0.0005518927681413358 0 0)
(0.0006185328241540124 0 0)
(0.0006841067552073161 0 0)
(0.0007482010588872954 0 0)
(0.0008098511788319021 0 0)
(0.0008682883795951312 0 0)
(0.0009222175416683434 0 0)
(0.000970603822706843 0 0)
(0.001011991439677593 0 0)
(0.00104532591737802 0 0)
(0.001069291370739956 0 0)
(0.001083111932349952 0 0)
(0.00108583565547045 0 0)
(0.001077050497011849 0 0)
(0.001056091499901526 0 0)
(0.001022799420832487 0 0)
(0.0009770904439783837 0 0)
(0.0009205411254153952 0 0)
(0.0008565492930239653 0 0)
(0.0007897967993519784 0 0)
(0.0007225186448398689 0 0)
(0.0006553337691377905 0 0)
(0.00058814584558329 0 0)
(0.0005212158428967063 0 0)
(0.0004546716815363252 0 0)
(0.0003889979176504722 0 0)
(0.0003246212335074686 0 0)
(0.0002623549793672228 0 0)
(0.0002029790317605873 0 0)
(0.0001476535580768473 0 0)
(9.746527607162832e-05 0 0)
(5.380711016285516e-05 0 0)
(1.788328246597069e-05 0 0)
(-8.935551491089636e-06 0 0)
(-2.560060222561222e-05 0 0)
(-3.099257331262614e-05 0 0)
(-2.434285524149969e-05 0 0)
(-4.784929164853444e-06 0 0)
(2.80936969114726e-05 0 0)
(7.423844563077214e-05 0 0)
(0.0001316792150836325 0 0)
(0.0001961630840343191 0 0)
(0.0002629240926780023 0 0)
(0.0003300312541958433 0 0)
(0.0003970665766551192 0 0)
(0.0004641031325686581 0 0)
(0.0005308421387180014 0 0)
(0.0005972008388237984 0 0)
(0.00066262592445087 0 0)
(0.0007267735296532782 0 0)
(0.0007887921827570734 0 0)
(0.0008479995161872741 0 0)
(0.0009032504416995445 0 0)
(0.0009535986076739183 0 0)
(0.0009976250310524608 0 0)
(0.001034324881743092 0 0)
(0.001062309407576875 0 0)
(0.001080558944730443 0 0)
(0.001088002899363112 0 0)
(0.001083823291723414 0 0)
(0.001067084509155792 0 0)
(0.001037337582298835 0 0)
(0.0009943855843467396 0 0)
(0.0009394995754903512 0 0)
(0.0008763813243313984 0 0)
(0.0008100413079596325 0 0)
(0.0007429801677915448 0 0)
(0.0006760461293851449 0 0)
(0.0006092277458110167 0 0)
(0.0005427459105694872 0 0)
(0.0004766516867971838 0 0)
(0.0004114631701073019 0 0)
(0.000347441002055837 0 0)
(0.0002851940646026322 0 0)
(0.000225438419131706 0 0)
(0.0001691080284413788 0 0)
(0.0001171192017505826 0 0)
(7.06434491671266e-05 0 0)
(3.104896327636819e-05 0 0)
(-1.925744861955259e-07 0 0)
(-2.197980523649775e-05 0 0)
(-3.264332177222526e-05 0 0)
(-3.106053305426471e-05 0 0)
(-1.590457629416545e-05 0 0)
(1.307693573873545e-05 0 0)
(5.675301516244343e-05 0 0)
(0.000113030803756254 0 0)
(0.0001771775346523429 0 0)
(0.0002442087046345577 0 0)
(0.0003124043783359977 0 0)
(0.0003798590147729046 0 0)
(0.0004468895239663243 0 0)
(0.0005134766633752436 0 0)
(0.0005790051340726648 0 0)
(0.0006433000903446457 0 0)
(0.0007060062056573125 0 0)
(0.0007669872676206985 0 0)
(0.000824828261156537 0 0)
(0.0008796803534876124 0 0)
(0.0009304138755028036 0 0)
(0.0009765753264187747 0 0)
(0.001016610636575433 0 0)
(0.001049647561557845 0 0)
(0.00107443987709992 0 0)
(0.001090503488662074 0 0)
(0.001095059727372226 0 0)
(0.001088314725860235 0 0)
(0.001068349957098219 0 0)
(0.001034586365259028 0 0)
(0.0009881974871943325 0 0)
(0.0009321725411881016 0 0)
(0.0008699525819260334 0 0)
(0.000804315924804708 0 0)
(0.000735571157442267 0 0)
(0.0006634804970635982 0 0)
(0.0005885478644694704 0 0)
(0.000510369680442985 0 0)
(0.0004300915093624726 0 0)
(0.0003476965819412697 0 0)
(0.0002637971562708714 0 0)
(0.0001811101351289911 0 0)
(9.896587741286125e-05 0 0)
(2.270793561549629e-05 0 0)
(-4.882445987340906e-05 0 0)
(-0.0001138855329358073 0 0)
(-0.000170128903983632 0 0)
(-0.0002156489144488529 0 0)
(-0.0002485130243555705 0 0)
(-0.0002680824652220723 0 0)
(-0.0002727879904218075 0 0)
(-0.0002608135135518014 0 0)
(-0.0002323884600422269 0 0)
(-0.0001897899587566965 0 0)
(-0.0001365752769430931 0 0)
(-7.859508737606252e-05 0 0)
(-1.811854893383742e-05 0 0)
(4.451035823027575e-05 0 0)
(0.0001078852046787953 0 0)
(0.0001700666215951962 0 0)
(0.0002310543715753405 0 0)
(0.0002921779855939143 0 0)
(0.0003502211964654226 0 0)
(0.0004055054589119763 0 0)
(0.0004600083267605087 0 0)
(0.0005107350535841913 0 0)
(0.0005594450234024496 0 0)
(0.0006040500934022858 0 0)
(0.0006422543388692397 0 0)
(0.000673991538808406 0 0)
(0.0006972599550215962 0 0)
(0.0007113694308164552 0 0)
(0.0007154276885687191 0 0)
(0.0007061307600937356 0 0)
(0.0006845855377187744 0 0)
(0.0006497540296113683 0 0)
(0.0006016860721021382 0 0)
(0.0005447831943787972 0 0)
(0.0004795413741686215 0 0)
(0.000409275384493147 0 0)
(0.0003377815117209574 0 0)
(0.0002639486582384606 0 0)
(0.0001868017684451204 0 0)
(0.0001061745266136117 0 0)
(2.440771793198437e-05 0 0)
(-6.001213478169456e-05 0 0)
(-0.0001475390836979431 0 0)
(-0.0002339377423403357 0 0)
(-0.0003190418803110413 0 0)
(-0.0004009106322223805 0 0)
(-0.0004758979383190839 0 0)
(-0.0005468497206623499 0 0)
(-0.0006094253844595747 0 0)
(-0.0006628099066318045 0 0)
(-0.0007050019329422253 0 0)
(-0.000732392008342447 0 0)
(-0.0007482532703959137 0 0)
(-0.000747114529522024 0 0)
(-0.0007284029071051767 0 0)
(-0.0006954856702263311 0 0)
(-0.0006497471083533225 0 0)
(-0.0005977716529058636 0 0)
(-0.0005438610204490292 0 0)
(-0.0004862577599219916 0 0)
(-0.0004273783207878803 0 0)
(-0.0003696733619569311 0 0)
(-0.0003131789915705192 0 0)
(-0.0002572255163193835 0 0)
(-0.0002020583431068309 0 0)
(-0.0001521031892285261 0 0)
(-0.0001040812311197791 0 0)
(-5.560325886639409e-05 0 0)
(-1.152575969245162e-05 0 0)
(3.234433823841679e-05 0 0)
(6.919218361116006e-05 0 0)
(9.987329665411024e-05 0 0)
(0.0001222344067598587 0 0)
(0.0001344675289889129 0 0)
(0.0001382921108892322 0 0)
(0.000126074670383941 0 0)
(0.0001023834132351467 0 0)
(6.619944633103646e-05 0 0)
(1.577042970363608e-05 0 0)
(-4.496482189787343e-05 0 0)
(-0.0001146845612992001 0 0)
(-0.0001900921432784327 0 0)
(-0.0002672008790673152 0 0)
(-0.0003450026049549017 0 0)
(-0.0004262514353854031 0 0)
(-0.0005099982549198614 0 0)
(-0.0005960211813983315 0 0)
(-0.0006823294745741664 0 0)
(-0.0007735404951351319 0 0)
(-0.0008671166216064675 0 0)
(-0.0009547518247139548 0 0)
(-0.00104358236038794 0 0)
(-0.001123564098564545 0 0)
(-0.001200734943638071 0 0)
(-0.001270496214628446 0 0)
(-0.001331999032883625 0 0)
(-0.001383934937213195 0 0)
(-0.001421305877266378 0 0)
(-0.00144780344882065 0 0)
(-0.001458567051646288 0 0)
(-0.001451122085628379 0 0)
(-0.001428307173305728 0 0)
(-0.001392116561594952 0 0)
(-0.001346999256120145 0 0)
(-0.001298649404592911 0 0)
(-0.001248154008593151 0 0)
(-0.001193621764388631 0 0)
(-0.001141008373653475 0 0)
(-0.001088883539651416 0 0)
(-0.001038823705805383 0 0)
(-0.0009864761075217871 0 0)
(-0.0009412398466271869 0 0)
(-0.0009002117497549565 0 0)
(-0.0008546457961534873 0 0)
(-0.0008152398279143408 0 0)
(-0.0007733498054125168 0 0)
(-0.0007380726852323418 0 0)
(-0.0007078325950600728 0 0)
(-0.0006855728348872511 0 0)
(-0.0006739632849354444 0 0)
(-0.0006717735538822401 0 0)
(-0.0006831845543249741 0 0)
(-0.0007095053343321199 0 0)
(-0.0007482701964251183 0 0)
(-0.0008006926819884698 0 0)
(-0.0008663667350349831 0 0)
(-0.0009411568242988648 0 0)
(-0.001022598729786262 0 0)
(-0.001107794418654845 0 0)
(-0.001191208691078038 0 0)
(-0.00127833512011291 0 0)
(-0.001367274539967892 0 0)
(-0.001459156739377179 0 0)
(-0.00154938553768885 0 0)
(-0.001644733160747009 0 0)
(-0.001744118747468977 0 0)
(-0.001837950113844562 0 0)
(-0.001932453762412175 0 0)
(-0.002019748238191174 0 0)
(-0.00210376096824243 0 0)
(-0.002180978098665219 0 0)
(-0.002250815387176252 0 0)
(-0.002312633754111754 0 0)
(-0.002362492094389768 0 0)
(-0.002397899243948212 0 0)
(-0.002422585409666405 0 0)
(-0.002428502782350654 0 0)
(-0.002415894281759672 0 0)
(-0.002390108162129677 0 0)
(-0.002352915365380402 0 0)
(-0.002311002947090695 0 0)
(-0.002267542976700425 0 0)
(-0.002218079225781047 0 0)
(-0.002170122997546584 0 0)
(-0.002123022417076448 0 0)
(-0.00207769516217986 0 0)
(-0.002031862178952919 0 0)
(-0.00198749554344987 0 0)
(-0.001952639084560457 0 0)
(-0.001914449144342163 0 0)
(-0.001877290097949178 0 0)
(-0.001840799942920033 0 0)
(-0.001807066136280252 0 0)
(-0.001777760488258806 0 0)
(-0.001754999212830081 0 0)
(-0.001743192635691507 0 0)
(-0.001742107738131325 0 0)
(-0.001751300369121255 0 0)
(-0.001779696495641974 0 0)
(-0.001820299914337718 0 0)
(-0.001873471691721443 0 0)
(-0.001943035162693857 0 0)
(-0.002022893282216151 0 0)
(-0.002111361610853381 0 0)
(-0.002204384845859743 0 0)
(-0.002297666043252552 0 0)
(-0.00239121248462804 0 0)
(-0.002488525295034073 0 0)
(-0.002586665070392984 0 0)
(-0.002685874904105845 0 0)
(-0.002783340772920829 0 0)
(-0.002889463937207179 0 0)
(-0.002993483789439031 0 0)
(-0.00309203201800884 0 0)
(-0.003188973150335588 0 0)
(-0.003279927218624778 0 0)
(-0.00336607772117849 0 0)
(-0.003444514014326488 0 0)
(-0.00351588484016096 0 0)
(-0.003578265953421063 0 0)
(-0.003625187038398542 0 0)
(-0.003662706134263889 0 0)
(-0.003683444816267462 0 0)
(-0.003683257902896234 0 0)
(-0.003668718359889186 0 0)
(-0.003641150968194481 0 0)
(-0.003607143124246113 0 0)
(-0.003569395696571971 0 0)
(-0.003529326078072063 0 0)
(-0.00348249703791191 0 0)
(-0.003441523343630918 0 0)
(-0.003399825060342511 0 0)
(-0.003360896834346754 0 0)
(-0.003318899647484899 0 0)
(-0.003287940028958086 0 0)
(-0.003258945614885571 0 0)
(-0.003224762122818241 0 0)
(-0.003194338803664916 0 0)
(-0.003163350805357087 0 0)
(-0.003137327084492491 0 0)
(-0.00311498932569593 0 0)
(-0.003101309574349982 0 0)
(-0.003100610702446139 0 0)
(-0.003109399007647239 0 0)
(-0.003134755837128269 0 0)
(-0.003177549718166872 0 0)
(-0.003230866451879776 0 0)
(-0.00330145496471467 0 0)
(-0.003386397220694694 0 0)
(-0.003481317412874608 0 0)
(-0.003582027470299034 0 0)
(-0.00368720166920708 0 0)
(-0.003787914127140196 0 0)
(-0.003895866118681658 0 0)
(-0.004003690749088529 0 0)
(-0.004113508338916641 0 0)
(-0.004218610708026403 0 0)
(-0.004332182309169 0 0)
(-0.004445370996999393 0 0)
(-0.004552457618846519 0 0)
(-0.004658564388606731 0 0)
(-0.004758573115116881 0 0)
(-0.004855434862379571 0 0)
(-0.004944067283099184 0 0)
(-0.005025296771996974 0 0)
(-0.005100504697454451 0 0)
(-0.005162583157202361 0 0)
(-0.005210909369928785 0 0)
(-0.00524905561719321 0 0)
(-0.005264705381629749 0 0)
(-0.005262716706610135 0 0)
(-0.00524799009437891 0 0)
(-0.005223452679970711 0 0)
(-0.00519378857040435 0 0)
(-0.005160823820409061 0 0)
(-0.005122039815119378 0 0)
(-0.005082776133464871 0 0)
(-0.005047517852019312 0 0)
(-0.005013154704655329 0 0)
(-0.004977876593378079 0 0)
(-0.004947098031563766 0 0)
(-0.004925514944544624 0 0)
(-0.004898022063400054 0 0)
(-0.004872927805482284 0 0)
(-0.004847268284370521 0 0)
(-0.004825760570408574 0 0)
(-0.00480685776229174 0 0)
(-0.004793264693837477 0 0)
(-0.004791594289525611 0 0)
(-0.004801869280486871 0 0)
(-0.004822834044398054 0 0)
(-0.004865669101936131 0 0)
(-0.004919494576895256 0 0)
(-0.004987988715670274 0 0)
(-0.005075239364951353 0 0)
(-0.005174285166220319 0 0)
(-0.005282152125767828 0 0)
(-0.005395235148889987 0 0)
(-0.005511183971860111 0 0)
(-0.005624548777042655 0 0)
(-0.005746494752470149 0 0)
(-0.005868434846083446 0 0)
(-0.005990215167890505 0 0)
(-0.00610984821755883 0 0)
(-0.006240849902709776 0 0)
(-0.006361302245548983 0 0)
(-0.006480527254950482 0 0)
(-0.006595484776055417 0 0)
(-0.006707486513037537 0 0)
(-0.006813544660818796 0 0)
(-0.006910982729257682 0 0)
(-0.007001924223183768 0 0)
(-0.007085953177890056 0 0)
(-0.007153186001608967 0 0)
(-0.007210741763770416 0 0)
(-0.007251758057918582 0 0)
(-0.007268893238070188 0 0)
(-0.007271697561658488 0 0)
(-0.007263065341924501 0 0)
(-0.007247236375335546 0 0)
(-0.007225659395226056 0 0)
(-0.007201140376132379 0 0)
(-0.007167317735352755 0 0)
(-0.00713951879134675 0 0)
(-0.007112085021445926 0 0)
(-0.007087724599867203 0 0)
(-0.007059065542725825 0 0)
(-0.007045841156318975 0 0)
(-0.007027221378312411 0 0)
(-0.007008208099592838 0 0)
(-0.006990080138715854 0 0)
(-0.006974603446600695 0 0)
(-0.006962790683504741 0 0)
(-0.00695383751126021 0 0)
(-0.006953085754181531 0 0)
(-0.006967112169629434 0 0)
(-0.00699100423412982 0 0)
(-0.007032154716204001 0 0)
(-0.007092629090878122 0 0)
(-0.007161137192993712 0 0)
(-0.007249189445714231 0 0)
(-0.007353431478551229 0 0)
(-0.007468015654185622 0 0)
(-0.007590265915183345 0 0)
(-0.007718562499027966 0 0)
(-0.007845093834779755 0 0)
(-0.007978889547095441 0 0)
(-0.008116530797540844 0 0)
(-0.008260136970049677 0 0)
(-0.008398167784162166 0 0)
(-0.008550918746721845 0 0)
(-0.008697845383451631 0 0)
(-0.008842745054707248 0 0)
(-0.008985513760351537 0 0)
(-0.009126004887535545 0 0)
(-0.009263070666874854 0 0)
(-0.009392198383403516 0 0)
(-0.009513819995107262 0 0)
(-0.009628913540475438 0 0)
(-0.009732461114835391 0 0)
(-0.009820727206934872 0 0)
(-0.009898403237624946 0 0)
(-0.009949334741542533 0 0)
(-0.009982263266522986 0 0)
(-0.01000193004314365 0 0)
(-0.01001126683099591 0 0)
(-0.01001243999140629 0 0)
(-0.01000659916353175 0 0)
(-0.009993382074433311 0 0)
(-0.009977154494959685 0 0)
(-0.009963130316262435 0 0)
(-0.009949648601142327 0 0)
(-0.009933956783861707 0 0)
(-0.009925022413825538 0 0)
(-0.009921960211549532 0 0)
(-0.009913295064949262 0 0)
(-0.009904714815084642 0 0)
(-0.00989786476389975 0 0)
(-0.009894626991551178 0 0)
(-0.009894392371702832 0 0)
(-0.009899448150641641 0 0)
(-0.009916058809630597 0 0)
(-0.009946960541287107 0 0)
(-0.009990355745070133 0 0)
(-0.01005758896749471 0 0)
(-0.01013446455479891 0 0)
(-0.01022857673182032 0 0)
(-0.01034204809373176 0 0)
(-0.01046883470896621 0 0)
(-0.01060645282559302 0 0)
(-0.0107513348510379 0 0)
(-0.0109021169080768 0 0)
(-0.01105316503848329 0 0)
(-0.01121519669763508 0 0)
(-0.01138003955444048 0 0)
(-0.01154743072558336 0 0)
(-0.01171936280269673 0 0)
(-0.01190053516951146 0 0)
(-0.01207593973993698 0 0)
(-0.0122486440033718 0 0)
(-0.01241932083675776 0 0)
(-0.01258764007298215 0 0)
(-0.01275031785204331 0 0)
(-0.0129034981128056 0 0)
(-0.01305014542891462 0 0)
(-0.01318779879954766 0 0)
(-0.01331084553375444 0 0)
(-0.01342217657895513 0 0)
(-0.01351551062172648 0 0)
(-0.01358217631741613 0 0)
(-0.01363260197528682 0 0)
(-0.01367212039390309 0 0)
(-0.01370049900632203 0 0)
(-0.01371883835569978 0 0)
(-0.01373013956180158 0 0)
(-0.01372981473911051 0 0)
(-0.01373285254459014 0 0)
(-0.01373266731858907 0 0)
(-0.01373249629846088 0 0)
(-0.01372718183537509 0 0)
(-0.01373713195647223 0 0)
(-0.01374089551721232 0 0)
(-0.01374176123047882 0 0)
(-0.01374231767881839 0 0)
(-0.01374651527658475 0 0)
(-0.01375430298722067 0 0)
(-0.0137652653839109 0 0)
(-0.01378647974616743 0 0)
(-0.01382023214105928 0 0)
(-0.01386908161834232 0 0)
(-0.01393671307241856 0 0)
(-0.01402667841857881 0 0)
(-0.01412575249361099 0 0)
(-0.01424543106110887 0 0)
(-0.01438351190985119 0 0)
(-0.01453422497641351 0 0)
(-0.01469550016930522 0 0)
(-0.01486545512732867 0 0)
(-0.01503622708358048 0 0)
(-0.01521651439630162 0 0)
(-0.01540220126648068 0 0)
(-0.01559393305624646 0 0)
(-0.01578220535163536 0 0)
(-0.01598709521476002 0 0)
(-0.01618589971761837 0 0)
(-0.01638624725458148 0 0)
(-0.01658040292017104 0 0)
(-0.01677401402863012 0 0)
(-0.01696256519703065 0 0)
(-0.0171424990393008 0 0)
(-0.0173138330163812 0 0)
(-0.01747645062230677 0 0)
(-0.01762765494370688 0 0)
(-0.01776303895457033 0 0)
(-0.01788994222272101 0 0)
(-0.01798494954339199 0 0)
(-0.01806179481954315 0 0)
(-0.01812737767900231 0 0)
(-0.01817925787597766 0 0)
(-0.01822061573946172 0 0)
(-0.01825235893100779 0 0)
(-0.01827258757802648 0 0)
(-0.01828815780345066 0 0)
(-0.01830343562530064 0 0)
(-0.01831742859938468 0 0)
(-0.01832425001494443 0 0)
(-0.01833766182626396 0 0)
(-0.01835392113221168 0 0)
(-0.01836654400286475 0 0)
(-0.0183738769028221 0 0)
(-0.0183850770233555 0 0)
(-0.01839927799040949 0 0)
(-0.0184172890853403 0 0)
(-0.01844121992995694 0 0)
(-0.01847913673698804 0 0)
(-0.01853055936869157 0 0)
(-0.01859960043391758 0 0)
(-0.01869479040924357 0 0)
(-0.01880006041240425 0 0)
(-0.01892537700530756 0 0)
(-0.01907229503397699 0 0)
(-0.01923302931289893 0 0)
(-0.01940781594020162 0 0)
(-0.01959256654613791 0 0)
(-0.01978213893684672 0 0)
(-0.01997676286212496 0 0)
(-0.02018058540478924 0 0)
(-0.02038917798959805 0 0)
(-0.02059785650492106 0 0)
(-0.02081212006216696 0 0)
(-0.02103289033158679 0 0)
(-0.02125190662911178 0 0)
(-0.02146582675189913 0 0)
(-0.02167808827980088 0 0)
(-0.02188715822131381 0 0)
(-0.02208887527500797 0 0)
(-0.02228010182408617 0 0)
(-0.02246422114875944 0 0)
(-0.02263472602639433 0 0)
(-0.02279237446140551 0 0)
(-0.02293950255300396 0 0)
(-0.0230634463142927 0 0)
(-0.02316195981840584 0 0)
(-0.0232470978104545 0 0)
(-0.0233185055973502 0 0)
(-0.02337859895197524 0 0)
(-0.02342765639041424 0 0)
(-0.02346613137732971 0 0)
(-0.02349556247871058 0 0)
(-0.02352313522505613 0 0)
(-0.02354887238880048 0 0)
(-0.02357184828310674 0 0)
(-0.02358710786593651 0 0)
(-0.0236203874133001 0 0)
(-0.02363771747060251 0 0)
(-0.02365700397445836 0 0)
(-0.02367388829259855 0 0)
(-0.02369547589191933 0 0)
(-0.02372021485453493 0 0)
(-0.02375035211943779 0 0)
(-0.02379150008996123 0 0)
(-0.02384714051530237 0 0)
(-0.02391894985245799 0 0)
(-0.02401662039404768 0 0)
(-0.02413388143693435 0 0)
(-0.02426351820640682 0 0)
(-0.02441814800857929 0 0)
(-0.02459050068347891 0 0)
(-0.02477796146663417 0 0)
(-0.02497775455311041 0 0)
(-0.02518665355184438 0 0)
(-0.02539795159067275 0 0)
(-0.0256175236656938 0 0)
(-0.02584397229526928 0 0)
(-0.02607378549342318 0 0)
(-0.02630235349175057 0 0)
(-0.02654200672553243 0 0)
(-0.02677700419513635 0 0)
(-0.02701189347074776 0 0)
(-0.02724222545895102 0 0)
(-0.02747139403524569 0 0)
(-0.02769421105004983 0 0)
(-0.0279081028666999 0 0)
(-0.02811084895286312 0 0)
(-0.02830483722826558 0 0)
(-0.02848153077127184 0 0)
(-0.02864967101587626 0 0)
(-0.02880308079010035 0 0)
(-0.02892291953922825 0 0)
(-0.02902868586240496 0 0)
(-0.02912130529512675 0 0)
(-0.02919913988078588 0 0)
(-0.02926529248282249 0 0)
(-0.02932249411677254 0 0)
(-0.02936428875983252 0 0)
(-0.02940547981851982 0 0)
(-0.02944247900895519 0 0)
(-0.0294800103083567 0 0)
(-0.02950897558724661 0 0)
(-0.02954765619884356 0 0)
(-0.0295832203806684 0 0)
(-0.02961374206588734 0 0)
(-0.02964380529447123 0 0)
(-0.02967717387728312 0 0)
(-0.02971452039288585 0 0)
(-0.02975607328550197 0 0)
(-0.02980539264420191 0 0)
(-0.02986809074599642 0 0)
(-0.02994353376993879 0 0)
(-0.03003961733139609 0 0)
(-0.03016197695914411 0 0)
(-0.03029094198757903 0 0)
(-0.03043834709361563 0 0)
(-0.03060531250707954 0 0)
(-0.03078373229410244 0 0)
(-0.03097212437341642 0 0)
(-0.03116867952227118 0 0)
(-0.03136367727543085 0 0)
(-0.03156402880153409 0 0)
(-0.03176623488167181 0 0)
(-0.03197401099947222 0 0)
(-0.0321730081376333 0 0)
(-0.03237573870513341 0 0)
(-0.03258112353582224 0 0)
(-0.03277451738741585 0 0)
(-0.0329688694384031 0 0)
(-0.03315753993843516 0 0)
(-0.03334246045051632 0 0)
(-0.03351788362901139 0 0)
(-0.03368501201117653 0 0)
(-0.03384140848060031 0 0)
(-0.0339864715618577 0 0)
(-0.03411330571233803 0 0)
(-0.03424312966140102 0 0)
(-0.0343425528624074 0 0)
(-0.0344178477404574 0 0)
(-0.03448698448499848 0 0)
(-0.03454245053978576 0 0)
(-0.0345864813891102 0 0)
(-0.03462169847105466 0 0)
(-0.03464662351427927 0 0)
(-0.03466201001561994 0 0)
(-0.03467842796923713 0 0)
(-0.0346924886532848 0 0)
(-0.03470476386986351 0 0)
(-0.03471268700410748 0 0)
(-0.03473625151939314 0 0)
(-0.03474457493356226 0 0)
(-0.03476161665055023 0 0)
(-0.03477988200483189 0 0)
(-0.03480355165478399 0 0)
(-0.0348297259372275 0 0)
(-0.03486242680128726 0 0)
(-0.03490401016786931 0 0)
(-0.03495805956161727 0 0)
(-0.03502215080794753 0 0)
(-0.0351216027064982 0 0)
(-0.03523102288774933 0 0)
(-0.03534929245715187 0 0)
(-0.0354997115770455 0 0)
(-0.03566312456057267 0 0)
(-0.03583861447298357 0 0)
(-0.0360249840975985 0 0)
(-0.03622054197652156 0 0)
(-0.03641353207003507 0 0)
(-0.03661892929724032 0 0)
(-0.03682432140691185 0 0)
(-0.03703649167670633 0 0)
(-0.03723985560661449 0 0)
(-0.03746279120199518 0 0)
(-0.03765844206640217 0 0)
(-0.0378606558632681 0 0)
(-0.03806270941437243 0 0)
(-0.03825964939253551 0 0)
(-0.03844962992185987 0 0)
(-0.03863015932004136 0 0)
(-0.03880221307281463 0 0)
(-0.03896191644441902 0 0)
(-0.03910390927669611 0 0)
(-0.03923743468039841 0 0)
(-0.0393601179037547 0 0)
(-0.03945257548485175 0 0)
(-0.03953171352465921 0 0)
(-0.03960010253807052 0 0)
(-0.0396556741672691 0 0)
(-0.03969955813700578 0 0)
(-0.03973790377190303 0 0)
(-0.03976033561915754 0 0)
(-0.03978600981609327 0 0)
(-0.03980279698223172 0 0)
(-0.039825320706615 0 0)
(-0.03983803374975537 0 0)
(-0.03986994634396886 0 0)
(-0.03987732864801108 0 0)
(-0.03988779818523029 0 0)
(-0.03991228564575964 0 0)
(-0.03994029093788877 0 0)
(-0.03997260132638607 0 0)
(-0.04000579607317876 0 0)
(-0.04004916620944855 0 0)
(-0.04011254911585108 0 0)
(-0.04021942673570118 0 0)
(-0.04027709879520924 0 0)
(-0.04043151128270813 0 0)
)
;

boundaryField
{
    inlet
    {
        type            calculated;
        value           uniform (-2.867615265458935e-05 0 0);
    }
    outlet
    {
        type            calculated;
        value           uniform (-0.04043151128270813 0 0);
    }
    frontAndBack
    {
        type            empty;
    }
}


// ************************************************************************* //
