/*--------------------------------*- C++ -*----------------------------------*\
| =========                 |                                                 |
| \\      /  F ield         | OpenFOAM: The Open Source CFD Toolbox           |
|  \\    /   O peration     | Version:  v2012                                 |
|   \\  /    A nd           | Website:  www.openfoam.com                      |
|    \\/     M anipulation  |                                                 |
\*---------------------------------------------------------------------------*/
FoamFile
{
    version     2.0;
    format      ascii;
    class       volScalarField;
    location    "0.002";
    object      p;
}
// * * * * * * * * * * * * * * * * * * * * * * * * * * * * * * * * * * * * * //

dimensions      [1 -1 -2 0 0 0 0];


internalField   nonuniform List<scalar> 
1000
(
101303.8356578629
101309.5564045524
101304.6628714442
101294.5916074062
101291.9888030961
101286.481190732
101281.9157731763
101281.6243821021
101276.552655412
101276.2202029373
101276.4949453323
101276.4655202169
101277.7130627456
101279.524313612
101280.891656256
101286.1389872267
101289.5290103532
101294.7405248249
101301.3635325347
101306.3106555625
101313.0771911107
101319.5883935515
101326.1967423056
101333.0101398515
101339.3493332649
101345.9111256116
101351.708457479
101357.1341428775
101362.2355455719
101366.2938455833
101371.7702099707
101372.7665859198
101372.9494825441
101372.9673700218
101372.0356926879
101371.7604725449
101370.5365494824
101367.4366560532
101366.2440269756
101361.2676937584
101356.3704565851
101352.5492069893
101344.3571675266
101338.7859497472
101332.3586227465
101324.4902994612
101318.7265374492
101311.9116822021
101305.3663358262
101299.6078288439
101293.6635571932
101288.4835649246
101283.229476137
101278.0137218871
101277.5876562535
101277.7111736932
101277.7445459898
101278.1222022755
101279.4785691865
101279.7153231057
101282.2003614982
101285.2805622975
101286.8642313112
101292.6958907101
101297.3138287145
101302.1653478756
101309.9785252424
101315.8221229816
101323.0118105148
101330.245937115
101336.6010900989
101343.3828001091
101349.4203697906
101355.2325309911
101360.6184130474
101366.6176508108
101371.6519062062
101371.8159853819
101371.8280716903
101371.8027917969
101371.0523263633
101370.9561597654
101369.2815077373
101367.5690864716
101366.3192604808
101361.7987934789
101359.0715830618
101354.601481543
101348.1154778497
101343.2751699711
101335.8792439948
101328.9110681484
101322.1233479306
101314.5333499895
101307.9350838696
101301.2879948888
101295.0704859024
101289.7542891888
101282.7829443796
101278.7700423176
101278.6192054259
101278.4450273112
101278.8394683244
101279.2600750965
101279.3517349599
101281.3219737449
101282.4208310695
101284.0290381726
101288.2307150793
101290.3224518774
101294.9471147229
101300.8385804822
101305.2463444532
101312.5222555133
101319.1733542289
101325.8626933731
101333.5778129859
101340.3095769076
101347.2503381058
101353.7912119971
101359.3844643474
101366.57286799
101370.7948055629
101371.0613414808
101371.0408519506
101370.6989610097
101370.7132137779
101369.7552157532
101368.6712425092
101368.087191577
101365.0220500996
101363.1531703029
101360.2911610584
101355.0984974966
101351.7061349849
101345.6231674174
101339.2767651202
101333.4415639173
101325.5214730804
101318.7093010818
101311.3552089911
101303.9064597225
101297.1989936494
101290.7660809434
101282.6149696464
101279.3112512539
101279.328812577
101279.2781283426
101279.4326532563
101280.0896276869
101280.0956198382
101281.4165517721
101282.9425288863
101284.0780278015
101287.552500278
101289.80117464
101293.4990323202
101298.9306953812
101302.8594926779
101309.4132643884
101315.8817943849
101322.0550580589
101329.9113131787
101336.7718535761
101343.9534693695
101351.4419105265
101357.5156113789
101366.2652083277
101370.2649719858
101370.3774690281
101370.4170953003
101370.074644651
101370.0216679202
101369.4113291841
101368.248785162
101367.6209276625
101365.3953716983
101363.2449165944
101360.9158521279
101356.6277097917
101353.0355331859
101347.9815778507
101342.1126808765
101336.3842352125
101329.2525556014
101322.2827758765
101314.8504732669
101307.2283089164
101299.7444108999
101292.7060234325
101283.2482376074
101279.9443501248
101280.0112251825
101279.8895051268
101280.047310547
101280.7386820383
101280.7665331757
101281.7157896073
101283.4291311902
101284.1324938975
101286.8912073668
101289.6626253245
101292.2667766375
101297.2289050138
101301.2625451237
101306.6667477936
101313.0143764332
101318.9672379115
101326.253151106
101333.3939249634
101340.6981102705
101348.3976396852
101355.1812802326
101364.4913448428
101369.6076497916
101369.7238405479
101369.8395308177
101369.5578270264
101369.3359767795
101369.0699352005
101367.8350114189
101367.2558197203
101365.620804453
101363.1441102972
101361.6337927938
101357.6752249643
101353.9616097948
101350.3378951909
101344.0410221685
101338.9582822002
101332.6937553786
101325.1486531059
101318.4252287143
101310.5649706711
101302.5869033661
101295.4989174041
101285.4221411644
101280.5543425533
101280.4988540469
101280.5488645622
101280.5587909795
101281.1251515827
101281.3639295441
101281.9014017362
101283.5793836513
101284.358946906
101286.4826643357
101289.3377557158
101291.631284435
101295.8287522707
101300.0478240812
101304.5919652196
101310.5278885399
101316.4809804997
101322.9776479758
101330.2015302434
101337.5420957281
101345.0053077167
101352.5347568887
101361.0001592856
101368.9769726745
101369.4139334772
101369.3655047947
101369.4198857383
101368.9996545586
101368.9356422625
101367.9459766575
101367.0385507873
101366.2817336883
101363.6906334043
101362.2770425275
101359.5872952425
101355.7622239153
101352.9772838068
101348.0456790287
101343.4810841786
101338.7937251331
101333.1202667336
101326.303839013
101325.0026783842
101325.0000000026
101324.9999999982
101324.999999998
101324.9999999982
101324.9999999985
101324.9999999988
101324.9999999989
101324.9999999995
101324.9999999997
101324.9999999997
101324.9999999998
101324.9999999997
101324.9999999999
101324.9999999998
101324.9999999999
101324.9999999998
101324.9999999999
101324.9999999999
101325
101324.9999999999
101324.9999999999
101324.9999999999
101325.0000000001
101324.9999999999
101324.9999999999
101325
101324.9999999999
101325
101325.0000000001
101325
101325.0000000001
101324.9999999999
101325
101325
101324.9999999999
101325
101324.9999999999
101325.0000000001
101324.9999999998
101325.0000000001
101324.9999999999
101325.0000000002
101324.9999999999
101325
101325
101325.0000000001
101325
101325
101324.9999999999
101325.0000000001
101324.9999999999
101325
101325
101325
101325.0000000001
101325
101325
101325.0000000003
101325.0000000001
101325
101325.0000000002
101325.0000000001
101325.0000000001
101325.0000000001
101325
101325.0000000002
101325.0000000001
101324.9999999999
101325.0000000001
101325
101325.0000000001
101325.0000000001
101325.0000000002
101325
101325.0000000001
101325.0000000001
101325
101325
101325
101325.0000000001
101325
101325.0000000001
101325.0000000001
101325.0000000001
101325
101325.0000000001
101325
101325.0000000002
101324.9999999998
101325.0000000001
101325.0000000001
101325
101325
101325
101325.0000000002
101324.9999999999
101325.0000000001
101325.0000000001
101325.0000000001
101324.9999999999
101325.0000000001
101324.9999999998
101325.0000000002
101325
101325.0000000001
101325
101325.0000000001
101324.9999999999
101325.0000000002
101324.9999999997
101325.0000000001
101325
101325.0000000001
101325
101324.9999999999
101325
101325.0000000001
101325.0000000002
101324.9999999999
101325.0000000001
101325
101325
101325
101325.0000000002
101325
101324.9999999999
101325.0000000002
101325
101325
101325.0000000001
101325
101325.0000000001
101325
101325
101325.0000000001
101325.0000000001
101325
101325
101325.0000000001
101325.0000000001
101325
101325.0000000001
101324.9999999999
101325.0000000002
101325
101325.0000000001
101325
101325.0000000001
101325
101325
101325
101325
101325
101325.0000000001
101325.0000000001
101325
101325.0000000002
101325.0000000001
101325
101325
101325.0000000002
101325
101325.0000000001
101325
101325.0000000001
101325.0000000001
101325.0000000001
101324.9999999999
101325.0000000002
101324.9999999999
101325.0000000001
101324.9999999999
101325.0000000001
101325.0000000002
101325
101325
101325
101325.0000000001
101325
101324.9999999998
101325
101325.0000000001
101325.0000000001
101324.9999999999
101325.0000000001
101324.9999999998
101325.0000000001
101325.0000000001
101325
101325.0000000001
101324.9999999999
101325.0000000001
101325
101325.0000000001
101325
101325
101325.0000000002
101324.9999999998
101325.0000000002
101325
101325
101325
101324.9999999999
101325.0000000001
101325
101325
101325
101325.0000000001
101325
101324.9999999999
101325.0000000002
101324.9999999999
101325
101325
101325
101324.9999999999
101325
101324.9999999999
101325
101325
101324.9999999999
101325.0000000001
101325
101325
101325
101324.9999999999
101324.9999999999
101325.0000000001
101324.9999999999
101325
101325
101325
101324.9999999999
101325.0000000001
101324.9999999999
101325
101325
101325.0000000002
101324.9999999998
101325.0000000001
101325
101324.9999999999
101325
101325
101325
101324.9999999999
101325.0000000001
101324.9999999999
101325.0000000001
101325
101325
101325
101325.0000000001
101324.9999999998
101325.0000000002
101324.9999999999
101325.0000000001
101325
101325
101325.0000000001
101324.9999999999
101325.0000000001
101325
101325.0000000001
101325
101324.9999999999
101324.9999999999
101325.0000000001
101324.9999999999
101325
101325
101325
101324.9999999999
101325
101325
101325.0000000001
101325
101324.9999999999
101324.9999999999
101325
101325
101324.9999999999
101325.0000000001
101325
101324.9999999999
101325
101325
101325
101324.9999999999
101325.0000000001
101324.9999999999
101325
101325
101325
101325
101325
101325
101324.9999999999
101325.0000000001
101324.9999999999
101325
101325
101325
101325
101324.9999999999
101325
101325
101325.0000000001
101325
101325
101325.0000000001
101325
101325.0000000001
101325
101325.0000000001
101325
101325
101325.0000000002
101325
101325
101325.0000000001
101325
101325.0000000001
101325
101325
101325.0000000001
101325
101325.0000000001
101325.0000000001
101325.0000000001
101325
101325.0000000001
101325.0000000001
101324.9999999999
101325
101325.0000000002
101325
101325.0000000001
101325
101325
101325.0000000001
101325.0000000001
101325.0000000001
101325
101325.0000000001
101325.0000000001
101325.0000000001
101325
101325.0000000001
101325.0000000001
101325
101325
101325.0000000002
101325
101325.0000000001
101325.0000000001
101325.0000000001
101325.0000000001
101325.0000000001
101325.0000000001
101325.0000000001
101325
101325.0000000002
101325.0000000001
101324.9999999999
101325.0000000002
101325.0000000001
101325
101325.0000000002
101325
101325.0000000002
101324.9999999999
101325.0000000002
101325.0000000001
101325.0000000001
101325
101325.0000000001
101325.0000000001
101325
101325.0000000002
101325.0000000001
101325
101325.0000000001
101325.0000000001
101325.0000000001
101325.0000000001
101325
101325.0000000002
101325
101325.0000000001
101325.0000000001
101325
101325.0000000001
101324.9999999999
101325.0000000001
101325.0000000001
101324.9999999999
101325.0000000001
101325
101324.9999999999
101325.0000000001
101324.9999999998
101325.0000000003
101324.9999999998
101325.0000000002
101325
101325
101325
101324.9999999999
101325.0000000001
101325
101325
101325
101325
101325
101324.9999999999
101324.9999999999
101325.0000000001
101324.9999999999
101325.0000000001
101324.9999999998
101325
101325
101325
101324.9999999998
101325.0000000001
101325
101325
101325
101325
101325
101324.9999999999
101325.0000000001
101324.9999999999
101325.0000000001
101325.0000000001
101325
101325
101325
101325
101325
101325.0000000001
101324.9999999999
101325.0000000001
101325.0000000001
101324.9999999998
101325.0000000001
101324.9999999999
101325.0000000002
101324.9999999999
101325.0000000001
101325
101325.0000000002
101325
101325
101325.0000000001
101325.0000000001
101325
101325
101325.0000000001
101325.0000000001
101325
101325.0000000001
101325
101325.0000000002
101325
101325.0000000003
101324.9999999999
101325.0000000002
101325.0000000001
101325
101325.0000000003
101325.0000000001
101325.0000000002
101325.0000000001
101325.0000000002
101325.0000000002
101325.0000000003
101325.0000000002
101325.0000000003
101325.0000000004
101325.0000000003
101325.0000000003
101325.0000000005
101325.0000000003
101325.0000000004
101325.0000000004
101325.0000000004
101325.0000000004
101325.0000000005
101325.0000000004
101325.0000000004
101325.0000000005
101325.0000000005
101325.0000000004
101325.0000000005
101325.0000000005
101325.0000000003
101325.0000000006
101325.0000000004
101325.0000000006
101325.0000000004
101325.0000000005
101325.0000000004
101325.0000000005
101325.0000000005
101325.0000000004
101325.0000000006
101325.0000000005
101325.0000000005
101325.0000000005
101325.0000000005
101325.0000000006
101325.0000000005
101325.0000000004
101325.0000000005
101325.0000000003
101325.0000000007
101325.0000000003
101325.0000000005
101325.0000000004
101325.0000000005
101325.0000000004
101325.0000000003
101325.0000000005
101325.0000000004
101325.0000000005
101325.0000000003
101325.0000000005
101325.0000000005
101325.0000000003
101325.0000000004
101325.0000000006
101325.0000000004
101325.0000000003
101325.0000000005
101325.0000000004
101325.0000000003
101325.0000000004
101325.0000000004
101325.0000000004
101325.0000000005
101325.0000000003
101325.0000000005
101325.0000000005
101325.0000000003
101325.0000000003
101325.0000000005
101325.0000000004
101325.0000000004
101325.0000000003
101325.0000000003
101325.0000000004
101325.0000000003
101325.0000000003
101325.0000000004
101325.0000000003
101325.0000000003
101325.0000000003
101325.0000000004
101325.0000000002
101325.0000000003
101325.0000000001
101325.0000000003
101325.0000000003
101325.0000000002
101325.0000000002
101325.0000000002
101325.0000000003
101325
101325.0000000002
101325.0000000001
101325.0000000002
101325.0000000002
101325.0000000002
101325.0000000002
101325.0000000001
101325.0000000002
101325.0000000002
101325.0000000002
101325.0000000002
101325.0000000002
101325.0000000001
101325.0000000001
101325.0000000002
101325.0000000001
101325.0000000001
101325.0000000002
101325.0000000001
101325.0000000001
101325.0000000001
101325.0000000002
101325.0000000001
101325
101325.0000000002
101324.9999999999
101325.0000000002
101325.0000000001
101325.0000000001
101325.0000000001
101325.0000000001
101325.0000000001
101325.0000000001
101325.0000000001
101325.0000000002
101324.9999999998
101325.0000000002
101325
101325.0000000001
101324.9999999999
101325.0000000001
101325.0000000001
101325
101324.9999999999
101325.0000000001
101324.9999999998
101325
101325.0000000001
101324.9999999999
101324.9999999999
101325
101324.9999999998
101324.9999999999
101325
101324.9999999998
101324.9999999999
101324.9999999998
101325
101324.9999999998
101324.9999999998
101324.9999999999
101324.9999999999
101324.9999999999
101324.9999999999
101324.9999999999
101325.0000000001
101324.9999999997
101324.9999999999
101324.9999999998
101325
101324.9999999998
101324.9999999997
101325
101325
101324.9999999997
101324.9999999998
101324.9999999999
101324.9999999999
101324.9999999998
101324.9999999998
101325
101325
101324.9999999998
101324.9999999998
101324.9999999999
101325
101324.9999999997
101324.9999999999
101325
101324.9999999999
101324.9999999999
101324.9999999998
101324.9999999999
101324.9999999999
101324.9999999998
101324.9999999999
101324.9999999998
101324.9999999999
101324.9999999999
101325
101324.9999999996
101324.9999999999
101324.9999999999
101324.9999999998
101324.9999999998
101324.9999999998
101324.9999999998
101324.9999999997
101324.9999999999
101324.9999999997
101324.9999999998
101324.9999999997
101324.9999999998
101324.9999999997
101324.9999999998
101324.9999999996
101324.9999999996
101324.9999999998
101324.9999999997
101324.9999999997
101324.9999999997
101324.9999999997
101324.9999999997
101324.9999999997
101324.9999999997
101324.9999999997
101324.9999999997
101324.9999999997
101324.9999999998
101324.9999999998
101324.9999999998
101324.9999999997
101324.9999999998
101324.9999999997
101324.9999999998
101324.9999999997
101324.9999999997
101324.9999999998
101324.9999999997
101324.9999999999
101324.9999999998
101324.9999999998
101324.9999999997
101324.9999999999
101324.9999999997
101324.9999999998
101324.9999999998
101324.9999999998
101324.9999999998
101324.9999999998
)
;

boundaryField
{
    inlet
    {
        type            uniformFixedValue;
        uniformValue    sine;
        uniformValueCoeffs
        {
            frequency       constant 3000;
            scale           constant 50;
            level           constant 101325;
        }
        value           uniform 101312.8819131453;
    }
    outlet
    {
        type            waveTransmissive;
        gamma           1.4;
        fieldInf        101325;
        lInf            2.25;
        value           uniform 101324.9999999998;
    }
    frontAndBack
    {
        type            empty;
    }
}


// ************************************************************************* //
