/*--------------------------------*- C++ -*----------------------------------*\
| =========                 |                                                 |
| \\      /  F ield         | OpenFOAM: The Open Source CFD Toolbox           |
|  \\    /   O peration     | Version:  v2012                                 |
|   \\  /    A nd           | Website:  www.openfoam.com                      |
|    \\/     M anipulation  |                                                 |
\*---------------------------------------------------------------------------*/
FoamFile
{
    version     2.0;
    format      ascii;
    class       volScalarField;
    location    "0.002";
    object      rho;
}
// * * * * * * * * * * * * * * * * * * * * * * * * * * * * * * * * * * * * * //

dimensions      [1 -3 0 0 0 0 0];


internalField   nonuniform List<scalar> 
1000
(
1.176232933468268
1.176285204209818
1.176247508094473
1.176163729656122
1.176140337525112
1.176092772290032
1.176054114943103
1.176051289870927
1.176009659577631
1.176007066301046
1.176009510354494
1.176009252659788
1.176019480767887
1.176034480095162
1.176045870821972
1.176089462930358
1.176117611956057
1.176160833920713
1.176215743672235
1.176256756619031
1.176312857490599
1.176366843608434
1.176421636672946
1.17647813023498
1.176530692029511
1.176585099454129
1.176633168511845
1.176678155346078
1.176720452165869
1.176754099913175
1.176799502435992
1.176807762775309
1.176809278700888
1.17680942606483
1.17680170186441
1.176799420465695
1.176789273694367
1.176763573025318
1.176753685346148
1.176712426555477
1.176671822875991
1.176640140808654
1.176572217294336
1.176526023706021
1.176472731040233
1.176407488053636
1.17635969539201
1.176303185883789
1.176248910010489
1.176201158219619
1.176151864993549
1.176108908908627
1.176065337955628
1.176022083869657
1.176018550514753
1.17601957483792
1.176019851561961
1.176022983454552
1.176034231748812
1.17603619516544
1.176056803380413
1.176082346921176
1.176095480314532
1.176143840349284
1.176182134927259
1.176222366551006
1.176287155526043
1.176335611818276
1.176395228834337
1.176455212893947
1.176507907925382
1.17656413856362
1.176614198316277
1.176662388330378
1.176707043223083
1.176756782877814
1.176798520901613
1.176799881259435
1.176799981459679
1.176799771881021
1.176793549931541
1.176792752635396
1.176778868403475
1.17676467095844
1.176754308964059
1.176716829755072
1.176694218436953
1.176657156512576
1.176603379033852
1.176563246530508
1.176501922839394
1.17644414468874
1.176387862018292
1.176324925298911
1.176270211183825
1.176215091075386
1.176163532244052
1.176119447013769
1.176061635036347
1.176028356255629
1.176027105367485
1.17602566091201
1.176028931991191
1.176032420066608
1.176033180208492
1.176049519224262
1.176058631960267
1.176071968728302
1.176106812166546
1.176124158545377
1.176162509358081
1.176211364148608
1.176247915503297
1.176308249107231
1.176363400608145
1.17641886844713
1.176482840247165
1.17653865742236
1.17659620627922
1.176650438422109
1.176696812977095
1.176756411854289
1.176791415191747
1.176793624989128
1.176793455113318
1.176790620558379
1.176790738718212
1.176782796133219
1.176773809080239
1.176768966864919
1.176743553995229
1.176728059208517
1.176704330430641
1.176661277228
1.176633150700124
1.176582714862987
1.176530093713921
1.176481710877544
1.176416039027822
1.176359552933909
1.17629857208516
1.176236804676115
1.176181183302233
1.176127837969254
1.17606024225184
1.176032844726963
1.176032990361101
1.176032570035229
1.176033851502053
1.176039299746743
1.176039349437123
1.176050303828861
1.176062958569569
1.176072375174303
1.176101188183464
1.176119835920096
1.176150501166535
1.176195543305067
1.17622812296966
1.176282468920065
1.176336106992775
1.176387296164112
1.176452438870574
1.176509324430941
1.17656887099794
1.176630960042425
1.176681318620015
1.176753861345724
1.176787022728301
1.176787955419932
1.176788283958199
1.176785444753317
1.176785005532241
1.17677994532434
1.176770306831252
1.176765101372015
1.176746649479529
1.176728820123462
1.176709509960586
1.176673956493629
1.176644173225181
1.176602269558409
1.176553608046375
1.176506110588497
1.176446976806994
1.176389184390223
1.176327555656264
1.176264350951892
1.176202291490759
1.176143925792973
1.176065494221602
1.176038095355441
1.176038649947209
1.176037640528141
1.176038949197182
1.176044682683928
1.176044913652204
1.176052785764077
1.176066994262009
1.176072827195958
1.176095704665652
1.176118687273758
1.176140282867186
1.176181431628324
1.176214880652553
1.176259694460053
1.176312330369406
1.176361692267463
1.176422106556855
1.176481316245447
1.176541879650643
1.176605719596723
1.176661964773845
1.176739154901064
1.176781573434962
1.176782536751904
1.176783495929372
1.176781160370607
1.176779321048864
1.176777115354995
1.176766876769941
1.176762074763794
1.176748519014422
1.176727984803126
1.176715462871189
1.176682642060066
1.17665185187141
1.176621807098089
1.176569597219002
1.176527453836731
1.17647551096728
1.176412948359304
1.176357198313492
1.17629201997211
1.176225863174756
1.176167086709224
1.176083522709871
1.176043154528393
1.176042694371589
1.17604310909985
1.176043191414324
1.176047888189099
1.176049868348595
1.176054325572389
1.176068240839657
1.176074705675681
1.176092317290641
1.176115993791319
1.176135013460323
1.176169821400322
1.176204808104745
1.176242490175882
1.176291712501021
1.176341076513314
1.176394947062062
1.176454846317455
1.176515711911092
1.176577593240563
1.176640022192472
1.176710210408574
1.176776345166632
1.176779967962311
1.176779566444265
1.176780017310157
1.176776533241628
1.176776002530863
1.17676779735164
1.176760273984644
1.17675399933898
1.17673251661067
1.176720796584074
1.176698495878946
1.1766667816778
1.176643691349671
1.176602801994107
1.176564955116265
1.176526089985004
1.176479048033231
1.176422527423264
1.176411738380919
1.176411716172214
1.176411716172178
1.176411716172176
1.176411716172177
1.17641171617218
1.176411716172182
1.176411716172184
1.176411716172188
1.176411716172189
1.17641171617219
1.176411716172191
1.17641171617219
1.176411716172192
1.17641171617219
1.176411716172191
1.176411716172191
1.176411716172191
1.176411716172191
1.176411716172192
1.176411716172191
1.176411716172192
1.176411716172191
1.176411716172194
1.176411716172192
1.176411716172191
1.176411716172193
1.176411716172191
1.176411716172192
1.176411716172193
1.176411716172192
1.176411716172193
1.176411716172192
1.176411716172193
1.176411716172193
1.176411716172192
1.176411716172192
1.176411716172192
1.176411716172193
1.176411716172191
1.176411716172193
1.176411716172192
1.176411716172194
1.176411716172191
1.176411716172193
1.176411716172192
1.176411716172193
1.176411716172192
1.176411716172193
1.176411716172192
1.176411716172193
1.176411716172191
1.176411716172192
1.176411716172192
1.176411716172192
1.176411716172194
1.176411716172192
1.176411716172192
1.176411716172195
1.176411716172193
1.176411716172192
1.176411716172194
1.176411716172193
1.176411716172193
1.176411716172193
1.176411716172193
1.176411716172194
1.176411716172194
1.176411716172193
1.176411716172193
1.176411716172193
1.176411716172194
1.176411716172193
1.176411716172195
1.176411716172193
1.176411716172194
1.176411716172193
1.176411716172193
1.176411716172193
1.176411716172193
1.176411716172194
1.176411716172192
1.176411716172194
1.176411716172193
1.176411716172193
1.176411716172193
1.176411716172193
1.176411716172193
1.176411716172195
1.176411716172191
1.176411716172194
1.176411716172193
1.176411716172193
1.176411716172193
1.176411716172193
1.176411716172194
1.176411716172192
1.176411716172193
1.176411716172193
1.176411716172193
1.176411716172192
1.176411716172194
1.176411716172191
1.176411716172195
1.176411716172192
1.176411716172193
1.176411716172192
1.176411716172193
1.176411716172192
1.176411716172195
1.17641171617219
1.176411716172194
1.176411716172192
1.176411716172193
1.176411716172193
1.176411716172192
1.176411716172192
1.176411716172193
1.176411716172194
1.176411716172192
1.176411716172193
1.176411716172193
1.176411716172193
1.176411716172193
1.176411716172193
1.176411716172192
1.176411716172192
1.176411716172195
1.176411716172193
1.176411716172193
1.176411716172194
1.176411716172192
1.176411716172193
1.176411716172193
1.176411716172193
1.176411716172193
1.176411716172193
1.176411716172193
1.176411716172193
1.176411716172193
1.176411716172193
1.176411716172193
1.176411716172193
1.176411716172191
1.176411716172194
1.176411716172193
1.176411716172193
1.176411716172193
1.176411716172193
1.176411716172193
1.176411716172193
1.176411716172193
1.176411716172193
1.176411716172193
1.176411716172193
1.176411716172193
1.176411716172193
1.176411716172194
1.176411716172193
1.176411716172192
1.176411716172193
1.176411716172194
1.176411716172192
1.176411716172193
1.176411716172192
1.176411716172194
1.176411716172193
1.176411716172193
1.176411716172192
1.176411716172194
1.176411716172192
1.176411716172193
1.176411716172192
1.176411716172193
1.176411716172194
1.176411716172192
1.176411716172193
1.176411716172193
1.176411716172193
1.176411716172192
1.176411716172192
1.176411716172193
1.176411716172193
1.176411716172193
1.176411716172192
1.176411716172193
1.176411716172191
1.176411716172193
1.176411716172194
1.176411716172193
1.176411716172193
1.176411716172192
1.176411716172193
1.176411716172192
1.176411716172194
1.176411716172193
1.176411716172193
1.176411716172194
1.176411716172191
1.176411716172194
1.176411716172192
1.176411716172192
1.176411716172193
1.176411716172191
1.176411716172194
1.176411716172192
1.176411716172192
1.176411716172192
1.176411716172193
1.176411716172193
1.176411716172191
1.176411716172194
1.176411716172191
1.176411716172193
1.176411716172192
1.176411716172192
1.176411716172191
1.176411716172193
1.176411716172191
1.176411716172193
1.176411716172193
1.176411716172191
1.176411716172193
1.176411716172192
1.176411716172193
1.176411716172192
1.176411716172192
1.176411716172191
1.176411716172193
1.176411716172192
1.176411716172193
1.176411716172192
1.176411716172193
1.176411716172192
1.176411716172193
1.176411716172192
1.176411716172192
1.176411716172192
1.176411716172194
1.176411716172191
1.176411716172193
1.176411716172192
1.176411716172192
1.176411716172193
1.176411716172193
1.176411716172192
1.176411716172193
1.176411716172193
1.176411716172192
1.176411716172193
1.176411716172193
1.176411716172193
1.176411716172193
1.176411716172193
1.176411716172191
1.176411716172194
1.176411716172192
1.176411716172193
1.176411716172193
1.176411716172193
1.176411716172193
1.176411716172192
1.176411716172193
1.176411716172192
1.176411716172193
1.176411716172192
1.176411716172192
1.176411716172192
1.176411716172193
1.176411716172191
1.176411716172193
1.176411716172192
1.176411716172192
1.176411716172192
1.176411716172193
1.176411716172192
1.176411716172193
1.176411716172192
1.176411716172192
1.176411716172192
1.176411716172192
1.176411716172192
1.176411716172191
1.176411716172193
1.176411716172192
1.176411716172192
1.176411716172192
1.176411716172193
1.176411716172193
1.176411716172192
1.176411716172193
1.176411716172192
1.176411716172193
1.176411716172193
1.176411716172192
1.176411716172193
1.176411716172192
1.176411716172192
1.176411716172192
1.176411716172193
1.176411716172192
1.176411716172192
1.176411716172193
1.176411716172193
1.176411716172193
1.176411716172192
1.176411716172192
1.176411716172193
1.176411716172193
1.176411716172193
1.176411716172192
1.176411716172194
1.176411716172192
1.176411716172193
1.176411716172192
1.176411716172193
1.176411716172193
1.176411716172193
1.176411716172194
1.176411716172192
1.176411716172192
1.176411716172193
1.176411716172193
1.176411716172193
1.176411716172193
1.176411716172193
1.176411716172193
1.176411716172193
1.176411716172193
1.176411716172193
1.176411716172194
1.176411716172192
1.176411716172193
1.176411716172194
1.176411716172192
1.176411716172193
1.176411716172194
1.176411716172192
1.176411716172193
1.176411716172193
1.176411716172193
1.176411716172193
1.176411716172193
1.176411716172193
1.176411716172193
1.176411716172193
1.176411716172194
1.176411716172193
1.176411716172193
1.176411716172193
1.176411716172193
1.176411716172192
1.176411716172193
1.176411716172195
1.176411716172192
1.176411716172194
1.176411716172193
1.176411716172193
1.176411716172193
1.176411716172193
1.176411716172194
1.176411716172193
1.176411716172192
1.176411716172194
1.176411716172194
1.176411716172192
1.176411716172194
1.176411716172193
1.176411716172192
1.176411716172194
1.176411716172193
1.176411716172195
1.176411716172191
1.176411716172195
1.176411716172193
1.176411716172193
1.176411716172193
1.176411716172194
1.176411716172193
1.176411716172193
1.176411716172195
1.176411716172193
1.176411716172193
1.176411716172193
1.176411716172193
1.176411716172193
1.176411716172194
1.176411716172192
1.176411716172195
1.176411716172192
1.176411716172193
1.176411716172194
1.176411716172193
1.176411716172193
1.176411716172192
1.176411716172194
1.176411716172193
1.176411716172192
1.176411716172194
1.176411716172193
1.176411716172193
1.176411716172194
1.176411716172191
1.176411716172196
1.176411716172191
1.176411716172194
1.176411716172193
1.176411716172193
1.176411716172193
1.176411716172192
1.176411716172194
1.176411716172193
1.176411716172193
1.176411716172193
1.176411716172193
1.176411716172193
1.176411716172192
1.176411716172192
1.176411716172194
1.176411716172192
1.176411716172194
1.176411716172192
1.176411716172193
1.176411716172193
1.176411716172193
1.176411716172191
1.176411716172193
1.176411716172193
1.176411716172192
1.176411716172193
1.176411716172193
1.176411716172193
1.176411716172192
1.176411716172194
1.176411716172192
1.176411716172193
1.176411716172193
1.176411716172193
1.176411716172193
1.176411716172193
1.176411716172192
1.176411716172193
1.176411716172193
1.176411716172192
1.176411716172193
1.176411716172193
1.176411716172191
1.176411716172193
1.176411716172191
1.176411716172194
1.176411716172192
1.176411716172193
1.176411716172192
1.176411716172194
1.176411716172193
1.176411716172192
1.176411716172193
1.176411716172193
1.176411716172193
1.176411716172193
1.176411716172193
1.176411716172193
1.176411716172192
1.176411716172193
1.176411716172192
1.176411716172194
1.176411716172192
1.176411716172195
1.176411716172192
1.176411716172194
1.176411716172193
1.176411716172192
1.176411716172195
1.176411716172193
1.176411716172194
1.176411716172194
1.176411716172194
1.176411716172194
1.176411716172195
1.176411716172194
1.176411716172195
1.176411716172196
1.176411716172195
1.176411716172195
1.176411716172197
1.176411716172195
1.176411716172196
1.176411716172195
1.176411716172196
1.176411716172196
1.176411716172197
1.176411716172196
1.176411716172196
1.176411716172197
1.176411716172197
1.176411716172195
1.176411716172197
1.176411716172196
1.176411716172195
1.176411716172197
1.176411716172195
1.176411716172197
1.176411716172196
1.176411716172196
1.176411716172196
1.176411716172197
1.176411716172196
1.176411716172196
1.176411716172197
1.176411716172197
1.176411716172197
1.176411716172196
1.176411716172197
1.176411716172197
1.176411716172197
1.176411716172195
1.176411716172197
1.176411716172195
1.176411716172198
1.176411716172195
1.176411716172197
1.176411716172196
1.176411716172197
1.176411716172196
1.176411716172195
1.176411716172197
1.176411716172196
1.176411716172197
1.176411716172195
1.176411716172197
1.176411716172197
1.176411716172195
1.176411716172196
1.176411716172198
1.176411716172196
1.176411716172195
1.176411716172197
1.176411716172196
1.176411716172196
1.176411716172196
1.176411716172195
1.176411716172196
1.176411716172197
1.176411716172195
1.176411716172196
1.176411716172197
1.176411716172195
1.176411716172195
1.176411716172197
1.176411716172195
1.176411716172196
1.176411716172195
1.176411716172195
1.176411716172196
1.176411716172195
1.176411716172195
1.176411716172195
1.176411716172195
1.176411716172195
1.176411716172195
1.176411716172196
1.176411716172194
1.176411716172196
1.176411716172194
1.176411716172195
1.176411716172196
1.176411716172194
1.176411716172195
1.176411716172194
1.176411716172195
1.176411716172193
1.176411716172194
1.176411716172194
1.176411716172195
1.176411716172194
1.176411716172194
1.176411716172194
1.176411716172194
1.176411716172194
1.176411716172195
1.176411716172195
1.176411716172195
1.176411716172195
1.176411716172194
1.176411716172194
1.176411716172195
1.176411716172193
1.176411716172193
1.176411716172194
1.176411716172193
1.176411716172193
1.176411716172193
1.176411716172195
1.176411716172194
1.176411716172193
1.176411716172194
1.176411716172192
1.176411716172194
1.176411716172193
1.176411716172194
1.176411716172194
1.176411716172193
1.176411716172194
1.176411716172193
1.176411716172194
1.176411716172194
1.176411716172191
1.176411716172195
1.176411716172193
1.176411716172193
1.176411716172193
1.176411716172194
1.176411716172193
1.176411716172193
1.176411716172192
1.176411716172194
1.176411716172191
1.176411716172193
1.176411716172193
1.176411716172192
1.176411716172192
1.176411716172193
1.176411716172191
1.176411716172192
1.176411716172193
1.176411716172191
1.176411716172192
1.176411716172191
1.176411716172193
1.176411716172191
1.176411716172191
1.176411716172191
1.176411716172192
1.176411716172191
1.176411716172192
1.176411716172191
1.176411716172193
1.17641171617219
1.176411716172191
1.176411716172191
1.176411716172193
1.176411716172191
1.17641171617219
1.176411716172193
1.176411716172193
1.17641171617219
1.176411716172191
1.176411716172192
1.176411716172192
1.176411716172191
1.176411716172191
1.176411716172193
1.176411716172193
1.176411716172191
1.176411716172191
1.176411716172192
1.176411716172193
1.17641171617219
1.176411716172192
1.176411716172193
1.176411716172192
1.176411716172193
1.176411716172191
1.176411716172192
1.176411716172192
1.176411716172191
1.176411716172192
1.176411716172191
1.176411716172192
1.176411716172192
1.176411716172193
1.17641171617219
1.176411716172192
1.176411716172192
1.176411716172191
1.176411716172191
1.176411716172191
1.176411716172191
1.176411716172191
1.176411716172191
1.176411716172191
1.176411716172191
1.176411716172191
1.176411716172191
1.176411716172191
1.176411716172191
1.17641171617219
1.176411716172189
1.176411716172191
1.176411716172191
1.176411716172191
1.176411716172191
1.17641171617219
1.17641171617219
1.17641171617219
1.17641171617219
1.17641171617219
1.17641171617219
1.17641171617219
1.176411716172191
1.176411716172191
1.176411716172191
1.17641171617219
1.176411716172191
1.17641171617219
1.176411716172191
1.17641171617219
1.17641171617219
1.17641171617219
1.17641171617219
1.176411716172191
1.176411716172191
1.17641171617219
1.17641171617219
1.176411716172191
1.17641171617219
1.17641171617219
1.176411716172191
1.17641171617219
1.176411716172191
1.17641171617219
)
;

boundaryField
{
    inlet
    {
        type            calculated;
        value           uniform 1.176271021779363;
    }
    outlet
    {
        type            calculated;
        value           uniform 1.17641171617219;
    }
    frontAndBack
    {
        type            empty;
    }
}


// ************************************************************************* //
