/*--------------------------------*- C++ -*----------------------------------*\
| =========                 |                                                 |
| \\      /  F ield         | OpenFOAM: The Open Source CFD Toolbox           |
|  \\    /   O peration     | Version:  v2012                                 |
|   \\  /    A nd           | Website:  www.openfoam.com                      |
|    \\/     M anipulation  |                                                 |
\*---------------------------------------------------------------------------*/
FoamFile
{
    version     2.0;
    format      ascii;
    class       volVectorField;
    location    "0.002";
    object      U;
}
// * * * * * * * * * * * * * * * * * * * * * * * * * * * * * * * * * * * * * //

dimensions      [0 1 -1 0 0 0 0];


internalField   nonuniform List<vector> 
1000
(
(-0.02033662275992788 0 0)
(-0.04885988454891017 0 0)
(-0.04832356696492557 0 0)
(-0.0745007847412424 0 0)
(-0.08193605024457684 0 0)
(-0.09408106708743645 0 0)
(-0.1053171737436917 0 0)
(-0.1062211436871417 0 0)
(-0.1185995874236689 0 0)
(-0.1194070950497028 0 0)
(-0.1187769112103466 0 0)
(-0.118814933831162 0 0)
(-0.1157726429581711 0 0)
(-0.1113334099866096 0 0)
(-0.1079862271069087 0 0)
(-0.09513749528008508 0 0)
(-0.08683698303327395 0 0)
(-0.07407695308815752 0 0)
(-0.05786174146853289 0 0)
(-0.04575030931762222 0 0)
(-0.02918530973347192 0 0)
(-0.01324639168597295 0 0)
(0.002929481119598172 0 0)
(0.01960642033348628 0 0)
(0.0351216294995026 0 0)
(0.05118086525805061 0 0)
(0.0653684829085398 0 0)
(0.07864580470772663 0 0)
(0.09112924435837785 0 0)
(0.1010595196961748 0 0)
(0.1144593370156493 0 0)
(0.1168972400243886 0 0)
(0.1173447525832401 0 0)
(0.1173885149677414 0 0)
(0.1151089135637353 0 0)
(0.1144355118391899 0 0)
(0.1114408140000021 0 0)
(0.103855865563841 0 0)
(0.1009376664914027 0 0)
(0.08876084452124114 0 0)
(0.07677706999202907 0 0)
(0.06742593552599589 0 0)
(0.047377860563007 0 0)
(0.03374279904348748 0 0)
(0.01801168757527956 0 0)
(-0.001247399836200951 0 0)
(-0.01535608924419478 0 0)
(-0.03203854926219647 0 0)
(-0.04806210603091823 0 0)
(-0.06216019693626238 0 0)
(-0.07671377728335388 0 0)
(-0.08939674199968449 0 0)
(-0.1022617619123466 0 0)
(-0.1150333994520572 0 0)
(-0.1160767214320403 0 0)
(-0.115774272196684 0 0)
(-0.1156925575566731 0 0)
(-0.1147677343071073 0 0)
(-0.1114464407605211 0 0)
(-0.1108666958670374 0 0)
(-0.1047816984168723 0 0)
(-0.09723944972353969 0 0)
(-0.09336168314857868 0 0)
(-0.07908300948290356 0 0)
(-0.06777650773211089 0 0)
(-0.05589891832391689 0 0)
(-0.0367707803685001 0 0)
(-0.02246577925645604 0 0)
(-0.004866829387169929 0 0)
(0.0128408553963689 0 0)
(0.0283953196911181 0 0)
(0.04499322285749612 0 0)
(0.0597690278926936 0 0)
(0.07399339406524587 0 0)
(0.0871696982026637 0 0)
(0.1018532270261913 0 0)
(0.1141696925526801 0 0)
(0.1145712046113463 0 0)
(0.1146012656542702 0 0)
(0.1145390169561858 0 0)
(0.1127027748571716 0 0)
(0.1124674523120528 0 0)
(0.1083699021811032 0 0)
(0.1041798882440947 0 0)
(0.1011216970617277 0 0)
(0.09006035546162972 0 0)
(0.08338690783549288 0 0)
(0.07244814227988332 0 0)
(0.05657558054340437 0 0)
(0.04472976587786867 0 0)
(0.02662861422518401 0 0)
(0.009573419130634198 0 0)
(-0.007041265797274292 0 0)
(-0.02562070078529399 0 0)
(-0.04177349608734213 0 0)
(-0.05804672280083305 0 0)
(-0.07326908386476136 0 0)
(-0.08628549595395814 0 0)
(-0.1033551125710448 0 0)
(-0.1131814747007115 0 0)
(-0.1135507698496595 0 0)
(-0.1139772268667756 0 0)
(-0.1130113898107021 0 0)
(-0.1119814587683111 0 0)
(-0.1117570292589509 0 0)
(-0.1069325283620332 0 0)
(-0.1042418141283603 0 0)
(-0.1003039166364362 0 0)
(-0.09001589509398417 0 0)
(-0.08489429389560121 0 0)
(-0.0735710325440756 0 0)
(-0.0591473177865206 0 0)
(-0.0483555199933833 0 0)
(-0.03054381554235932 0 0)
(-0.01426285738098189 0 0)
(0.002112383216512348 0 0)
(0.02099555690496204 0 0)
(0.03747167366780488 0 0)
(0.05445834915563354 0 0)
(0.07046493903879607 0 0)
(0.08415304205694439 0 0)
(0.1017421450141369 0 0)
(0.1120726585366724 0 0)
(0.1127248947159844 0 0)
(0.1126745709830647 0 0)
(0.1118379711485216 0 0)
(0.1118731248213654 0 0)
(0.1095290651022713 0 0)
(0.1068768393036561 0 0)
(0.1054475078092454 0 0)
(0.09794732954443901 0 0)
(0.09337473662956709 0 0)
(0.08637145769321353 0 0)
(0.07366436160683618 0 0)
(0.06536265573553769 0 0)
(0.05047598714611688 0 0)
(0.03494397012335074 0 0)
(0.02066230484994287 0 0)
(0.001276577719285567 0 0)
(-0.0153983211841509 0 0)
(-0.03340081641197841 0 0)
(-0.05163612149643311 0 0)
(-0.06805785837606601 0 0)
(-0.08380799063696039 0 0)
(-0.1037665715314918 0 0)
(-0.111856173842566 0 0)
(-0.1118131726048192 0 0)
(-0.1119372567623557 0 0)
(-0.1115588754701782 0 0)
(-0.1099501733895499 0 0)
(-0.1099355177518447 0 0)
(-0.1067009705673246 0 0)
(-0.1029643995473375 0 0)
(-0.1001840122434102 0 0)
(-0.09167656549500848 0 0)
(-0.08617062316649923 0 0)
(-0.07711665766483652 0 0)
(-0.06381805446861198 0 0)
(-0.05419941430821867 0 0)
(-0.03815483417937129 0 0)
(-0.02231971358239642 0 0)
(-0.007208478283848917 0 0)
(0.01202152329260231 0 0)
(0.02881328170638197 0 0)
(0.04638984716145274 0 0)
(0.06471611231220258 0 0)
(0.07957926985108252 0 0)
(0.1009893987793249 0 0)
(0.1107762750578809 0 0)
(0.1110514913963716 0 0)
(0.1111484568946697 0 0)
(0.1103105714213027 0 0)
(0.1101809301927276 0 0)
(0.108687544425939 0 0)
(0.105842983110774 0 0)
(0.1043066799106009 0 0)
(0.09886102632181937 0 0)
(0.09359896315462382 0 0)
(0.08789979248496985 0 0)
(0.07740654495562689 0 0)
(0.06861595358133069 0 0)
(0.05624785363809078 0 0)
(0.04188470426532429 0 0)
(0.02786453677904513 0 0)
(0.01040912835646852 0 0)
(-0.006651082358655223 0 0)
(-0.02484444310963262 0 0)
(-0.04350374424418971 0 0)
(-0.06182560090786526 0 0)
(-0.0790589516649315 0 0)
(-0.1022155379098797 0 0)
(-0.1103059488698575 0 0)
(-0.1101421648107921 0 0)
(-0.1104401751110512 0 0)
(-0.1100538234596676 0 0)
(-0.1083609055339726 0 0)
(-0.1082927125674159 0 0)
(-0.10596827132734 0 0)
(-0.1017729266459191 0 0)
(-0.100050689109217 0 0)
(-0.09329582456160956 0 0)
(-0.08650991198745356 0 0)
(-0.08013376552698546 0 0)
(-0.06798461788346497 0 0)
(-0.05810907686287398 0 0)
(-0.04487862454879425 0 0)
(-0.02933914494134997 0 0)
(-0.01476694623631266 0 0)
(0.003067451984531359 0 0)
(0.0205456631916297 0 0)
(0.03842264180655507 0 0)
(0.0572659504161061 0 0)
(0.07386703461223558 0 0)
(0.09664873124935423 0 0)
(0.1091679279850985 0 0)
(0.1094521300550273 0 0)
(0.1097352280775633 0 0)
(0.1090459975288375 0 0)
(0.1085031404581207 0 0)
(0.1078521539338457 0 0)
(0.1048304995031007 0 0)
(0.1034133007117876 0 0)
(0.09941260862807227 0 0)
(0.09335223888243563 0 0)
(0.08965655848230579 0 0)
(0.07996986925047304 0 0)
(0.07088215444349487 0 0)
(0.06201429846143092 0 0)
(0.04660403351578202 0 0)
(0.03416444178084126 0 0)
(0.01883186423380022 0 0)
(0.0003639075242318358 0 0)
(-0.01609374912191491 0 0)
(-0.03533529911561151 0 0)
(-0.05486682594092908 0 0)
(-0.07222020964781059 0 0)
(-0.09689295636548308 0 0)
(-0.1088123130029748 0 0)
(-0.1089481906469103 0 0)
(-0.1088257292903134 0 0)
(-0.1088014168210065 0 0)
(-0.1074145731129054 0 0)
(-0.1068298987118967 0 0)
(-0.1055138383984041 0 0)
(-0.1014050605019743 0 0)
(-0.09949624128407147 0 0)
(-0.09429616720241639 0 0)
(-0.08730535458708563 0 0)
(-0.08168976263448997 0 0)
(-0.0714127185775905 0 0)
(-0.06108309260560294 0 0)
(-0.04995810359655469 0 0)
(-0.0354261227431328 0 0)
(-0.0208531845085959 0 0)
(-0.004950226717411865 0 0)
(0.01273193194077182 0 0)
(0.030698129295848 0 0)
(0.04896428701756522 0 0)
(0.06739023672788343 0 0)
(0.08810605233533846 0 0)
(0.1076246772112463 0 0)
(0.1086938252388113 0 0)
(0.1085753293088077 0 0)
(0.1087083913289626 0 0)
(0.1076801475928113 0 0)
(0.1075235279063513 0 0)
(0.1051019779174445 0 0)
(0.1028816268632363 0 0)
(0.1010297446220159 0 0)
(0.09468952818780055 0 0)
(0.09123056938326617 0 0)
(0.08464872880010049 0 0)
(0.07528846427405671 0 0)
(0.06847333152599616 0 0)
(0.05640458558392083 0 0)
(0.04523363388567055 0 0)
(0.03376165984503853 0 0)
(0.0198756814694884 0 0)
(0.003191452650355403 0 0)
(6.556016456425131e-06 0 0)
(6.587710177226195e-12 0 0)
(-4.392533821637399e-12 0 0)
(-5.098761962355673e-12 0 0)
(-4.157344434310592e-12 0 0)
(-3.843549591275073e-12 0 0)
(-3.216124899887822e-12 0 0)
(-2.667107670588816e-12 0 0)
(-1.15207439242298e-12 0 0)
(-4.951422901593888e-13 0 0)
(-1.018734434902664e-12 0 0)
(-5.491492250470321e-13 0 0)
(-6.585224124782944e-13 0 0)
(-4.670772906472787e-13 0 0)
(-3.658266126370151e-13 0 0)
(-6.015408023342479e-13 0 0)
(-1.333729564572936e-13 0 0)
(-4.681018480030711e-13 0 0)
(-1.156553103560741e-15 0 0)
(-2.602467126451281e-13 0 0)
(-9.899681085246533e-17 0 0)
(-4.181851909873048e-13 0 0)
(-3.127042878061981e-13 0 0)
(1.568809220494833e-13 0 0)
(-5.094121437148396e-14 0 0)
(-4.457834344514173e-13 0 0)
(2.863285953195758e-13 0 0)
(-4.681678458769717e-13 0 0)
(3.483456235674622e-28 0 0)
(2.863285953195945e-13 0 0)
(-3.162697633073407e-13 0 0)
(5.493249543257908e-14 0 0)
(-2.353543820111278e-13 0 0)
(-1.30898036185849e-13 0 0)
(-3.412280918151906e-13 0 0)
(-5.104021118235084e-14 0 0)
(-1.568479231125068e-13 0 0)
(-7.847345996168423e-14 0 0)
(-2.078551353579e-13 0 0)
(4.97846612679386e-14 0 0)
(-2.342308278445179e-13 0 0)
(-2.888035155910833e-13 0 0)
(-3.137618440988977e-13 0 0)
(1.828308089761502e-13 0 0)
(-1.019484266168757e-13 0 0)
(-5.764174791416419e-13 0 0)
(1.517000889478691e-13 0 0)
(-1.283241191035303e-13 0 0)
(2.63426935496788e-14 0 0)
(-5.087521649758829e-14 0 0)
(-2.852710390268714e-13 0 0)
(5.094121437149091e-14 0 0)
(2.340896878130404e-14 0 0)
(-3.372698096911024e-13 0 0)
(1.048491524483089e-13 0 0)
(5.087521649758535e-14 0 0)
(-2.343298246553919e-13 0 0)
(9.899681085483604e-17 0 0)
(1.802898908307592e-13 0 0)
(-2.354203798850658e-13 0 0)
(2.383541046534201e-13 0 0)
(-2.368707428007737e-13 0 0)
(2.238441142554166e-14 0 0)
(-2.053802150864532e-13 0 0)
(5.077621968673129e-14 0 0)
(-2.849740485943089e-13 0 0)
(-2.354863777589516e-13 0 0)
(-1.580044762160726e-13 0 0)
(-3.92037310438908e-13 0 0)
(1.318895946046396e-13 0 0)
(-3.138608409097815e-13 0 0)
(-2.093714961475314e-13 0 0)
(-3.299893694883689e-17 0 0)
(-1.069642650337211e-13 0 0)
(-2.329454596135772e-13 0 0)
(-2.603787083929283e-13 0 0)
(3.299893696461743e-17 0 0)
(-2.628206297274211e-13 0 0)
(-5.113920799320881e-14 0 0)
(-2.128049759008361e-13 0 0)
(1.567819252386185e-13 0 0)
(-5.207244178488905e-13 0 0)
(4.853229197393067e-14 0 0)
(-1.020804223647065e-13 0 0)
(-1.294476732701224e-13 0 0)
(-1.584632807129849e-13 0 0)
(2.75982434640974e-14 0 0)
(-2.875479656766136e-14 0 0)
(5.213076641201271e-14 0 0)
(3.859285313278764e-15 0 0)
(-3.137618440989139e-13 0 0)
(-2.628536286644021e-13 0 0)
(1.310300319336594e-13 0 0)
(-2.354533788219945e-13 0 0)
(1.818722494942901e-13 0 0)
(-3.137618440989464e-13 0 0)
(1.578724804682718e-13 0 0)
(-5.097421330843825e-14 0 0)
(-1.095381821160507e-13 0 0)
(1.094721842421498e-13 0 0)
(-1.060057055518827e-13 0 0)
(-1.059067087410077e-13 0 0)
(2.640869142357349e-14 0 0)
(-2.09371496147534e-13 0 0)
(4.705107704005768e-13 0 0)
(-2.888365145280122e-13 0 0)
(6.599787390474292e-17 0 0)
(-3.299893695402747e-17 0 0)
(1.344965106239225e-13 0 0)
(-1.318895946046269e-13 0 0)
(-1.319957478103354e-16 0 0)
(-2.875809646136075e-13 0 0)
(1.282251222926695e-13 0 0)
(-4.911673292301622e-27 0 0)
(-2.852380400899186e-13 0 0)
(1.236626963664575e-27 0 0)
(2.637569248663034e-14 0 0)
(1.044233468883431e-13 0 0)
(-1.309310351227876e-13 0 0)
(-7.844046102473155e-14 0 0)
(-2.749924665324525e-14 0 0)
(-1.044563458253094e-13 0 0)
(-3.137948430358531e-13 0 0)
(-2.118134174820378e-13 0 0)
(5.499849330648587e-14 0 0)
(-2.756524452714163e-14 0 0)
(-2.602467126451201e-13 0 0)
(-1.304722306258885e-13 0 0)
(-7.982482606654262e-14 0 0)
(1.543730028410415e-13 0 0)
(-2.877129603614025e-13 0 0)
(-1.019814255538403e-13 0 0)
(-5.344913357990928e-14 0 0)
(-4.156112739049211e-13 0 0)
(-1.060057055518895e-13 0 0)
(-1.04882151385254e-13 0 0)
(-2.363129414929953e-13 0 0)
(1.069312660967852e-13 0 0)
(-1.843801687027208e-13 0 0)
(-1.539141983441157e-13 0 0)
(-3.153442027624576e-13 0 0)
(-1.3317496283558e-13 0 0)
(-1.531536324840072e-13 0 0)
(-1.566499294907882e-13 0 0)
(-5.364712720162532e-14 0 0)
(-4.460772442635293e-13 0 0)
(-5.107321011930318e-14 0 0)
(-1.029399850356791e-13 0 0)
(-2.342308278445336e-13 0 0)
(1.803228897677133e-13 0 0)
(-5.489842303623231e-13 0 0)
(1.046511588265941e-13 0 0)
(2.090776863353763e-13 0 0)
(-5.226745357495416e-13 0 0)
(3.137618440989333e-13 0 0)
(-1.568149241755644e-13 0 0)
(-1.048161535113588e-13 0 0)
(-5.615504641003835e-14 0 0)
(-2.85238040089958e-13 0 0)
(2.647468929748441e-14 0 0)
(-7.850645889863221e-14 0 0)
(-1.843141708287968e-13 0 0)
(1.090555229657615e-15 0 0)
(-2.090446873984236e-13 0 0)
(7.870445252035304e-14 0 0)
(-5.113920799320242e-14 0 0)
(-1.583312849651888e-13 0 0)
(1.334059553942599e-13 0 0)
(-8.108037598095825e-14 0 0)
(-1.008578713872265e-13 0 0)
(-2.903528753176465e-13 0 0)
(1.283901169774346e-13 0 0)
(-3.897603837891558e-13 0 0)
(2.311981062652977e-13 0 0)
(-3.397777288995256e-13 0 0)
(7.840746208778047e-14 0 0)
(-3.361132565875093e-13 0 0)
(-5.081836290736669e-15 0 0)
(-1.528566420514291e-13 0 0)
(-2.328794617396802e-13 0 0)
(-3.152782048885345e-13 0 0)
(1.833556113469403e-13 0 0)
(-3.647690563443492e-13 0 0)
(-3.402365333964022e-13 0 0)
(-1.059397076779695e-13 0 0)
(-2.07822136420956e-13 0 0)
(-1.568809220494645e-13 0 0)
(-2.749924665323402e-14 0 0)
(-1.578724804682622e-13 0 0)
(-3.372698096911131e-13 0 0)
(4.794149172921135e-14 0 0)
(2.378953001565133e-13 0 0)
(-2.888365145280197e-13 0 0)
(-2.334297090739707e-14 0 0)
(-7.850645889862957e-14 0 0)
(-1.568479231125079e-13 0 0)
(-2.858980188290293e-14 0 0)
(-1.283571180404705e-13 0 0)
(-7.840746208777438e-14 0 0)
(7.738290473201583e-14 0 0)
(-1.559223625676154e-13 0 0)
(-2.743324877933456e-14 0 0)
(-1.071622586554299e-13 0 0)
(-2.601588480058009e-14 0 0)
(5.608904853614383e-14 0 0)
(-3.428434494156931e-13 0 0)
(2.611722731900135e-13 0 0)
(-1.577734836573962e-13 0 0)
(-1.305382284997943e-13 0 0)
(1.602814028658364e-13 0 0)
(-8.223374846409617e-14 0 0)
(-1.531206335470534e-13 0 0)
(1.843801687027079e-13 0 0)
(-2.62754631853539e-13 0 0)
(2.080205276203671e-14 0 0)
(1.335049522051042e-13 0 0)
(-7.596772742981359e-13 0 0)
(5.49248221857898e-13 0 0)
(-4.991665701573107e-14 0 0)
(-2.863945931935108e-13 0 0)
(6.550559337880614e-13 0 0)
(-4.708407597701169e-13 0 0)
(1.29612667954899e-13 0 0)
(1.28258121229597e-13 0 0)
(-1.283241191035167e-13 0 0)
(2.329124606766389e-13 0 0)
(-2.629526254752287e-13 0 0)
(-1.26741760440004e-13 0 0)
(1.842151740179411e-13 0 0)
(2.248340823640571e-14 0 0)
(5.203176960114813e-14 0 0)
(4.707747618961731e-13 0 0)
(-3.634506891764354e-13 0 0)
(3.414260854369402e-13 0 0)
(4.790849279224888e-14 0 0)
(1.307660404380373e-13 0 0)
(2.904860637980915e-14 0 0)
(1.007588745763719e-13 0 0)
(-3.401375365855694e-13 0 0)
(2.353213830741874e-13 0 0)
(-7.699009810903085e-14 0 0)
(-2.353543820111584e-13 0 0)
(5.775740322451321e-13 0 0)
(4.991665701573636e-14 0 0)
(1.295136711440305e-13 0 0)
(-2.579367870584144e-13 0 0)
(1.570459167342295e-13 0 0)
(-3.138278419728178e-13 0 0)
(3.921363072497724e-13 0 0)
(1.829298057869928e-13 0 0)
(-1.085796226342007e-13 0 0)
(2.668779086624361e-13 0 0)
(5.094121437148413e-14 0 0)
(-5.499849330647922e-14 0 0)
(-7.699009810902706e-14 0 0)
(-1.569469199233587e-13 0 0)
(5.75066113036761e-13 0 0)
(-1.554305591337649e-13 0 0)
(-7.840746208777944e-14 0 0)
(2.612382710639281e-13 0 0)
(-1.84446166576624e-13 0 0)
(1.803558887046812e-13 0 0)
(7.024002640314895e-15 0 0)
(1.22291674881991e-13 0 0)
(5.499849330648816e-14 0 0)
(1.323483991015505e-13 0 0)
(7.949801731744043e-14 0 0)
(-1.060057055518836e-13 0 0)
(2.078221364209625e-13 0 0)
(1.322824012276505e-13 0 0)
(-1.843801687027131e-13 0 0)
(1.578064825943426e-13 0 0)
(1.060387044888377e-13 0 0)
(-1.569469199233737e-13 0 0)
(4.981766020487547e-14 0 0)
(2.849080507204078e-14 0 0)
(-5.341613464296491e-14 0 0)
(1.567159273647053e-13 0 0)
(2.104290524402415e-13 0 0)
(-7.956401519133551e-14 0 0)
(-2.353873809481098e-13 0 0)
(2.088796927136675e-13 0 0)
(2.749924665323708e-14 0 0)
(-1.070302629076483e-13 0 0)
(-7.998982075129651e-14 0 0)
(-1.034317884695527e-13 0 0)
(1.581992892173638e-13 0 0)
(-7.840746208776856e-14 0 0)
(-3.138278419728426e-13 0 0)
(-2.079541321687751e-13 0 0)
(2.613042689378402e-13 0 0)
(-4.197015517769e-13 0 0)
(-1.319555924785418e-13 0 0)
(-3.388521683545995e-13 0 0)
(2.079211332318249e-13 0 0)
(-1.57045916734209e-13 0 0)
(-2.861965995717961e-13 0 0)
(-1.156553103557714e-15 0 0)
(-2.328134638657858e-13 0 0)
(-6.042137162274087e-13 0 0)
(1.319225935415786e-13 0 0)
(-4.707417629592672e-13 0 0)
(-2.393786620091821e-13 0 0)
(-2.323216604319022e-13 0 0)
(-1.319957478037079e-16 0 0)
(-2.368377438638167e-13 0 0)
(-4.156772717788558e-13 0 0)
(-3.646370605965382e-13 0 0)
(-8.256373783361553e-14 0 0)
(-1.034647874064988e-13 0 0)
(-1.292496796484194e-13 0 0)
(-5.737147469318506e-13 0 0)
(1.029729839726406e-13 0 0)
(-2.34089687812932e-14 0 0)
(-5.531405061081083e-13 0 0)
(5.104021118235232e-14 0 0)
(-7.560573306719786e-14 0 0)
(-6.039497247318235e-13 0 0)
(2.5739170823349e-15 0 0)
(7.830846527691358e-14 0 0)
(-2.87679961424457e-13 0 0)
(1.581662902804297e-13 0 0)
(-1.841161772070839e-13 0 0)
(-1.819382473682058e-13 0 0)
(-3.148853982654943e-13 0 0)
(1.069642650337253e-13 0 0)
(-1.843141708287931e-13 0 0)
(-2.862280081985047e-14 0 0)
(-2.076901406731597e-13 0 0)
(-5.39079380768125e-14 0 0)
(-2.34749666552064e-14 0 0)
(-1.058407108671135e-13 0 0)
(-2.84908050720374e-14 0 0)
(-7.847345996168577e-14 0 0)
(5.605604959919257e-14 0 0)
(-2.640101817679366e-13 0 0)
(-1.817732526834342e-13 0 0)
(1.57045916734234e-13 0 0)
(-2.614362646856506e-13 0 0)
(-3.411950928782503e-13 0 0)
(1.070302629076277e-13 0 0)
(-2.078551353579232e-13 0 0)
(-2.664191041655058e-13 0 0)
(3.10317232174131e-14 0 0)
(-6.27523688197862e-13 0 0)
(2.850730454051961e-13 0 0)
(-3.920043115019668e-13 0 0)
(-7.844046102472463e-14 0 0)
(-2.342638267814721e-13 0 0)
(-5.087521649758358e-14 0 0)
(-2.759824346409005e-14 0 0)
(-5.490172292991843e-13 0 0)
(-4.706427661483822e-13 0 0)
(2.353543820111602e-13 0 0)
(-3.411950928782579e-13 0 0)
(7.431718421584632e-14 0 0)
(-4.91217006972146e-13 0 0)
(-8.236574421190422e-14 0 0)
(-4.705437693375462e-13 0 0)
(7.956401519135272e-14 0 0)
(-4.166688301976684e-13 0 0)
(-7.830846527691339e-14 0 0)
(-2.352553852002923e-13 0 0)
(-7.847345996168161e-14 0 0)
(-3.125062941844736e-13 0 0)
(-2.353873809481069e-13 0 0)
(-1.828638079130884e-13 0 0)
(4.704893012127115e-14 0 0)
(-1.504147207169244e-13 0 0)
(-1.841491761440352e-13 0 0)
(-5.094121437149341e-14 0 0)
(-2.35288384137252e-13 0 0)
(-2.845780613508231e-14 0 0)
(-4.70543769337551e-13 0 0)
(3.413270886260798e-13 0 0)
(-1.833556113469418e-13 0 0)
(-5.470150287390417e-14 0 0)
(-1.814464439343287e-13 0 0)
(3.922023051236901e-13 0 0)
(-3.634475085560007e-13 0 0)
(7.840746208778375e-14 0 0)
(-7.84074620877743e-14 0 0)
(-5.240589007913607e-13 0 0)
(2.838866739850613e-13 0 0)
(-3.621621403250678e-13 0 0)
(-2.740024984238302e-14 0 0)
(-2.48923306339582e-14 0 0)
(7.840746208778069e-14 0 0)
(-1.578724804682534e-13 0 0)
(-2.342968257184453e-13 0 0)
(-1.319555924785465e-13 0 0)
(-5.08752164975825e-14 0 0)
(-8.335730263070519e-14 0 0)
(-3.611705819062634e-13 0 0)
(-1.318235967307318e-13 0 0)
(-1.829628047239523e-13 0 0)
(-2.340988320967104e-13 0 0)
(-2.858980188288883e-14 0 0)
(1.843801687027077e-13 0 0)
(1.02455735576392e-15 0 0)
(-3.421866512970709e-13 0 0)
(-4.971866339401601e-14 0 0)
(4.988365807878302e-14 0 0)
(-1.557573678828591e-13 0 0)
(-3.299893694974044e-17 0 0)
(1.319957478144339e-16 0 0)
(-5.255092637070653e-13 0 0)
(7.374546769368889e-13 0 0)
(-2.393126641353156e-13 0 0)
(-1.844131676396416e-13 0 0)
(-1.028409882248364e-13 0 0)
(3.41261090752179e-13 0 0)
(-3.676697821757301e-13 0 0)
(7.840746208778629e-14 0 0)
(3.098719453140837e-15 0 0)
(-2.647468929748261e-14 0 0)
(-2.861636006348241e-13 0 0)
(2.353543820111377e-13 0 0)
(-2.601588480057658e-14 0 0)
(-8.233274527495412e-14 0 0)
(-3.111549280796407e-13 0 0)
(1.557243689459107e-13 0 0)
(2.638781860201439e-13 0 0)
(-1.057747129932147e-13 0 0)
(1.817402537464875e-13 0 0)
(-1.293816753962215e-13 0 0)
(2.614362646856447e-13 0 0)
(-1.060717034257761e-13 0 0)
(2.87778958235286e-13 0 0)
(-1.308980361858473e-13 0 0)
(-5.110620905625557e-14 0 0)
(3.921693061867168e-13 0 0)
(-7.857245677254975e-14 0 0)
(-1.123554166609711e-15 0 0)
(6.599787390018244e-17 0 0)
(-6.599787390833655e-17 0 0)
(1.319225935415885e-13 0 0)
(-3.413600875630287e-13 0 0)
(2.10330055629377e-13 0 0)
(-2.35288384137248e-13 0 0)
(7.824246740301916e-14 0 0)
(1.059067087410094e-13 0 0)
(-2.637791892093001e-13 0 0)
(-2.49913274448175e-14 0 0)
(3.387201726067778e-13 0 0)
(-2.60411707329881e-13 0 0)
(5.361412826467146e-14 0 0)
(2.862625974457021e-13 0 0)
(2.352223862633228e-13 0 0)
(-2.10264057755464e-13 0 0)
(4.470358037453652e-13 0 0)
(-7.985782500350175e-14 0 0)
(2.505732531871893e-14 0 0)
(2.851390432790904e-13 0 0)
(5.348213251686476e-14 0 0)
(2.627876307904819e-13 0 0)
(-2.352553852002992e-13 0 0)
(7.949801731742824e-14 0 0)
(-1.070302629076327e-13 0 0)
(-1.008248724502855e-13 0 0)
(3.63744498988559e-13 0 0)
(-6.800472612328769e-13 0 0)
(4.707747618962093e-13 0 0)
(2.602797115820687e-13 0 0)
(-6.000574404815873e-13 0 0)
(3.137618440989129e-13 0 0)
(-4.1857799761028e-13 0 0)
(6.357307630106937e-28 0 0)
(-2.089126916505957e-13 0 0)
(2.354203798850621e-13 0 0)
(-5.492152229209548e-13 0 0)
(7.847345996169173e-14 0 0)
(-1.04882151385268e-13 0 0)
(-1.579054794052039e-13 0 0)
(-3.136958462250289e-13 0 0)
(-3.138278419728317e-13 0 0)
(-1.292496796484005e-13 0 0)
(-8.109452974187496e-13 0 0)
(1.533154465483439e-13 0 0)
(-3.335723384421423e-13 0 0)
(-8.904763136731175e-13 0 0)
(-3.921693061866944e-13 0 0)
(-3.932268624793828e-13 0 0)
(-7.32471837457083e-13 0 0)
(-9.412195344227809e-13 0 0)
(-5.737147469318881e-13 0 0)
(-1.047192241037798e-12 0 0)
(-7.060301470964835e-13 0 0)
(-7.059641492226092e-13 0 0)
(-1.073732928209061e-12 0 0)
(-1.070766204503961e-12 0 0)
(-4.706097672113872e-13 0 0)
(-1.542367530134077e-12 0 0)
(-9.153356453700968e-13 0 0)
(-1.151516591115269e-12 0 0)
(-6.275896860717737e-13 0 0)
(-1.410804744278547e-12 0 0)
(-9.933832997717951e-13 0 0)
(-1.018701435965687e-12 0 0)
(-1.098232452220231e-12 0 0)
(-1.09932300744967e-12 0 0)
(-1.019626996510642e-12 0 0)
(-1.019890988006291e-12 0 0)
(-1.257687291351988e-12 0 0)
(-1.201334251320161e-12 0 0)
(-9.169840019074073e-13 0 0)
(-1.070700206630054e-12 0 0)
(-9.657520573707219e-13 0 0)
(-1.361152078758392e-12 0 0)
(-9.921937477313085e-13 0 0)
(-1.229097489469085e-12 0 0)
(-1.044684321829346e-12 0 0)
(-1.31371034201416e-12 0 0)
(-6.748334291942895e-13 0 0)
(-1.412225288877628e-12 0 0)
(-9.411535365490417e-13 0 0)
(-1.096881086115171e-12 0 0)
(-1.098265451157116e-12 0 0)
(-1.099649816198915e-12 0 0)
(-1.071691765048732e-12 0 0)
(-6.266971244638207e-13 0 0)
(-1.154123507134579e-12 0 0)
(-8.069210174206702e-13 0 0)
(-1.020948544298821e-12 0 0)
(-1.255047376395739e-12 0 0)
(-4.187759912319866e-13 0 0)
(-1.334611391587019e-12 0 0)
(-7.569713614680034e-13 0 0)
(-9.714576928432199e-13 0 0)
(-6.237932180119564e-13 0 0)
(-1.044456509890949e-12 0 0)
(-7.334633958758391e-13 0 0)
(-9.41318531233722e-13 0 0)
(-1.333553835294597e-12 0 0)
(-5.245507042251892e-13 0 0)
(-8.864190347381588e-13 0 0)
(-7.854951654768298e-13 0 0)
(-6.264991308420921e-13 0 0)
(-9.67268418160419e-13 0 0)
(-6.560474922068609e-13 0 0)
(-8.868118413611159e-13 0 0)
(-6.275896860717414e-13 0 0)
(-6.011809946481936e-13 0 0)
(-4.186109965471467e-13 0 0)
(-1.333520836357424e-12 0 0)
(-3.932268624794125e-13 0 0)
(-3.922683029975671e-13 0 0)
(-9.676282258464396e-13 0 0)
(-4.467419939332094e-13 0 0)
(-7.299639182486163e-13 0 0)
(-6.001234383554742e-13 0 0)
(-9.672024202864908e-13 0 0)
(-3.922353040605493e-13 0 0)
(-8.104864929218213e-13 0 0)
(-6.814646252116091e-13 0 0)
(-3.658266126370302e-13 0 0)
(-6.539653785583923e-13 0 0)
(-4.43176518432107e-13 0 0)
(-7.059971481595428e-13 0 0)
(-4.705767682743954e-13 0 0)
(-6.535725719354153e-13 0 0)
(-3.138278419728202e-13 0 0)
(-7.074145121383022e-13 0 0)
(-4.442670736617596e-13 0 0)
(-3.945782285842605e-13 0 0)
(-9.10352805890249e-13 0 0)
(-2.749924665323088e-14 0 0)
(-7.84371611310408e-13 0 0)
(-3.138938398466705e-13 0 0)
(-8.638696286278167e-13 0 0)
(-1.049151503222104e-13 0 0)
(-5.751651098476369e-13 0 0)
(-6.783989046954435e-13 0 0)
(-5.776730290560119e-13 0 0)
(-2.485933169700556e-14 0 0)
(-5.480586698172753e-13 0 0)
(-4.707747618962102e-13 0 0)
(-3.138278419728341e-13 0 0)
(-5.501737824027918e-13 0 0)
(-3.136958462250109e-13 0 0)
(-5.490502282361844e-13 0 0)
(-3.127702856801194e-13 0 0)
(-1.854377249954157e-13 0 0)
(-3.63612503240756e-13 0 0)
(-4.707087640222134e-13 0 0)
(-1.568809220494726e-13 0 0)
(-4.706097672114327e-13 0 0)
(4.988365807879242e-14 0 0)
(-2.065335875695824e-13 0 0)
(-3.664472311985277e-15 0 0)
(2.507919208423186e-15 0 0)
(-3.910787509569959e-13 0 0)
(-2.078221364209581e-13 0 0)
(-1.85470723932366e-13 0 0)
(-7.844046102473883e-14 0 0)
(-7.844046102472875e-14 0 0)
(1.303732338150251e-13 0 0)
(-3.646700595334927e-13 0 0)
(3.101303707238957e-13 0 0)
(-1.033987895326114e-13 0 0)
(2.852380400898794e-14 0 0)
(-1.09055522966275e-15 0 0)
(2.639111849570918e-13 0 0)
(-1.570789156711835e-13 0 0)
(-2.749924665325056e-14 0 0)
(1.542740060301928e-13 0 0)
(5.48994964956175e-14 0 0)
(4.689944096108977e-13 0 0)
(-1.553975601968074e-13 0 0)
(2.861636006348261e-13 0 0)
(2.091405035888578e-13 0 0)
(2.352223862633409e-13 0 0)
(3.421536523601122e-13 0 0)
(1.292496796484096e-13 0 0)
(-3.664472311993364e-15 0 0)
(2.376313086609012e-13 0 0)
(5.180077704246594e-14 0 0)
(4.980430159907833e-13 0 0)
(3.919053146910874e-13 0 0)
(1.842811718918415e-13 0 0)
(5.213199890242603e-13 0 0)
(3.124402963106014e-13 0 0)
(3.669799851201845e-13 0 0)
(5.187130730049206e-13 0 0)
(4.204621176370347e-13 0 0)
(2.710325940979294e-14 0 0)
(5.487532378035956e-13 0 0)
(5.486542409926974e-13 0 0)
(4.702797778419127e-13 0 0)
(3.643070712269833e-13 0 0)
(4.966884692655023e-13 0 0)
(3.132338611076452e-13 0 0)
(7.056341598530859e-13 0 0)
(3.145224099590409e-13 0 0)
(3.120773080041195e-13 0 0)
(1.126261272174746e-12 0 0)
(2.074921470514195e-13 0 0)
(5.199324433620507e-13 0 0)
(4.479283653533022e-13 0 0)
(4.928967721361212e-14 0 0)
(9.694133490623321e-13 0 0)
(-2.796123177058897e-14 0 0)
(7.054031672943993e-13 0 0)
(4.702797778418615e-13 0 0)
(7.797847590739434e-14 0 0)
(5.4855524418188e-13 0 0)
(5.486872399296909e-13 0 0)
(2.347604011459971e-13 0 0)
(6.755279971804857e-13 0 0)
(5.277861903568104e-13 0 0)
(2.572108104454523e-13 0 0)
(2.635481966505969e-13 0 0)
(4.192065677225853e-13 0 0)
(4.42615536503901e-13 0 0)
(3.136298483511093e-13 0 0)
(5.184490815093664e-13 0 0)
(1.865580985415717e-13 0 0)
(7.056341598530744e-13 0 0)
(3.13299858981584e-13 0 0)
(4.40305610917204e-13 0 0)
(1.079196438951362e-13 0 0)
(3.133988557924442e-13 0 0)
(5.486872399296943e-13 0 0)
(3.907487615875321e-13 0 0)
(-2.677167973007263e-14 0 0)
(8.114088728462604e-13 0 0)
(3.099323771021778e-13 0 0)
(4.737462565321718e-13 0 0)
(4.702797778418693e-13 0 0)
(6.270947020174746e-13 0 0)
(1.565509326799233e-13 0 0)
(7.056011609161215e-13 0 0)
(1.840501793331661e-13 0 0)
(5.486542409927117e-13 0 0)
(5.721952055218378e-13 0 0)
(2.588261680459237e-13 0 0)
(4.464120045636884e-13 0 0)
(5.751289302901765e-13 0 0)
(5.487202388666605e-13 0 0)
(6.558494985851254e-13 0 0)
(3.643070712269738e-13 0 0)
(7.840086230038311e-13 0 0)
(4.704117735897173e-13 0 0)
(7.565093763506568e-13 0 0)
(3.109569344579219e-13 0 0)
(8.140487878024391e-13 0 0)
(3.918393168171804e-13 0 0)
(8.625150819025305e-13 0 0)
(4.979110202429539e-13 0 0)
(7.840416219407979e-13 0 0)
(5.722612033957398e-13 0 0)
(7.556498136796622e-13 0 0)
(2.90750452871271e-13 0 0)
(8.117718611527047e-13 0 0)
(4.428135301256062e-13 0 0)
(6.273586935130906e-13 0 0)
(7.055681619791578e-13 0 0)
(8.626800765872964e-13 0 0)
(7.05700157726898e-13 0 0)
(9.151376517484118e-13 0 0)
(3.867904794633894e-13 0 0)
(7.094636268497869e-13 0 0)
(6.264331329681453e-13 0 0)
(6.547589433554953e-13 0 0)
(6.285152466166581e-13 0 0)
(7.83414642138535e-14 0 0)
(8.616555192314468e-13 0 0)
(7.059311502856607e-13 0 0)
(2.873201537383855e-13 0 0)
(6.263341361573544e-13 0 0)
(2.639111849570587e-13 0 0)
(8.628450712720384e-13 0 0)
(3.126712888692715e-13 0 0)
(6.784319036324168e-13 0 0)
(5.501737824027357e-13 0 0)
(1.84347169765743e-13 0 0)
(9.911691903755838e-13 0 0)
(3.932268624794005e-13 0 0)
(4.195365570921244e-13 0 0)
(4.704777714636308e-13 0 0)
(4.705107704005695e-13 0 0)
)
;

boundaryField
{
    inlet
    {
        type            zeroGradient;
    }
    outlet
    {
        type            pressureInletOutletVelocity;
        value           uniform (4.705107704005695e-13 0 0);
    }
    frontAndBack
    {
        type            empty;
    }
}


// ************************************************************************* //
