/*--------------------------------*- C++ -*----------------------------------*\
| =========                 |                                                 |
| \\      /  F ield         | OpenFOAM: The Open Source CFD Toolbox           |
|  \\    /   O peration     | Version:  v2012                                 |
|   \\  /    A nd           | Website:  www.openfoam.com                      |
|    \\/     M anipulation  |                                                 |
\*---------------------------------------------------------------------------*/
FoamFile
{
    version     2.0;
    format      ascii;
    class       volScalarField;
    location    "0.015";
    object      p;
}
// * * * * * * * * * * * * * * * * * * * * * * * * * * * * * * * * * * * * * //

dimensions      [1 -1 -2 0 0 0 0];


internalField   nonuniform List<scalar> 
1000
(
101310.8380170462
101313.3340008536
101306.3963552177
101300.8180738839
101294.6589044749
101289.1573530311
101284.4256158778
101280.3455766128
101276.8499584053
101274.4699989122
101273.6771844233
101273.6656812
101274.1098885295
101275.2732037428
101277.442413095
101280.6674254294
101284.8239724242
101289.72652656
101295.2173533122
101301.1840143735
101307.5355456828
101314.1779930931
101321.004985866
101327.9004661261
101334.7450141219
101341.4208547986
101347.8222361366
101353.8758529908
101359.5547979945
101364.8470360589
101369.5908412631
101373.1999425075
101374.9984786034
101375.3776960172
101375.3742830171
101375.0443986151
101374.1874304544
101372.5654723091
101369.9867323878
101366.365922324
101361.7530905712
101356.3097590566
101350.2480825255
101343.7684685005
101337.0266396058
101330.1365243458
101323.1924127023
101316.2887791548
101309.5242680542
101302.9851627231
101296.7210556734
101290.7508428548
101285.144001267
101280.2250096539
101276.7380287203
101275.1783875065
101274.8786091323
101274.904096069
101275.2241333204
101276.0042906271
101277.4383703095
101279.708488177
101282.9389028669
101287.1600706494
101292.2967375615
101298.1858676477
101304.6173122375
101311.3799329358
101318.2948629094
101325.2278437542
101332.0848852788
101338.801956157
101345.3410244171
101351.6882321565
101357.8211238374
101363.6201711334
101368.6958452374
101372.2479294875
101373.7804671141
101374.0910790689
101374.1223708276
101373.8712320494
101373.2211106476
101371.9917198658
101370.0131293703
101367.1499343834
101363.3306366701
101358.5662038626
101352.9549791099
101346.6685403336
101339.9203909606
101332.9277448938
101325.8781492087
101318.9091361115
101312.1038773057
101305.4973537199
101299.0913496142
101292.9021724332
101287.0706110882
101282.0452302064
101278.6401135381
101277.2207367341
101276.9380243804
101276.9200819994
101277.1678959074
101277.7857145861
101278.9256516738
101280.7391847796
101283.3563098969
101286.8600904028
101291.2686286357
101296.5256119621
101302.5036050514
101309.0215957466
101315.8736688057
101322.8623915481
101329.8283397295
101336.6664991977
101343.328107349
101349.8075659097
101356.0873740767
101362.0259458294
101367.2093015952
101370.8474637149
101372.4336342212
101372.7853107455
101372.8721279146
101372.7002806264
101372.2136357608
101371.2558466905
101369.6833654337
101367.3671062366
101364.2096885632
101360.1613341847
101355.233868886
101349.5071022516
101343.1231233363
101336.268209689
101329.1446834389
101321.938412656
101314.7928718467
101307.7974469687
101300.9941581286
101294.4303988194
101288.2864133266
101283.0499339125
101279.5368104153
101278.0863644845
101277.7777249779
101277.7177589802
101277.9067844532
101278.4041621901
101279.3479122873
101280.8680383892
101283.0847492655
101286.0912695311
101289.9399998536
101294.6312809486
101300.107066581
101306.2524590698
101312.9069129081
101319.8855860881
101327.0078762917
101334.1235047497
101341.1279313016
101347.963977772
101354.5781797012
101360.8019595376
101366.2102106187
101370.0457521866
101371.7788135251
101372.1895041715
101372.3080671738
101372.1968161403
101371.8226439211
101371.0467797433
101369.7386760007
101367.7782678534
101365.0644876691
101361.5262388473
101357.1355050538
101351.9173135408
101345.952900592
101339.3746820284
101332.3517127454
101325.0657527677
101317.6853116755
101310.3471796184
101303.149620646
101296.1889189762
101289.6870950279
101284.1625176288
101280.4308387114
101278.8587597521
101278.5078265606
101278.4127564414
101278.5473474531
101278.9446217402
101279.7313752101
101281.0252589942
101282.9380272675
101285.5642059081
101288.9700835095
101293.1838381879
101298.1881412559
101303.9167849983
101310.2572341149
101317.0612864065
101324.1644093644
101331.4079950403
101338.6563036362
101345.8069871734
101352.7670531324
101359.3385598204
101365.0719657012
101369.2198253275
101371.195303352
101371.6848820731
101371.826157198
101371.7709733622
101371.4891504477
101370.8611054351
101369.7656949854
101368.0902891884
101365.734969444
101362.6195877434
101358.6947925302
101353.9517009151
101348.4276209745
101342.2070047312
101335.415842153
101328.2073638127
101320.7428078094
101313.1756379791
101305.6417442752
101298.2820984238
101291.3613415196
101285.4430882013
101281.3762846843
101279.5925509607
101279.180816593
101279.0642134465
101279.1515133975
101279.4662588968
101280.1232470339
101281.2314407815
101282.8948374666
101285.2059870819
101288.2376518706
101292.0341689695
101296.6044518102
101301.9172396859
101307.8997150281
101314.4416055691
101321.4067432567
101328.6494637099
101336.0283966381
101343.4165959555
101350.6912699591
101357.6335978985
101363.7657650461
101368.3208996893
101370.6379693889
101371.2519134152
101371.4026524568
101371.3992848831
101371.1934139952
101370.6884008801
101369.7710290755
101368.3349973023
101366.282029183
101363.5274405916
101360.0097158703
101355.6987563317
101350.6013781609
101344.7644675606
101338.2743649295
101331.2497019624
101323.8289945084
101316.1603673134
101308.3950872091
101300.6997423548
101293.3606829994
101286.9755918632
101282.4506212993
101280.3360662932
101279.8192517722
101279.6903272481
101279.7345249827
101279.9798800969
101280.5260322815
101281.4749777294
101282.9250290109
101284.9669864274
101287.6767979625
101291.1079736605
101295.2860494911
101300.2042231846
101305.8203222707
101312.0571088802
101318.80847525
101325.9506261017
101333.3515757087
101340.8767177395
101348.3867793179
101355.6619258318
101362.2194894398
101367.2649014031
101370.0499766811
101370.8740403366
101371.0293515009
101371.0731766635
101370.9263196546
101370.5251034342
101369.7592701135
101368.5284434261
101366.7359715088
101364.2946832993
101361.1358416901
101357.2156173681
101352.5193800285
101347.0655432465
101340.9077542019
101334.1322733259
101326.8505448057
101319.1934328486
101311.3100542779
101303.3756757423
101295.6743587969
101288.804009935
101283.7240528045
101281.1408353506
101280.4401623252
101280.3047158761
101280.3065856236
101280.4923802437
101280.9419928219
101281.7511431834
101283.0140350601
101284.8203755774
101287.2479682323
101290.3558422933
101294.1803085374
101298.7316362201
101303.9905614838
101309.9065522282
101316.4004231079
101323.3715599017
101330.7042104206
101338.2689841916
101345.9226894832
101353.458917691
101360.4236592929
101366.0032676398
101369.361487338
101370.5082761356
101370.6960293911
101370.7681136332
101370.6725006988
101370.3614277259
101369.7284515835
101368.6774264695
101367.1141126681
101364.9498719172
101362.1109322997
101358.5443158074
101354.2207250282
101349.1376927364
101343.3228584766
101336.83449204
101329.7578271791
101322.2022988248
101314.3049467353
101306.238326808
101298.2672399994
101290.946722134
101285.2537959997
101282.0639209116
101281.0652017443
101280.9079027964
101280.8736158298
101281.0099517067
101281.3754186432
101282.062304547
101283.1598490322
101284.7564360451
101286.9314742285
101289.7482548779
101293.2508430756
101297.4618591819
101302.3792071053
101307.973307916
101314.1873237105
101320.9416562822
101328.1387991101
101335.6621496105
101343.3718193724
101351.0769220561
101358.3817011995
101364.4992533512
101368.5089956116
101370.1231789064
101370.4064806865
101370.4875854776
101370.4342738377
101370.1974942722
101369.6778589687
101368.7848523945
101367.4269018513
101365.5130197657
101362.964142417
101359.7202879164
101355.7420097064
101351.0118299806
101345.5376283645
101339.35513459
101332.5267308367
101325.1403011087
101317.3152364121
101309.2119822412
101301.0682292806
101293.3685012839
101287.0573657428
101283.1683836739
101281.7425244635
101281.5097934185
101281.4545136553
101281.5475075167
101281.8372610542
101282.4138377648
101283.3614916448
101284.7673505217
101286.7128442327
101289.264738575
101292.4723135051
101296.3667913487
101300.9589364305
101306.2357053677
101312.158786367
101318.6670600988
101325.6802841639
101333.0965855408
101340.7855841467
101348.5738166251
101356.1358970794
101362.7581184925
101367.448030902
101369.6634718102
101370.1422674296
101370.2224464809
101370.2038267642
101370.0318355801
101369.6128925482
101368.8609175456
101367.6874091349
101366.0003119092
101363.7163728279
101360.7697734471
101357.1131200699
101352.7176353216
101347.5760050131
101341.7057970801
101335.1503158152
101327.9782609274
101320.2899091386
101312.2291819018
101304.0085790229
101296.0315437365
101289.1487323149
101284.5061061153
101282.4982460357
101282.0942202868
101282.0306608006
101282.0900707259
101282.3167720924
101282.7973342917
101283.6111718013
101284.8433581377
101286.5775598106
101288.8845139321
101291.8181683945
101295.4163761604
101299.6997497961
101304.6682504405
101310.2986375395
101316.5452412688
101323.3428065609
101330.6046787696
101338.2147556286
101346.0152577499
101353.7407741705
101360.7896118341
101366.1480218826
101369.0650955491
101369.8932523969
101369.9732168829
101369.9829186192
101369.861404778
101369.5268138221
101368.8980306274
101367.8904738935
101366.4122045344
101364.3751423868
101361.7066508092
101358.3523600905
101354.2752836823
101349.4568998097
101343.900463802
101337.6334714329
101330.7080852108
101323.206176903
101315.252746556
101307.0356907715
101298.8840457128
101291.5131677485
101286.1040195694
101283.3958971999
101282.6877810006
101282.6140878001
101282.6426196985
101282.8167607101
101283.2136266102
101283.9088410073
101284.9841375817
101286.5242010367
101288.6036059804
101291.2808694175
101294.5994319324
101298.587737733
101303.2563032058
101308.5945612426
101314.5700091799
101321.130266815
101328.203009622
101335.6870815626
101343.4388440875
101351.2375511815
101358.6130427848
101364.6139784046
101368.2835490855
101369.607201842
101369.7574803174
101369.7760455119
101369.6898469009
101369.4259175535
101368.9016420876
101368.0398761438
101366.7497577455
101364.9396900514
101362.5314207977
101359.4642503712
101355.6935696442
101351.1911308298
101345.9482423506
101339.9790302601
101333.3215578142
101326.0409967305
101318.2429366366
101310.0925400918
101301.8619033325
101294.1234109051
101287.9908321154
101284.489938082
101283.3285321217
101283.1954164272
101283.205348974
101283.3362304006
101283.6626854262
101284.2539884338
101285.1873229063
101286.5479442206
101288.4148112699
101290.8513510181
101293.9056675702
101297.6122296749
101301.990098329
101307.0393795585
101312.739078581
101319.0482698511
101325.9069826155
101333.2280270891
101340.8841961106
101348.6888422628
101356.2815437072
101362.8410159545
101367.2708442444
101369.227439371
101369.579188008
101369.5810034306
101369.5227096193
101369.3151647938
101368.8811618757
101368.1474545628
101367.0271507894
101365.4274970563
101363.2647126862
101360.4708465528
101356.9938381668
101352.7975500624
101347.8638750774
101342.1957310569
101335.8189177226
101328.7842950263
101321.1794255723
101313.1470893783
101304.9150893555
101296.9327077218
101290.161675721
101285.8178283718
101284.0690234988
101283.7726394963
101283.7745224126
101283.8694956167
101284.1362214659
101284.6381776812
101285.4467371698
101286.64505113
101288.3150673316
101290.5248460931
101293.3272619248
101296.762482259
101300.85705584
101305.6203708151
101311.0419008662
101317.0910232253
101323.7179674852
101330.8490312274
101338.3742585934
101346.1303660617
101353.8311712811
101360.8334105978
101366.0214221348
101368.7071973013
101369.393017985
101369.4135112417
101369.3713096604
101369.2017433387
101368.8416191373
101368.217089785
101367.2474366377
101365.8397578115
101363.9054307781
101361.3705107182
101358.1765317029
101354.2796361338
101349.6524294062
101344.2873458673
101338.1993372017
101331.427620166
101324.0430377647
101316.1664228085
101307.9942738683
101299.8833329173
101292.6027486491
101287.4160197044
101284.9554473812
101284.3560618986
101284.3367437395
101284.4057210028
101284.6230302449
101285.049599303
101285.7494529412
101286.8016472293
101288.2901884868
101290.2879798988
101292.8525751304
101296.0287377366
101299.8489422372
101304.3305485317
101309.4726009758
101315.2543097714
101321.6358412023
101328.5562799575
101335.9204846747
101343.582818721
101351.3132918148
101358.6304063388
101364.5167894981
101367.9758713664
101369.1641997564
101369.2885818616
101369.2345130268
101369.097679863
101368.7939772989
101368.2585197835
101367.4173595559
101366.1802052138
101364.4564314928
101362.166766262
101359.2454304344
101355.6403152897
101351.3155419176
101346.2545582406
101340.4624989632
101333.9676166378
101326.8256820536
101319.13788502
101311.0746979876
101302.9210992942
101295.2738687605
101289.3048851899
101286.04077753
101284.9966704394
101284.8959130929
101284.9567244377
101285.1260206859
101285.4882085157
101286.0950396633
101287.0185541613
101288.3426102674
101290.1442074701
101292.4851668227
101295.4143312899
101298.9693819407
101303.1746534883
101308.0376653079
101313.5469574019
101319.6721951731
101326.3632068577
101333.5396927776
101341.0760830047
101348.7801599074
101356.2806360828
101362.7465908109
101367.0175453306
101368.859778286
101369.1689935049
101369.1274931226
101369.0119106733
101368.7512173772
101368.2879015634
101367.5547556867
101366.4682154685
101364.9358304369
101362.8731904971
101360.2090539022
101356.8850709425
101352.8575274836
101348.1007194973
101342.6097957963
101336.4025894917
101329.5224540319
101322.0515586163
101314.1349298459
101306.011692217
101298.1456796718
101291.5128075634
101287.3598875747
101285.7311668892
101285.4564816932
101285.5023313626
101285.6365402252
101285.9462990818
101286.4753925937
101287.2877368154
101288.463484044
101290.0826703124
101292.2123938854
101294.9064538364
101298.2073449675
101302.1448754347
101306.7332545984
101311.9689718038
101317.8301040801
101324.2763012252
101331.2430715184
101338.6241628347
101346.249978663
101353.8276418292
101360.7289432013
101365.8149317538
101368.3772051328
101369.0410541602
101369.0586366998
101368.9500361863
101368.7211746724
101368.3122808649
101367.6652927775
101366.705342478
101365.34244425
101363.4895123878
101361.0698797824
101358.017607017
101354.2801378223
101349.8232183043
101344.633831003
101338.7212886984
101332.1185135391
101324.8897842069
101317.1546395191
101309.1179814467
101301.1431542743
101293.99261909
101288.9445910235
101286.6159754284
101286.0372874439
101286.0289881904
101286.1423266814
101286.4045455969
101286.8701261008
101287.5889100478
101288.6343802672
101290.0871485332
101292.0188915274
101294.4890924733
101297.5460537642
101301.2253577236
101305.5469988767
101310.5135529472
101316.1096117435
101322.3025078215
101329.0397825358
101336.2337721572
101343.7402669315
101351.3255077194
101358.5124361426
101364.313299007
101367.6798616342
101368.8824026408
101369.0037759264
101368.9116720443
101368.716725228
101368.3478309209
101367.7637172061
101366.9043234399
101365.6877058947
101364.02541053
101361.8350250116
101359.0431577864
101355.5885122861
101351.427347467
101346.5377708692
101340.921444043
101334.6036037055
101327.6356405534
101320.1139714711
101312.211619094
101304.2197756529
101296.7256764839
101290.870814049
101287.6981301543
101286.6688652111
101286.5443643788
101286.6397455059
101286.8554950199
101287.272757926
101287.9212640587
101288.8618846164
101290.1695744461
101291.9176436871
101294.1716658622
101296.9888191583
101300.4139698473
101304.4745767958
101309.1786112764
101314.514938164
101320.4546988149
101326.9521602505
101333.9359597079
101341.2876275517
101348.8124146842
101356.14349899
101362.5073849987
101366.7548861733
101368.5719209395
101368.9522845995
101368.9159796016
101368.7468268587
101368.4147631719
101367.8780001425
101367.0912315004
101365.9870004365
101364.4852617726
101362.5045501662
101359.9646953273
101356.7913991233
101352.926067376
101348.3348223485
101343.0114609365
101336.9762917038
101330.2751381026
101322.9886760703
101315.2593405214
101307.3270919069
101299.6443563448
101293.1374898457
101289.0313555197
101287.4327419602
101287.109746882
101287.1219368618
101287.299316947
101287.6654446539
101288.2585377571
101289.1223212147
101290.3185713417
101291.9125100662
101293.967746672
101296.5477612933
101299.7115401688
101303.5028803711
101307.9419327512
101313.0236302722
101318.7202903885
101324.9857870714
101331.7548640226
101338.9254944717
101346.3358295545
101353.7108961209
101360.4578774729
101365.5083488556
101368.075922815
101368.8366605574
101368.9201194669
101368.804896602
101368.5313710364
101368.0369846629
101367.2974912255
101366.2660302673
101364.8806695722
101363.070834771
101360.7594312719
101357.8650348567
101354.3105558097
101350.0370568489
101345.0169260112
101339.260810006
101332.8151438777
101325.7578481096
101318.2161175863
101310.3953802796
101302.6404527536
101295.6745818467
101290.7027811755
101288.3689062944
101287.7398904339
101287.6431862366
101287.7400401967
101288.025427629
101288.5522339546
101289.3562570892
101290.4810216607
101291.9719058873
101293.8752590557
101296.245103
101299.1462145039
101302.6446079076
101306.7896077354
101311.5986104569
101317.0522796233
101323.1004177264
101329.6724282878
101336.6715519483
101343.9521060846
101351.2932270497
101358.2564325634
101363.932614081
101367.3501615957
101368.5982244306
101368.8193262685
101368.832083491
101368.6611186894
101368.2636396736
101367.5891568606
101366.6005015439
101365.2633495116
101363.5439617546
101361.3972205082
101358.7544304233
101355.5250194107
101351.6144862612
101346.95011848
101341.5042958993
101335.3104221933
101328.4581546941
101321.0844343986
101313.3859725828
101305.638666309
101298.38193796
101292.6894375573
101289.5012123168
101288.4417837154
101288.2766979828
101288.2764468851
101288.4451288008
101288.8359294709
101289.5106312134
101290.5363051652
101291.9657976488
101293.8234226673
101296.1127894053
101298.8402900258
101302.0383215108
101305.7812711012
101310.1815051165
101315.3366090495
101321.239773539
101327.7180786787
101334.6078057135
101341.5347674178
101349.4925686002
)
;

boundaryField
{
    inlet
    {
        type            uniformFixedValue;
        uniformValue    sine;
        uniformValueCoeffs
        {
            frequency       constant 3000;
            scale           constant 50;
            level           constant 101325;
        }
        value           uniform 101323.6421297957;
    }
    outlet
    {
        type            pressureOutletNSCBC;
        pInf            101325;
        gamma           1.4;
        etaAc           1;
        fieldInf        1;
        lInf            2.25;
        value           uniform 101353.206532019;
    }
    frontAndBack
    {
        type            empty;
    }
}


// ************************************************************************* //
