/*--------------------------------*- C++ -*----------------------------------*\
| =========                 |                                                 |
| \\      /  F ield         | OpenFOAM: The Open Source CFD Toolbox           |
|  \\    /   O peration     | Version:  v2012                                 |
|   \\  /    A nd           | Website:  www.openfoam.com                      |
|    \\/     M anipulation  |                                                 |
\*---------------------------------------------------------------------------*/
FoamFile
{
    version     2.0;
    format      ascii;
    class       volScalarField;
    location    "0.015";
    object      pMean;
}
// * * * * * * * * * * * * * * * * * * * * * * * * * * * * * * * * * * * * * //

dimensions      [1 -1 -2 0 0 0 0];


internalField   nonuniform List<scalar> 
1000
(
101325.0434225501
101325.0026922561
101325.012314263
101325.0214175396
101325.0337764021
101325.0487595914
101325.0645570407
101325.0844804719
101325.1055220172
101325.12860074
101325.1523167671
101325.1758445013
101325.1993809137
101325.222528926
101325.2450603606
101325.2664158103
101325.2861928677
101325.3039662889
101325.3193370859
101325.3321596155
101325.3421203425
101325.3491078519
101325.3529374957
101325.3535761632
101325.3509573446
101325.3451932299
101325.3363909216
101325.3247095795
101325.3102519148
101325.2933000817
101325.2739752434
101325.2526829457
101325.2300828668
101325.2070183517
101325.1838966067
101325.1609015273
101325.1381357834
101325.1158728403
101325.0944741932
101325.0744110473
101325.0561895943
101325.0401695905
101325.0267838185
101325.0162833658
101325.0088161558
101325.0045141549
101325.0034249663
101325.0055896741
101325.0108917718
101325.0193492508
101325.0307660456
101325.0450050845
101325.0619330737
101325.0813422299
101325.1027499384
101325.1253377313
101325.1483206338
101325.1713290221
101325.1942362959
101325.2169560005
101325.2392310756
101325.260756357
101325.2810924991
101325.299897463
101325.3165341674
101325.3307469038
101325.3421389618
101325.350502924
101325.3556902514
101325.3576520294
101325.3563576962
101325.3518812685
101325.3443235148
101325.3337832222
101325.3203050012
101325.3040488502
101325.2852262402
101325.2643331825
101325.2422330375
101325.2197646943
101325.1972769428
101325.1749052434
101325.1526971705
101325.1309156299
101325.1097510989
101325.0896194642
101325.0709534517
101325.0541631162
101325.0396693283
101325.027924597
101325.0191431017
101325.0135436033
101325.0111990801
101325.0121429673
101325.0162709941
101325.0235442472
101325.0338665462
101325.0471290408
101325.0631427528
101325.0817926895
101325.1024108894
101325.1241678149
101325.146216456
101325.1683573647
101325.1903507572
101325.2121951321
101325.233695831
101325.2545937264
101325.2745664542
101325.2932819992
101325.3102461441
101325.3250705065
101325.3373761226
101325.3468370882
101325.3532256379
101325.3563932417
101325.3562588442
101325.3529337733
101325.3463866637
101325.3368372678
101325.3242906728
101325.3088491597
101325.2908039943
101325.2706152798
101325.2491835157
101325.2273519745
101325.205523427
101325.1837900234
101325.1621690849
101325.140913048
101325.1201319549
101325.1001980318
101325.0813843003
101325.0642116201
101325.0489145607
101325.0360919199
101325.0259788625
101325.018942014
101325.0150730019
101325.0145934621
101325.0174370911
101325.0235746656
101325.0329626484
101325.0455123262
101325.0609812735
101325.0792160775
101325.0995137405
101325.1209916982
101325.1427552782
101325.1645622633
101325.1863223609
101325.2079047996
101325.2291749736
101325.2499892257
101325.2700004766
101325.2889267867
101325.3064232176
101325.3220110744
101325.3353478015
101325.3460914736
101325.3539166994
101325.3585641515
101325.3599279479
101325.3579851446
101325.3526746844
101325.3441668688
101325.3324995567
101325.3178160288
101325.3003297505
101325.2806511842
101325.2595779441
101325.2381198082
101325.216505872
101325.1951477916
101325.1738282695
101325.1527994772
101325.1322093881
101325.1123142562
101325.093359818
101325.0758320277
101325.0599409456
101325.0462330489
101325.0350157682
101325.0267202648
101325.0214154166
101325.0195621428
101325.0210302869
101325.0260013331
101325.0343125063
101325.0460296796
101325.0608953521
101325.0786297149
101325.0986148644
101325.1198445782
101325.1414319934
101325.162944376
101325.1845828141
101325.2059884487
101325.2270889857
101325.2478320845
101325.2678688789
101325.2869888756
101325.3048162731
101325.3210381404
101325.3351706936
101325.3469803455
101325.3560331149
101325.3621123594
101325.3649213966
101325.3643867778
101325.3604681738
101325.353136455
101325.3425167424
101325.3287447026
101325.3119453491
101325.2928362085
101325.2721447395
101325.251005974
101325.2296401122
101325.2085741895
101325.187519346
101325.1666969883
101325.1462578141
101325.1264444062
101325.1074486136
101325.0896319715
101325.0733408228
101325.0589358227
101325.0468189791
101325.0373799681
101325.0309164789
101325.0276260458
101325.0277317973
101325.0314158505
101325.0385488771
101325.0492533902
101325.0633478498
101325.0805070538
101325.1000996225
101325.1211052277
101325.1425351042
101325.1638716094
101325.1853461719
101325.2066462135
101325.2276222599
101325.2482870728
101325.268363507
101325.2876304479
101325.3057096793
101325.3224400215
101325.3372380855
101325.3499481857
101325.3600684515
101325.3674852715
101325.3716026996
101325.3725476374
101325.3700188175
101325.3640590839
101325.3545904402
101325.3418426143
101325.3259216039
101325.3074264724
101325.2871914626
101325.2663289522
101325.2452963933
101325.2243114957
101325.2035956055
101325.1829865581
101325.1626906224
101325.1429771857
101325.1239734469
101325.105996364
101325.0893749604
101325.074456391
101325.0615860228
101325.0511990691
101325.0436502944
101325.0390537487
101325.0378689739
101325.0402127777
101325.0461291784
101325.0556729188
101325.0688163051
101325.0853002337
101325.1043782216
101325.1251515829
101325.14639843
101325.1677399797
101325.1888153709
101325.2101777824
101325.2310843798
101325.2516945825
101325.271775037
101325.2911727195
101325.309509412
101325.32658068
101325.3419916052
101325.3554421175
101325.3665206467
101325.3750788357
101325.380469952
101325.3828236909
101325.3816895876
101325.377144685
101325.3689628928
101325.3573588471
101325.3424570641
101325.3247075299
101325.3050088199
101325.2844322339
101325.2637573166
101325.2428238764
101325.2224265287
101325.2020365894
101325.1818845564
101325.1622412304
101325.1432785649
101325.1252238925
101325.1083143986
101325.093015116
101325.0795228876
101325.0683418208
101325.059784079
101325.0541351423
101325.0516767744
101325.0526937178
101325.057341222
101325.0656879014
101325.0777189881
101325.0933395305
101325.111825668
101325.1322567808
101325.1533555374
101325.1746368306
101325.1955479772
101325.2168449659
101325.2377303353
101325.2582844779
101325.27837264
101325.2978816824
101325.316444902
101325.3338175833
101325.3497330352
101325.3638288184
101325.3757667411
101325.3852451142
101325.3920235392
101325.3955349273
101325.3957994961
101325.3926445677
101325.3858677235
101325.3754919318
101325.3616895372
101325.3448820429
101325.3257904942
101325.3055936655
101325.2851571783
101325.264533327
101325.2441971784
101325.2241059737
101325.2040807276
101325.1845486112
101325.1655899462
101325.1475119817
101325.1304230267
101325.1147710969
101325.1008019497
101325.0889555283
101325.0794829643
101325.0729573393
101325.0692312326
101325.06903643
101325.0723968481
101325.0795305522
101325.0903493306
101325.1049293271
101325.1227046384
101325.1426824942
101325.1636267268
101325.184769769
101325.2057795758
101325.2266355858
101325.2476905703
101325.2682291586
101325.2883665654
101325.3079295012
101325.3267242316
101325.34440701
101325.3606952526
101325.3753929905
101325.3880696036
101325.3984355938
101325.4063191169
101325.4109856563
101325.4126197196
101325.4108201123
101325.4054627908
101325.3964460404
101325.3838357299
101325.3680770038
101325.3497483418
101325.3300114283
101325.3097881787
101325.2896319279
101325.2691195418
101325.2493951674
101325.2295832258
101325.2101454762
101325.1912017692
101325.1731073594
101325.1559210708
101325.1399623552
101325.1256006168
101325.1131702463
101325.1029567555
101325.0955267237
101325.0907633656
101325.0894375039
101325.0915124578
101325.0973898251
101325.1070134704
101325.120414696
101325.1372958195
101325.156742227
101325.1774581125
101325.1984731236
101325.2195412602
101325.2401158288
101325.2612226134
101325.2818207057
101325.3019537541
101325.3216051248
101325.340550449
101325.3585502737
101325.3752085359
101325.3903965423
101325.4037353561
101325.4149524206
101325.4236818149
101325.4297215216
101325.4324826436
101325.4319998526
101325.4280315419
101325.4204450875
101325.4091185082
101325.3944733526
101325.3770705087
101325.3578942432
101325.3379578848
101325.3180903708
101325.2978180797
101325.2781854102
101325.2586482421
101325.2392725428
101325.2204098472
101325.2022405785
101325.1850231095
101325.1688604974
101325.1541117282
101325.1411979022
101325.1303861112
101325.1220136531
101325.1165963962
101325.1139733333
101325.1148951427
101325.1195182917
101325.1279075719
101325.1401133509
101325.1559159019
101325.1746925187
101325.1950823974
101325.2159761944
101325.2369471955
101325.2576589231
101325.2783242861
101325.2991292549
101325.3192977521
101325.339066249
101325.3581113381
101325.376406378
101325.3934400127
101325.4090380053
101325.422969539
101325.4349489175
101325.4445064021
101325.4517138635
101325.4555014997
101325.4563695758
101325.453743324
101325.4475673748
101325.4376651517
101325.4241997916
101325.4077982048
101325.3893224163
101325.3697862765
101325.3501037612
101325.3303950456
101325.3104275248
101325.2913071599
101325.2721250469
101325.2533370865
101325.2351424056
101325.2178389785
101325.2015814335
101325.1865113989
101325.1731664929
101325.1618010587
101325.1527064196
101325.1464526643
101325.1427743267
101325.1426606344
101325.1460110072
101325.1531611051
101325.1641615507
101325.1788014874
101325.1967149975
101325.2166984429
101325.2374714289
101325.258263107
101325.2791848906
101325.2994044597
101325.3203871671
101325.3406613319
101325.3604621586
101325.3796607866
101325.3981216531
101325.4155797275
101325.4315626105
101325.446038885
101325.4586669845
101325.4690915494
101325.4770925979
101325.4822513116
101325.484234912
101325.4828782929
101325.4780972397
101325.4696120302
101325.4574929619
101325.4421046544
101325.4245085003
101325.4054238258
101325.3859453754
101325.3666680479
101325.346825777
101325.3278468979
101325.3089152217
101325.2901611501
101325.272022624
101325.2545867165
101325.2382781775
101325.2229713177
101325.2092533906
101325.19734584
101325.1876932433
101325.1804501984
101325.1762828924
101325.1748281426
101325.1770387447
101325.182964243
101325.192705785
101325.206215656
101325.2230606165
101325.2425454163
101325.2629864027
101325.2837347712
101325.3046156332
101325.3250021983
101325.3455112689
101325.3660559634
101325.3859339719
101325.405306298
101325.423923186
101325.4416962252
101325.458179323
101325.4730359227
101325.4863535092
101325.4975517016
101325.5063240079
101325.5127510337
101325.5156373554
101325.515641394
101325.5121910791
101325.5051212795
101325.494433914
101325.4801875109
101325.4634811318
101325.444997454
101325.4258810057
101325.406773452
101325.3875965365
101325.368164085
101325.3497013896
101325.3311161357
101325.3130263447
101325.2955414499
101325.2790579327
101325.2637479983
101325.2494835885
101325.2373947488
101325.2270542922
101325.2190726322
101325.214119667
101325.2115783564
101325.2128137191
101325.2174638869
101325.2259933199
101325.2382850109
101325.2541161978
101325.2727225454
101325.293091936
101325.3134993064
101325.3343030915
101325.3550001248
101325.3749826152
101325.3957861635
101325.4157963622
101325.4352420284
101325.4540702585
101325.4720205648
101325.4890537085
101325.504207048
101325.5183332926
101325.530073583
101325.5397397209
101325.5469342858
101325.551244545
101325.5523247602
101325.5501295336
101325.5444646109
101325.5351611189
101325.5223020919
101325.5063779218
101325.4888835796
101325.4698893588
101325.4511539149
101325.4324039976
101325.4130676854
101325.3947419012
101325.376417546
101325.3583327129
101325.3408958168
101325.324240525
101325.3088245788
101325.294344834
101325.2818122842
101325.2709842162
101325.2624204488
101325.2564059959
101325.2535102536
101325.253306937
101325.2568539096
101325.2641782865
101325.2752237441
101325.2900022045
101325.307641082
101325.3276307972
101325.3478829012
101325.3685199367
101325.3892179414
101325.4094388016
101325.4296989409
101325.450053356
101325.4696101369
101325.4886519224
101325.5068172679
101325.5241394035
101325.5400124004
101325.5542669884
101325.5669754554
101325.5773591151
101325.5852940509
101325.5909977017
101325.5928557667
101325.592069367
101325.5877227975
101325.5798360513
101325.5683622422
101325.5535673442
101325.5367124405
101325.5184478562
101325.4997445419
101325.4814044362
101325.4627030322
101325.4438712239
101325.4260492149
101325.408117232
101325.3906848805
101325.3739775587
101325.3582808591
101325.343945675
101325.3305000495
101325.3197052252
101325.3103766268
101325.303620653
101325.2999796852
101325.2986692377
101325.3012633215
101325.3072813669
101325.3171736829
101325.3307405209
101325.34755857
101325.3667236986
101325.3870631269
101325.4073598577
101325.4281031431
101325.4485108325
101325.4682941532
101325.4889503527
101325.5086567715
101325.5277848495
101325.5462250989
101325.5637330746
101325.5802726197
101325.5947199538
101325.6083682386
101325.6193833504
101325.6281943831
101325.6346504445
101325.6380131651
101325.6382437193
101325.6351340355
101325.6286836329
101325.6185605506
101325.605125838
101325.5888773376
101325.5714888558
101325.5530990304
101325.5348543809
101325.5166748596
101325.4979739148
101325.4801905427
101325.462549178
101325.4451186129
101325.4284329653
101325.4125378997
101325.3980590612
101325.3843788142
101325.3731224874
101325.3633902815
101325.3558197273
101325.3511555102
101325.349599394
101325.3506549282
101325.3556166338
101325.3643197642
101325.3766942053
101325.3925575618
101325.4109175942
101325.4309745229
101325.451309533
101325.4716315258
101325.4923314451
101325.51227976
101325.5322988716
101325.5524650746
101325.5717339278
101325.5904217204
101325.6081812175
101325.6250602374
101325.640278636
101325.6541362375
101325.666046964
101325.6756380133
101325.6828268679
101325.6877764769
101325.6886121215
101325.6870275175
101325.6818149169
101325.6731561449
101325.6610109309
101325.6458698699
101325.6289324753
101325.6111650106
101325.5930476319
101325.5753261494
101325.5571707511
101325.5388685601
101325.521787221
101325.5044557196
101325.4877446745
101325.4717954685
101325.4569715328
101325.4435163059
101325.4311297505
101325.4213035126
101325.4133665537
101325.4076236215
101325.405416545
101325.4053730059
101325.4093788859
101325.4167273711
101325.4280239824
101325.4427304259
101325.4604602962
101325.4798396696
101325.5001453024
101325.5204646886
101325.5408764519
101325.561292439
101325.580747047
101325.601262799
101325.6207175979
101325.6395058166
101325.6575952241
101325.6746571805
101325.6906833716
101325.7045584907
101325.7174913928
101325.7280641223
101325.7356793323
101325.7415247518
101325.7441694207
101325.7433854502
101325.7394592647
101325.73221247
101325.7214066687
101325.7075051835
101325.6911953813
101325.6739184812
101325.6563484896
101325.6384660974
101325.6212122012
101325.6029164263
101325.5856079153
101325.5687295599
101325.5519785101
101325.5360415178
101325.5209836622
101325.5073888103
101325.4946673145
101325.4845034833
101325.4759705532
101325.4695315363
101325.4660932396
101325.4661043524
101325.4682094581
101325.4746934678
101325.4847046524
101325.498367795
101325.5151797675
101325.5341348682
101325.5540045054
101325.5744184524
101325.5945834621
101325.6151563021
101325.6350254886
101325.6544930532
101325.6746917239
101325.6936562735
101325.7120005349
101325.7293864299
101325.7457786447
101325.7604402489
101325.7736936833
101325.7848445761
101325.7939625686
101325.7999740917
101325.8043605345
101325.8042568845
101325.8019502374
101325.795800683
101325.7864907473
101325.7737602774
101325.7585453168
101325.7415508137
101325.7243902732
101325.7070363006
101325.6895947592
101325.6725511422
101325.6542597991
101325.6381095382
101325.6214841577
101325.6053885343
101325.5902909345
101325.5763031489
101325.5637923996
101325.5524273102
101325.5437233872
101325.5372213174
101325.5322808734
101325.5313559564
101325.5332938032
101325.5381933104
101325.5470374763
101325.559568675
101325.5753833966
101325.593839123
101325.6133578992
101325.6335545075
101325.6539462623
101325.6738704491
101325.6946812523
101325.713726769
101325.733545017
101325.7531351748
101325.7715974258
101325.7893751615
101325.8060662524
101325.8214962725
101325.834845238
101325.8471416469
101325.8569512324
101325.8639848863
101325.8687048611
101325.8711409439
101325.8688791939
101325.8645090611
101325.8563679448
101325.845014063
101325.8307667793
101325.8147020132
101325.7974473763
101325.7805851356
101325.7635077169
101325.7465381353
101325.7297311694
101325.7117068687
101325.6961621766
101325.680155678
101325.664874734
101325.650801636
101325.6379259042
101325.6264394062
101325.6170182208
101325.6096902196
101325.6051878052
101325.6020299524
101325.6036557611
101325.60738571
101325.6152913362
101325.6264913602
101325.6413162017
101325.6589156382
101325.6784208677
101325.6981450095
101325.7184670419
101325.7387745231
101325.7585643145
101325.779399286
101325.7974935788
101325.8179629622
101325.8368540287
101325.8545736399
101325.8718207134
101325.8876331537
101325.9018313924
101325.9141150023
101325.9249315685
101325.9334040975
101325.9384113607
101325.9415789011
101325.9419380155
101325.937797351
101325.9314014506
101325.9212438409
101325.9081435099
101325.8927699691
101325.8763579134
101325.8591856972
101325.8425772713
101325.8258979053
101325.8091967028
101325.7931166963
101325.7750110878
101325.7602034544
101325.7449733214
101325.7306478409
101325.717734538
101325.7057213918
101325.6957678647
101325.6881016475
101325.6826357698
101325.6800301071
101325.678982476
101325.6829681549
101325.6885957918
101325.6995922
101325.7129809582
101325.7297566437
101325.7486048859
101325.768550868
101325.7885065193
101325.8087283594
101325.8289835532
101325.8485769532
101325.8695456822
101325.8867157581
101325.9072569435
101325.9256624016
101325.9424570069
101325.959752282
101325.9735554512
101325.9870614442
101325.9982277846
101326.0071453132
101326.0143164064
101326.0171900038
101326.0186728386
101326.0168933953
101326.0145138544
)
;

boundaryField
{
    inlet
    {
        type            calculated;
        value           uniform 101324.9999999998;
    }
    outlet
    {
        type            calculated;
        value           uniform 101326.0069679403;
    }
    frontAndBack
    {
        type            empty;
    }
}


// ************************************************************************* //
