/*--------------------------------*- C++ -*----------------------------------*\
| =========                 |                                                 |
| \\      /  F ield         | OpenFOAM: The Open Source CFD Toolbox           |
|  \\    /   O peration     | Version:  v2012                                 |
|   \\  /    A nd           | Website:  www.openfoam.com                      |
|    \\/     M anipulation  |                                                 |
\*---------------------------------------------------------------------------*/
FoamFile
{
    version     2.0;
    format      ascii;
    class       volScalarField;
    location    "0.015";
    object      rho;
}
// * * * * * * * * * * * * * * * * * * * * * * * * * * * * * * * * * * * * * //

dimensions      [1 -3 0 0 0 0 0];


internalField   nonuniform List<scalar> 
1000
(
1.176300236569157
1.176324072751438
1.176269827404532
1.176223815277045
1.176169765553945
1.176121072968209
1.176080028840198
1.176045167127065
1.176015291127329
1.175994555007906
1.175987178806992
1.175986215045166
1.175988896610654
1.175997991682274
1.176015748248949
1.176042372646571
1.176076818957463
1.176117562620044
1.176163284541043
1.176213028352598
1.176266014095166
1.176321438385707
1.176378392609736
1.176435882808917
1.176492887729383
1.176548410948541
1.176601572108591
1.176651772076469
1.17669880177023
1.176742578181496
1.176781779305824
1.176811557377042
1.176826325211646
1.176829382020414
1.176829268086554
1.176826433301986
1.176819294681245
1.176805855364009
1.176784499434239
1.176754517610989
1.176716321937288
1.176671244279592
1.176621036563682
1.176567355048826
1.176511487151144
1.17645437541216
1.176396801328675
1.17633954977094
1.176283441796909
1.176229196885568
1.176177230162605
1.176127701408784
1.176081189120615
1.176040385815551
1.176011463578716
1.175998529772453
1.175996045673641
1.175996262202645
1.175998925630678
1.176005404225389
1.176017303730268
1.176036134500129
1.176062926871848
1.176097933159506
1.176140529270287
1.17618936337192
1.176242693037088
1.176298767688191
1.1763561044249
1.176413590291751
1.176470446187611
1.176526141277292
1.17658036013768
1.176632987699085
1.176683837631418
1.176731918840848
1.176774001767955
1.176803452109416
1.1768161583387
1.176818733603185
1.176818992920746
1.17681691047519
1.176811520032146
1.176801327046088
1.176784922647981
1.176761184104498
1.17672951844763
1.176690016345778
1.176643492844743
1.176591370198556
1.176535418352508
1.17647743813706
1.176418984530136
1.17636119791551
1.176304768008346
1.176249984968519
1.176196863695491
1.176145539523513
1.176097180089765
1.17605550545076
1.176027267068258
1.176015496197378
1.176013151655518
1.176013002854947
1.176015057975804
1.176020181544593
1.176029635012701
1.176044674527634
1.176066378043183
1.176095434238383
1.176131993012333
1.176175587110346
1.17622515947383
1.176279208801075
1.176336027376258
1.176393977941083
1.176451738520903
1.176508438392002
1.176563673303492
1.176617396920838
1.176669464225967
1.176718701417959
1.176761676384995
1.176791839857467
1.176804990467783
1.176807906127119
1.176808625896607
1.17680720113699
1.176803166462205
1.176795225627531
1.176782188466227
1.176762984674902
1.176736806754652
1.176703241804588
1.176662387620511
1.176614905623224
1.17656197361556
1.176505135844298
1.176446069694249
1.176386316241284
1.176327065152556
1.17626905767283
1.176212642325447
1.176158212219125
1.176107262187264
1.176063837114226
1.176034703135674
1.176022674644694
1.176020115091765
1.176019617782299
1.176021185351667
1.17602531007739
1.176033136547312
1.176045742838293
1.17606412576352
1.176089058307322
1.176120974845788
1.176159877976072
1.17620528607329
1.176256246066093
1.176311426394817
1.176369294111826
1.176428351535626
1.176487352535287
1.176545430320561
1.176602110862126
1.176656950957319
1.176708553028901
1.176753392729993
1.176785192722474
1.176799561199402
1.176802966132152
1.176803949097341
1.176803026721132
1.176799924520565
1.176793491975871
1.176782646713138
1.176766393239776
1.176743893520605
1.176714557948101
1.176678154029877
1.176634889009637
1.17658543614478
1.17653089305312
1.176472661204662
1.176412247513415
1.176351049137113
1.176290200322789
1.176230515936601
1.176172794493092
1.176118877262794
1.176073063210336
1.176042116858237
1.176029079697198
1.176026169403338
1.176025380972525
1.176026497110816
1.176029791669145
1.176036316159196
1.176047046225698
1.176062908584445
1.176084687037642
1.176112931166498
1.176147874454299
1.176189372962608
1.176236877393019
1.176289454284732
1.17634587446262
1.176404773419327
1.176464835873621
1.176524936261461
1.176584225974358
1.176641934040603
1.176696419407045
1.176743955133601
1.176778344608073
1.176794722947115
1.176798781926847
1.176799953192256
1.176799495652927
1.176797159092458
1.176791952078271
1.176782870211321
1.176768979654298
1.176749451922189
1.176723622395512
1.176691081729172
1.176651756049409
1.17660595441602
1.176554376756609
1.17649806742924
1.176438296720875
1.176376401405705
1.17631365389805
1.176251180989303
1.17619015170724
1.176132760727101
1.176083682216693
1.176049956823977
1.176035164458441
1.176031749947378
1.17603078294519
1.176031506897798
1.176034117039484
1.176039565382114
1.176048755525438
1.176062549868845
1.176081715848151
1.176106856756645
1.176138340112562
1.176176239625903
1.176220295819941
1.176269904592231
1.176324151268584
1.176381906491935
1.176441962238641
1.176503146181732
1.176564405685605
1.17662472264638
1.176682282857571
1.176733124937396
1.176770891206491
1.176790101663465
1.176795191738025
1.176796441469935
1.176796413529005
1.176794706667756
1.176790519682865
1.176782913900704
1.176771007963386
1.176753987018569
1.176731148863038
1.176701983330191
1.17666624067757
1.176623977178963
1.176575581304453
1.176521768646752
1.176463522570482
1.176401991374869
1.17633840312045
1.176274012021527
1.176210199450847
1.176149340045107
1.176096390442106
1.176058865682534
1.176041329893717
1.176037043970749
1.176035974791452
1.176036341299317
1.176038375988582
1.176042905171475
1.176050774676223
1.176062799767839
1.176079733386737
1.176102205266055
1.176130659019252
1.1761653062303
1.176206090270966
1.176252661175799
1.176304378197538
1.176360361216145
1.176419583496857
1.176480950462895
1.176543345892998
1.176605614965723
1.176665935008757
1.176720304345669
1.176762135626852
1.17678522630656
1.176792058458496
1.176793346098237
1.176793709426431
1.176792491841361
1.176789165414821
1.176782816012071
1.176772611404992
1.1767577502226
1.176737509662304
1.176711319710165
1.176678816811571
1.176639879452709
1.176594660050308
1.176543603128978
1.176487423626291
1.176427045326445
1.176363553101843
1.176298183260716
1.176232389059011
1.176168526072876
1.176111552714863
1.176069425744518
1.17604800345878
1.17604219282823
1.176041069569338
1.176041085057996
1.176042625816087
1.176046354399908
1.17605306459259
1.176063537591162
1.176078517281326
1.176098648800203
1.176124421552467
1.176156136499244
1.176193878604542
1.176237487891435
1.176286545072977
1.176340393264044
1.176398197917414
1.176458999014873
1.176521723523831
1.176585184064935
1.176647669216179
1.176705414831877
1.176751675316615
1.176779517943313
1.176789025774892
1.176790582389993
1.17679118001278
1.176790387286365
1.176787808220843
1.176782560314411
1.176773846419115
1.176760885172764
1.176742941624194
1.176719404037288
1.176689833030577
1.176653985510161
1.176611840788731
1.176563627765983
1.176509829291953
1.176451151798529
1.176388502424479
1.176323017271392
1.176256127041735
1.176190027507787
1.176129321467155
1.17608211152872
1.176055658410247
1.176047376136548
1.17604607166114
1.17604578731009
1.176046917914884
1.176049948683159
1.176055644944989
1.176064746735005
1.176077986974389
1.176096024124978
1.176119382953626
1.176148428747215
1.176183348915526
1.176224125865889
1.176270514076079
1.176322041971712
1.176378049256428
1.17643772717132
1.17650010867081
1.17656403370788
1.176627919494661
1.176688484786309
1.176739205616224
1.17677245006106
1.176785833015268
1.176788181812543
1.176788854228579
1.176788412219034
1.176786449107866
1.176782140890885
1.176774737105815
1.176763478510451
1.176747610688747
1.176726478048323
1.176699583160067
1.176666598806545
1.176627379868356
1.176581991427924
1.176530729452874
1.17647411089007
1.176412864154981
1.176347978959266
1.176280785519692
1.176213254718058
1.176149404513763
1.176097068240996
1.176064817680518
1.176052993220653
1.176051063201534
1.176050604764351
1.176051375941485
1.176053778824245
1.176058560299281
1.176066419060888
1.176078077620498
1.176094211212615
1.176115373432617
1.176141972831377
1.17617426817225
1.176212348528341
1.17625610551327
1.176305221183849
1.176359188467962
1.176417341740926
1.176478836058009
1.176542590165054
1.176607165676286
1.176669864720794
1.176724770089238
1.17676365392636
1.176782021865785
1.176785991478555
1.176786656223258
1.176786501841662
1.17678507588047
1.176781602485364
1.176775367972204
1.176765638568867
1.176751651016755
1.176732715005394
1.176708284733864
1.176677967116067
1.176641523368531
1.176598892617866
1.176550220258278
1.176495865052634
1.176436396331243
1.17637264528016
1.176305805047166
1.176237637553117
1.176171488291218
1.176114411669257
1.17607591147546
1.176059260616894
1.176055910080809
1.176055382984963
1.176055875656906
1.17605775565393
1.17606174088748
1.176068489922575
1.176078708240324
1.176093089632893
1.176112220642027
1.176136548544785
1.1761663871086
1.176201907092928
1.176243107967952
1.176289796777571
1.176341594561852
1.176397959961761
1.176458174198659
1.176521274369473
1.176585952081415
1.176650006658255
1.176708449491655
1.176752876015034
1.176777061170259
1.176783927295524
1.17678459026565
1.176784670695411
1.176783663235298
1.17678088918887
1.176775676039687
1.176767322522886
1.176755066353436
1.176738177212945
1.176716052787959
1.176688242173444
1.176654438543518
1.176614488120514
1.176568417644288
1.176516454809779
1.176459031822737
1.176396827239475
1.176330877274191
1.176262739774209
1.176195143124308
1.176134019589227
1.176089163059806
1.176066705122786
1.176060832821528
1.176060221692337
1.176060458299411
1.176061902419943
1.176065193566519
1.176070958870402
1.176079876121068
1.176092647562359
1.17610989157111
1.176132093329434
1.17615961295794
1.176192686178688
1.176231400008389
1.176275666597487
1.176325216178031
1.176379614147882
1.176438260538965
1.176500316352077
1.17656459040322
1.176629252287151
1.176690403848513
1.176740157801489
1.176770581931731
1.176781556161223
1.176782802096836
1.17678295601505
1.176782241350113
1.176780053146147
1.176775706452416
1.1767685616675
1.176757865444224
1.176742858319308
1.176722891435634
1.176697461424824
1.176666198281268
1.176628867607328
1.176585397105721
1.176535903629985
1.176480702483986
1.176420333741553
1.176355672640725
1.176288088468534
1.176219837366345
1.176155665859552
1.176104810441228
1.176075778324437
1.176066146987071
1.176065043080077
1.176065125447758
1.176066210823312
1.176068918058907
1.176073821634894
1.176081561611006
1.176092844970269
1.176108326457478
1.176128531984787
1.176153860361176
1.176184597284604
1.176220900645051
1.176262771113874
1.176310034359815
1.176362350766978
1.176419222797707
1.176479927240161
1.176543409121424
1.176608120710939
1.176671073625079
1.176725458729714
1.176762186240524
1.176778408143892
1.176781324442853
1.176781339494268
1.176780856186043
1.176779135457545
1.176775537198527
1.176769454129871
1.176760165824526
1.17674690323935
1.176728971695415
1.176705807719115
1.17667697954393
1.176642187377037
1.176601280872517
1.176554283967463
1.176501410290796
1.176443081245783
1.176380022576544
1.176313417937399
1.176245156114476
1.176178962693178
1.176122813179821
1.176086790818489
1.176072288328403
1.176069830468876
1.176069846084469
1.176070633680439
1.176072845588996
1.176077008220297
1.176083713451418
1.176093650821515
1.176107499870319
1.176125824945222
1.176149064429064
1.176177551292683
1.176211505534876
1.176251004813859
1.176295961618477
1.176346121771789
1.176401072316119
1.176460201863395
1.176522598458589
1.176586908051025
1.176650757725094
1.176708814200713
1.176751827968364
1.176774095474305
1.176779781524041
1.176779951432738
1.176779601545345
1.176778195691827
1.176775209948276
1.176770032056647
1.176761992778437
1.176750321848894
1.176734284458058
1.176713267454319
1.176686785981188
1.176654476256348
1.176616110948604
1.176571627089631
1.176521148373965
1.176464999667295
1.176403768069254
1.176338455221929
1.176270690279257
1.176203431352098
1.176143056766862
1.176100044852091
1.176079639888277
1.176074669301169
1.176074509101933
1.17607508111949
1.176076883223377
1.176080420677087
1.176086224423488
1.176094950046039
1.176107294162755
1.176123861292118
1.176145128632974
1.176171467285327
1.176203146404055
1.176240309768709
1.17628294924504
1.176330892202255
1.176383808080974
1.176441191516614
1.176502253374483
1.176565785891416
1.176629882002476
1.176690549541565
1.176739353748172
1.176768032755255
1.176777885041884
1.176778916279684
1.17677846800576
1.176777333541188
1.176774815582089
1.176770376172225
1.176763402213895
1.176753145092434
1.176738853403988
1.176719869842871
1.176695648936425
1.176665758510456
1.176629900907966
1.17658793866939
1.176539914106985
1.176486061183984
1.176426842022729
1.176363095369146
1.176296234526065
1.176228622441962
1.176165207923346
1.176115709322064
1.176088640935296
1.17607998237904
1.176079146821919
1.176079651121882
1.176081055063724
1.176084058612807
1.176089090934909
1.176096749434739
1.176107729508595
1.176122669653822
1.176142082469621
1.176166372899462
1.176195853289674
1.176230725274395
1.176271051012234
1.176316735249053
1.176367526199433
1.176423007582349
1.176482513315265
1.176545001994063
1.176608879694876
1.176671067938019
1.176724677689022
1.176760088007244
1.176775361762763
1.176777925428435
1.176777581358125
1.176776623082418
1.176774461708139
1.176770620414387
1.176764541988994
1.176755533596789
1.176742828710417
1.176725727438568
1.176703639033928
1.176676079596353
1.176642686525137
1.176603246498031
1.176557719046533
1.176506251752366
1.176449203780591
1.176387256150626
1.176321611136463
1.17625425139446
1.176189023166882
1.176134019557646
1.176099580649677
1.17608607405662
1.176083796154098
1.17608417638041
1.176085289351149
1.176087858116532
1.176092245772018
1.176098982354383
1.176108732532041
1.176122159991405
1.176139821104985
1.176162161928914
1.176189534742687
1.176222186584475
1.176260235104032
1.176303650978676
1.176352252182942
1.176405703879723
1.176463471057745
1.176524672469869
1.176587901716242
1.176650730368578
1.17670794995918
1.176750117873785
1.176771361456761
1.176776865347274
1.176777011126139
1.176776110740325
1.176774213282338
1.176770823196068
1.176765459095428
1.176757500249917
1.176746200574551
1.17673083800577
1.176710776829396
1.176685470236471
1.176654482334736
1.176617528932887
1.176574501870928
1.176525478098419
1.176470730295611
1.176410791134377
1.176346651523392
1.176280010291439
1.176213880288431
1.176154584359248
1.176112722819399
1.176093412230554
1.17608861330557
1.176088544486699
1.176089484385164
1.176091658911264
1.176095519863674
1.176101480565846
1.176110150381344
1.176122197777394
1.176138217103605
1.17615870156535
1.176184051616615
1.176214562193279
1.176250398933181
1.176291582997437
1.176337986393308
1.176389337996076
1.176445202571107
1.176504852989462
1.176567093317726
1.176629985238194
1.17668957338465
1.176737668555443
1.176765580511652
1.176775550641022
1.176776556935108
1.176775793318748
1.176774177044503
1.176771118589723
1.176766275772649
1.176759150631416
1.176749063762254
1.176735281766594
1.176717121310537
1.176693973816296
1.176665330943964
1.176630829861858
1.176590288842696
1.176543721411603
1.176491336535238
1.176433560024498
1.17637119105108
1.176305664061283
1.176239393523929
1.176177249079347
1.17612869704347
1.176102386927996
1.176093851494195
1.176092819042039
1.176093610020977
1.17609539918755
1.176098859452282
1.176104237353472
1.176112037672128
1.176122881968937
1.176137378147349
1.176156069928951
1.176179431385104
1.1762078344542
1.176241506686537
1.176280513998472
1.176324763841752
1.176374016682662
1.176427893058969
1.176485801001392
1.176546757984281
1.176609149095087
1.176669932873866
1.176722696385276
1.176757912273799
1.176772977125956
1.176776130674726
1.176775829680165
1.176774427265279
1.176771674173164
1.17676722393862
1.176760700927989
1.176751545851121
1.176739095034128
1.176722673006447
1.176701615003983
1.176675304909436
1.17664325676213
1.176605189480966
1.176561051397934
1.176511010628944
1.176455446828495
1.176395028642435
1.17633093685952
1.176265161067378
1.176201452897056
1.176147494429879
1.176113443654126
1.176100186793295
1.176097508277536
1.176097609369986
1.176099080345708
1.176102116554787
1.176107034923741
1.176114198044949
1.176124118196442
1.176137336215103
1.176154379544244
1.176175774529086
1.176202010214952
1.176233449652228
1.176270259768266
1.176312398342816
1.176359635600736
1.176411588823247
1.176467716672822
1.17652717295187
1.176588615511879
1.176649764375903
1.176705704504269
1.176747577971009
1.176768865515257
1.176775172701051
1.176775864650907
1.176774909358713
1.176772641600671
1.176768542709653
1.176762411657139
1.176753859917146
1.17674237399364
1.176727368721748
1.176708204852554
1.176684207205854
1.176654736495359
1.176619303888445
1.17657768022649
1.176529953523761
1.176476508507621
1.176417990971191
1.176355455317242
1.176290604747339
1.176226298476022
1.176168534132503
1.176127304912099
1.176107950800763
1.176102734543706
1.176101932603643
1.176102735793449
1.176105102443622
1.176109471112212
1.176116138654295
1.176125465992999
1.176137829410587
1.176153613226206
1.176173265363484
1.176197322903926
1.17622633315482
1.176260704981781
1.176300582450718
1.176345804998313
1.176395956143788
1.176450450264904
1.176508484831204
1.176568851718879
1.176629719551201
1.176687452807029
1.176734514294461
1.176762848998055
1.176773196556353
1.176775029682061
1.176775135437749
1.176773717950895
1.176770422425024
1.176764830264473
1.176756633312798
1.176745546995148
1.176731291583845
1.176713493001312
1.176691581672503
1.17666480660642
1.176632384159436
1.17659371121644
1.176548558388919
1.176497202154173
1.176440385390847
1.176379243050764
1.176315405662718
1.176251160453636
1.176190980584634
1.176143770547381
1.176117327336145
1.176108538033884
1.17610716680087
1.176107163349243
1.176108564107296
1.17611181595295
1.17611743439387
1.176125976135412
1.176137872199113
1.176153309779761
1.176172313599041
1.176194961500957
1.176221566517659
1.176252749881603
1.176289344870514
1.176331954127198
1.176380250176758
1.176432663526684
1.176488600001201
1.176546978935531
1.176617170276566
)
;

boundaryField
{
    inlet
    {
        type            calculated;
        value           uniform 1.176395950917642;
    }
    outlet
    {
        type            calculated;
        value           uniform 1.176649574301912;
    }
    frontAndBack
    {
        type            empty;
    }
}


// ************************************************************************* //
