/*--------------------------------*- C++ -*----------------------------------*\
| =========                 |                                                 |
| \\      /  F ield         | OpenFOAM: The Open Source CFD Toolbox           |
|  \\    /   O peration     | Version:  v2012                                 |
|   \\  /    A nd           | Website:  www.openfoam.com                      |
|    \\/     M anipulation  |                                                 |
\*---------------------------------------------------------------------------*/
FoamFile
{
    version     2.0;
    format      ascii;
    class       volScalarField;
    location    "0.015";
    object      T;
}
// * * * * * * * * * * * * * * * * * * * * * * * * * * * * * * * * * * * * * //

dimensions      [0 0 0 1 0 0 0];


internalField   nonuniform List<scalar> 
1000
(
299.9864970703732
299.9878089445215
299.9811000572242
299.9763162266805
299.971861708734
299.9679879903988
299.964443065986
299.9612511424328
299.9585182778192
299.9567583854493
299.9562916300463
299.956503383997
299.9571350724104
299.9582607489142
299.9601563954182
299.9629171218778
299.9664415409788
299.9705689155928
299.9751684314695
299.9801509261081
299.9854458574771
299.9909798241681
299.9966695221337
300.0024247619423
300.008152398078
300.0137578600144
300.019152610006
300.0242724815193
300.0290912120349
300.0335944181116
300.0376405540981
300.040730480913
300.042288485594
300.0426315041501
300.0426504510344
300.0423968376795
300.0416804970679
300.0403063863036
300.0381187905488
300.0350460198724
300.0311310227145
300.0265121609526
300.0213705867578
300.0158771145204
300.0101643764798
300.0043292585994
299.9984516059144
299.9926109803695
299.9868900933596
299.9813609900552
299.9760647095599
299.9710165215449
299.9662747031284
299.9621135816113
299.9591630379324
299.9578426722549
299.9575883955305
299.9576086537841
299.9578771924788
299.9585353936509
299.9597476737261
299.9616681409802
299.9644019420738
299.9679748103649
299.9723229087165
299.9773080392704
299.9827521318902
299.9884763151335
299.9943290697482
300.0001966681901
300.0059995114627
300.0116834165739
300.0172162594776
300.022586400469
300.0277749228261
300.0326807744588
300.0369745022678
300.0399792669656
300.0412756299842
300.041538373912
300.0415648739882
300.0413525067921
300.0408026550926
300.0397627514471
300.0380890167646
300.0356668751522
300.0324357933296
300.0284049873229
300.0236575876547
300.0183386899502
300.0126288804454
300.0067119129641
300.000746469017
299.9948489330671
299.9890897040907
299.9834984060723
299.9780765697423
299.9728380179152
299.9679019436086
299.9636480872988
299.9607656540352
299.9595641310969
299.9593248113235
299.9593096238158
299.959519403523
299.9600423973515
299.9610073681515
299.9625425314363
299.9647579043967
299.9677237591623
299.9714553624563
299.9759049795244
299.9809646733424
299.9864811710955
299.9922801463686
299.9981944815203
300.0040892536842
300.0098756062064
300.0155122953788
300.0209946056895
300.0263077515116
300.0313319709817
300.0357170801309
300.0387948599712
300.0401366900117
300.0404341932375
300.0405076389665
300.0403622685191
300.0399505940675
300.0391403490969
300.0378100892631
300.0358505931391
300.0331794458762
300.0297544864861
300.0255856559328
300.0207404030141
300.01533887158
300.0095386089511
300.0035107645206
299.9974125953011
299.9913655121583
299.9854451733221
299.9796871623294
299.9741316167022
299.9689311320778
299.9644986121488
299.9615247662625
299.960296949011
299.9600356837879
299.9599849247209
299.9601449418804
299.9605659832029
299.9613648797243
299.9626516724298
299.9645281005647
299.9670730479246
299.9703308262889
299.9743016661972
299.9789363678757
299.9841376117079
299.9897694538321
299.9956754085449
300.0017026054485
300.0077238629388
300.0136507261766
300.0194348308861
300.0250309635611
300.030296529602
300.0348719364382
300.0381167154338
300.0395828172298
300.0399302462771
300.0400305485602
300.0399364402531
300.0396199129433
300.0389635683403
300.0378569628015
300.0361985117281
300.0339026894075
300.0309093104893
300.0271946199774
300.0227797260806
300.0177332867572
300.0121672663548
300.0062246455939
300.0000591799899
299.9938134408001
299.9876031836956
299.9815115813553
299.9756201470912
299.9701168375813
299.9654404937336
299.9622816646496
299.9609508923343
299.9606538280522
299.9605733544357
299.9606872926469
299.9610235952196
299.9616895916005
299.9627848686962
299.9644040132077
299.9666270170774
299.9695099567881
299.9730766356559
299.9773123261484
299.9821609223168
299.9875271092224
299.9932853968932
299.9992964949073
300.005426151449
300.0115594912973
300.0176099159482
300.0234987594729
300.0290585804034
300.0339091144488
300.0374181322922
300.0390893174685
300.0395034845918
300.0396230013156
300.0395763238456
300.0393379205246
300.038806624724
300.037879950462
300.0364626065778
300.0344700451946
300.0318344316772
300.0285139708006
300.0245010905522
300.0198272880909
300.0145639442846
300.0088175911695
300.002717825394
299.9964010420031
299.9899970835029
299.9836209462041
299.9773919518898
299.9715341242045
299.9665246005302
299.9630821187378
299.9615721882604
299.9612236573657
299.9611249563549
299.9611988620691
299.9614653032101
299.9620214513484
299.9629595402239
299.9643675935413
299.9663239355243
299.9688901292799
299.9721036642629
299.9759720331583
299.9804687148857
299.9855320111951
299.9910685276765
299.996962965865
300.0030920095228
300.0093359989365
300.0155875035688
300.0217426302753
300.02761626206
300.0328042072788
300.0366578021375
300.0386179713655
300.0391373479364
300.039264870673
300.0392620272183
300.0390878759728
300.0386606596522
300.0378845992511
300.0366697601359
300.0349329881248
300.0326026174503
300.0296265699827
300.0259793329488
300.0216666125521
300.016728008751
300.011236502223
300.0052924030919
299.9990128615617
299.9925231803014
299.9859513469023
299.979438344392
299.9732265550526
299.9678219407978
299.9639916619054
299.9622017009231
299.9617642201079
299.9616550890286
299.9616925080496
299.9619002085049
299.962362531589
299.9631658147107
299.9643932715064
299.9661217487561
299.9684155115472
299.9713198205658
299.9748562457649
299.9790189743818
299.9837722491599
299.9890506330992
299.9947642610836
300.0008083114618
300.0070710493571
300.0134385442054
300.019792940887
300.0259482492321
300.0314961562779
300.0357645577439
300.0381206564797
300.038817786557
300.0389491774849
300.0389862563077
300.0388620268023
300.0385226179354
300.0378747527803
300.0368335112902
300.0353171170676
300.0332518054391
300.0305793954773
300.0272627655151
300.0232894841876
300.018675066412
300.0134648316827
300.0077316945905
300.001569886766
299.995090087876
299.9884184456679
299.9817032669975
299.9751849760594
299.9693697024087
299.9650696857763
299.9628830176572
299.9622899014293
299.9621752488952
299.96217683598
299.9623341169882
299.9627147174605
299.9633996621427
299.9644686882189
299.9659977200275
299.9680525975461
299.9706832588336
299.9739204004753
299.9777726655697
299.9822236911738
299.987230644616
299.9927264432068
299.9986258754224
300.0048309315127
300.011232078862
300.0177081297053
300.0240844361753
300.0299769105644
300.0346972896216
300.0375382705543
300.0385084152696
300.0386672506161
300.0387282347119
300.0386473543066
300.0383842023179
300.0378487288096
300.0369595939443
300.0356370646175
300.0338061388996
300.0314043818093
300.0283869382388
300.0247289747163
300.0204283455034
300.0155083684296
300.010018273529
300.0040301079692
299.9976364061118
299.9909530787695
299.9841261189391
299.9773796272517
299.971183419418
299.9663646058514
299.9636644292258
299.962819019521
299.9626858688087
299.9626568480934
299.962772260268
299.9630816301962
299.9636630765294
299.9645921356433
299.9659436141505
299.9677847141699
299.970168986007
299.9731336953928
299.9766979455555
299.9808599094451
299.9855944916313
299.990853522845
299.9965695734574
300.0026600660908
300.0090262772225
300.0155497992915
300.0220691011662
300.0282493582133
300.0334249042544
300.0368170856385
300.0381826335851
300.0384222987313
300.0384909127194
300.038445816203
300.0382455127756
300.0378059210486
300.03705046488
300.0359016695002
300.0342825487986
300.032126195501
300.02938183478
300.0260160529109
300.0220140103314
300.0173823107708
300.0121511143661
300.0063731300484
300.0001226489051
299.9935006345732
299.9866428144202
299.9797503232579
299.9732332658271
299.9678912441401
299.9645993169945
299.9633923403989
299.9631953363997
299.9631485443722
299.9632272660485
299.9634725435433
299.9639606122856
299.9647627889838
299.9659528187236
299.9675996172663
299.9697596797852
299.9724746909333
299.9757710402458
299.9796577909501
299.9841238469001
299.9891367201038
299.9946446185656
300.0005795702206
300.0068553074149
300.0133614560945
300.0199512119299
300.0263492675944
300.031951850486
300.0359194837775
300.0377936845804
300.0381987298837
300.0382665600118
300.0382508106335
300.0381053151717
300.0377509053118
300.0371147575593
300.0361219969315
300.0346947366124
300.0327625289859
300.0302696663372
300.027176017131
300.0234571876544
300.0191069315513
300.0141400452886
300.0085930955124
300.0025241365511
299.9960179490284
299.9891962632329
299.9822388758291
299.9754872391711
299.9696614243298
299.9657316029646
299.9640319786526
299.9636899749958
299.9636361735903
299.9636864655117
299.9638783686109
299.9642851606307
299.9649740619634
299.9660170801161
299.9674850264502
299.9694377609794
299.971920923702
299.9749665213708
299.9785919578271
299.9827971480532
299.9875623624717
299.9928488848992
299.9986014245637
300.0047465865846
300.0111860692365
300.0177863258885
300.0243227746388
300.0302863794403
300.0348196093066
300.0372873874842
300.0379879804148
300.0380556281578
300.0380638369459
300.0379610427174
300.0376779914985
300.0371460603081
300.0362936915661
300.0350430990218
300.0333197546182
300.0310621867135
300.0282243670209
300.0247749620332
300.0206982482858
300.0159969165211
300.010694159393
300.0048340371909
299.9984857514258
299.9917550103901
299.9848007735795
299.9779014939245
299.9716626816187
299.9670840905927
299.9647917235321
299.964192311699
299.964129931599
299.9641540845849
299.9643014947055
299.964637437727
299.9652259252197
299.9661361384695
299.9674397525335
299.9691998784653
299.9714660274217
299.9742749400808
299.9776506538377
299.9816020220249
299.9861200448808
299.9911771517829
299.9967289474488
300.0027141606527
300.0090471304561
300.0156062649319
300.0222047578491
300.028444829652
300.0335217052547
300.0366261039149
300.0377458727563
300.0378730031687
300.0378887094155
300.0378157898344
300.0375925159757
300.0371489955078
300.0364199630156
300.0353285451347
300.0337972414461
300.0317598332564
300.0291649417858
300.0259747898779
300.0221654306576
300.0177294513899
300.0126787354908
300.0070454140617
300.0008845550449
299.9942854343223
299.9873877595672
299.9804217729313
299.9738719378298
299.968681080696
299.9657176804956
299.9647345692797
299.9646218884244
299.9646302965533
299.964741086883
299.9650174271034
299.9655179543188
299.9663079987492
299.9674597199751
299.9690399425135
299.9711023367198
299.9736875945598
299.9768248571536
299.9805302144516
299.9848037039902
299.9896274973393
299.9949668942033
300.0007710765179
300.0069661974197
300.0134445604894
300.0200481979515
300.0264721535431
300.0320216413624
300.035769243062
300.0374244692817
300.0377220363079
300.0377235720882
300.0376742582692
300.0374986834848
300.0371315309624
300.0365108333943
300.0355630771996
300.0342097857155
300.0323800664843
300.030016410033
300.0270747400224
300.0235244397473
300.0193501351523
300.0145542302723
300.0091584817411
300.0032058469354
299.9967703429428
299.9899727266034
299.9830057372412
299.9762496169816
299.9705184513047
299.9668415627844
299.9653612382872
299.9651103537461
299.9651119473785
299.9651923408161
299.9654181202296
299.9658430161857
299.966527440713
299.9675417733037
299.9689553703232
299.9708258267386
299.973197875877
299.976105486526
299.9795710907335
299.9836025863343
299.9881910080156
299.9933103765786
299.9989185061891
300.0049529608921
300.0113206359024
300.0178833217539
300.0243988570574
300.030323033387
300.0347121039729
300.0369842108647
300.0375643925089
300.0375817285866
300.0375460275116
300.0374025808103
300.0370979277188
300.0365695927205
300.0357492856527
300.0345584060949
300.0329219681716
300.030777395451
300.0280751970647
300.0247782299185
300.0208632673142
300.0163238476552
300.0111725517417
300.0054424859563
299.9991935173413
299.9925278233064
299.985611637144
299.978746854811
299.9725845124293
299.9681942236568
299.9661114219894
299.9656040541475
299.9655877010035
299.9656460884656
299.9658300365998
299.9661911179814
299.9667835248052
299.9676741709689
299.9689341569269
299.9706251792705
299.9727959350263
299.9754842869808
299.978717686992
299.982510784313
299.9868627175612
299.9917558320253
299.997156352169
300.003012661849
300.0092441878473
300.0157276441769
300.0222683992967
300.0284590786507
300.0334390410654
300.0363653718851
300.0373706624168
300.0374758847963
300.0374301435346
300.0373143870499
300.0370574645379
300.0366044822113
300.0358928785122
300.0348462628709
300.0333879574858
300.0314508823356
300.0289793637206
300.0259292826997
300.022270239493
300.0179881739981
300.0130873644604
300.0075916420206
300.0015481194736
299.9950423473382
299.9882185232653
299.9813177876145
299.9748452465476
299.9697929055692
299.9670299644116
299.9661461541202
299.9660608643838
299.9661123389298
299.9662556437843
299.9665622267726
299.96707589166
299.9678576139402
299.9689783699282
299.9705033254832
299.9724847923771
299.9749640896821
299.9779730800959
299.9815323205105
299.9856481264703
299.9903107425333
299.9954944340923
300.0011566769123
300.0072294544686
300.0136064540143
300.0201249920815
300.0264709169494
300.0319412882284
300.0355544869436
300.0371129687094
300.0373745540224
300.0373394451137
300.037241665368
300.0370211269779
300.0366291748967
300.0360089500449
300.0350897539328
300.0337933666026
300.0320483641423
300.0297944550689
300.0269822449233
300.0235747100983
300.0195500524887
300.0149041057293
300.0096518876642
300.0038300047461
299.9975079096156
299.9908082583426
299.9839333689678
299.9772757958853
299.9716616229965
299.9681463816375
299.9667677208645
299.9665352062827
299.9665740156591
299.9666876186106
299.9669498202475
299.9673976810881
299.9680853003456
299.9690805183346
299.9704510729051
299.9722537450503
299.9745340518414
299.9773279340008
299.980660585155
299.9845439871238
299.9889751158896
299.9939353582295
299.9993905027118
300.0052859087962
300.011531605275
300.0179840396316
300.0243953846962
300.0302341667481
300.0345369302785
300.036704560826
300.0372661566228
300.0372810297678
300.0371891555114
300.036995544895
300.0366496319213
300.0361022949409
300.0352901932008
300.0341371934989
300.0325696109087
300.0305225675348
300.0279402521497
300.0247781651215
300.0210072794966
300.0166165240755
300.0116137112009
300.0060266230254
299.9999095727845
299.9933636423196
299.9865621749738
299.9798126517381
299.9737604413621
299.9694875994922
299.9675165171678
299.967026675325
299.9670196489772
299.9671155846833
299.9673375437961
299.9677316414794
299.9683400641114
299.9692250073497
299.9704546978177
299.9720897939858
299.9741806268694
299.9767680560743
299.9798821661416
299.9835398391701
299.9877432060126
299.9924791700751
299.9977200237323
300.0034213096958
300.0095087835948
300.0158603666817
300.0222782375733
300.028358775832
300.0332663939528
300.0361144598997
300.0371317760743
300.037234452994
300.0371565348013
300.0369916145754
300.0366795399623
300.0361853937956
300.0354583625061
300.034429117552
300.0330228185462
300.0311697301495
300.0288077404249
300.0258849598221
300.0223643397777
300.0182273049774
300.0134751980549
300.0081293010024
300.0022330224007
299.9958678749765
299.9891802142598
299.9824164379885
299.9760735688558
299.971117877997
299.9684323544496
299.9675611179854
299.9674557311188
299.9675364666693
299.9677190894838
299.9680722861109
299.9686212194827
299.9694174105065
299.9705242986686
299.9720039270609
299.9739117844297
299.9762962462756
299.9791952586424
299.9826320248632
299.9866132456711
299.9911294437869
299.9961561372568
300.0016545617991
300.0075642664227
300.0137849480067
300.0201517814544
300.0263543925476
300.0317384200452
300.0353317847301
300.0368689523517
300.0371907279015
300.037160013636
300.0370169134151
300.0367359954854
300.0362819065094
300.0356163152525
300.0346821497223
300.0334116850773
300.0317359899317
300.0295872213744
300.026902494917
300.0236322004892
300.0197476269149
300.0152434663175
300.0101368336161
300.0044664281449
299.9983004417826
299.9917593392993
299.9850461464553
299.9785437594325
299.9730363022046
299.9695607043695
299.9682075449535
299.9679341411698
299.9679444585393
299.9680946025413
299.9684045142436
299.9689065416611
299.9696376925556
299.9706502521544
299.9719994187998
299.9737390210438
299.9759227718322
299.9786005723866
299.9818094584032
299.9855664422417
299.9898671846393
299.9946882006013
299.9999903943955
300.0057184828948
300.011786074581
300.018056175603
300.0242961081086
300.0300043383262
300.0342770652686
300.0364491855776
300.0370927477979
300.0371633507011
300.0370658742945
300.0368344777449
300.0364162382159
300.0357906412928
300.0349180396253
300.0337460329271
300.0322149057853
300.0302594209282
300.0278106700429
300.0248034010114
300.0211877063501
300.0169401684266
300.0120697290061
300.0066156052547
300.0006436565445
299.9942614473466
299.9876427696739
299.9810794243086
299.9751835810323
299.9709753139599
299.9689998054544
299.9684673691064
299.9683855121387
299.9684674938857
299.9687090607776
299.9691549775631
299.9698355424765
299.970787591875
299.9720495284163
299.9736605730633
299.975666436234
299.9781219248633
299.9810828843298
299.9845910231791
299.9886610165563
299.993276443268
299.998394761026
300.0039561663752
300.0098787230024
300.0160391113333
300.0222504257001
300.0281416845226
300.0329438280281
300.0358350320647
300.0368908597737
300.0370779057194
300.0370887012004
300.036944080207
300.036607843509
300.0360372727505
300.0352009155398
300.0340697213867
300.0326151298294
300.0307989481997
300.0285630291559
300.0258307080077
300.0225219898311
300.0185753154878
300.0139672846428
300.0087261362518
300.0029277120247
299.9966878805496
299.9901731428095
299.9836170690969
299.9774762111997
299.9726591888328
299.9699616545335
299.9690658592793
299.9689266882592
299.9689268249699
299.9690691157789
299.9693970935721
299.9699622435132
299.9708212016115
299.9720205259736
299.9735844566524
299.9755173481909
299.9778182409291
299.9805031928321
299.9836339890653
299.9873307735297
299.9917287024332
299.9968909822726
300.0027057143802
300.0088395657727
300.0144602466362
300.0201199251529
)
;

boundaryField
{
    inlet
    {
        type            fixedValue;
        value           uniform 300;
    }
    outlet
    {
        type            temperatureOutletNSCBC;
        pInf            101325;
        gamma           1.4;
        etaAc           1;
        fieldInf        1;
        lInf            2.25;
        value           uniform 300.0228515693968;
    }
    frontAndBack
    {
        type            empty;
    }
}


// ************************************************************************* //
