/*--------------------------------*- C++ -*----------------------------------*\
| =========                 |                                                 |
| \\      /  F ield         | OpenFOAM: The Open Source CFD Toolbox           |
|  \\    /   O peration     | Version:  v2012                                 |
|   \\  /    A nd           | Website:  www.openfoam.com                      |
|    \\/     M anipulation  |                                                 |
\*---------------------------------------------------------------------------*/
FoamFile
{
    version     2.0;
    format      ascii;
    class       volVectorField;
    location    "0.015";
    object      U;
}
// * * * * * * * * * * * * * * * * * * * * * * * * * * * * * * * * * * * * * //

dimensions      [0 1 -1 0 0 0 0];


internalField   nonuniform List<vector> 
1000
(
(-0.003080097706600957 0 0)
(-0.03466668510375877 0 0)
(-0.04252141140034212 0 0)
(-0.05779509532507367 0 0)
(-0.07182071481500578 0 0)
(-0.08469109670237819 0 0)
(-0.09561324481299152 0 0)
(-0.1049889700617654 0 0)
(-0.1130089793943932 0 0)
(-0.11848769209856 0 0)
(-0.1202238755739793 0 0)
(-0.1201102987060765 0 0)
(-0.1192768632876548 0 0)
(-0.1167764685096792 0 0)
(-0.1119553717786418 0 0)
(-0.1046386392171649 0 0)
(-0.09508978612467478 0 0)
(-0.0837245285671121 0 0)
(-0.0708980641214333 0 0)
(-0.05686442186087592 0 0)
(-0.04183651630524342 0 0)
(-0.02604632693292091 0 0)
(-0.009766545703379587 0 0)
(0.006698802393031985 0 0)
(0.02303351349555696 0 0)
(0.03892664602334995 0 0)
(0.05410447186776349 0 0)
(0.0683825738709543 0 0)
(0.0816969514000403 0 0)
(0.09404361381477556 0 0)
(0.1050767491345853 0 0)
(0.1133430635560224 0 0)
(0.117242093400545 0 0)
(0.1179494324767045 0 0)
(0.117660650889273 0 0)
(0.1169208424444075 0 0)
(0.1150450546711941 0 0)
(0.1114485505381615 0 0)
(0.1056271984888161 0 0)
(0.09733136900077458 0 0)
(0.08664616380484279 0 0)
(0.07393566621419721 0 0)
(0.05969597811305809 0 0)
(0.04440390594789826 0 0)
(0.0284369616231239 0 0)
(0.01207988459387674 0 0)
(-0.004423093225131014 0 0)
(-0.02082311212080879 0 0)
(-0.03686160350867653 0 0)
(-0.05231634411194434 0 0)
(-0.06706299822998181 0 0)
(-0.08105739707138351 0 0)
(-0.09415316045328126 0 0)
(-0.1056096973693439 0 0)
(-0.1135947619888742 0 0)
(-0.1169225516120951 0 0)
(-0.1174284762431791 0 0)
(-0.1171725274234268 0 0)
(-0.1165013102932596 0 0)
(-0.1148839490454869 0 0)
(-0.111823296252051 0 0)
(-0.10683603672278 0 0)
(-0.09957269154520415 0 0)
(-0.08991617903851606 0 0)
(-0.07801375542590659 0 0)
(-0.0642353388377742 0 0)
(-0.04907578478516246 0 0)
(-0.0330436537417008 0 0)
(-0.01658055687759244 0 0)
(-2.9881783003424e-05 0 0)
(0.01635565220141207 0 0)
(0.03239347843997167 0 0)
(0.04796765808936286 0 0)
(0.06302871441558354 0 0)
(0.07751407122582389 0 0)
(0.09114428868943039 0 0)
(0.1029986937635015 0 0)
(0.111107833332809 0 0)
(0.1143304869532256 0 0)
(0.1148140067286166 0 0)
(0.1144656656995332 0 0)
(0.1138092178980917 0 0)
(0.112327837406161 0 0)
(0.1096084312895813 0 0)
(0.1052036446187512 0 0)
(0.09874112381752317 0 0)
(0.09000466043596754 0 0)
(0.07898404091782292 0 0)
(0.06588916486702888 0 0)
(0.05111720711131615 0 0)
(0.0351777285645986 0 0)
(0.01860001594616427 0 0)
(0.001850662709287363 0 0)
(-0.01471877443254541 0 0)
(-0.03088651332995154 0 0)
(-0.04655065992676435 0 0)
(-0.0616957045829871 0 0)
(-0.07627598748888978 0 0)
(-0.08996015845299322 0 0)
(-0.1016833967912249 0 0)
(-0.1094428115395016 0 0)
(-0.112406055543238 0 0)
(-0.1128473714636678 0 0)
(-0.1125284244469164 0 0)
(-0.1119485821699164 0 0)
(-0.1106278015843488 0 0)
(-0.108215098663489 0 0)
(-0.1043045615449099 0 0)
(-0.09853363408824971 0 0)
(-0.09065380823347746 0 0)
(-0.08057856441774679 0 0)
(-0.06840885490967619 0 0)
(-0.05442765507396919 0 0)
(-0.03905980803766716 0 0)
(-0.02280349457643449 0 0)
(-0.006148186049104182 0 0)
(0.01049940285377153 0 0)
(0.02685805980551142 0 0)
(0.04278094849717411 0 0)
(0.05822893040713761 0 0)
(0.07314152075399616 0 0)
(0.08717350683706725 0 0)
(0.09932046000669828 0 0)
(0.1076428537061328 0 0)
(0.1110025489587474 0 0)
(0.1115229905302657 0 0)
(0.1112153668657808 0 0)
(0.1106349354909675 0 0)
(0.109429873154921 0 0)
(0.1072681052799105 0 0)
(0.1037760648514981 0 0)
(0.09860374626123691 0 0)
(0.09147160720540888 0 0)
(0.08221654555798856 0 0)
(0.07082986331164579 0 0)
(0.05747561854329141 0 0)
(0.04247929412766469 0 0)
(0.0262852473824591 0 0)
(0.009387730863026765 0 0)
(-0.007750183756609057 0 0)
(-0.02476219523663865 0 0)
(-0.04141074097133839 0 0)
(-0.05757467548925332 0 0)
(-0.07312487391890214 0 0)
(-0.08762423001183024 0 0)
(-0.09989099870878793 0 0)
(-0.1079164028480666 0 0)
(-0.1109582073755336 0 0)
(-0.1114098754378124 0 0)
(-0.111096847861307 0 0)
(-0.1105533238338385 0 0)
(-0.1094135277063061 0 0)
(-0.1073839401834161 0 0)
(-0.1041210707679308 0 0)
(-0.09929269234655841 0 0)
(-0.09262599418781392 0 0)
(-0.08394702930140018 0 0)
(-0.07321186213820063 0 0)
(-0.06052541738185261 0 0)
(-0.0461409022126169 0 0)
(-0.03043468685058887 0 0)
(-0.01385515043592073 0 0)
(0.003147171597803825 0 0)
(0.0201848606031926 0 0)
(0.03697488961287125 0 0)
(0.05334739563424104 0 0)
(0.0691457496034466 0 0)
(0.08394524066139594 0 0)
(0.09669648994705435 0 0)
(0.1055426725007401 0 0)
(0.1092749162935545 0 0)
(0.1098871344456785 0 0)
(0.1096374080493174 0 0)
(0.1090808233233954 0 0)
(0.1080293138797417 0 0)
(0.1061879196313328 0 0)
(0.1032352867196524 0 0)
(0.09885730136291872 0 0)
(0.09276967051033853 0 0)
(0.08475507698590776 0 0)
(0.07470197929215799 0 0)
(0.06263291155263641 0 0)
(0.04871549822274202 0 0)
(0.03325268280408603 0 0)
(0.01664783171725774 0 0)
(-0.0006542468837863701 0 0)
(-0.01823154639581455 0 0)
(-0.0357325009455677 0 0)
(-0.05289643440340617 0 0)
(-0.06946907444969261 0 0)
(-0.08489953346861598 0 0)
(-0.0979131904260476 0 0)
(-0.1065045657070748 0 0)
(-0.1098619895836516 0 0)
(-0.1103728765512731 0 0)
(-0.1101066418585635 0 0)
(-0.1095864657214941 0 0)
(-0.108574433573449 0 0)
(-0.106812286775455 0 0)
(-0.1040027365789739 0 0)
(-0.09984706349075145 0 0)
(-0.09407477240479922 0 0)
(-0.0864780620611626 0 0)
(-0.07694119975096682 0 0)
(-0.06546274103369562 0 0)
(-0.0521675744597101 0 0)
(-0.03730395474353778 0 0)
(-0.02121966927921829 0 0)
(-0.004315601362548938 0 0)
(0.01300939504108988 0 0)
(0.03040165466427119 0 0)
(0.04758048016235005 0 0)
(0.06428528597671745 0 0)
(0.08000607359530949 0 0)
(0.09362050102884695 0 0)
(0.1032934223771103 0 0)
(0.1076512182900201 0 0)
(0.1084296579039675 0 0)
(0.1082661455953435 0 0)
(0.1077345142369945 0 0)
(0.1068025720352525 0 0)
(0.1051964978608195 0 0)
(0.1026414475081099 0 0)
(0.09885906035846 0 0)
(0.09357748871783382 0 0)
(0.08656045215239604 0 0)
(0.07764321002036487 0 0)
(0.06676116000544265 0 0)
(0.05396714671716454 0 0)
(0.03943685937615814 0 0)
(0.02345731314517912 0 0)
(0.00639325329133453 0 0)
(-0.01135933994957102 0 0)
(-0.02941336047152763 0 0)
(-0.04741752814572262 0 0)
(-0.06500552424439154 0 0)
(-0.08151301774127327 0 0)
(-0.09554152415821876 0 0)
(-0.1050029441395717 0 0)
(-0.1089089511545708 0 0)
(-0.1095479571983635 0 0)
(-0.10934441991509 0 0)
(-0.1088458337389529 0 0)
(-0.1079329763176596 0 0)
(-0.1063704805902454 0 0)
(-0.1039022572211486 0 0)
(-0.1002639730697714 0 0)
(-0.09519879145759767 0 0)
(-0.08848758627292862 0 0)
(-0.07997625015215669 0 0)
(-0.06959622869832782 0 0)
(-0.05737978787290672 0 0)
(-0.04346793363121891 0 0)
(-0.02810416932059086 0 0)
(-0.01160824772881383 0 0)
(0.005663245204589941 0 0)
(0.02335063426273315 0 0)
(0.04111758755128183 0 0)
(0.05863174331573213 0 0)
(0.07532439479949089 0 0)
(0.08998935125278824 0 0)
(0.1007355659404989 0 0)
(0.1059791094394671 0 0)
(0.1070574339636219 0 0)
(0.1069948896553635 0 0)
(0.1064924221791622 0 0)
(0.1056715024494279 0 0)
(0.1042506088583443 0 0)
(0.1020023910389231 0 0)
(0.09868300837955639 0 0)
(0.09404183334805505 0 0)
(0.08784148058821215 0 0)
(0.07989032758492408 0 0)
(0.07006971158020858 0 0)
(0.05835195945472926 0 0)
(0.04481212439805061 0 0)
(0.02963029788256 0 0)
(0.0130766070321163 0 0)
(-0.004518287577120902 0 0)
(-0.02278867155703497 0 0)
(-0.0413510261002417 0 0)
(-0.05977862378275096 0 0)
(-0.07734987422000815 0 0)
(-0.09257267187601689 0 0)
(-0.103215246258568 0 0)
(-0.1079736193612524 0 0)
(-0.1088628122744041 0 0)
(-0.1087415356516708 0 0)
(-0.1082726080648276 0 0)
(-0.1074511179039841 0 0)
(-0.1060507587166818 0 0)
(-0.103852221305262 0 0)
(-0.1006224856969071 0 0)
(-0.09612384054590058 0 0)
(-0.09013926059433434 0 0)
(-0.08249698049231635 0 0)
(-0.07308807895785123 0 0)
(-0.06188105773836636 0 0)
(-0.04893404882960188 0 0)
(-0.03439892252548504 0 0)
(-0.01850999987839279 0 0)
(-0.001558972934475752 0 0)
(0.01612810907145615 0 0)
(0.03420606180607603 0 0)
(0.05230772651910284 0 0)
(0.06985777587858588 0 0)
(0.08563168425292866 0 0)
(0.09766409701479142 0 0)
(0.1041184017841443 0 0)
(0.1057237458903499 0 0)
(0.1057689506231116 0 0)
(0.1053382528560058 0 0)
(0.104615694801729 0 0)
(0.1033546389188557 0 0)
(0.101353231633697 0 0)
(0.09840180875564797 0 0)
(0.09427619223327664 0 0)
(0.08874839270543354 0 0)
(0.08161591914644294 0 0)
(0.0727278694631296 0 0)
(0.062002206771311 0 0)
(0.04943889067531773 0 0)
(0.0351290308633975 0 0)
(0.0192526572565049 0 0)
(0.002063312288421182 0 0)
(-0.0161254360396461 0 0)
(-0.03494381978821505 0 0)
(-0.05394955632419678 0 0)
(-0.0724257670915254 0 0)
(-0.08887655440587686 0 0)
(-0.1009392863638215 0 0)
(-0.1068940285551146 0 0)
(-0.1082313986959901 0 0)
(-0.1082241524408314 0 0)
(-0.1078049714095115 0 0)
(-0.1070861202368892 0 0)
(-0.1058335676431073 0 0)
(-0.1038632432241228 0 0)
(-0.1009699900266691 0 0)
(-0.09693685875610786 0 0)
(-0.09155541876322452 0 0)
(-0.08464836785322315 0 0)
(-0.07608468871327974 0 0)
(-0.06579172617385121 0 0)
(-0.0537678250428931 0 0)
(-0.04009173746808976 0 0)
(-0.02492118619834329 0 0)
(-0.008478351838590822 0 0)
(0.008964016108956205 0 0)
(0.02708533390777585 0 0)
(0.04551652117312224 0 0)
(0.06371914418516206 0 0)
(0.08054244790001452 0 0)
(0.09396233375338764 0 0)
(0.1018850610377476 0 0)
(0.1043451218502144 0 0)
(0.1045339194321215 0 0)
(0.1042109115792177 0 0)
(0.1035836435019928 0 0)
(0.1024778730879198 0 0)
(0.1006985165896806 0 0)
(0.09806044843433885 0 0)
(0.09436399845528032 0 0)
(0.08939580055673112 0 0)
(0.08295505787532359 0 0)
(0.07487645027045663 0 0)
(0.06504421815519815 0 0)
(0.05340471340771337 0 0)
(0.03997911894389077 0 0)
(0.02486966005569927 0 0)
(0.008254440125540866 0 0)
(-0.009617041028444514 0 0)
(-0.0284149822677054 0 0)
(-0.04771171633964969 0 0)
(-0.0668414281656057 0 0)
(-0.08441831222587609 0 0)
(-0.09803471525779467 0 0)
(-0.105515770241645 0 0)
(-0.107613814468211 0 0)
(-0.107753326497129 0 0)
(-0.1074152469821484 0 0)
(-0.1068040441447386 0 0)
(-0.1056975152148245 0 0)
(-0.1039328969348897 0 0)
(-0.1013299847345962 0 0)
(-0.09769117723326841 0 0)
(-0.09281906363851063 0 0)
(-0.08653842461409851 0 0)
(-0.07870880084032272 0 0)
(-0.06923290552981787 0 0)
(-0.0580677457009124 0 0)
(-0.04523622096569936 0 0)
(-0.03083199541163335 0 0)
(-0.01501326601066058 0 0)
(0.00200465337919254 0 0)
(0.01994385425666105 0 0)
(0.03845520773133723 0 0)
(0.05705173103447608 0 0)
(0.07473204351580703 0 0)
(0.08952295840920296 0 0)
(0.0991155375863967 0 0)
(0.1028140768647388 0 0)
(0.1032808967684921 0 0)
(0.1030734445226009 0 0)
(0.1025517752417388 0 0)
(0.1016043781228839 0 0)
(0.1000328625937204 0 0)
(0.09767154506031198 0 0)
(0.09434368231595458 0 0)
(0.08985342521335582 0 0)
(0.0840070973288522 0 0)
(0.07663366063479148 0 0)
(0.06759734407417677 0 0)
(0.05680910333006318 0 0)
(0.04423949237774222 0 0)
(0.02992892908690004 0 0)
(0.01398971678799049 0 0)
(-0.003392670606194083 0 0)
(-0.02194345299072449 0 0)
(-0.04127491460167644 0 0)
(-0.06079542560593825 0 0)
(-0.07930181152534427 0 0)
(-0.09445968600863293 0 0)
(-0.1036884012389256 0 0)
(-0.1068991456480591 0 0)
(-0.1072734725563431 0 0)
(-0.1070429615887784 0 0)
(-0.1065474476148471 0 0)
(-0.1056007563897663 0 0)
(-0.1040411374922592 0 0)
(-0.10170676508424 0 0)
(-0.09841746560427016 0 0)
(-0.09398768386995161 0 0)
(-0.08824864136561793 0 0)
(-0.08105873031472186 0 0)
(-0.07230825317848796 0 0)
(-0.06192786729571819 0 0)
(-0.04990013946875049 0 0)
(-0.03626822309535764 0 0)
(-0.02113625370588927 0 0)
(-0.00466603141110213 0 0)
(0.01291492774388911 0 0)
(0.03129579349345703 0 0)
(0.0500431003038881 0 0)
(0.06833545386344624 0 0)
(0.08438547393311609 0 0)
(0.09571674421357933 0 0)
(0.1009792854175227 0 0)
(0.1019624183252067 0 0)
(0.1018806480793676 0 0)
(0.1014780673250985 0 0)
(0.1006970375116651 0 0)
(0.09933215588047199 0 0)
(0.09723055027754868 0 0)
(0.09423513122463667 0 0)
(0.09016523972564773 0 0)
(0.08483620981002798 0 0)
(0.07807921900298045 0 0)
(0.06975047267200776 0 0)
(0.05973927228816886 0 0)
(0.04798022010551338 0 0)
(0.03446607784343775 0 0)
(0.01925500158923924 0 0)
(0.002474504250033588 0 0)
(-0.01566003651485355 0 0)
(-0.03481189675240114 0 0)
(-0.05446134559078611 0 0)
(-0.07361483620975294 0 0)
(-0.09016525800364021 0 0)
(-0.1012657949910135 0 0)
(-0.1059621960674171 0 0)
(-0.1067775166005632 0 0)
(-0.1066555858459275 0 0)
(-0.1062745028569278 0 0)
(-0.1054899938248417 0 0)
(-0.1041332215935073 0 0)
(-0.1020542905549255 0 0)
(-0.09908844342468499 0 0)
(-0.09505992500534724 0 0)
(-0.08980522814290855 0 0)
(-0.08318412963787343 0 0)
(-0.07508195830604576 0 0)
(-0.06541468694005918 0 0)
(-0.0541385997681682 0 0)
(-0.0412599759116792 0 0)
(-0.02683939367711426 0 0)
(-0.01099067858052459 0 0)
(0.006109880155847519 0 0)
(0.02419722237118498 0 0)
(0.04288649362522899 0 0)
(0.06152033142541637 0 0)
(0.07860317171113614 0 0)
(0.09161383168922448 0 0)
(0.09865927279507507 0 0)
(0.1005422699758924 0 0)
(0.1006129243081506 0 0)
(0.1003332491840423 0 0)
(0.0997223685771524 0 0)
(0.0985651164102051 0 0)
(0.09671896798890767 0 0)
(0.09403697615951853 0 0)
(0.09034999127517214 0 0)
(0.08548332647206904 0 0)
(0.07927498733294812 0 0)
(0.07158039799287094 0 0)
(0.06227682224181526 0 0)
(0.05127514547232204 0 0)
(0.03853388273835253 0 0)
(0.02406881129740916 0 0)
(0.007958339233871452 0 0)
(-0.009637908247792707 0 0)
(-0.0284402273913092 0 0)
(-0.04800344034035153 0 0)
(-0.06752700393267287 0 0)
(-0.08523650926888346 0 0)
(-0.09822027630125935 0 0)
(-0.104669061087339 0 0)
(-0.1062295764457035 0 0)
(-0.1062451779530696 0 0)
(-0.105983031274984 0 0)
(-0.1053646235237841 0 0)
(-0.1042134971929423 0 0)
(-0.102385405547169 0 0)
(-0.09972618542539241 0 0)
(-0.09606774594940197 0 0)
(-0.09125165283805389 0 0)
(-0.08514178686794983 0 0)
(-0.07762350121148485 0 0)
(-0.06860490132415296 0 0)
(-0.05802502367053359 0 0)
(-0.0458639406157857 0 0)
(-0.032149146327353 0 0)
(-0.01695657527647164 0 0)
(-0.0004190984119490716 0 0)
(0.01724687363220084 0 0)
(0.03571238330884726 0 0)
(0.0544452055005992 0 0)
(0.0722707091637031 0 0)
(0.08682860092392727 0 0)
(0.09574863205937305 0 0)
(0.09894886141675203 0 0)
(0.09927701262189288 0 0)
(0.0991153317598055 0 0)
(0.09868169660387437 0 0)
(0.09773507995010122 0 0)
(0.09613785842512904 0 0)
(0.09375393834762549 0 0)
(0.0904251587427435 0 0)
(0.08598374124563853 0 0)
(0.08027312873432871 0 0)
(0.07315190882458705 0 0)
(0.06449389544945749 0 0)
(0.05419627032141876 0 0)
(0.04219309893328016 0 0)
(0.02846731492313587 0 0)
(0.01305832956258564 0 0)
(-0.003923371207764485 0 0)
(-0.02225904762977607 0 0)
(-0.04157398913488006 0 0)
(-0.06121137471813781 0 0)
(-0.07975959238363875 0 0)
(-0.09449567465237636 0 0)
(-0.1028782169241246 0 0)
(-0.1055647836627755 0 0)
(-0.1058079386606762 0 0)
(-0.1056500852121247 0 0)
(-0.1051987259747849 0 0)
(-0.104254886537304 0 0)
(-0.1026787262638525 0 0)
(-0.1003223047442375 0 0)
(-0.09702130638236707 0 0)
(-0.09261890996226738 0 0)
(-0.08698145399867613 0 0)
(-0.07999629084538604 0 0)
(-0.07156928483863136 0 0)
(-0.06163059096940614 0 0)
(-0.05014374459254813 0 0)
(-0.03711252074781529 0 0)
(-0.02258370817137057 0 0)
(-0.0066526321473242 0 0)
(0.01051316677260593 0 0)
(0.02863726504383128 0 0)
(0.04727306063248585 0 0)
(0.06553277892633402 0 0)
(0.0814107199388219 0 0)
(0.09219875053465883 0 0)
(0.09698358348215631 0 0)
(0.0978444937875608 0 0)
(0.09780955063245957 0 0)
(0.09752699939601506 0 0)
(0.0967930950288351 0 0)
(0.09545002846988791 0 0)
(0.09336413210080256 0 0)
(0.09038349892122167 0 0)
(0.08634309001179971 0 0)
(0.08109104414305569 0 0)
(0.07449341275121385 0 0)
(0.06642719369724147 0 0)
(0.05678270199712705 0 0)
(0.04547716735210466 0 0)
(0.03246932911542522 0 0)
(0.01776855705350498 0 0)
(0.001444617114566256 0 0)
(-0.01633909056538776 0 0)
(-0.03527144184264266 0 0)
(-0.0548139109714335 0 0)
(-0.07388352912253331 0 0)
(-0.09013139250502543 0 0)
(-0.100532852786308 0 0)
(-0.1046628517496242 0 0)
(-0.1053390415700048 0 0)
(-0.105272074006917 0 0)
(-0.1049726360769195 0 0)
(-0.1042349098243943 0 0)
(-0.1029057057003206 0 0)
(-0.1008453642076542 0 0)
(-0.09789263653880828 0 0)
(-0.09388904783081953 0 0)
(-0.08870018238423426 0 0)
(-0.08221496658077058 0 0)
(-0.07433934715478256 0 0)
(-0.06499860978135404 0 0)
(-0.05414547622549514 0 0)
(-0.04176762249345384 0 0)
(-0.02789124618231954 0 0)
(-0.01258301830446376 0 0)
(0.004030276241295277 0 0)
(0.02171974414626244 0 0)
(0.04011477056263037 0 0)
(0.0585444872794573 0 0)
(0.07543273592440718 0 0)
(0.08799835881142486 0 0)
(0.09454020999458429 0 0)
(0.09629480617146743 0 0)
(0.09642079885260951 0 0)
(0.09626580121247272 0 0)
(0.09574525827183539 0 0)
(0.0946541286639086 0 0)
(0.0928611869741517 0 0)
(0.09021935957829735 0 0)
(0.08656743593099681 0 0)
(0.08175433631373046 0 0)
(0.07564953386584697 0 0)
(0.06813407107893003 0 0)
(0.05909756415838403 0 0)
(0.04844877620428425 0 0)
(0.03613007788427852 0 0)
(0.02212806193906072 0 0)
(0.006481143262269641 0 0)
(-0.01069548940574846 0 0)
(-0.02915421819861506 0 0)
(-0.0484526673524756 0 0)
(-0.06774909429923978 0 0)
(-0.0851537833514367 0 0)
(-0.09755118949926511 0 0)
(-0.1034183942363149 0 0)
(-0.1048339795015987 0 0)
(-0.1048531562526853 0 0)
(-0.1046937823764115 0 0)
(-0.1041462730750544 0 0)
(-0.1030544537215898 0 0)
(-0.1012820200443228 0 0)
(-0.09866901786258486 0 0)
(-0.09505288383223282 0 0)
(-0.09029528855868532 0 0)
(-0.08428517631512573 0 0)
(-0.07692931415907131 0 0)
(-0.06815063105269284 0 0)
(-0.05789527680639765 0 0)
(-0.04614025097874814 0 0)
(-0.03289705665278295 0 0)
(-0.01821271284325846 0 0)
(-0.002182464257110849 0 0)
(0.01501322063380869 0 0)
(0.03306870090033572 0 0)
(0.05145167625408042 0 0)
(0.06897596355228577 0 0)
(0.0831560743704835 0 0)
(0.09158205012180783 0 0)
(0.09456964825427028 0 0)
(0.09493022732043596 0 0)
(0.09492065850659966 0 0)
(0.09458897624149699 0 0)
(0.09374352433611385 0 0)
(0.09224063582770942 0 0)
(0.0899351086586971 0 0)
(0.08666566543958683 0 0)
(0.08227734983549187 0 0)
(0.07663999397691831 0 0)
(0.06964083968027077 0 0)
(0.06117390602422645 0 0)
(0.05114398592757426 0 0)
(0.03948132565645772 0 0)
(0.02615527053991339 0 0)
(0.01118209280118816 0 0)
(-0.005359416971980085 0 0)
(-0.02328008693874765 0 0)
(-0.0422178201521557 0 0)
(-0.06150761740961796 0 0)
(-0.07969735601578092 0 0)
(-0.09394993917897654 0 0)
(-0.1017480647003033 0 0)
(-0.1041993003485346 0 0)
(-0.1044078972098841 0 0)
(-0.104367786308831 0 0)
(-0.1039939695560409 0 0)
(-0.1031338041577368 0 0)
(-0.101638895050303 0 0)
(-0.09935585067226418 0 0)
(-0.09611817883433436 0 0)
(-0.09178142017042031 0 0)
(-0.08623231712510791 0 0)
(-0.07937733818567193 0 0)
(-0.07113717106400819 0 0)
(-0.06145256033952451 0 0)
(-0.05029209168896822 0 0)
(-0.0376568507123175 0 0)
(-0.02358172603089379 0 0)
(-0.008139493028428082 0 0)
(0.008531134212039309 0 0)
(0.02617454748792513 0 0)
(0.04435440346242973 0 0)
(0.062201054999603 0 0)
(0.07771735311275058 0 0)
(0.08802819059216281 0 0)
(0.09251694259389115 0 0)
(0.09336359524613629 0 0)
(0.09349050076135329 0 0)
(0.09330493503006108 0 0)
(0.09270239883533944 0 0)
(0.09148288084340885 0 0)
(0.08950507233045688 0 0)
(0.08660860415965008 0 0)
(0.08263440099798362 0 0)
(0.07745044018815946 0 0)
(0.07094711138457897 0 0)
(0.06302208322335712 0 0)
(0.05357962400432609 0 0)
(0.04254317568040661 0 0)
(0.02986952977540343 0 0)
(0.01555860861867761 0 0)
(-0.0003377414285102728 0 0)
(-0.0176808898934398 0 0)
(-0.0361737075451234 0 0)
(-0.05527423011840184 0 0)
(-0.07389550055375976 0 0)
(-0.08968230587897026 0 0)
(-0.09954627389829991 0 0)
(-0.1033617974839548 0 0)
(-0.1040013559588029 0 0)
(-0.1040342209629983 0 0)
(-0.1038031563793351 0 0)
(-0.1031546963498446 0 0)
(-0.1019183903578568 0 0)
(-0.09994770861536142 0 0)
(-0.09707389257772235 0 0)
(-0.0931452643248747 0 0)
(-0.08804400312632957 0 0)
(-0.08167565667674669 0 0)
(-0.07395868306308498 0 0)
(-0.06482777246598617 0 0)
(-0.05424276701227401 0 0)
(-0.04219501288569106 0 0)
(-0.0287093201720269 0 0)
(-0.01384473346333925 0 0)
(0.002286981490345662 0 0)
(0.01947405224640607 0 0)
(0.03735808894834256 0 0)
(0.05527837292308367 0 0)
(0.07170880403353033 0 0)
(0.08385556179641405 0 0)
(0.09003050980520051 0 0)
(0.09177051083631432 0 0)
(0.09195363249581524 0 0)
(0.09193403753698574 0 0)
(0.0915417136980403 0 0)
(0.09059301587567395 0 0)
(0.08893502812622472 0 0)
(0.08640427476783322 0 0)
(0.08283745628846839 0 0)
(0.07809620923153708 0 0)
(0.0720707920158257 0 0)
(0.06466507576718851 0 0)
(0.05578774910338434 0 0)
(0.04535820300322223 0 0)
(0.03332114935489654 0 0)
(0.01966051460056581 0 0)
(0.004408081448178214 0 0)
(-0.01233297607673853 0 0)
(-0.0303249760991757 0 0)
(-0.04912715577494486 0 0)
(-0.06790725261738825 0 0)
(-0.08481354784111453 0 0)
(-0.09673116714356304 0 0)
(-0.1022038873538134 0 0)
(-0.1035766423303004 0 0)
(-0.103618201276714 0 0)
(-0.1035547405228085 0 0)
(-0.1031005692119712 0 0)
(-0.1021162104627829 0 0)
(-0.1004497116112887 0 0)
(-0.09792647036938737 0 0)
(-0.09438632469301216 0 0)
(-0.08970889214375542 0 0)
(-0.08380309838363494 0 0)
(-0.07658970375819417 0 0)
(-0.06799964305811433 0 0)
(-0.05798313336379981 0 0)
(-0.0465183531346798 0 0)
(-0.0336168530590733 0 0)
(-0.01932612338382483 0 0)
(-0.003738103879851526 0 0)
(0.0129757746754735 0 0)
(0.03050898070430184 0 0)
(0.04832409574992198 0 0)
(0.06529478546799329 0 0)
(0.07907632150610321 0 0)
(0.08710832739330981 0 0)
(0.08998887143791767 0 0)
(0.09034762792098003 0 0)
(0.09047588344078589 0 0)
(0.09025604316482524 0 0)
(0.08957401959278082 0 0)
(0.08823359379996369 0 0)
(0.08606933317065046 0 0)
(0.08290452708927924 0 0)
(0.07859163625811032 0 0)
(0.07302307527677977 0 0)
(0.06611130995250303 0 0)
(0.05777240045576398 0 0)
(0.04792696764667851 0 0)
(0.03651165078010932 0 0)
(0.02349376917214607 0 0)
(0.008885084196990752 0 0)
(-0.00724213402139681 0 0)
(-0.02470709019655674 0 0)
(-0.04313921843923069 0 0)
(-0.06186356758798661 0 0)
(-0.07948440884953716 0 0)
(-0.09327944595143926 0 0)
(-0.1006986492050809 0 0)
(-0.103003378685937 0 0)
(-0.1032378250606304 0 0)
(-0.1032639115262729 0 0)
(-0.1029742445393053 0 0)
(-0.1022317873111167 0 0)
(-0.1008641819469085 0 0)
(-0.09869331460766446 0 0)
(-0.09554123687911295 0 0)
(-0.09127383880884121 0 0)
(-0.0858017556570661 0 0)
(-0.07905713732277832 0 0)
(-0.0709789825933289 0 0)
(-0.0615151841585113 0 0)
(-0.05063188190967331 0 0)
(-0.03832302873668286 0 0)
(-0.02461734370377605 0 0)
(-0.009584432151109799 0 0)
(0.006637207341214227 0 0)
(0.02378482633126165 0 0)
(0.04141218005414014 0 0)
(0.0586679690077231 0 0)
(0.07368713164818765 0 0)
(0.08366418286745055 0 0)
(0.08788718363814685 0 0)
(0.08881141480507297 0 0)
(0.08891090363096553 0 0)
(0.08884023713510882 0 0)
(0.0883925439701293 0 0)
(0.08736812968128556 0 0)
(0.08558343104880627 0 0)
(0.08283970769715279 0 0)
(0.07896552778287386 0 0)
(0.07384063406507735 0 0)
(0.06738499590927648 0 0)
(0.05953566034025153 0 0)
(0.05023178180341997 0 0)
(0.03941379103175616 0 0)
(0.02703554251244905 0 0)
(0.01308376252138887 0 0)
(-0.002403406320072405 0 0)
(-0.01929801729127109 0 0)
(-0.0373025758905763 0 0)
(-0.05586442142285914 0 0)
(-0.07391224422938338 0 0)
(-0.08919461583771787 0 0)
(-0.09871284111355767 0 0)
(-0.102284670388421 0 0)
(-0.1029654927809267 0 0)
(-0.1029145196446334 0 0)
(-0.1027669755433247 0 0)
(-0.1022308532001973 0 0)
(-0.1011582636280468 0 0)
(-0.09935554117950125 0 0)
(-0.09661655602844856 0 0)
(-0.09277615990211001 0 0)
(-0.08772831532690442 0 0)
(-0.08141142120226887 0 0)
(-0.07378682182124469 0 0)
(-0.06482387341954721 0 0)
(-0.05449489253288402 0 0)
(-0.04278125500347657 0 0)
(-0.0296870399399478 0 0)
(-0.0152511221172637 0 0)
(0.000431576049696522 0 0)
(0.0171533498964291 0 0)
(0.03453575908028612 0 0)
(0.05190232179804593 0 0)
(0.06779729860345221 0 0)
(0.07965505827508972 0 0)
(0.08559424902914792 0 0)
(0.08722143506245435 0 0)
(0.08731521480484289 0 0)
(0.08731510854910352 0 0)
(0.08702108738424884 0 0)
(0.08628136987980516 0 0)
(0.08488363621183587 0 0)
(0.0825988375702929 0 0)
(0.07921229751063766 0 0)
(0.07456747509309881 0 0)
(0.06856898677611577 0 0)
(0.06116338941364294 0 0)
(0.05232081171476347 0 0)
(0.04202060177357489 0 0)
(0.03023901182057203 0 0)
(0.0169506260741944 0 0)
(0.002151529685420156 0 0)
(-0.01409712331143808 0 0)
(-0.03158321759828164 0 0)
(-0.04986078082910346 0 0)
(-0.06810084844374618 0 0)
(-0.08450961976266981 0 0)
(-0.09613848782274148 0 0)
(-0.1014449704224345 0 0)
(-0.1026681820693786 0 0)
(-0.1026654939551758 0 0)
(-0.1025031284288227 0 0)
(-0.1020719712460948 0 0)
(-0.1012340602123537 0 0)
(-0.09979047557433454 0 0)
(-0.09751002001322129 0 0)
(-0.09417182059646367 0 0)
(-0.08961317619862751 0 0)
(-0.08374083751215744 0 0)
(-0.07652158378970798 0 0)
(-0.06796380706421201 0 0)
(-0.05809019718429311 0 0)
(-0.04691184390561043 0 0)
(-0.03442443961906954 0 0)
(-0.02063012206784762 0 0)
(-0.005567955455727443 0 0)
(0.01062915356977579 0 0)
(0.0276587903622949 0 0)
(0.04498215548037768 0 0)
(0.06149811810524074 0 0)
(0.07494836669096477 0 0)
(0.08290605183124249 0 0)
(0.08562712815324075 0 0)
(0.08601202928685357 0 0)
(0.08582843389484449 0 0)
(0.0855518870277856 0 0)
(0.08492939669545087 0 0)
(0.08382468808546507 0 0)
(0.08201550615063741 0 0)
(0.07922943464773523 0 0)
(0.07521078758414136 0 0)
(0.06977424169049751 0 0)
(0.06282725725038059 0 0)
(0.05436299628949095 0 0)
(0.04443047268185215 0 0)
(0.03309254834203272 0 0)
(0.02038331383254372 0 0)
(0.006293453708823382 0 0)
(-0.00919977504242675 0 0)
(-0.02602558154290925 0 0)
(-0.04386745255679146 0 0)
(-0.06207739996242915 0 0)
(-0.07927122294328247 0 0)
(-0.09276008317308994 0 0)
(-0.100179910592406 0 0)
(-0.1024322549705347 0 0)
(-0.102664673723624 0 0)
(-0.1024438012894213 0 0)
(-0.1020145628026282 0 0)
(-0.101194752803789 0 0)
(-0.09989326907224003 0 0)
(-0.0979596602219252 0 0)
(-0.0951823983757045 0 0)
(-0.09132470768874883 0 0)
(-0.08616092614992178 0 0)
(-0.07951275006068176 0 0)
(-0.07129687722909614 0 0)
(-0.06157790354951513 0 0)
(-0.05057488208582736 0 0)
(-0.03854782698336666 0 0)
(-0.02556179084513887 0 0)
(-0.01144220887877887 0 0)
(0.004240805715362862 0 0)
(0.0204057283791543 0 0)
(0.03964146626153148 0 0)
)
;

boundaryField
{
    inlet
    {
        type            zeroGradient;
    }
    outlet
    {
        type            velocityOutletNSCBCx;
        pInf            101325;
        gamma           1.4;
        etaAc           1;
        fieldInf        (-1 0 0);
        lInf            2.25;
        value           uniform (0.04718784536078999 0 0);
    }
    frontAndBack
    {
        type            empty;
    }
}


// ************************************************************************* //
