/*--------------------------------*- C++ -*----------------------------------*\
| =========                 |                                                 |
| \\      /  F ield         | OpenFOAM: The Open Source CFD Toolbox           |
|  \\    /   O peration     | Version:  v2012                                 |
|   \\  /    A nd           | Website:  www.openfoam.com                      |
|    \\/     M anipulation  |                                                 |
\*---------------------------------------------------------------------------*/
FoamFile
{
    version     2.0;
    format      ascii;
    class       volVectorField;
    location    "0.015";
    object      UMean;
}
// * * * * * * * * * * * * * * * * * * * * * * * * * * * * * * * * * * * * * //

dimensions      [0 1 -1 0 0 0 0];


internalField   nonuniform List<vector> 
1000
(
(-6.494443777496928e-05 0 0)
(-4.013043594898689e-05 0 0)
(-2.611083909962641e-05 0 0)
(2.196373305439078e-06 0 0)
(3.534629036066355e-05 0 0)
(6.901259705620769e-05 0 0)
(0.0001135777022538357 0 0)
(0.0001604679776852917 0 0)
(0.0002161840375810043 0 0)
(0.0002744793859919522 0 0)
(0.0003353361526449002 0 0)
(0.0003956508777989355 0 0)
(0.0004556379786731363 0 0)
(0.0005147838442146291 0 0)
(0.000572056301165671 0 0)
(0.0006264222582305447 0 0)
(0.0006764746401565851 0 0)
(0.0007213862520239341 0 0)
(0.0007601079019273607 0 0)
(0.0007922633848205754 0 0)
(0.0008172170858314801 0 0)
(0.0008345951567585758 0 0)
(0.0008441582978266699 0 0)
(0.0008455404110593634 0 0)
(0.0008388958272383123 0 0)
(0.0008241965153665516 0 0)
(0.0008019249778603578 0 0)
(0.0007722382987414067 0 0)
(0.0007356160182515759 0 0)
(0.0006925151117233239 0 0)
(0.0006434666569225834 0 0)
(0.0005891866083588526 0 0)
(0.000531567368773699 0 0)
(0.0004725164040665268 0 0)
(0.0004133603757634553 0 0)
(0.0003543853406324664 0 0)
(0.0002961429022640115 0 0)
(0.000239186543836204 0 0)
(0.0001845774027900505 0 0)
(0.0001334707813009388 0 0)
(8.719760255667211e-05 0 0)
(4.660339413289283e-05 0 0)
(1.27775622299818e-05 0 0)
(-1.377676967149488e-05 0 0)
(-3.259497499666999e-05 0 0)
(-4.348919787071898e-05 0 0)
(-4.617805318614036e-05 0 0)
(-4.077659484562687e-05 0 0)
(-2.733973981344558e-05 0 0)
(-6.024866465239811e-06 0 0)
(2.285984267765719e-05 0 0)
(5.888214285421592e-05 0 0)
(0.0001018281652723527 0 0)
(0.0001511448698393307 0 0)
(0.0002056109253449851 0 0)
(0.0002632325836058878 0 0)
(0.0003220587643829079 0 0)
(0.000380932795671483 0 0)
(0.0004396462010264349 0 0)
(0.000497730456539033 0 0)
(0.0005546320358832365 0 0)
(0.0006093348974356921 0 0)
(0.0006609489810550401 0 0)
(0.0007083592286877507 0 0)
(0.0007502740184745323 0 0)
(0.0007858262854614313 0 0)
(0.0008142553998504311 0 0)
(0.0008349395235703362 0 0)
(0.000847707597171792 0 0)
(0.0008522817290530833 0 0)
(0.0008487645366577232 0 0)
(0.0008371915350424707 0 0)
(0.0008179276276346235 0 0)
(0.0007910122458606693 0 0)
(0.0007567749730025339 0 0)
(0.0007153877295594509 0 0)
(0.0006676178983494766 0 0)
(0.0006143632710350851 0 0)
(0.0005580089963666567 0 0)
(0.0005004388364679805 0 0)
(0.0004427761680971718 0 0)
(0.0003852345154042071 0 0)
(0.0003282221528461013 0 0)
(0.0002722563841346446 0 0)
(0.0002180391825239203 0 0)
(0.0001664795530710876 0 0)
(0.0001189016538213905 0 0)
(7.611766461096942e-05 0 0)
(3.945279280119546e-05 0 0)
(9.607035293524081e-06 0 0)
(-1.252418827681122e-05 0 0)
(-2.678736176487507e-05 0 0)
(-3.270342665288745e-05 0 0)
(-3.041682560574588e-05 0 0)
(-2.001822243780864e-05 0 0)
(-1.757306457351559e-06 0 0)
(2.424202393609805e-05 0 0)
(5.764647324423259e-05 0 0)
(9.809703749585116e-05 0 0)
(0.0001452549935808628 0 0)
(0.0001975761604436828 0 0)
(0.0002528705097590402 0 0)
(0.0003092272241312878 0 0)
(0.000365802631965372 0 0)
(0.0004221563356606313 0 0)
(0.0004780227086590646 0 0)
(0.0005330095901196388 0 0)
(0.0005861905177390872 0 0)
(0.0006368963554356321 0 0)
(0.0006841097577634217 0 0)
(0.0007267884992484382 0 0)
(0.0007638240658947919 0 0)
(0.0007944207490231156 0 0)
(0.0008176730347343428 0 0)
(0.000833278704154558 0 0)
(0.000840622431241534 0 0)
(0.0008398303434437466 0 0)
(0.0008308909562982125 0 0)
(0.0008140253343536466 0 0)
(0.00078941520773384 0 0)
(0.0007573790351082831 0 0)
(0.0007178965731872565 0 0)
(0.0006719499815871212 0 0)
(0.0006204392236055426 0 0)
(0.0005656921043300405 0 0)
(0.0005096610211819021 0 0)
(0.0004535316067005341 0 0)
(0.0003973665552030635 0 0)
(0.0003416918403790355 0 0)
(0.0002867271303781082 0 0)
(0.0002332401236662395 0 0)
(0.0001817862133524179 0 0)
(0.0001335669089033475 0 0)
(8.94670071765953e-05 0 0)
(5.054410580771233e-05 0 0)
(1.777889172058066e-05 0 0)
(-7.864129521652285e-06 0 0)
(-2.587758092216666e-05 0 0)
(-3.573672503939193e-05 0 0)
(-3.717660183149329e-05 0 0)
(-3.012252434308411e-05 0 0)
(-1.488293911218037e-05 0 0)
(8.633024727104423e-06 0 0)
(3.996096849200715e-05 0 0)
(7.881368003357751e-05 0 0)
(0.0001245578621632598 0 0)
(0.0001758183657464241 0 0)
(0.0002300437903191978 0 0)
(0.0002854325486359611 0 0)
(0.0003409425447360523 0 0)
(0.0003964493773121206 0 0)
(0.0004515736875859031 0 0)
(0.0005058465757995115 0 0)
(0.0005587654488410681 0 0)
(0.0006095168589349603 0 0)
(0.0006571918695439311 0 0)
(0.0007011314334148404 0 0)
(0.0007399354406961274 0 0)
(0.0007730206181287674 0 0)
(0.0007992493686775052 0 0)
(0.0008182321655128256 0 0)
(0.0008290018704296544 0 0)
(0.0008316538013795871 0 0)
(0.0008259054960770904 0 0)
(0.0008118692788511728 0 0)
(0.0007896611076921071 0 0)
(0.0007595903362007201 0 0)
(0.0007218235273890745 0 0)
(0.0006771013516735368 0 0)
(0.0006267467673584176 0 0)
(0.0005728239494705064 0 0)
(0.0005176250231415459 0 0)
(0.0004619336805704763 0 0)
(0.0004065816548345266 0 0)
(0.0003514264175371874 0 0)
(0.0002967787125715702 0 0)
(0.0002434762017757365 0 0)
(0.0001917990914465332 0 0)
(0.0001428216779197643 0 0)
(9.747136062499787e-05 0 0)
(5.666989725952308e-05 0 0)
(2.142874983341538e-05 0 0)
(-7.260711430138095e-06 0 0)
(-2.864248949986929e-05 0 0)
(-4.22813580100638e-05 0 0)
(-4.74420082014428e-05 0 0)
(-4.392951431270178e-05 0 0)
(-3.1881920240496e-05 0 0)
(-1.120904786577893e-05 0 0)
(1.773966073936897e-05 0 0)
(5.481626166441373e-05 0 0)
(9.89296190292151e-05 0 0)
(0.0001490384001197206 0 0)
(0.0002022745631893985 0 0)
(0.0002568298605804922 0 0)
(0.0003112975992040181 0 0)
(0.0003662802589785043 0 0)
(0.0004206014967908087 0 0)
(0.0004743316122246787 0 0)
(0.0005268924976531219 0 0)
(0.0005776550171336994 0 0)
(0.0006256641415212866 0 0)
(0.0006703766815569844 0 0)
(0.0007105989149975085 0 0)
(0.0007455861376293747 0 0)
(0.0007742679052738124 0 0)
(0.0007961164868959678 0 0)
(0.0008101832503736016 0 0)
(0.0008160925581299303 0 0)
(0.0008136044583263502 0 0)
(0.0008026923467587085 0 0)
(0.0007831758254110595 0 0)
(0.0007554764473494509 0 0)
(0.0007197206120405229 0 0)
(0.0006765061300595002 0 0)
(0.0006273466411482901 0 0)
(0.0005742916303009544 0 0)
(0.0005197500387583294 0 0)
(0.0004645823764138703 0 0)
(0.0004098754841749211 0 0)
(0.0003550627508722276 0 0)
(0.0003008047577218092 0 0)
(0.0002475308123281776 0 0)
(0.0001957733643154969 0 0)
(0.0001462694687768443 0 0)
(9.980403560757285e-05 0 0)
(5.756530094438056e-05 0 0)
(2.021067927385527e-05 0 0)
(-1.105104115429636e-05 0 0)
(-3.558687663930131e-05 0 0)
(-5.237508877731398e-05 0 0)
(-6.136953816622979e-05 0 0)
(-6.150440231388589e-05 0 0)
(-5.291442982657617e-05 0 0)
(-3.540695572632694e-05 0 0)
(-9.190601146865637e-06 0 0)
(2.562160674493475e-05 0 0)
(6.798119568954605e-05 0 0)
(0.0001166706383465416 0 0)
(0.0001689774074099214 0 0)
(0.0002227023887309113 0 0)
(0.0002763800258907331 0 0)
(0.0003306465984465766 0 0)
(0.0003842169236186527 0 0)
(0.0004375496686911678 0 0)
(0.0004896120562771297 0 0)
(0.0005403683664704065 0 0)
(0.0005885840273765216 0 0)
(0.0006337994964978012 0 0)
(0.0006751492661807364 0 0)
(0.0007116387106715999 0 0)
(0.0007424279707472204 0 0)
(0.0007666955114017721 0 0)
(0.0007838329006363638 0 0)
(0.0007927820305491608 0 0)
(0.0007935168855374442 0 0)
(0.0007857937732725491 0 0)
(0.0007693016935422954 0 0)
(0.0007442389993359599 0 0)
(0.0007106818971732434 0 0)
(0.0006694032339861036 0 0)
(0.0006214700285336948 0 0)
(0.0005693782647377045 0 0)
(0.0005153513664956071 0 0)
(0.0004608966541879187 0 0)
(0.0004062350739320359 0 0)
(0.000352012256065616 0 0)
(0.0002981397503004058 0 0)
(0.0002448806135067861 0 0)
(0.0001930733291919827 0 0)
(0.0001431765081917401 0 0)
(9.582901231715608e-05 0 0)
(5.232014052294907e-05 0 0)
(1.318251379103847e-05 0 0)
(-2.031309298805184e-05 0 0)
(-4.762026306028219e-05 0 0)
(-6.742251212001128e-05 0 0)
(-7.994996693342999e-05 0 0)
(-8.368449085437346e-05 0 0)
(-7.864160541278754e-05 0 0)
(-6.448870689861752e-05 0 0)
(-4.138508834214236e-05 0 0)
(-9.239483939798378e-06 0 0)
(3.1094223775513e-05 0 0)
(7.809236258421475e-05 0 0)
(0.0001293782116636608 0 0)
(0.0001822051915541272 0 0)
(0.0002354380221364911 0 0)
(0.0002883309367378505 0 0)
(0.0003417706782888309 0 0)
(0.0003944877592757116 0 0)
(0.0004461652410500263 0 0)
(0.0004966939005495907 0 0)
(0.0005450908767154293 0 0)
(0.0005907447084394702 0 0)
(0.0006328192093393724 0 0)
(0.0006706432335169868 0 0)
(0.0007031589038258137 0 0)
(0.000729594044674946 0 0)
(0.000749361481266626 0 0)
(0.0007611957596018403 0 0)
(0.0007649856321202699 0 0)
(0.000760461784672291 0 0)
(0.0007470725330803694 0 0)
(0.000724869763451125 0 0)
(0.0006938712646947806 0 0)
(0.0006547442489712058 0 0)
(0.0006083588112500922 0 0)
(0.0005572764200417049 0 0)
(0.0005037844303338413 0 0)
(0.0004499852988244527 0 0)
(0.0003952802327376258 0 0)
(0.0003418413896735483 0 0)
(0.0002880453773552163 0 0)
(0.0002350125579040462 0 0)
(0.0001829960805275179 0 0)
(0.000132872159385219 0 0)
(8.48671343206966e-05 0 0)
(4.012734546012137e-05 0 0)
(-4.594553782174953e-07 0 0)
(-3.599986552166316e-05 0 0)
(-6.568981951744509e-05 0 0)
(-8.840718357230389e-05 0 0)
(-0.0001038912617971075 0 0)
(-0.0001112745944662983 0 0)
(-0.0001097472327939413 0 0)
(-9.911738766678491e-05 0 0)
(-7.926725813002099e-05 0 0)
(-5.012851604120087e-05 0 0)
(-1.230279017311323e-05 0 0)
(3.285960158210397e-05 0 0)
(8.280682072762748e-05 0 0)
(0.0001348345958157767 0 0)
(0.0001874042039191489 0 0)
(0.0002394777257386562 0 0)
(0.0002924725358849859 0 0)
(0.0003444742230262824 0 0)
(0.0003958838409171391 0 0)
(0.000446032495014241 0 0)
(0.0004945417371046262 0 0)
(0.0005405398601556946 0 0)
(0.0005831601471148649 0 0)
(0.0006220724318166286 0 0)
(0.0006559989851778375 0 0)
(0.0006844367730251608 0 0)
(0.0007062454482383011 0 0)
(0.000721266165499883 0 0)
(0.0007276752880989812 0 0)
(0.0007261719278714147 0 0)
(0.0007158526437918742 0 0)
(0.0006967342780428527 0 0)
(0.0006684584138092676 0 0)
(0.0006316938469458937 0 0)
(0.0005872722655062601 0 0)
(0.0005373224082965345 0 0)
(0.0004845009226878374 0 0)
(0.0004310637073310946 0 0)
(0.0003769301063921848 0 0)
(0.0003235277372735788 0 0)
(0.0002700070138706822 0 0)
(0.0002172572504690886 0 0)
(0.0001651192660675151 0 0)
(0.0001147058354809195 0 0)
(6.622773391588336e-05 0 0)
(2.051586488021944e-05 0 0)
(-2.148443862469595e-05 0 0)
(-5.876750517451323e-05 0 0)
(-9.058536976273448e-05 0 0)
(-0.0001160727406309744 0 0)
(-0.0001341459027546213 0 0)
(-0.0001449621410507157 0 0)
(-0.00014697741480578 0 0)
(-0.0001398467685908299 0 0)
(-0.0001233911590234916 0 0)
(-9.753245617438509e-05 0 0)
(-6.256137122657484e-05 0 0)
(-1.957220791140788e-05 0 0)
(2.882084977629441e-05 0 0)
(7.998154045646743e-05 0 0)
(0.0001317179373305946 0 0)
(0.0001835438983816131 0 0)
(0.0002350413426669595 0 0)
(0.0002869554387783692 0 0)
(0.0003379685454074005 0 0)
(0.0003878310191498366 0 0)
(0.0004362022371486747 0 0)
(0.0004825295928860455 0 0)
(0.0005256882744422781 0 0)
(0.0005652815494753834 0 0)
(0.0006005347813030046 0 0)
(0.0006306128638572661 0 0)
(0.0006544312427851062 0 0)
(0.0006719507756553583 0 0)
(0.0006810264717658471 0 0)
(0.0006823624975482774 0 0)
(0.0006751475654355841 0 0)
(0.0006590439655398194 0 0)
(0.0006337704733284812 0 0)
(0.0005996061434156854 0 0)
(0.0005573500953024485 0 0)
(0.0005088696389741915 0 0)
(0.0004568114556597569 0 0)
(0.0004036155940060706 0 0)
(0.0003503393589256479 0 0)
(0.0002962595849961917 0 0)
(0.0002436655828048204 0 0)
(0.0001909429862236832 0 0)
(0.0001388575529157062 0 0)
(8.809200718340744e-05 0 0)
(3.926331963312953e-05 0 0)
(-7.186467314299548e-06 0 0)
(-5.05166784631889e-05 0 0)
(-8.936212411068706e-05 0 0)
(-0.0001231480743614532 0 0)
(-0.0001510035767000014 0 0)
(-0.0001717608666952887 0 0)
(-0.000185564491661777 0 0)
(-0.000191055476671373 0 0)
(-0.0001873224123888196 0 0)
(-0.0001744425854006383 0 0)
(-0.0001518899154687635 0 0)
(-0.000120118767425544 0 0)
(-7.969849862676548e-05 0 0)
(-3.304094943354145e-05 0 0)
(1.703561223262138e-05 0 0)
(6.796637589191577e-05 0 0)
(0.0001193556500880877 0 0)
(0.0001696737662446819 0 0)
(0.0002214881438565738 0 0)
(0.0002718218084818245 0 0)
(0.0003214550036149507 0 0)
(0.0003695832331677141 0 0)
(0.00041602618546954 0 0)
(0.0004596873890700018 0 0)
(0.0004998958776989677 0 0)
(0.0005361227408271303 0 0)
(0.0005676664618704851 0 0)
(0.0005933920871475962 0 0)
(0.0006127830080225907 0 0)
(0.0006250144700491304 0 0)
(0.0006287650145050661 0 0)
(0.0006244473099291688 0 0)
(0.0006113120268658021 0 0)
(0.0005891392342281236 0 0)
(0.0005577562615552985 0 0)
(0.0005178889438832612 0 0)
(0.000471204782554534 0 0)
(0.0004200705779223305 0 0)
(0.000367278186042477 0 0)
(0.0003143420721901158 0 0)
(0.0002606045839715951 0 0)
(0.0002081739336632015 0 0)
(0.0001554592531463224 0 0)
(0.0001035877031676989 0 0)
(5.257928119692774e-05 0 0)
(3.272654482792272e-06 0 0)
(-4.370328269236259e-05 0 0)
(-8.807388297159789e-05 0 0)
(-0.000128531654020714 0 0)
(-0.0001640537870884582 0 0)
(-0.000194007518451441 0 0)
(-0.000217641705009387 0 0)
(-0.0002335760237956343 0 0)
(-0.0002425822416758318 0 0)
(-0.0002423658721841727 0 0)
(-0.0002329786370622923 0 0)
(-0.0002139328213026027 0 0)
(-0.0001854434547886128 0 0)
(-0.0001479601855701914 0 0)
(-0.0001033730758583126 0 0)
(-5.458952894240283e-05 0 0)
(-4.38901386726174e-06 0 0)
(4.616941847739357e-05 0 0)
(9.63540868019913e-05 0 0)
(0.0001466543984178965 0 0)
(0.0001968480976633167 0 0)
(0.0002462577199452214 0 0)
(0.000294165229789952 0 0)
(0.0003405140688681018 0 0)
(0.0003846139268634136 0 0)
(0.0004254610274116504 0 0)
(0.0004623724538761368 0 0)
(0.0004951765346614201 0 0)
(0.000522618534664705 0 0)
(0.0005437928006826932 0 0)
(0.0005587019950176341 0 0)
(0.0005648558508869257 0 0)
(0.0005632623411796922 0 0)
(0.0005531805152451349 0 0)
(0.0005339717556628 0 0)
(0.0005056732818288212 0 0)
(0.0004683417656282623 0 0)
(0.0004236666778996727 0 0)
(0.0003737296768798351 0 0)
(0.0003214966869481064 0 0)
(0.000268628139912753 0 0)
(0.0002158921384876891 0 0)
(0.0001623632841341096 0 0)
(0.0001106143213183366 0 0)
(5.874335623028659e-05 0 0)
(7.65304081932628e-06 0 0)
(-4.20734431515684e-05 0 0)
(-8.960025994592246e-05 0 0)
(-0.0001347044159646896 0 0)
(-0.0001765932311672794 0 0)
(-0.0002138765898944143 0 0)
(-0.0002456433837251713 0 0)
(-0.0002718010034163076 0 0)
(-0.0002902558138439319 0 0)
(-0.0003023342859130587 0 0)
(-0.0003055275631211027 0 0)
(-0.0002994975622829668 0 0)
(-0.0002840791814940022 0 0)
(-0.0002589646830763159 0 0)
(-0.0002246985479597664 0 0)
(-0.0001825335507481017 0 0)
(-0.0001352368195905544 0 0)
(-8.587111390744128e-05 0 0)
(-3.615882902453829e-05 0 0)
(1.382893013735042e-05 0 0)
(6.256251452989418e-05 0 0)
(0.0001129826680057143 0 0)
(0.0001617532766559829 0 0)
(0.0002094710230034591 0 0)
(0.0002556968470770659 0 0)
(0.0002998998000602079 0 0)
(0.0003414411760054842 0 0)
(0.0003789912167881436 0 0)
(0.0004127285318291145 0 0)
(0.000441786085028681 0 0)
(0.0004646911931867215 0 0)
(0.0004814707215749462 0 0)
(0.0004907497504090735 0 0)
(0.0004914867011120624 0 0)
(0.0004842423361364055 0 0)
(0.0004679650766318868 0 0)
(0.0004427102696629233 0 0)
(0.0004082479914352162 0 0)
(0.0003657058730199224 0 0)
(0.0003173829022680976 0 0)
(0.000265626991826743 0 0)
(0.0002130681007220953 0 0)
(0.0001607151108032994 0 0)
(0.0001072817745947854 0 0)
(5.581049707923831e-05 0 0)
(3.785474470068136e-06 0 0)
(-4.713729068648386e-05 0 0)
(-9.71828727658299e-05 0 0)
(-0.0001453287145735325 0 0)
(-0.0001909857029589732 0 0)
(-0.0002339877950902993 0 0)
(-0.0002729529486072083 0 0)
(-0.00030654299706596 0 0)
(-0.0003347948587565092 0 0)
(-0.0003562954208623485 0 0)
(-0.0003701477377886016 0 0)
(-0.0003770292365801742 0 0)
(-0.0003745433370274996 0 0)
(-0.0003626430281710393 0 0)
(-0.0003411366419804011 0 0)
(-0.0003100678494068312 0 0)
(-0.0002708267779361067 0 0)
(-0.0002251428731295018 0 0)
(-0.0001771719893407421 0 0)
(-0.0001279261576667409 0 0)
(-7.874355106241742e-05 0 0)
(-3.006571915771943e-05 0 0)
(1.87729649833462e-05 0 0)
(6.742977964662748e-05 0 0)
(0.0001150415928030759 0 0)
(0.0001610629349679768 0 0)
(0.0002052772811658852 0 0)
(0.0002472223446546453 0 0)
(0.0002856475580718119 0 0)
(0.0003199013642953475 0 0)
(0.0003503582511818011 0 0)
(0.0003751110535569199 0 0)
(0.0003933371260829602 0 0)
(0.0004056169891431128 0 0)
(0.000408487591916348 0 0)
(0.0004039281824241037 0 0)
(0.0003906806896696154 0 0)
(0.0003683667519453421 0 0)
(0.0003369754089682323 0 0)
(0.0002968188542807397 0 0)
(0.000250247144326174 0 0)
(0.0001993129708931968 0 0)
(0.0001471316295882252 0 0)
(9.478528463570736e-05 0 0)
(4.242113110596743e-05 0 0)
(-1.044240123625279e-05 0 0)
(-6.145263594252678e-05 0 0)
(-0.0001124265536009284 0 0)
(-0.0001626710865954173 0 0)
(-0.0002112779811929087 0 0)
(-0.0002576941200619906 0 0)
(-0.0003012216263387095 0 0)
(-0.0003421393993861987 0 0)
(-0.0003770809636827858 0 0)
(-0.0004072894626802945 0 0)
(-0.0004316237398970547 0 0)
(-0.0004478092769076172 0 0)
(-0.0004578822363999623 0 0)
(-0.0004588082843843907 0 0)
(-0.0004502852263362654 0 0)
(-0.000432449967726276 0 0)
(-0.0004048267196579253 0 0)
(-0.0003685149139445846 0 0)
(-0.0003252578880763082 0 0)
(-0.0002779720465045167 0 0)
(-0.0002301183711481834 0 0)
(-0.0001815340295515859 0 0)
(-0.0001328582100940437 0 0)
(-8.580381358573023e-05 0 0)
(-3.669813068339587e-05 0 0)
(1.024591236511253e-05 0 0)
(5.617170838078469e-05 0 0)
(0.0001002973742922231 0 0)
(0.000142350767974119 0 0)
(0.0001816777262859352 0 0)
(0.000216350666095788 0 0)
(0.0002481214984030271 0 0)
(0.0002743546004212965 0 0)
(0.0002942233275309877 0 0)
(0.0003083643051114842 0 0)
(0.0003144638922416188 0 0)
(0.0003121362709273378 0 0)
(0.0003016950461110015 0 0)
(0.0002823097884516271 0 0)
(0.0002538385116191647 0 0)
(0.0002166211128169858 0 0)
(0.0001716021995885354 0 0)
(0.0001225569482884225 0 0)
(6.985006253822224e-05 0 0)
(1.804499849181152e-05 0 0)
(-3.383609850259653e-05 0 0)
(-8.690512126389993e-05 0 0)
(-0.0001375786080989138 0 0)
(-0.0001888472943735541 0 0)
(-0.0002389289311252105 0 0)
(-0.0002879587756859465 0 0)
(-0.0003350620016534611 0 0)
(-0.0003792876584168116 0 0)
(-0.0004212602564159567 0 0)
(-0.0004581834435570168 0 0)
(-0.0004899838385685078 0 0)
(-0.0005166503475717038 0 0)
(-0.0005360411970522308 0 0)
(-0.0005476796205504952 0 0)
(-0.0005524731547398379 0 0)
(-0.0005475502476001054 0 0)
(-0.0005332202077096833 0 0)
(-0.0005092750017568668 0 0)
(-0.000476013147679854 0 0)
(-0.0004354671691071673 0 0)
(-0.0003894032604080885 0 0)
(-0.0003426799342619309 0 0)
(-0.0002948366423864664 0 0)
(-0.0002467596045448767 0 0)
(-0.0001997090986526663 0 0)
(-0.0001522817047138302 0 0)
(-0.0001052782271181516 0 0)
(-5.940617635227944e-05 0 0)
(-1.542724003859866e-05 0 0)
(2.669826782215093e-05 0 0)
(6.637423067415088e-05 0 0)
(0.0001023326117112281 0 0)
(0.0001340209555472868 0 0)
(0.0001623073307000627 0 0)
(0.0001836557600403818 0 0)
(0.0001993134889498629 0 0)
(0.0002086315542953771 0 0)
(0.0002082560722215493 0 0)
(0.0002005349370032489 0 0)
(0.0001842033915720264 0 0)
(0.0001586557749676076 0 0)
(0.0001243466742947336 0 0)
(8.16652838996867e-05 0 0)
(3.377959623232222e-05 0 0)
(-1.788009763920594e-05 0 0)
(-7.007849659912666e-05 0 0)
(-0.0001217723017465481 0 0)
(-0.0001736657949979293 0 0)
(-0.0002260736956461063 0 0)
(-0.0002761436480684628 0 0)
(-0.0003264453529400102 0 0)
(-0.0003757478663573596 0 0)
(-0.0004233598573387752 0 0)
(-0.0004685506503356667 0 0)
(-0.0005106983263105435 0 0)
(-0.0005503885803318875 0 0)
(-0.0005831599823364486 0 0)
(-0.0006120523046424321 0 0)
(-0.0006341416981905383 0 0)
(-0.0006482172290311334 0 0)
(-0.0006561514427602516 0 0)
(-0.0006547401051981266 0 0)
(-0.0006438400351509088 0 0)
(-0.0006235474339073867 0 0)
(-0.0005937808970036211 0 0)
(-0.0005557632931555464 0 0)
(-0.0005119880505545753 0 0)
(-0.0004654984764351238 0 0)
(-0.0004189479616972071 0 0)
(-0.0003716425712150615 0 0)
(-0.0003243920300720408 0 0)
(-0.0002789645695714665 0 0)
(-0.0002312166803112773 0 0)
(-0.0001861619180129993 0 0)
(-0.0001421290988514428 0 0)
(-0.0001000548097225214 0 0)
(-6.029029879482026e-05 0 0)
(-2.318653348739508e-05 0 0)
(8.621896270968915e-06 0 0)
(3.83044568920784e-05 0 0)
(6.147687556771878e-05 0 0)
(7.859090250505749e-05 0 0)
(8.964475344186044e-05 0 0)
(9.281377681027751e-05 0 0)
(8.71673287542861e-05 0 0)
(7.364122739033439e-05 0 0)
(5.103760565885989e-05 0 0)
(1.954222883318928e-05 0 0)
(-2.033511996948737e-05 0 0)
(-6.708940245020365e-05 0 0)
(-0.0001170642326930507 0 0)
(-0.0001694136008857413 0 0)
(-0.0002214496093535069 0 0)
(-0.0002726833153872463 0 0)
(-0.0003253434258302881 0 0)
(-0.0003753275319087612 0 0)
(-0.0004258907177426827 0 0)
(-0.0004750550742683042 0 0)
(-0.000523219605328387 0 0)
(-0.000569193365569361 0 0)
(-0.0006120633391895086 0 0)
(-0.0006529125751675344 0 0)
(-0.0006877459257932054 0 0)
(-0.000717851979163335 0 0)
(-0.0007432041272366394 0 0)
(-0.000760231621746371 0 0)
(-0.0007696138374447012 0 0)
(-0.0007723093271058589 0 0)
(-0.0007649684249947369 0 0)
(-0.0007482316715201374 0 0)
(-0.0007220978355148855 0 0)
(-0.000687039600133903 0 0)
(-0.0006456045875902086 0 0)
(-0.000600037256374677 0 0)
(-0.0005541386805476765 0 0)
(-0.000508172086420155 0 0)
(-0.000461186466486655 0 0)
(-0.0004156950257656369 0 0)
(-0.0003699286077584853 0 0)
(-0.0003244293811258266 0 0)
(-0.0002805003350013655 0 0)
(-0.0002385722901743672 0 0)
(-0.0001986918120089639 0 0)
(-0.0001611987501868337 0 0)
(-0.0001280620882452414 0 0)
(-9.83623674069893e-05 0 0)
(-7.310112288989507e-05 0 0)
(-5.490970810660166e-05 0 0)
(-4.19197813482374e-05 0 0)
(-3.56215479486652e-05 0 0)
(-3.93113414469426e-05 0 0)
(-5.014000270555973e-05 0 0)
(-6.962542959153593e-05 0 0)
(-9.824072070093857e-05 0 0)
(-0.0001354369560447814 0 0)
(-0.0001800372236904738 0 0)
(-0.0002292188592343745 0 0)
(-0.0002807781120129839 0 0)
(-0.0003330624212057016 0 0)
(-0.0003843161375011983 0 0)
(-0.0004359059532605202 0 0)
(-0.0004878387061780153 0 0)
(-0.0005370111903536155 0 0)
(-0.0005866653972708285 0 0)
(-0.0006351264428311642 0 0)
(-0.000681716693458072 0 0)
(-0.0007257262147666522 0 0)
(-0.0007665401957515849 0 0)
(-0.000804661368262438 0 0)
(-0.0008359329579037331 0 0)
(-0.0008627859007622308 0 0)
(-0.0008831568553989889 0 0)
(-0.0008951635445293098 0 0)
(-0.000900571496367643 0 0)
(-0.0008970891314717304 0 0)
(-0.0008837480910929182 0 0)
(-0.0008612984191619987 0 0)
(-0.0008296576106826318 0 0)
(-0.0007904671615968252 0 0)
(-0.0007467900546157473 0 0)
(-0.0007012232916447474 0 0)
(-0.0006557859842863022 0 0)
(-0.0006103102645269986 0 0)
(-0.0005641909922038766 0 0)
(-0.0005205163945695536 0 0)
(-0.0004740925059769058 0 0)
(-0.0004310438479441125 0 0)
(-0.0003888942037693033 0 0)
(-0.0003490579790427428 0 0)
(-0.0003115180423191364 0 0)
(-0.0002768647034638967 0 0)
(-0.0002475121711670715 0 0)
(-0.000220764946715891 0 0)
(-0.0001999251951034447 0 0)
(-0.0001867415339715705 0 0)
(-0.0001781444902728284 0 0)
(-0.0001778086515313854 0 0)
(-0.0001868747424653152 0 0)
(-0.0002034989368284908 0 0)
(-0.0002291682817225152 0 0)
(-0.0002636148589365566 0 0)
(-0.0003058233586791983 0 0)
(-0.0003538535014141191 0 0)
(-0.0004045132464143874 0 0)
(-0.0004563519854043814 0 0)
(-0.0005086656585508118 0 0)
(-0.0005591800459076871 0 0)
(-0.0006115345061986822 0 0)
(-0.0006612209251461683 0 0)
(-0.0007107631453903041 0 0)
(-0.0007592230295756865 0 0)
(-0.0008064972791364129 0 0)
(-0.000851380549193491 0 0)
(-0.0008929118170994704 0 0)
(-0.00093235814614387 0 0)
(-0.0009655048479652281 0 0)
(-0.0009939451074144343 0 0)
(-0.001017465792728364 0 0)
(-0.00103246815809737 0 0)
(-0.001039354321483111 0 0)
(-0.001040155316267815 0 0)
(-0.001030523815088107 0 0)
(-0.001011508447520372 0 0)
(-0.0009834302907593179 0 0)
(-0.0009471595847298172 0 0)
(-0.0009051612343882035 0 0)
(-0.0008607626896157499 0 0)
(-0.0008154871429254171 0 0)
(-0.0007711012046715484 0 0)
(-0.0007256631791402471 0 0)
(-0.0006812541123584835 0 0)
(-0.000637905736774732 0 0)
(-0.0005932792805912521 0 0)
(-0.0005515834838955565 0 0)
(-0.0005117939448324241 0 0)
(-0.000474161335462806 0 0)
(-0.0004390581720641331 0 0)
(-0.0004082836579081352 0 0)
(-0.0003812760038555518 0 0)
(-0.0003590261620413097 0 0)
(-0.0003431648412406317 0 0)
(-0.0003341192158140423 0 0)
(-0.0003305125711754671 0 0)
(-0.0003370689635603319 0 0)
(-0.000351319408798014 0 0)
(-0.0003737142829966715 0 0)
(-0.0004053287469449363 0 0)
(-0.0004451344911875438 0 0)
(-0.0004912231109801782 0 0)
(-0.0005414998795862245 0 0)
(-0.0005926132142659433 0 0)
(-0.000644524193486337 0 0)
(-0.000696506093787211 0 0)
(-0.0007468512619070178 0 0)
(-0.0007995949549394134 0 0)
(-0.0008468280167042401 0 0)
(-0.0008963535094151458 0 0)
(-0.0009437824202233789 0 0)
(-0.0009894914185977698 0 0)
(-0.001032331540945941 0 0)
(-0.001071619028288411 0 0)
(-0.001108180881016547 0 0)
(-0.001138195377119091 0 0)
(-0.001162482898242759 0 0)
(-0.001182199116613323 0 0)
(-0.001191516129451847 0 0)
(-0.001193714963661333 0 0)
(-0.001188683202459345 0 0)
(-0.0011732513937262 0 0)
(-0.001148742514611638 0 0)
(-0.001115770218830135 0 0)
(-0.001075915137257205 0 0)
(-0.001032872015143973 0 0)
(-0.0009881048828718503 0 0)
(-0.0009437796202909574 0 0)
(-0.0009003148180852022 0 0)
(-0.0008549677082610407 0 0)
(-0.0008127408889482347 0 0)
(-0.0007688775210776591 0 0)
(-0.0007270639335776125 0 0)
(-0.0006871492702909076 0 0)
(-0.000649661269660399 0 0)
(-0.0006145028442591801 0 0)
(-0.0005822323986854666 0 0)
(-0.0005552107594859948 0 0)
(-0.0005313397286772844 0 0)
(-0.0005134891842248875 0 0)
(-0.0005030089479666216 0 0)
(-0.0004980065134275352 0 0)
(-0.0005000124738291919 0 0)
(-0.0005127846866632352 0 0)
(-0.0005327340051989471 0 0)
(-0.0005610730796019694 0 0)
(-0.0005982640132397358 0 0)
(-0.0006425777185433579 0 0)
(-0.000691216834196076 0 0)
(-0.0007427865312565163 0 0)
(-0.0007938151691779607 0 0)
(-0.0008457472666526287 0 0)
(-0.0008973908809432264 0 0)
(-0.0009475007676236319 0 0)
(-0.0009996970888298566 0 0)
(-0.001045936905045094 0 0)
(-0.001094494205267603 0 0)
(-0.001140802105689097 0 0)
(-0.001184552118652671 0 0)
(-0.001225099000109568 0 0)
(-0.001262090850832058 0 0)
(-0.001294688879243262 0 0)
(-0.001321552681356802 0 0)
(-0.001341758247347434 0 0)
(-0.001357039005785496 0 0)
(-0.001360725563075349 0 0)
(-0.001358418419026344 0 0)
(-0.001347307700922985 0 0)
(-0.001326001016560971 0 0)
(-0.001296415659334267 0 0)
(-0.001259477705379647 0 0)
(-0.001217449630955434 0 0)
(-0.001174524379770593 0 0)
(-0.001129871883060462 0 0)
(-0.001086204138597674 0 0)
(-0.001043832725457499 0 0)
(-0.000999029452593492 0 0)
(-0.0009593014026550472 0 0)
(-0.0009138430860613382 0 0)
(-0.0008759869744256604 0 0)
(-0.0008379809952973562 0 0)
(-0.0008028643431926909 0 0)
(-0.0007707020150799994 0 0)
(-0.0007413847955331565 0 0)
(-0.0007179107568325746 0 0)
(-0.0006983654694405653 0 0)
(-0.0006847298941675228 0 0)
(-0.0006797163564087573 0 0)
(-0.000679125852414489 0 0)
(-0.0006869530034467348 0 0)
(-0.0007055372512854253 0 0)
(-0.0007314366642050971 0 0)
(-0.0007655433986126784 0 0)
(-0.0008076780876834883 0 0)
(-0.0008551780348876308 0 0)
(-0.0009053945877557185 0 0)
(-0.000957375045901575 0 0)
(-0.001008200436809337 0 0)
(-0.001059737765350259 0 0)
(-0.001111841434295159 0 0)
(-0.001160728886842193 0 0)
(-0.001212861763622895 0 0)
(-0.00125714700779875 0 0)
(-0.001305784417241894 0 0)
(-0.001349991978264896 0 0)
(-0.001391937498775194 0 0)
(-0.001429281774334359 0 0)
(-0.001463785339157556 0 0)
(-0.001492516854544526 0 0)
(-0.001515893433267326 0 0)
(-0.001531716400039097 0 0)
(-0.001541988100592466 0 0)
(-0.001540024013809294 0 0)
(-0.001533322933629601 0 0)
(-0.001516079124176958 0 0)
(-0.00148913465530153 0 0)
(-0.001455284557818317 0 0)
(-0.001415419207380538 0 0)
(-0.001372837152456248 0 0)
(-0.001330288724974152 0 0)
(-0.0012865430162028 0 0)
(-0.001243074469880398 0 0)
(-0.001201904231134843 0 0)
(-0.001158024070386377 0 0)
(-0.00112003675237824 0 0)
(-0.001073034600082467 0 0)
(-0.001041055010494883 0 0)
(-0.001004660137173721 0 0)
(-0.0009728195061190802 0 0)
(-0.0009416864488100706 0 0)
(-0.0009180079497377338 0 0)
(-0.0008965061518494469 0 0)
(-0.0008822212634779111 0 0)
(-0.0008727141008409843 0 0)
(-0.0008734720470463328 0 0)
(-0.0008756750563645724 0 0)
(-0.0008924925451929298 0 0)
(-0.0009135766374492244 0 0)
)
;

boundaryField
{
    inlet
    {
        type            calculated;
        value           uniform (-6.494443777496928e-05 0 0);
    }
    outlet
    {
        type            calculated;
        value           uniform (-0.0009295361909786464 0 0);
    }
    frontAndBack
    {
        type            empty;
    }
}


// ************************************************************************* //
