/*--------------------------------*- C++ -*----------------------------------*\
| =========                 |                                                 |
| \\      /  F ield         | OpenFOAM: The Open Source CFD Toolbox           |
|  \\    /   O peration     | Version:  v2012                                 |
|   \\  /    A nd           | Website:  www.openfoam.com                      |
|    \\/     M anipulation  |                                                 |
\*---------------------------------------------------------------------------*/
FoamFile
{
    version     2.0;
    format      ascii;
    class       volScalarField;
    location    "0.003";
    object      rho;
}
// * * * * * * * * * * * * * * * * * * * * * * * * * * * * * * * * * * * * * //

dimensions      [1 -3 0 0 0 0 0];


internalField   nonuniform List<scalar> 
100
(
0.999645
0.999645
0.999645
0.999645
0.999645
0.999645
0.999645
0.999645
0.999645
0.999645
0.999645
0.999645
0.999645
0.999645
0.999645
0.999645
0.999645
0.999645
0.999645
0.999645
0.999645
0.999645
0.999645
0.999645
0.999645
0.999645
0.999645
0.999645
0.999645
0.999645
0.999645
0.999645
0.999645
0.999645
0.999645
0.999572
0.997811
0.986327
0.956619
0.912375
0.861803
0.809796
0.758423
0.708514
0.660383
0.614144
0.569765
0.527462
0.487601
0.451839
0.42831
0.419497
0.427916
0.425816
0.422588
0.416749
0.404287
0.380729
0.346138
0.308958
0.278941
0.267499
0.265971
0.266365
0.265344
0.256049
0.213402
0.146152
0.125685
0.124958
0.124955
0.124955
0.124955
0.124955
0.124955
0.124955
0.124955
0.124955
0.124955
0.124955
0.124955
0.124955
0.124955
0.124955
0.124955
0.124955
0.124955
0.124955
0.124955
0.124955
0.124955
0.124955
0.124955
0.124955
0.124955
0.124955
0.124955
0.124955
0.124955
0.124955
)
;

boundaryField
{
    sides
    {
        type            calculated;
        value           nonuniform List<scalar> 2(0.124955 0.999645);
    }
    empty
    {
        type            empty;
    }
}


// ************************************************************************* //
