/*--------------------------------*- C++ -*----------------------------------*\
| =========                 |                                                 |
| \\      /  F ield         | OpenFOAM: The Open Source CFD Toolbox           |
|  \\    /   O peration     | Version:  v2012                                 |
|   \\  /    A nd           | Website:  www.openfoam.com                      |
|    \\/     M anipulation  |                                                 |
\*---------------------------------------------------------------------------*/
FoamFile
{
    version     2.0;
    format      ascii;
    class       volVectorField;
    location    "0.003";
    object      U;
}
// * * * * * * * * * * * * * * * * * * * * * * * * * * * * * * * * * * * * * //

dimensions      [0 1 -1 0 0 0 0];


internalField   nonuniform List<vector> 
100
(
(1.85965e-13 0 0)
(3.00054e-13 0 0)
(7.54505e-14 0 0)
(-1.56407e-13 0 0)
(-1.38251e-13 0 0)
(5.12388e-15 0 0)
(2.41161e-13 0 0)
(1.09856e-13 0 0)
(-1.04032e-13 0 0)
(-1.16757e-13 0 0)
(-6.54402e-13 0 0)
(-1.24846e-12 0 0)
(-2.37489e-13 0 0)
(5.83346e-13 0 0)
(6.58813e-13 0 0)
(-9.72254e-14 0 0)
(-1.03267e-12 0 0)
(-1.24154e-13 0 0)
(5.94959e-13 0 0)
(6.4263e-13 0 0)
(-1.11006e-13 0 0)
(-1.03428e-12 0 0)
(-1.23572e-13 0 0)
(7.24266e-13 0 0)
(9.36167e-13 0 0)
(5.36365e-13 0 0)
(-2.16224e-13 0 0)
(-4.75394e-13 0 0)
(1.29782e-14 0 0)
(1.2473e-12 0 0)
(1.93531e-12 0 0)
(1.11975e-12 0 0)
(1.75772e-11 0 0)
(1.97411e-07 0 0)
(0.000205066 0 0)
(0.027361 0 0)
(0.686037 0 0)
(4.99784 0 0)
(16.3344 0 0)
(33.763 0 0)
(54.5557 0 0)
(76.998 0 0)
(100.336 0 0)
(124.255 0 0)
(148.63 0 0)
(173.443 0 0)
(198.685 0 0)
(224.343 0 0)
(250.032 0 0)
(274.303 0 0)
(292.492 0 0)
(298.515 0 0)
(291.967 0 0)
(292.627 0 0)
(293.191 0 0)
(293.374 0 0)
(293.479 0 0)
(293.582 0 0)
(294.158 0 0)
(294.713 0 0)
(291.214 0 0)
(292.602 0 0)
(296.333 0 0)
(297.998 0 0)
(296.6 0 0)
(282.346 0 0)
(210.797 0 0)
(60.9757 0 0)
(2.12354 0 0)
(0.00558534 0 0)
(8.12076e-07 0 0)
(2.09985e-11 0 0)
(-2.16318e-13 0 0)
(2.17772e-13 0 0)
(1.34099e-13 0 0)
(2.68934e-13 0 0)
(9.05066e-14 0 0)
(-1.87206e-13 0 0)
(-3.75938e-13 0 0)
(-5.9967e-14 0 0)
(4.2818e-13 0 0)
(1.8729e-13 0 0)
(-1.66338e-13 0 0)
(-3.78243e-13 0 0)
(-5.67787e-14 0 0)
(4.35207e-13 0 0)
(2.50427e-13 0 0)
(-4.04933e-14 0 0)
(-4.60654e-13 0 0)
(-9.12612e-13 0 0)
(-7.67399e-13 0 0)
(-6.26628e-13 0 0)
(-8.6889e-13 0 0)
(2.78444e-13 0 0)
(1.23382e-12 0 0)
(4.77193e-13 0 0)
(-5.35402e-13 0 0)
(-9.46694e-13 0 0)
(6.95082e-13 0 0)
(2.23007e-12 0 0)
)
;

boundaryField
{
    sides
    {
        type            zeroGradient;
    }
    empty
    {
        type            empty;
    }
}


// ************************************************************************* //
