/*--------------------------------*- C++ -*----------------------------------*\
| =========                 |                                                 |
| \\      /  F ield         | OpenFOAM: The Open Source CFD Toolbox           |
|  \\    /   O peration     | Version:  v2012                                 |
|   \\  /    A nd           | Website:  www.openfoam.com                      |
|    \\/     M anipulation  |                                                 |
\*---------------------------------------------------------------------------*/
FoamFile
{
    version     2.0;
    format      ascii;
    class       volScalarField;
    location    "0.006";
    object      p;
}
// * * * * * * * * * * * * * * * * * * * * * * * * * * * * * * * * * * * * * //

dimensions      [1 -1 -2 0 0 0 0];


internalField   nonuniform List<scalar> 
1000
(
101310.940862241
101313.5771752855
101306.8374957771
101301.5410666525
101295.7052880414
101290.463579231
101285.946268493
101282.0798230886
101278.7612822081
101276.536162145
101275.9486015277
101275.9665287524
101276.3324672173
101277.3485488706
101279.3277256772
101282.3326402918
101286.2497560368
101290.9027972566
101296.1456582913
101301.8765825285
101308.0114586998
101314.4594523306
101321.1142443625
101327.8539128569
101334.5443951176
101341.049868952
101347.2533593322
101353.0838429328
101358.5334464393
101363.6169657823
101368.1797400571
101371.5681807158
101373.0164161204
101373.1816514862
101373.1134765962
101372.8487308819
101372.1084631823
101370.6554461719
101368.2816911026
101364.8921665203
101360.5270573012
101355.339744893
101349.5341563636
101343.3013638413
101336.7899161731
101330.1132059294
101323.3716395487
101316.6679892396
101310.1072859404
101303.7787747101
101297.726921448
101291.9493885043
101286.4975480992
101281.7451908793
101278.5845417701
101277.5081470398
101277.4349934753
101277.4762585228
101277.736766412
101278.379146066
101279.6285799625
101281.6766864473
101284.6598904742
101288.6216146752
101293.5002269906
101299.14341438
101305.3467215767
101311.9009413349
101318.6273114455
101325.3882135031
101332.0808513535
101338.633057977
101345.0087737642
101351.2066295703
101357.2208011809
101362.9231022308
101367.8251334059
101370.9812214862
101372.0191075235
101372.0949253318
101372.0384224716
101371.8331278369
101371.2866717328
101370.2245817327
101368.4614731386
101365.8462706469
101362.28855717
101357.7824009293
101352.4124163874
101346.3394303029
101339.7707878932
101332.9237954673
101325.9904705657
101319.1120905855
101312.3701912546
101305.7932922052
101299.3762732912
101293.1309313128
101287.22874041
101282.269782237
101279.2681835349
101278.3940136573
101278.3496476254
101278.3860157805
101278.5939785305
101279.0992739791
101280.0780799205
101281.6958382512
101284.0979088142
101287.3839101091
101291.5881428791
101296.6664991756
101302.4972043278
101308.8991903176
101315.663614967
101322.5883150627
101329.5077634943
101336.3153813388
101342.9716027565
101349.4837018184
101355.8390809048
101361.8619672509
101366.973099772
101370.177076254
101371.202407453
101371.280761525
101371.2381891261
101371.0802812309
101370.6534343848
101369.8139959575
101368.4019042655
101366.2705890848
101363.3041210165
101359.4379739214
101354.6740987118
101349.0871303676
101342.819499894
101336.0630195968
101329.0267337388
101321.8986985736
101314.8157271132
101307.8524695084
101301.0372292374
101294.4145804386
101288.2044061134
101283.0648401226
101280.0144153471
101279.1359040971
101279.0862350466
101279.1136186302
101279.2777161711
101279.6852438033
101280.4837196815
101281.8174700795
101283.8233465052
101286.6127261538
101290.2555016322
101294.764844548
101300.0884268406
101306.1109426469
101312.6684555174
101319.5717442618
101326.6361477542
101333.7134037277
101340.7128410851
101347.5924948576
101354.2994154277
101360.6286732758
101365.9847293557
101369.3692227816
101370.4948633652
101370.5949835013
101370.5643637693
101370.4459922191
101370.1092633846
101369.4312166631
101368.270378254
101366.4906944191
101363.9726977389
101360.6293357464
101356.4198444755
101351.360321587
101345.5286961904
101339.0598364336
101332.1271325008
101324.9134066854
101317.5808602527
101310.2511544361
101303.0087315822
101295.9552984938
101289.3666493028
101283.948134305
101280.7320193037
101279.7791754236
101279.7138717583
101279.734405935
101279.8651702783
101280.1972663389
101280.858903783
101281.9784489784
101283.683076069
101286.0848589738
101289.2682951857
101293.2769797025
101298.1034169868
101303.6856139981
101309.9115122563
101316.6311084621
101323.6773043104
101330.893780145
101338.1586907197
101345.384476877
101352.4703609866
101359.1730508936
101364.875964575
101368.5594689567
101369.8624826436
101370.0013565266
101369.9797224342
101369.8904192491
101369.621764669
101369.0671331624
101368.1003259633
101366.5956481687
101364.435697917
101361.5239962617
101357.7965800644
101353.2324997345
101347.86179943
101341.767121064
101335.0749126917
101327.9370773237
101320.5088491443
101312.9302434529
101305.3238888593
101297.8408307292
101290.8092970002
101284.9855758122
101281.4611919219
101280.3604718192
101280.269140674
101280.2824835558
101280.3849161338
101280.6557222316
101281.2091302588
101282.1598563953
101283.6249134802
101285.7127518831
101288.5136602007
101292.0884907002
101296.4589134652
101301.6018511861
101307.4488715973
101313.8912502636
101320.7930817812
101328.0121939354
101335.4200352097
101342.9039606419
101350.3296782572
101357.4262972678
101363.5632814562
101367.6793134356
101369.2624573384
101369.4678947553
101369.4542341804
101369.389597651
101369.1763315484
101368.7207993485
101367.9090787457
101366.625760915
101364.7585806545
101362.2082860009
101358.8980484875
101354.7830333252
101349.8589926929
101344.1666742856
101337.7888194874
101330.8399691125
101323.4521989023
101315.7611702221
101307.9039409736
101300.0596672194
101292.587872988
101286.2739761579
101282.2844966407
101280.9160873657
101280.7715660182
101280.7794967849
101280.8584786663
101281.0781371625
101281.5411992916
101282.3519916149
101283.619060467
101285.4461904364
101287.9247684972
101291.1246836172
101295.0860843267
101299.8135093175
101305.2727257044
101311.3914625027
101318.0669596616
101325.1805350864
101332.6121549828
101340.2422314481
101347.9217871085
101355.3731136598
101361.9774646448
101366.6452388481
101368.6474326217
101368.9741915453
101368.9690498829
101368.9258385464
101368.7590431373
101368.386787464
101367.7044266335
101366.605333223
101364.9830475264
101362.7389899844
101359.7898862399
101356.0759794685
101351.5690831686
101346.2779543201
101340.2486726764
101333.5600995249
101326.3159016173
101318.6355337646
101310.6537198112
101302.5562603153
101294.7034207643
101287.8671651195
101283.2720813921
101281.4877321481
101281.2429669351
101281.2443894605
101281.3021972493
101281.4767546746
101281.8616201177
101282.5527765911
101283.6514490383
101285.2565472847
101287.4585267689
101290.3319537145
101293.9287055329
101298.2724675459
101303.354531697
101309.1322645051
101315.5330346829
101322.4636430628
101329.8198264175
101337.4868871805
101345.3165221284
101353.043956796
101360.0927742261
101365.3877148838
101367.9630060061
101368.4997340214
101368.5127491868
101368.4860501032
101368.3590037997
101368.0582771742
101367.4870776384
101366.545922735
101365.1336453534
101363.1536657062
101360.5198317264
101357.1633131707
101353.0396178183
101348.1339257048
101342.4633496193
101336.0761440846
101329.0481809793
101321.4778594072
101313.4873069458
101305.2531093977
101297.1116165207
101289.7799495944
101284.4898288878
101282.1248819333
101281.6981934606
101281.6903921658
101281.7283537739
101281.8627247466
101282.1779373837
101282.7635025715
101283.7149085247
101285.1265841421
101287.0870626925
101289.6730252298
101292.9437660497
101296.9361624213
101301.6601711678
101307.0963211679
101313.1973690693
101319.8937687122
101327.099163674
101334.7103046749
101342.5897231889
101350.4988157678
101357.9260659756
101363.8610785095
101367.1448120597
101368.0208205638
101368.0754289221
101368.0601096777
101367.9671568037
101367.7291773194
101367.2555369286
101366.4528116317
101365.2243280395
101363.4759216929
101361.1204818492
101358.0837333255
101354.3103235549
101349.7686191896
101344.4536058453
101338.3884521133
101331.6243424654
101324.2382388122
101316.3347692352
101308.0717791248
101299.7472875833
101291.9955209375
101285.9898269246
101282.8877084313
101282.1550548438
101282.119697138
101282.1442895796
101282.2426547936
101282.4962781703
101282.987653773
101283.8078152713
101285.047438233
101286.7930983834
101289.1224056364
101292.0994127074
101295.7700311953
101300.1577094847
101305.2607133724
101311.0522904248
101317.4831469728
101324.4841966294
101331.9664513167
101339.8084820242
101347.8037792715
101355.5166649445
101362.0452450205
101366.1288456898
101367.5050988283
101367.6497264419
101367.6426416101
101367.5791042607
101367.3962810313
101367.0090949048
101366.3289826192
101365.2633594021
101363.7205777653
101361.613746479
101358.8655626504
101355.4133603222
101351.2133148792
101346.243780799
101340.5082479715
101334.0369723308
101326.8865796159
101319.1427623765
101310.94127768
101302.5368355032
101294.4681157914
101287.7942048709
101283.8441823582
101282.6431789072
101282.5388561674
101282.5542234198
101282.6226455038
101282.8217436779
101283.2284004102
101283.9298884139
101285.0138668315
101286.5653511798
101288.6623278089
101291.3719896671
101294.7466446266
101298.8195207765
101303.6020152901
101309.0833531245
101315.2314092214
101321.9931316242
101329.2937680788
101337.0285099434
101345.0233129068
101352.9188385058
101359.9463756139
101364.8533985426
101366.9043122511
101367.231868334
101367.2366135987
101367.1938350341
101367.0573215921
101366.7449144841
101366.1735747817
101365.2539314172
101363.8966398515
101362.0153617395
101359.5308426738
101356.3750517122
101352.4952345919
101347.8576839665
101342.4509046997
101336.2876655734
101329.4063620591
101321.8750647286
101313.8076831068
101305.4152819084
101297.1397860632
101289.8938720564
101285.054581463
101283.2059720685
101282.9558916979
101282.9593346693
101283.0047658566
101283.1549594682
101283.4853148839
101284.0793337694
101285.0221112759
101286.3970828379
101288.2822910504
101290.7468463967
101293.8472986521
101297.6242096538
101302.0995502376
101307.2752170492
101313.1324975329
101319.632212179
101326.7142409396
101334.2906071196
101342.2157557256
101350.1984063828
101357.6079681289
101363.2888884767
101366.1544241669
101366.8013323075
101366.8283841189
101366.8056993295
101366.708358844
101366.463194113
101365.9901872206
101365.2030723402
101364.0143292006
101362.3382842141
101360.0948116721
101357.2128099812
101353.6333668641
101349.3133910728
101344.2295549031
101338.3809307637
101331.7903187934
101324.5083551538
101316.6277357031
101308.3222306812
101299.9487133314
101292.2622922494
101286.5685250176
101283.9010452882
101283.3747459363
101283.3621852375
101283.3860518587
101283.4976002001
101283.7611046302
101284.2585221085
101285.072361451
101286.284825054
101287.9739637073
101290.2106791077
101293.0551424893
101296.5534296476
101300.7352975938
101305.6127738477
101311.1786162132
101317.4051941221
101324.2443277899
101331.623200277
101339.4221901038
101347.4075298384
101355.0741343038
101361.4210725103
101365.1854528184
101366.3344601312
101366.4350796254
101366.4202582371
101366.3553449055
101366.1659373699
101365.7787272772
101365.1097842735
101364.0739071101
101362.5864166038
101360.5665053364
101357.9403293438
101354.644319219
101350.6286053721
101345.8603244777
101340.3265574982
101334.0371566109
101327.0289289488
101319.3755990162
101311.216264247
101302.834394199
101294.8397471675
101288.3934078971
101284.8007180972
101283.8251754484
101283.7583052644
101283.7726121924
101283.8486447484
101284.0531707474
101284.4630290372
101285.1589675629
101286.2221450572
101287.7305646503
101289.756031554
101292.361110863
101295.5963234349
101299.497805422
101304.0853408932
101309.3607839847
101315.3071798364
101321.8880404415
101329.0434470588
101336.6743974168
101344.5950113372
101352.409654902
101359.2883265316
101363.9465597512
101365.7758160285
101366.036308598
101366.0336767234
101365.9925414935
101365.8524994727
101365.5423716619
101364.9812727164
101364.0856149025
101362.7715850402
101360.9583045899
101358.5704027766
101355.5408353377
101351.8144281961
101347.3513052265
101342.1293243854
101336.1466592922
101329.4267026623
101322.0270485291
101314.0596108538
101305.7478343311
101297.5728725704
101290.5156603686
101285.9686832882
101284.3478393601
101284.1536274268
101284.156159256
101284.2086716841
101284.3625866699
101284.6954385487
101285.2844699835
101286.2097474002
101287.5492291196
101289.3759329692
101291.7547531715
101294.7398738046
101298.3727181073
101302.679796324
101307.6705740057
101313.3364960456
101319.6507994848
101326.5654544804
101333.9989461222
101341.8018915445
101349.6660096605
101356.9276901766
101362.4028935895
101365.0662167858
101365.6287562288
101365.6470637294
101365.6258910895
101365.5245352781
101365.2806516088
101364.8152464591
101364.0471705524
101362.8935950658
101361.2734417923
101359.1099264569
101356.3334222049
101352.8844910263
101348.7169184938
101343.8006713256
101338.1250571594
101331.7027006952
101324.5761215198
101316.8332968972
101308.6506628363
101300.4045326085
101292.8913575162
101287.4424090289
101284.9985466797
101284.5512722964
101284.5421330543
101284.5713060573
101284.6834667661
101284.9478136261
101285.4401618187
101286.2394033555
101287.4232621274
101289.0653104543
101291.2320053407
101293.9804332684
101297.356315232
101301.3915867425
101306.1022182349
101311.4874529996
101317.5294531749
101324.1902208566
101331.4025473251
101339.0466987711
101346.8843582446
101354.3970159434
101360.562547559
101364.1388116629
101365.1838688145
101365.2672447086
101365.2582787359
101365.1889434037
101365.0031846075
101364.6231812385
101363.9704314788
101362.9631617299
101361.5206598223
101359.5656283959
101357.0267742138
101353.8414687859
101349.9586115918
101345.3416590746
101339.9717495002
101333.8512876243
101327.0095652478
101319.5149441693
101311.5063684013
101303.2764255858
101295.4568206766
101289.229802695
101285.8549193855
101284.9842578639
101284.9309822735
101284.9457780168
101285.0227691561
101285.2263319309
101285.6304437123
101286.3125494715
101287.3501953441
101288.817596849
101290.7829567667
101293.3060438215
101296.4359408445
101300.2089744295
101304.6470252562
101309.756290039
101315.5260740808
101321.9266304118
101328.903613082
101336.3614211149
101344.1140373845
101351.759568181
101358.4578125361
101362.9363189885
101364.6508432167
101364.8839465829
101364.8818969864
101364.8393399491
101364.7018838424
101364.3979899925
101363.8504422176
101362.9790522355
101361.703500549
101359.9457278979
101357.6327725615
101354.6995359486
101351.0910293963
101346.7648943977
101341.695136829
101335.8762567419
101329.3272012549
101322.0995556529
101314.3016478988
101306.161343019
101298.1713143578
101291.3206345395
101286.9759595824
101285.4737389841
101285.3039308161
101285.3133271501
101285.3613807159
101285.5162471942
101285.8444785724
101286.423031454
101287.3282425596
101288.6345257704
101290.4112413295
101292.7203153322
101295.6140036108
101299.1328612904
101303.303950265
101308.1393003553
101313.634509285
101319.7669419706
101326.4917264066
101333.7301669015
101341.3358759449
101349.0046856683
101356.0861383394
101361.4312470718
101364.0470878787
101364.6117937722
101364.6339953885
101364.6157969826
101364.5347450863
101364.3327235819
101363.9448882118
101363.3039542722
101362.3444681899
101361.0064279305
101359.2389290754
101357.0040414167
101354.2809095265
101351.0701855049
101347.3993352634
101343.3308664519
101338.979653375
101334.553742441
101330.4349927292
101327.2389424566
101325.523706486
101325.0487357727
101325.0011846226
101325.0000049524
101325.0000000048
101325.0000000024
101325.0000000024
101325.0000000024
101325.0000000025
101325.0000000026
101325.0000000026
101325.0000000027
101325.0000000027
101325.0000000028
101325.0000000028
101325.0000000029
101325.0000000028
101325.0000000028
101325.0000000028
101325.0000000028
101325.0000000028
101325.0000000028
101325.0000000027
101325.0000000027
101325.0000000027
101325.0000000027
101325.0000000026
101325.0000000026
101325.0000000026
101325.0000000026
101325.0000000026
101325.0000000026
101325.0000000026
101325.0000000025
101325.0000000025
101325.0000000025
101325.0000000025
101325.0000000026
101325.0000000026
101325.0000000026
101325.0000000027
101325.0000000027
101325.0000000027
101325.0000000027
101325.0000000027
101325.0000000028
101325.0000000027
101325.0000000027
101325.0000000027
101325.0000000027
101325.0000000027
101325.0000000026
101325.0000000026
101325.0000000026
101325.0000000026
101325.0000000026
101325.0000000027
101325.0000000027
101325.0000000027
101325.0000000026
101325.0000000026
101325.0000000027
101325.0000000026
101325.0000000027
101325.0000000027
101325.0000000027
101325.0000000027
101325.0000000027
101325.0000000027
101325.0000000027
101325.0000000027
101325.0000000027
101325.0000000028
101325.0000000028
101325.0000000028
101325.0000000029
101325.0000000029
101325.0000000028
101325.0000000028
101325.0000000028
101325.0000000029
101325.0000000029
101325.0000000029
101325.000000003
101325.0000000031
101325.0000000031
101325.0000000032
101325.0000000032
101325.0000000032
101325.0000000031
101325.0000000031
101325.0000000031
101325.0000000031
101325.0000000031
101325.000000003
101325.0000000031
101325.0000000031
101325.0000000031
101325.0000000031
101325.000000003
101325.000000003
101325.000000003
101325.0000000029
101325.0000000029
101325.0000000029
101325.0000000029
101325.0000000029
101325.0000000028
101325.0000000028
101325.0000000028
101325.0000000029
101325.0000000028
101325.0000000028
101325.0000000028
101325.0000000028
101325.0000000028
101325.0000000028
101325.0000000028
101325.0000000028
101325.0000000027
101325.0000000027
101325.0000000027
101325.0000000026
101325.0000000026
101325.0000000026
101325.0000000027
101325.0000000027
101325.0000000028
101325.0000000028
101325.0000000028
101325.0000000028
101325.0000000027
101325.0000000027
101325.0000000027
101325.0000000027
101325.0000000026
101325.0000000026
101325.0000000026
101325.0000000026
101325.0000000027
101325.0000000027
101325.0000000027
101325.0000000028
101325.0000000028
101325.0000000027
101325.0000000027
101325.0000000027
101325.0000000027
101325.0000000027
101325.0000000026
101325.0000000026
101325.0000000026
101325.0000000026
101325.0000000026
101325.0000000026
101325.0000000025
101325.0000000025
101325.0000000025
101325.0000000025
101325.0000000025
101325.0000000025
101325.0000000024
101325.0000000025
)
;

boundaryField
{
    inlet
    {
        type            uniformFixedValue;
        uniformValue    sine;
        uniformValueCoeffs
        {
            frequency       constant 3000;
            scale           constant 50;
            level           constant 101325;
        }
        value           uniform 101323.6440830864;
    }
    outlet
    {
        type            waveTransmissive;
        gamma           1.4;
        fieldInf        101325;
        lInf            2.25;
        value           uniform 101325.0000000025;
    }
    frontAndBack
    {
        type            empty;
    }
}


// ************************************************************************* //
