/*--------------------------------*- C++ -*----------------------------------*\
| =========                 |                                                 |
| \\      /  F ield         | OpenFOAM: The Open Source CFD Toolbox           |
|  \\    /   O peration     | Version:  v2012                                 |
|   \\  /    A nd           | Website:  www.openfoam.com                      |
|    \\/     M anipulation  |                                                 |
\*---------------------------------------------------------------------------*/
FoamFile
{
    version     2.0;
    format      ascii;
    class       volScalarField;
    location    "0.006";
    object      pMean;
}
// * * * * * * * * * * * * * * * * * * * * * * * * * * * * * * * * * * * * * //

dimensions      [1 -1 -2 0 0 0 0];


internalField   nonuniform List<scalar> 
1000
(
101325.0302684014
101325.0065968471
101325.0294773883
101325.051028733
101325.0821470545
101325.1196106056
101325.1620135128
101325.2112937943
101325.2641168358
101325.3213414604
101325.3799792898
101325.438940411
101325.4974982855
101325.5554601608
101325.6115758513
101325.6649543635
101325.7141506839
101325.7584553908
101325.7967502746
101325.8286791328
101325.8534067005
101325.8707426121
101325.8801164504
101325.8815928692
101325.8748872089
101325.8603556115
101325.8380547205
101325.8086103539
101325.7722588433
101325.7296440169
101325.6810116259
101325.6274319232
101325.5705930278
101325.5128935174
101325.4550955264
101325.3975385134
101325.3405157088
101325.2847468635
101325.2311564873
101325.1809220961
101325.1352114594
101325.0951363824
101325.0615636869
101325.0351553045
101325.0163431072
101325.0054204908
101325.0025323324
101325.0077227673
101325.0208831621
101325.0417993663
101325.070163071
101325.1056673645
101325.1479800722
101325.1965838405
101325.2502329281
101325.3066581238
101325.3637385843
101325.4208097807
101325.4776730281
101325.5340933585
101325.5893772215
101325.6428377391
101325.6933199237
101325.7398148236
101325.7810413674
101325.816118755
101325.844090695
101325.8645296391
101325.8769543371
101325.8813730141
101325.877651983
101325.8660398227
101325.8465867204
101325.819637023
101325.7852746651
101325.7438778739
101325.6958630599
101325.6427501483
101325.5868613679
101325.5304191183
101325.4739325486
101325.4176222991
101325.3617187405
101325.3067307118
101325.2533490349
101325.2025075685
101325.1552500884
101325.1127272453
101325.0760175021
101325.04609434
101325.0236808036
101325.0092815863
101325.0031203969
101325.0052543583
101325.0155584032
101325.0338759941
101325.0599924792
101325.0937554302
101325.1348920396
101325.1827659622
101325.2357364343
101325.2912170227
101325.3471983547
101325.4031769015
101325.4589782482
101325.5144386004
101325.5689997051
101325.6221351222
101325.6728881791
101325.7203886446
101325.7634421281
101325.8010847791
101325.8322131393
101325.8561308973
101325.8721360085
101325.8800159544
101325.8795398855
101325.8708861314
101325.8540839498
101325.8294259888
101325.7969648557
101325.7570566029
101325.7102010347
101325.6580759213
101325.6031653482
101325.5476998617
101325.4921814916
101325.4368115229
101325.3817446922
101325.3274100581
101325.2743434831
101325.2233377124
101325.1752744199
101325.131222608
101325.0922228699
101325.0593538757
101325.0334949546
101325.015405407
101325.0055313374
101325.0041563051
101325.0112833208
101325.0268607418
101325.0506982321
101325.0826596162
101325.12240372
101325.1692099045
101325.2212498564
101325.2758429856
101325.3309323268
101325.3860330847
101325.4409871919
101325.4956726583
101325.5496228859
101325.6024098307
101325.6532135005
101325.7012870211
101325.7455414713
101325.7850637098
101325.8187226567
101325.845716183
101325.8651687309
101325.8766475111
101325.8797180485
101325.8743690264
101325.8605171274
101325.8383848118
101325.8080183785
101325.7698046648
101325.7243052295
101325.6732787897
101325.6192831073
101325.564651062
101325.5099466181
101325.4553669371
101325.4010125893
101325.3472520868
101325.294518719
101325.2434986299
101325.1949482216
101325.1498395531
101325.109135882
101325.0739172365
101325.0451140784
101325.0236372328
101325.0101166125
101325.0050696485
101325.0087035808
101325.0211484609
101325.042320419
101325.0721322377
101325.1102161704
101325.1557700188
101325.2068345267
101325.2606092767
101325.3149307652
101325.3692837165
101325.4235092029
101325.4775301688
101325.5309347195
101325.5833777104
101325.6341380694
101325.6825696002
101325.7276852659
101325.768636572
101325.8043275406
101325.8339171554
101325.8564416737
101325.871316003
101325.8779199547
101325.8760502625
101325.8654474221
101325.8462075613
101325.8183028625
101325.7820979334
101325.7381780918
101325.6883342465
101325.6352144879
101325.5813105402
101325.527311751
101325.4734187848
101325.4196937282
101325.3664581404
101325.3140618448
101325.2631130722
101325.2142594073
101325.1683864659
101325.1263732459
101325.0892620833
101325.0579876013
101325.0335302135
101325.0166437532
101325.0080252747
101325.0080787287
101325.0171367032
101325.0352746032
101325.0625238959
101325.098562329
101325.1425876055
101325.1925676675
101325.2455563913
101325.2992002099
101325.352889594
101325.4064746591
101325.4599009551
101325.5128108143
101325.5649157086
101325.6155774074
101325.6642316435
101325.7099825068
101325.7520506448
101325.7893926102
101325.8211686854
101325.8463813983
101325.8643452905
101325.874309206
101325.8758948012
101325.8686788649
101325.8525940896
101325.8274990478
101325.7936691444
101325.7516381168
101325.7031569414
101325.6509379677
101325.5977052849
101325.5443405829
101325.4910664489
101325.4379132796
101325.3851640808
101325.3331071405
101325.2822801713
101325.2332475086
101325.1868119443
101325.1437746223
101325.1051241223
101325.0717718869
101325.0447233237
101325.0248052591
101325.0128402283
101325.0093918796
101325.0149767588
101325.0298429407
101325.0541752123
101325.087763819
101325.1298913096
101325.1785599652
101325.2307154376
101325.2837312222
101325.336819568
101325.3898243875
101325.4427053624
101325.4951574679
101325.5469299923
101325.5974618238
101325.6462481148
101325.6924796914
101325.7354354697
101325.7741360935
101325.8077599842
101325.8353105978
101325.8560413958
101325.86911704
101325.8740214987
101325.8701927477
101325.8574015816
101325.8353789971
101325.8042650049
101325.7644832386
101325.7176384422
101325.6664350197
101325.6138555557
101325.5610765753
101325.5083734224
101325.455753408
101325.4034643422
101325.3517442211
101325.3010741709
101325.2519455987
101325.2050930774
101325.1612425762
101325.1213288657
101325.0862219477
101325.0569283717
101325.0343078667
101325.0192664932
101325.012485325
101325.0146318478
101325.0261115955
101325.0472683724
101325.0780394173
101325.1178718739
101325.1649225081
101325.2161288136
101325.2685272805
101325.321056087
101325.3735149882
101325.4258856583
101325.4778988373
101325.5293451858
101325.5797195423
101325.6285745591
101325.6751700044
101325.7188431714
101325.7586748314
101325.7938730468
101325.8234592699
101325.846655932
101325.8625784632
101325.8706088569
101325.8700787278
101325.8606160541
101325.8418298217
101325.8137092377
101325.7765257202
101325.7316488971
101325.6816574873
101325.6297571117
101325.5775350014
101325.5253670781
101325.4732585185
101325.4214097022
101325.3700338352
101325.3195428979
101325.2703883401
101325.2232224234
101325.178726174
101325.1377589421
101325.101165817
101325.0699176288
101325.0449004331
101325.0270527973
101325.0171518883
101325.0159654162
101325.0240432472
101325.041862102
101325.0695304268
101325.1066925833
101325.1517770325
101325.2018348329
101325.2535917547
101325.3055810318
101325.3575200724
101325.4093951902
101325.4609842805
101325.5120982592
101325.5622963453
101325.6111648877
101325.6580387904
101325.7022930664
101325.7430783291
101325.779625038
101325.8109931864
101325.8363850784
101325.8548994998
101325.8658418353
101325.8684710671
101325.8622960344
101325.846820303
101325.8218867927
101325.7875953681
101325.7450301857
101325.6965141539
101325.6453828793
101325.5937030136
101325.5420541092
101325.4904384744
101325.439029138
101325.3880000468
101325.3377199582
101325.2885874224
101325.2412009268
101325.1961829383
101325.1543405731
101325.1164733362
101325.0835246232
101325.0563742383
101325.0359831206
101325.0231806135
101325.0188145365
101325.023539262
101325.0379527995
101325.0623178401
101325.0964960994
101325.1392463843
101325.1878853339
101325.2389216265
101325.290384632
101325.3418176316
101325.3932113842
101325.444375354
101325.495152874
101325.5451465753
101325.5939864152
101325.6410607489
101325.6857911081
101325.7273811755
101325.7650956814
101325.7980285666
101325.825382799
101325.8462519541
101325.859894089
101325.8655174851
101325.8625387803
101325.8503772023
101325.8287418009
101325.7975704977
101325.7576355089
101325.7109139343
101325.6607025726
101325.609579329
101325.5584322904
101325.5073041648
101325.4563305494
101325.4056608472
101325.355614222
101325.3065537734
101325.2590182516
101325.2135891501
101325.1710125388
101325.1320547524
101325.0976146943
101325.0685669735
101325.0458657732
101325.0303814563
101325.0230044481
101325.0244774307
101325.0354865868
101325.0564398233
101325.0873973786
101325.1274738731
101325.174363466
101325.2245345032
101325.2754629072
101325.3264011767
101325.3773168342
101325.428052759
101325.4784806804
101325.5282433072
101325.5770123083
101325.6242206267
101325.6693376209
101325.7116081543
101325.7503401823
101325.784652087
101325.8137692201
101325.8367765452
101325.8529199196
101325.8613579686
101325.861458769
101325.8525533803
101325.8342620526
101325.8063528454
101325.7693320138
101325.7247443742
101325.675694209
101325.6251597467
101325.5745083359
101325.5238539025
101325.4733196796
101325.4230195427
101325.3732365771
101325.3242918841
101325.2766774338
101325.2309282614
101325.1877417047
101325.1478433281
101325.1120941598
101325.0813487343
101325.0565514098
101325.0385891391
101325.0283813132
101325.0267288019
101325.0343904992
101325.0518919548
101325.0794728378
101325.1165829984
101325.1613684416
101325.2104553259
101325.2608135188
101325.3112635399
101325.3616982251
101325.4120080225
101325.462065057
101325.511579931
101325.5602296615
101325.6075218887
101325.6529347082
101325.6957882781
101325.7353949557
101325.7709375071
101325.8016289668
101325.8265950392
101325.8450407735
101325.856131602
101325.8591619245
101325.8534362384
101325.8384616206
101325.813902084
101325.7799844796
101325.7378650562
101325.690261134
101325.6404293629
101325.5902660198
101325.5400919254
101325.490002959
101325.4400880457
101325.3905952268
101325.3418055133
101325.2941710714
101325.2481807189
101325.2044910158
101325.1637826924
101325.1268845325
101325.0946194731
101325.0679207084
101325.0476712102
101325.0348129233
101325.0301789856
101325.034589888
101325.0486567994
101325.0727785877
101325.1066935667
101325.1490214526
101325.1967251609
101325.2464310986
101325.2963952863
101325.3463614928
101325.3962271031
101325.4459119685
101325.4951366484
101325.5436397735
101325.5909446779
101325.6365924307
101325.6799208287
101325.72029941
101325.7569227759
101325.789045147
101325.8157880718
101325.836372616
101325.8499366966
101325.855759306
101325.8530899213
101325.8413817434
101325.820183508
101325.7895218836
101325.7501587899
101325.7043535734
101325.6553823249
101325.6057230281
101325.5560170992
101325.5063684045
101325.4568555111
101325.4076701325
101325.3590839809
101325.3114794895
101325.2653342555
101325.2212306086
101325.1798415078
101325.1419248774
101325.1083088285
101325.0798709901
101325.0575229052
101325.0421754391
101325.0347222161
101325.0359881067
101325.0466928536
101325.0673208009
101325.0978955447
101325.137443009
101325.1834338936
101325.2323299347
101325.2818062185
101325.3312889639
101325.3807250514
101325.4300008707
101325.4789343904
101325.5272325489
101325.5745220485
101325.6203158598
101325.6640545383
101325.7050783038
101325.7426770478
101325.7760675227
101325.8044508047
101325.8269932945
101325.8428880709
101325.8513373978
101325.8516181117
101325.8430754415
101325.8252275191
101325.7978778653
101325.7615093676
101325.7178350286
101325.6699798663
101325.6208620561
101325.5716350837
101325.5224301446
101325.4733334262
101325.4244804589
101325.3761303108
101325.3286071527
101325.2823683486
101325.2379383608
101325.1959680342
101325.1571635228
101325.122335638
101325.0923246504
101325.0680400567
101325.050379705
101325.04025854
101325.038521347
101325.0459493762
101325.0631192312
101325.0902580144
101325.1267733265
101325.1706698597
101325.2185366332
101325.2674817513
101325.3164981145
101325.3654816078
101325.4143567707
101325.4629497492
101325.5110278338
101325.5582262904
101325.6041237771
101325.6481685124
101325.6897651326
101325.7282045145
101325.7627598504
101325.7926203699
101325.8169946491
101325.835044764
101325.8459949046
101325.8490676642
101325.8436035377
101325.8290212753
101325.8050256838
101325.7717927616
101325.7305974089
101325.6841479298
101325.6356926473
101325.5869247616
101325.538179218
101325.4894977465
101325.4410097583
101325.3929224936
101325.3455404968
101325.2992658745
101325.2546002888
101325.2121394753
101325.1725694158
101325.1366528494
101325.105219831
101325.0791457359
101325.0593355723
101325.0466930835
101325.0420969457
101325.0463518904
101325.0601249898
101325.0837869994
101325.1170857217
101325.1585364071
101325.2050827761
101325.2534124212
101325.3019665812
101325.3505007604
101325.3989588565
101325.4472030918
101325.4950222538
101325.5420978439
101325.588031634
101325.6323198966
101325.6743882473
101325.7135724149
101325.7491593154
101325.7803742059
101325.8064256946
101325.826496552
101325.8397923097
101325.8455369941
101325.8430269436
101325.8316450947
101325.8109770647
101325.7809972293
101325.7425433031
101325.697854161
101325.6502115905
101325.6019289449
101325.5536280642
101325.5053760345
101325.4572556391
101325.4094655024
101325.3622515996
101325.3160043712
101325.2711632071
101325.2283113975
101325.1880736539
101325.1512045028
101325.1184798619
101325.0907781007
101325.0689653005
101325.0539679289
101325.046649739
101325.0478693866
101325.0583276526
101325.0785438381
101325.1085006468
101325.1472133136
101325.192080677
101325.2396538802
101325.2877197724
101325.3358021582
101325.3838208593
101325.4316959283
101325.4792154396
101325.5261274817
101325.5720359447
101325.6165042976
101325.6589586146
101325.6987982749
101325.7353049443
101325.7677588288
101325.7953522194
101325.8173099146
101325.8328061955
101325.841088646
101325.8414000628
101325.833116719
101325.8157142208
101325.7890294044
101325.7535171185
101325.7109370158
101325.6643489961
101325.6166071759
101325.5687536648
101325.5209411471
101325.4732140514
101325.4257493427
101325.3787528021
101325.3325849249
101325.2876423901
101325.2444775992
101325.203673356
101325.1659569715
101325.1320690714
101325.1028705829
101325.0792041597
101325.0619948038
101325.0521035811
101325.050414784
101325.0576643694
101325.0744704257
101325.1010129511
101325.1367252951
101325.1795470368
101325.226144229
101325.2737049679
101325.3213448003
101325.3689416193
101325.4164285164
101325.4636434183
101325.5103423853
101325.5561886552
101325.6007547023
101325.6435260559
101325.6839085517
101325.7212383556
101325.7547945701
101325.7838141591
101325.8075088863
101325.8250840034
101325.8357587096
101325.8387895373
101325.8335013577
101325.8193408182
101325.7959929323
101325.7636508906
101325.7235303312
101325.6782823849
101325.6310432643
101325.5834999769
101325.5359640878
101325.4884837668
101325.4411612014
101325.3941719211
101325.3477707334
101325.3022923833
101325.2581475996
101325.2158147982
101325.1758273001
101325.1387558164
101325.1051858991
101325.0756897793
101325.0507908135
101325.0309146831
101325.0163105247
101325.0069048051
101325.0020533739
101325.0003447021
101325.0000237509
101325.0000004547
101325.0000000028
101325.0000000012
101325.0000000012
101325.0000000012
101325.0000000012
101325.0000000012
101325.0000000012
101325.0000000012
101325.0000000012
101325.0000000013
101325.0000000012
101325.0000000012
101325.0000000012
101325.0000000013
101325.0000000012
101325.0000000012
101325.0000000012
101325.0000000013
101325.0000000012
101325.0000000013
101325.0000000012
101325.0000000012
101325.0000000012
101325.0000000012
101325.0000000012
101325.0000000013
101325.0000000013
101325.0000000013
101325.0000000013
101325.0000000013
101325.0000000013
101325.0000000013
101325.0000000013
101325.0000000013
101325.0000000013
101325.0000000013
101325.0000000013
101325.0000000013
101325.0000000013
101325.0000000013
101325.0000000013
101325.0000000013
101325.0000000013
101325.0000000013
101325.0000000013
101325.0000000013
101325.0000000013
101325.0000000013
101325.0000000013
101325.0000000013
101325.0000000013
101325.0000000013
101325.0000000013
101325.0000000013
101325.0000000013
101325.0000000013
101325.0000000013
101325.0000000013
101325.0000000013
101325.0000000013
101325.0000000013
101325.0000000013
101325.0000000013
101325.0000000013
101325.0000000013
101325.0000000013
101325.0000000013
101325.0000000013
101325.0000000013
101325.0000000013
101325.0000000013
101325.0000000013
101325.0000000013
101325.0000000013
101325.0000000013
101325.0000000013
101325.0000000013
101325.0000000013
101325.0000000014
101325.0000000014
101325.0000000013
101325.0000000014
101325.0000000014
101325.0000000014
101325.0000000014
101325.0000000014
101325.0000000014
101325.0000000014
101325.0000000014
101325.0000000014
101325.0000000014
101325.0000000014
101325.0000000014
101325.0000000014
101325.0000000014
101325.0000000014
101325.0000000014
101325.0000000014
101325.0000000014
101325.0000000014
101325.0000000014
101325.0000000014
101325.0000000014
101325.0000000015
101325.0000000015
101325.0000000015
101325.0000000015
101325.0000000014
101325.0000000015
101325.0000000015
101325.0000000014
101325.0000000014
101325.0000000015
101325.0000000014
101325.0000000015
101325.0000000014
101325.0000000014
101325.0000000014
101325.0000000014
101325.0000000015
101325.0000000014
101325.0000000014
101325.0000000015
101325.0000000015
101325.0000000015
101325.0000000015
101325.0000000015
101325.0000000015
101325.0000000015
101325.0000000015
101325.0000000015
101325.0000000015
101325.0000000015
101325.0000000015
101325.0000000015
101325.0000000015
101325.0000000015
101325.0000000015
101325.0000000015
101325.0000000015
101325.0000000015
101325.0000000015
101325.0000000015
101325.0000000015
101325.0000000015
101325.0000000015
101325.0000000015
101325.0000000015
101325.0000000016
101325.0000000016
101325.0000000015
101325.0000000015
101325.0000000016
101325.0000000015
101325.0000000016
101325.0000000016
101325.0000000016
101325.0000000016
101325.0000000016
101325.0000000015
)
;

boundaryField
{
    inlet
    {
        type            calculated;
        value           uniform 101325;
    }
    outlet
    {
        type            calculated;
        value           uniform 101325.0000000015;
    }
    frontAndBack
    {
        type            empty;
    }
}


// ************************************************************************* //
