/*--------------------------------*- C++ -*----------------------------------*\
| =========                 |                                                 |
| \\      /  F ield         | OpenFOAM: The Open Source CFD Toolbox           |
|  \\    /   O peration     | Version:  v2012                                 |
|   \\  /    A nd           | Website:  www.openfoam.com                      |
|    \\/     M anipulation  |                                                 |
\*---------------------------------------------------------------------------*/
FoamFile
{
    version     2.0;
    format      ascii;
    class       volScalarField;
    location    "0.006";
    object      rho;
}
// * * * * * * * * * * * * * * * * * * * * * * * * * * * * * * * * * * * * * //

dimensions      [1 -3 0 0 0 0 0];


internalField   nonuniform List<scalar> 
1000
(
1.176296903668612
1.176320580069023
1.176267081759842
1.176223812591035
1.176173433419654
1.176127624508379
1.176088906775599
1.176056413489065
1.176028695850183
1.176009985316715
1.176004870461684
1.17600470583854
1.176007440297325
1.176015843033076
1.176032380945664
1.176057453216137
1.176090081714642
1.176128799386876
1.176172392712015
1.176220012375819
1.176270953668983
1.17632445886394
1.176379647207138
1.176435513635054
1.176490955358279
1.176544855523758
1.176596252238303
1.176644562323034
1.176689723757366
1.176731860178507
1.176769687973984
1.1767977858118
1.176809803307257
1.176811184067282
1.176810631051508
1.176808447877514
1.1768023148803
1.17679026880535
1.176770587200529
1.176742482326582
1.176706287784488
1.176663275813491
1.17661513754466
1.17656345731821
1.176509466729117
1.176454105738888
1.176398206554047
1.176342621002519
1.176288219733172
1.176235742643066
1.176185558455541
1.176137647896238
1.176092437180874
1.176053026347503
1.176026814939543
1.176017888155916
1.176017281298269
1.176017623311042
1.176019783665539
1.176025111019466
1.176035472635472
1.17605245750597
1.176077196866671
1.176110050606262
1.176150507358553
1.176197303762405
1.176248744113607
1.176303093394273
1.176358869150608
1.176414930192548
1.176470424148548
1.176524752671295
1.176577616836446
1.17662900536749
1.176678870051081
1.176726148175346
1.176766790616373
1.17679295726691
1.176801562169212
1.176802190749127
1.176801722285455
1.176800020220583
1.176795489660344
1.17678668406901
1.176772066408412
1.176750384038608
1.176720887154542
1.176683526339551
1.176639002852113
1.176588649842421
1.176534186220872
1.176477413596589
1.176419924017815
1.176362888917273
1.176306984430173
1.176252447115545
1.176199234591559
1.176147444758974
1.176098499693857
1.176057375955729
1.176032483980532
1.176025234533093
1.176024866603471
1.176025168197645
1.176026892820783
1.176031083212113
1.176039200390679
1.176052616316706
1.176072536363926
1.176099786512679
1.176134651003424
1.176176763797779
1.176225114778675
1.176278202175407
1.176334293991204
1.176391713729372
1.176449088798428
1.176505535489465
1.176560725797698
1.176614720106577
1.176667414035756
1.176717350325791
1.176759726534337
1.176786290290328
1.176794791129771
1.176795440745086
1.176795087781674
1.176793778593812
1.176790239684986
1.176783280046813
1.176771572605519
1.176753902103833
1.17672930726578
1.176697252926589
1.176657755017464
1.176611432060361
1.176559464693847
1.176503443053401
1.17644510025732
1.176385995520712
1.176327263267099
1.176269522539014
1.176213008100876
1.17615808966186
1.176106590751536
1.176063969375546
1.176038672547729
1.176031387113702
1.176030975207773
1.176031202292978
1.176032563140549
1.176035942740929
1.176042564442784
1.176053625106662
1.176070259571322
1.176093391368888
1.176123599943985
1.176160994304988
1.17620514024883
1.176255081317613
1.176309457827023
1.176366700507281
1.176425278009873
1.17648396091198
1.176541997406697
1.176599039586885
1.176654648497568
1.176707125146166
1.176751532145494
1.176779592614555
1.176788925120454
1.17678975519449
1.176789501326321
1.176788519922922
1.176785728159065
1.176780106581828
1.176770482234535
1.176755727069305
1.176734850508626
1.176707130666149
1.176672229368319
1.176630279829164
1.17658192788816
1.176528291495339
1.176470808062947
1.17641099330596
1.176350192063409
1.176289413116421
1.176229356696563
1.17617086626114
1.176116228993596
1.176071294480612
1.176044623662758
1.176036721806948
1.176036180243788
1.176036350525783
1.176037434938906
1.176040188983542
1.176045675885191
1.176054960156504
1.176069096397917
1.176089013945363
1.176115413395211
1.176148656089661
1.176188679639548
1.176234969697831
1.176286596753135
1.176342316685255
1.17640074369689
1.176460581464052
1.176520819611867
1.176580732128206
1.176639483464283
1.176695056541287
1.176742339503632
1.176772879122068
1.176783682221666
1.176784833597781
1.176784654227183
1.176783913821863
1.176781686445315
1.17677708807684
1.176769072407122
1.176756597284053
1.176738689277413
1.17671454837869
1.176683644108835
1.176645802556872
1.176601272561262
1.176550739042267
1.17649525015236
1.176436065161839
1.176374471046849
1.17631162868551
1.176248554876657
1.176186502154753
1.176128192482605
1.176079897857398
1.176050670680702
1.176041542517678
1.176040785111437
1.176040895755892
1.176041745213997
1.176043990981978
1.176048580340187
1.176056464605659
1.176068614122314
1.17608592819477
1.176109155471239
1.176138800438173
1.176175042601523
1.176217690350154
1.176266175944765
1.176319597537978
1.176376827935722
1.176436688050339
1.176498111818689
1.176560165152055
1.176621734559575
1.17668057408972
1.17673145615854
1.176765581932147
1.176778707581022
1.176780410828481
1.176780297565676
1.176779761667009
1.176777993504953
1.176774216749477
1.17676748687644
1.17675684702231
1.17674136635985
1.176720221913786
1.176692776570521
1.176658658420177
1.176617832010414
1.176570634918318
1.176517752893709
1.176460135372594
1.176398877237299
1.176335103177291
1.176269949552079
1.176204901918247
1.1761429416945
1.176090582396046
1.176057498352981
1.176046150295266
1.176044951790271
1.176045017553955
1.176045672537223
1.176047494140647
1.176051334265245
1.176058058070419
1.176068565695273
1.17608371776501
1.176104272057117
1.176130808024715
1.176163658440702
1.176202860730215
1.176248130768138
1.176298868988539
1.176354223017317
1.176413208496286
1.176474829922331
1.176538095564315
1.17660177009554
1.176663550968974
1.176718308281994
1.176757008659774
1.176773608641155
1.176776317753649
1.176776275121152
1.176775916856426
1.176774533975065
1.17677144765089
1.176765790279474
1.1767566778083
1.176743227554071
1.176724622134589
1.176700171018902
1.176669378608245
1.17663201100177
1.176588140556106
1.1765381490513
1.176482690067409
1.176422622883871
1.176358937740913
1.176292751563208
1.176225604918171
1.176160485281893
1.176103794510447
1.176065688438303
1.176050891075569
1.176048861262786
1.176048873055933
1.176049352445348
1.176050800029154
1.176053991674348
1.176059723349981
1.176068834484696
1.176082145287813
1.176100405827596
1.1761242343666
1.176154060968444
1.176190081861139
1.176232224606258
1.17628013541276
1.176333211732362
1.176390680483198
1.176451676881159
1.176515249682081
1.176580169078477
1.176644239682144
1.176702682454873
1.176746582842723
1.176767934376103
1.176772384323913
1.176772492228601
1.176772270866485
1.176771217539247
1.176768724251277
1.176763988501892
1.176756185480505
1.176744476392448
1.176728060449425
1.176706223281725
1.176678394088319
1.176644203804109
1.176603529329752
1.17655651228618
1.176503552477104
1.17644527869449
1.176382506543925
1.176316248437844
1.176247968452716
1.176180455646156
1.176119656962925
1.176075787284261
1.176056175158835
1.176052636683864
1.176052571986426
1.176052886795157
1.176054001116556
1.176056615137072
1.176061471154394
1.176069361026799
1.176081067811386
1.176097325648544
1.176118770356387
1.176145893527134
1.176179000809689
1.17621817456799
1.176263253098982
1.176313844381551
1.176369371454148
1.176429117984124
1.176492227607269
1.176557560292353
1.176623137566764
1.176684718386917
1.176733925865498
1.176761151128288
1.176768414026955
1.176768866777296
1.176768739765405
1.176767969102635
1.176765996042144
1.176762069141977
1.176755413824386
1.176745228557921
1.176730732590433
1.17671120362008
1.176686025723256
1.176654739815991
1.176617083421673
1.176573014719032
1.176522725523495
1.176466639923238
1.176405395746717
1.176339860256564
1.176271342065068
1.176202312284155
1.176138030311478
1.176088226812217
1.176062501523367
1.176056425731062
1.176056132513161
1.17605633645403
1.176057152183722
1.176059255450407
1.176063330363138
1.176070131841927
1.176080411823826
1.176094888225475
1.176114204582275
1.176138891965649
1.176169330965167
1.176205715846927
1.176248032009417
1.17629605735962
1.176349382871684
1.176407435400196
1.176469476801277
1.176534499990616
1.176600792532084
1.176664742069751
1.176718871160538
1.176752728210573
1.176764138614524
1.176765337706848
1.176765278966562
1.176764752184734
1.176763236417334
1.176760026297916
1.176754387550641
1.176745552547106
1.176732761411703
1.176715293675706
1.1766925083308
1.176663885679408
1.176629062189476
1.176587858169303
1.176540302286998
1.176486645106362
1.176427355824553
1.176363144665084
1.176295137032644
1.176225444826535
1.176158534993767
1.176103190487517
1.176070433812313
1.176060474083752
1.176059608949699
1.176059736387966
1.176060303803061
1.176061954897922
1.176065327246142
1.176071144580687
1.176080133828383
1.176092999975257
1.176110389690326
1.176132860102154
1.176160844861909
1.176194619355764
1.176234277893768
1.176279730888262
1.176330711685844
1.176386780094614
1.176447315994297
1.176511450078358
1.176577739040767
1.17664320338641
1.176701469755616
1.176742153967899
1.176759157973954
1.176761873712579
1.176761913054986
1.17676155838228
1.176760426563503
1.176757836427286
1.176753099500989
1.17674547480436
1.176734221562178
1.176718623900476
1.176698024646209
1.176671859639855
1.176639691334772
1.176601240054644
1.176556410241285
1.176505307476634
1.176448249800162
1.176385801303225
1.176318906197027
1.176249314401151
1.176180690410315
1.176120602868044
1.176080471865231
1.176065141684162
1.176063067806409
1.176063096358599
1.176063473113318
1.176064718648219
1.176067458238229
1.176072384345116
1.176080202636464
1.176091605001363
1.176107238585149
1.176127676431662
1.176153387385934
1.176184707669477
1.17622181929425
1.176264737768354
1.176313307669862
1.17636720384182
1.176425927485455
1.176488748838805
1.176554460774972
1.176620648015362
1.176682082238472
1.176729183095776
1.176752941160224
1.176758304628857
1.176758528913364
1.176758340836219
1.176757533795886
1.176755501158009
1.17675157949797
1.17674505358358
1.176735197769911
1.176721301703324
1.176702700999669
1.176678806057442
1.176649128293542
1.176613310249911
1.176571158282065
1.176522664426297
1.176468017421083
1.176407636792891
1.176342290830037
1.176273420153339
1.176203983881458
1.176140243840958
1.176093027127527
1.176070906270929
1.176066541759779
1.176066437596249
1.176066635519056
1.176067560573439
1.176069745776167
1.176073870780099
1.176080619807542
1.176090674527467
1.176104682161521
1.176123230619404
1.176146818792872
1.176175828646269
1.176210506777512
1.176250952722129
1.176297106188182
1.176348737792461
1.176405447744427
1.176466631972387
1.176531298351547
1.176597508407023
1.176661074295082
1.176713697461353
1.176744907935778
1.176754434292482
1.176755268521664
1.176755145639227
1.176754607448989
1.1767530370876
1.176749826759443
1.176744280597621
1.176735692188364
1.176723359429959
1.17670661229722
1.176684838466426
1.176657510760151
1.176624215540803
1.176584680122914
1.176538797136209
1.176486647974406
1.17642853750262
1.176365076692085
1.176297418621835
1.176227913649654
1.176161618131728
1.176108160880968
1.176078367557735
1.17607027756457
1.176069723021864
1.17606984166746
1.17607047219417
1.176072168296247
1.176075567183533
1.176081338477877
1.176090155197575
1.176102664176004
1.176119460825582
1.176141063902943
1.176167892249814
1.176200245381324
1.176238287171812
1.176282032775294
1.176331341345518
1.176385910045663
1.176445241749584
1.176508515281727
1.176574189179311
1.176638982994191
1.176696015195148
1.176734636776704
1.176749803078411
1.176751962806783
1.176751940986597
1.176751599938254
1.1767504388611
1.17674786761413
1.176743215577896
1.176735789719578
1.176724895123493
1.176709861184079
1.176690062931708
1.176664944395127
1.176634047975807
1.1765970428644
1.17655374523991
1.176504139680615
1.176448419834351
1.176387062920434
1.176320996592603
1.176252073414044
1.176184283171092
1.176125760550553
1.176088053714301
1.176074612390164
1.176073001826187
1.176073022822701
1.176073458300221
1.176074734691989
1.176077494975734
1.176082379706169
1.176090052846727
1.176101160865084
1.176116309238375
1.176136036049831
1.176160790533577
1.176190916064945
1.176226632312386
1.1762680175631
1.176315000637309
1.176367359347943
1.176424695151893
1.176486331863716
1.176551030608593
1.176616235138157
1.176676443352121
1.176721838700319
1.176743920289517
1.176748584278204
1.176748736065051
1.176748560524678
1.176747720191087
1.176745698167798
1.176741839520512
1.176735471436157
1.176725907165284
1.176712474454849
1.176694536627207
1.176671516313497
1.176642920580316
1.176608366086159
1.17656760360175
1.17652054421232
1.176467292295961
1.176408200083969
1.176343996738453
1.176276144980534
1.176207765126092
1.176145461834305
1.17610027542791
1.17608000904056
1.176076299881785
1.176076224092145
1.176076466019258
1.176077396148839
1.176079588330405
1.176083671281946
1.176090299230393
1.176100116704201
1.17611373378627
1.176131701529928
1.176154493251162
1.176182487980371
1.17621595039196
1.176255012731146
1.176299668499822
1.176349769530481
1.176405000469942
1.176464803752759
1.176528186322017
1.176593171976597
1.17665546155675
1.17670658077277
1.176736231655882
1.17674489619401
1.17674558745994
1.176745513123947
1.176744938269307
1.176743398154148
1.176740247565982
1.176734835643654
1.176726484390519
1.176714524594969
1.176698315335137
1.176677265439276
1.176650855537809
1.176618661796783
1.176580381028798
1.176535856603421
1.176485108176384
1.17642837830811
1.176366233509268
1.176299825588888
1.176231580513548
1.176166736628211
1.176115098239909
1.176087111208957
1.17607989099741
1.176079449193667
1.176079571892377
1.176080210366101
1.17608189847453
1.176085249695726
1.176090906258678
1.176099511221798
1.176111680008354
1.176127978158088
1.176148901241818
1.17617485618258
1.176206144083919
1.1762429462179
1.176285313761978
1.176333157793925
1.176386231385874
1.176444083629593
1.176505921557297
1.176570202571623
1.176633594317454
1.176689130682395
1.176726262239078
1.176740477343361
1.176742409995424
1.176742393002555
1.176742040164636
1.176740900523129
1.176738380953079
1.176733841253921
1.176726616576017
1.176716040969004
1.176701467202621
1.17668229028337
1.176657970376769
1.176628051429405
1.176592182060271
1.176550146521558
1.176501898945219
1.176447596130709
1.176387665485164
1.176323004934938
1.176255503701255
1.176189247096501
1.176132437278773
1.176096408170581
1.176083950601867
1.176082542418102
1.176082620340243
1.176083018839428
1.176084303117279
1.176087025074863
1.176091822892759
1.176099329603172
1.176110162279792
1.176124896068931
1.176144044442547
1.176168040649452
1.176197220873718
1.17623180936866
1.176271905697892
1.176317473131648
1.176368323725288
1.176424085132991
1.176484104556608
1.176547167965316
1.176610753215926
1.176669467243905
1.176713784077983
1.176735472050103
1.176740154013494
1.176740338086412
1.176740187204329
1.17673951520679
1.176737840255062
1.176734624725776
1.176729310757537
1.17672135566303
1.176710261941736
1.176695607505599
1.176677077817049
1.176654499886386
1.176627879027064
1.176597442858923
1.176563709542741
1.17652763145197
1.176490933551392
1.176456782103218
1.176430281139003
1.17641605867651
1.176412120283154
1.176411725994944
1.17641171621326
1.176411716172235
1.176411716172215
1.176411716172215
1.176411716172216
1.176411716172216
1.176411716172217
1.176411716172217
1.176411716172218
1.176411716172218
1.176411716172219
1.176411716172219
1.176411716172219
1.176411716172219
1.176411716172219
1.176411716172219
1.176411716172219
1.176411716172219
1.176411716172218
1.176411716172218
1.176411716172218
1.176411716172219
1.176411716172218
1.176411716172217
1.176411716172217
1.176411716172216
1.176411716172216
1.176411716172216
1.176411716172215
1.176411716172215
1.176411716172215
1.176411716172215
1.176411716172215
1.176411716172214
1.176411716172214
1.176411716172213
1.176411716172214
1.176411716172215
1.176411716172215
1.176411716172215
1.176411716172215
1.176411716172216
1.176411716172217
1.176411716172217
1.176411716172216
1.176411716172216
1.176411716172216
1.176411716172216
1.176411716172216
1.176411716172215
1.176411716172215
1.176411716172215
1.176411716172216
1.176411716172216
1.176411716172215
1.176411716172215
1.176411716172215
1.176411716172215
1.176411716172216
1.176411716172216
1.176411716172216
1.176411716172216
1.176411716172217
1.176411716172216
1.176411716172216
1.176411716172216
1.176411716172217
1.176411716172216
1.176411716172217
1.176411716172217
1.176411716172217
1.176411716172217
1.176411716172217
1.176411716172217
1.176411716172217
1.176411716172217
1.176411716172217
1.176411716172217
1.176411716172217
1.176411716172217
1.176411716172219
1.17641171617222
1.176411716172221
1.176411716172222
1.176411716172222
1.176411716172222
1.176411716172221
1.176411716172221
1.176411716172221
1.176411716172221
1.17641171617222
1.17641171617222
1.17641171617222
1.17641171617222
1.17641171617222
1.17641171617222
1.176411716172221
1.176411716172221
1.176411716172221
1.17641171617222
1.17641171617222
1.17641171617222
1.17641171617222
1.176411716172219
1.176411716172219
1.176411716172219
1.176411716172219
1.176411716172219
1.176411716172219
1.176411716172219
1.176411716172219
1.176411716172219
1.176411716172219
1.176411716172218
1.176411716172217
1.176411716172217
1.176411716172216
1.176411716172216
1.176411716172216
1.176411716172216
1.176411716172217
1.176411716172218
1.176411716172218
1.176411716172218
1.176411716172219
1.176411716172219
1.176411716172219
1.176411716172219
1.176411716172219
1.176411716172219
1.176411716172219
1.176411716172218
1.176411716172219
1.176411716172219
1.176411716172219
1.176411716172219
1.17641171617222
1.17641171617222
1.17641171617222
1.17641171617222
1.176411716172219
1.176411716172219
1.176411716172219
1.176411716172218
1.176411716172218
1.176411716172218
1.176411716172217
1.176411716172216
1.176411716172215
1.176411716172215
1.176411716172214
1.176411716172214
1.176411716172214
1.176411716172213
1.176411716172213
1.176411716172214
1.176411716172214
1.176411716172214
1.176411716172213
1.176411716172214
)
;

boundaryField
{
    inlet
    {
        type            calculated;
        value           uniform 1.176395973595895;
    }
    outlet
    {
        type            calculated;
        value           uniform 1.176411716172221;
    }
    frontAndBack
    {
        type            empty;
    }
}


// ************************************************************************* //
