/*--------------------------------*- C++ -*----------------------------------*\
| =========                 |                                                 |
| \\      /  F ield         | OpenFOAM: The Open Source CFD Toolbox           |
|  \\    /   O peration     | Version:  v2012                                 |
|   \\  /    A nd           | Website:  www.openfoam.com                      |
|    \\/     M anipulation  |                                                 |
\*---------------------------------------------------------------------------*/
FoamFile
{
    version     2.0;
    format      ascii;
    class       volScalarField;
    location    "0.006";
    object      T;
}
// * * * * * * * * * * * * * * * * * * * * * * * * * * * * * * * * * * * * * //

dimensions      [0 0 0 1 0 0 0];


internalField   nonuniform List<scalar> 
1000
(
299.9876515779101
299.9894196952118
299.9831065498818
299.9784578688242
299.9740249829382
299.9701854080672
299.9666822642801
299.9635189365569
299.9607600947912
299.9589422064207
299.9585065988317
299.9586016853109
299.9589880519835
299.9598542154191
299.9614978179325
299.9640025042891
299.9672813936649
299.9711864930514
299.9755945079211
299.980420607725
299.9855953510054
299.9910429275243
299.996673076692
300.0023810741197
300.0080512108862
300.0135661982853
300.0188250695441
300.0237663501233
300.0283826262611
300.0326862439387
300.0365467718845
300.0394120442435
300.0406345049156
300.0407715231507
300.0407107388525
300.0404837770559
300.0398564267115
300.0386270843641
300.036619261168
300.0337524415517
300.0300603910615
300.0256725919655
300.0207613533747
300.015488198968
300.0099787591693
300.0043289892643
299.9986239087746
299.9929505701273
299.9873979469493
299.9820416462928
299.9769193593394
299.9720291390414
299.9674144766018
299.963391788135
299.9607163862162
299.9598052698419
299.9597433939408
299.959778376048
299.959998909309
299.9605426641931
299.9616002918199
299.9633339887791
299.9658592056158
299.9692126495105
299.9733420850813
299.9781185146958
299.9833688174513
299.9889158737745
299.9946083588708
300.0003297937099
300.0059931886087
300.0115374880049
300.0169321988066
300.0221761836793
300.0272645352013
300.0320888257724
300.0362359102222
300.0389058594527
300.0397838656557
300.0398480062861
300.0398002102522
300.0396265432674
300.0391642666274
300.0382657803217
300.0367742439863
300.0345618271185
300.031551995949
300.0277396721019
300.0231963691518
300.0180580810503
300.012500176118
300.0067064781983
300.0008394441068
299.9950186219631
299.9893130229748
299.9837468010567
299.9783156417722
299.9730295479573
299.9680336833266
299.9638360459467
299.961295190202
299.9605551944164
299.9605176388716
299.9605484264822
299.9607244708264
299.9611522093641
299.9619807747332
299.9633502039969
299.9653835225616
299.9681650196554
299.9717236766181
299.9760220913104
299.9809571181867
299.986375435621
299.9921002373999
299.9979603995644
300.0038158321897
300.0095763524792
300.0152084962857
300.0207184358919
300.0260955292285
300.0311910864894
300.035515096657
300.0382255717354
300.0390929601774
300.0391592451441
300.0391232317307
300.0389896493371
300.038628554473
300.0379184198943
300.036723831162
300.0349207770422
300.0324111531245
300.0291403241217
300.0251098784602
300.0203828877339
300.0150797847673
300.0093627990375
300.0034087671862
299.9973767973958
299.9913826622897
299.9854895467017
299.9797214206679
299.9741160297296
299.9688595159688
299.9645090247502
299.9619268511167
299.9611831839775
299.961141139422
299.9611643212838
299.9613032325253
299.9616482081684
299.9623241209308
299.9634531362882
299.9651510834754
299.9675122150645
299.9705956519514
299.9744124871541
299.9789183612206
299.984015607933
299.9895654114443
299.9954075776174
300.0013857992104
300.0073745991588
300.0132972554221
300.0191182710168
300.0247928614962
300.0301476713428
300.0346789220213
300.0375421277136
300.0384943791054
300.0385790779297
300.0385531762178
300.0384530399331
300.0381681805967
300.0375945762863
300.0366125394128
300.035106960168
300.0329767491516
300.0301482248191
300.0265868496
300.0223061781948
300.0173720705305
300.011898564993
300.0060323094402
299.9999279571987
299.9937227396629
299.9875196059209
299.9813900252115
299.9754200934586
299.9698432780135
299.9652566975677
299.9625342831106
299.9617276970325
299.9616724181643
299.9616898021472
299.9618004966134
299.9620816182828
299.9626416956292
299.9635893857978
299.9650323300231
299.9670653772601
299.9697600202324
299.9731531142375
299.9772382559048
299.9819629061393
299.987232151739
299.9929189757335
299.9988819133425
300.0049886460439
300.0111360519031
300.0172500395804
300.0232453485748
300.028916162697
300.0337409003376
300.0368570838543
300.0379593921725
300.0380768757557
300.0380585755869
300.0379830300731
300.0377557585396
300.0372865582713
300.0364686652889
300.0351957361992
300.0333684345962
300.0309051123638
300.0277516150492
300.0238901635444
300.0193461098997
300.0141893028938
300.0085266608474
300.0024866552916
299.9962005981433
299.9897869467438
299.9833494675091
299.9770160001734
299.9710643843563
299.9661348539609
299.9631515106468
299.9622197507553
299.962142439815
299.9621537363897
299.9622404476143
299.9624696863755
299.9629381462566
299.9637429305971
299.9649830817213
299.9667503859827
299.9691212450818
299.9721471304971
299.9758463343767
299.9801992624868
299.9851479268929
299.9906002404825
299.9964411235568
300.002550211105
300.0088186855561
300.0151512098258
300.0214341510485
300.0274383309986
300.0326303536708
300.0361124751191
300.0374517710897
300.03762556546
300.0376140103458
300.0375593317012
300.0373789163783
300.0369935499886
300.0363068549456
300.0352211917269
300.0336415733974
300.0314840120479
300.0286834771516
300.0252019909354
300.0210359001623
300.0162196110748
300.0108230578354
300.0049430867451
299.9986913952093
299.9921827340813
299.985533058591
299.9788939793851
299.9725698079006
299.9672254223667
299.9638484065318
299.962690052523
299.9625677159989
299.9625744307805
299.9626412904987
299.9628272320376
299.9632192130495
299.9639055429004
299.9649780989151
299.9665247213049
299.968622746771
299.9713313029809
299.9746843308519
299.9786856178869
299.9833061262404
299.9884846204346
299.9941340650376
300.000153960949
300.0064426812512
300.0128989951083
300.0193968256411
300.0257012089123
300.031288705789
300.0352376321223
300.0369314416104
300.0372078705852
300.0372035218332
300.0371669677368
300.0370258645284
300.0367109466581
300.0361336855102
300.0352038719104
300.0338314331294
300.0319329547449
300.0294379594457
300.026295852832
300.0224827361872
300.0180059549612
300.0129044250686
300.0072447980855
300.0011147207733
299.9946152124838
299.987860232656
299.981006993369
299.9743604106621
299.9685739514155
299.964684338931
299.9631739004144
299.9629667076784
299.9629679127882
299.9630168480892
299.96316461094
299.9634903976686
299.9640754553883
299.9650054652641
299.9663641436091
299.968228042638
299.9706602547494
299.9737046554744
299.9773812453648
299.9816825961854
299.9865725588792
299.9919895944032
299.997854761752
300.0040797671847
300.0105675022091
300.0171924425824
300.0237305475929
300.0296941666134
300.0341737246709
300.0363523754305
300.0368064333363
300.0368174444197
300.0367948585937
300.0366873814119
300.0364329743111
300.0359497518659
300.0351535504695
300.0339587769702
300.032283712287
300.0300554497107
300.0272157251104
300.0237268516898
300.0195762337577
300.014778282376
300.0093737514579
300.0034267627424
299.9970205064787
299.990258266067
299.9832894347491
299.9763986621297
299.9701929637998
299.9657150718435
299.9637131739859
299.9633519845224
299.9633453813253
299.963377516275
299.9634912608923
299.9637580860245
299.9642537605368
299.9650591105141
299.9662540611527
299.9679135407467
299.9701024363441
299.9728709072035
299.9762501262252
299.9802484690455
299.9848493946266
299.9900128514663
299.9956799125786
300.0017774300096
300.0082179710456
300.0148851640609
300.0215770922931
300.0278609876806
300.032882117943
300.0356601214912
300.0364012043117
300.0364474019405
300.0364344427055
300.0363558071655
300.0361544819042
300.0357537914095
300.0350746981804
300.0340354122959
300.0325562607845
300.0305635300339
300.0279943548999
300.0248018668017
300.0209592514709
300.0164622037471
300.0113302543447
300.0056066339503
299.9993563861745
299.992667974046
299.9856749141892
299.978629391375
299.9720682239755
299.9669846940128
299.9643588107513
299.9637386253286
299.9637086955229
299.9637295131374
299.9638127786569
299.9640274682669
299.9644434113468
299.9651376640126
299.9661869758242
299.9676646205659
299.9696362752173
299.9721561316261
299.9752630152587
299.9789767268559
299.9832957423786
299.9881973554791
299.9936397786372
299.9995644748597
300.0058960716725
300.0125317578435
300.0192967549592
300.0258224332273
300.0313458167844
300.0348005349415
300.0359648187232
300.0360871705128
300.0360811770828
300.0360274259929
300.0358727611614
300.0355452084563
300.0349698430223
300.0340683350826
300.0327631431765
300.0309807427508
300.0286557117857
300.0257350000272
300.0221814849578
300.0179767959586
300.0131238175828
300.0076480732415
300.0015973957841
299.9950442172598
299.9881033488708
299.9809903011546
299.9741609897405
299.9685119340696
299.9651683501339
299.9641517148381
299.9640634066505
299.9640764149477
299.9641343335255
299.9643028675719
299.9646470964004
299.9652408930757
299.9661584549888
299.9674717372678
299.9692467385696
299.9715403128828
299.9743967046523
299.9778439976551
299.9818917871399
299.9865308931579
299.9917340599927
299.997456318998
300.0036343399448
300.0101793672017
300.0169440787643
300.0236244115634
300.0295700289947
300.0337214122855
300.0354564572789
300.0357335631004
300.0357375775312
300.0357013876514
300.0355858995875
300.0353216079547
300.0348382617607
300.0340602509268
300.032911984011
300.0313204069571
300.0292184506381
300.026548530845
300.0232659758622
300.0193422157241
300.0147674611974
300.0095524424181
300.0037295665472
299.9973563500753
299.9905291069973
299.9834263942201
299.9764222071375
299.9702890918629
299.96619281733
299.9646280007145
299.9644163105033
299.9644192249033
299.9644576817084
299.9645848182552
299.9648644584861
299.965367283709
299.9661653218667
299.9673291922281
299.9689249435821
299.9710110565023
299.9736353703054
299.97683218115
299.9806200387918
299.9850004925117
299.9899576409355
299.9954582563523
300.0014513890362
300.0078625211264
300.0145684266256
300.0213226074941
300.0275915490315
300.0323977250609
300.0348219495351
300.0353692226814
300.0353921079665
300.0353729169117
300.0352905681993
300.0350831620519
300.0346830034421
300.0340171100012
300.0330114349949
300.031593489012
300.0296954690718
300.0272571974419
300.0242287976666
300.0205737660419
300.0162723073161
300.0113235671443
300.0057467588497
299.9995846451262
299.9929155828249
299.9858865547509
299.9787995484156
299.9722936987423
299.9674742115163
299.9652162530701
299.9647707481172
299.9647601155692
299.9647803181537
299.9648747417594
299.9650977932216
299.9655188465285
299.9662077410561
299.9672340536849
299.9686638422708
299.9705571065721
299.972964755101
299.9759257556579
299.9794652530225
299.9835933755336
299.9883039332966
299.9935734745878
299.9993611542101
300.005605279863
300.0122045625757
300.0189611522762
300.0254476911568
300.0308174184736
300.0340020931662
300.0349741382677
300.0350592606804
300.0350467218738
300.0349918058604
300.0348315691429
300.0345039930424
300.0339380714898
300.0330617207328
300.0318032945054
300.0300944159034
300.0278725908859
300.0250840075879
300.0216864327755
300.0176520087635
300.0129697400104
300.0076478874576
300.0017175130812
299.9952409173478
299.9883357320851
299.9812418017426
299.9744751996891
299.96901878636
299.9659776901768
299.9651519108203
299.9650953061833
299.9651074166025
299.9651717765112
299.965344903422
299.9656918390962
299.9662809329086
299.9671808793938
299.9684576978432
299.9701721553744
299.97237719016
299.9751155365234
299.9784177431312
299.9823005078932
299.9867653437025
299.9917978368707
299.9973670379437
300.0034221683545
300.0098793821977
300.0165813376104
300.0231932580454
300.0290129514024
300.0329538772239
300.0345014139064
300.0347217870666
300.0347195604058
300.0346847602587
300.0345662859085
300.0343039201611
300.0338292333674
300.0330715076697
300.0319598309829
300.0304257686042
300.028405538079
300.0258423919074
300.0226896139342
300.018913418476
300.0144950116203
300.0094327770503
300.0037464284378
299.997484616157
299.9907419627583
299.9837074989111
299.9767884195489
299.9708150471682
299.966966224811
299.9655942176535
299.9654298207571
299.9654319637757
299.9654764142392
299.9656066996695
299.9658884506262
299.9663870497354
299.9671702678008
299.9683040876907
299.9698503051914
299.971863832967
299.9743905097213
299.9774653634109
299.9811107893344
299.9853347465817
299.9901299338845
299.9954736342201
300.001325130279
300.0076153713742
300.0142178902466
300.0208718017143
300.0270156524411
300.031647812671
300.0339009822204
300.0343768847025
300.0343923725418
300.034374460525
300.0342887141339
300.034082389984
300.0336886590496
300.0330388670636
300.032062935979
300.0306922642021
300.0288618763266
300.0265128436887
300.0235948472357
300.0200687437797
300.0159090679167
300.0111067063942
300.0056722650514
299.9996416396923
299.9930891940522
299.9861641657322
299.9791849936972
299.972825804617
299.9682135679504
299.9661449106246
299.9657663022678
299.9657585659893
299.9657832601134
299.9658782012744
299.9661019639579
299.9665187227348
299.9671952549812
299.9681973463688
299.96958726395
299.9714212458504
299.9737475908321
299.976604968497
299.9800203703603
299.9840072653388
299.9885649560968
299.9936782818323
299.9993150162313
300.0054182137545
300.011886490197
300.0185181449427
300.0248744596465
300.0300907387009
300.0331162868579
300.0340003984153
300.0340709336141
300.0340633483649
300.0340046909361
300.0338475397469
300.0335260578627
300.0329738312528
300.0321216756073
300.0309013006932
300.0292472995192
300.0270993369821
300.0244043989528
300.0211192131828
300.0172128112393
300.0126691727265
300.0074902601649
300.001700778721
299.9953584923505
299.9885809035739
299.9816155735392
299.9749971501277
299.9697264048753
299.9668696938724
299.9661327003989
299.9660876037757
299.9661001279022
299.9661652987581
299.9663376089429
299.9666796775517
299.9672570576143
299.9681353853705
299.9693774739652
299.9710410415735
299.9731766603301
299.9758258489924
299.9790193197545
299.9827755480317
299.98709972545
299.9919827398275
299.997399349527
300.0033034941499
300.0096142072603
300.0161740313538
300.0226428922894
300.028309964814
300.032098864047
300.0335493493909
300.0337465533082
300.0337448192981
300.0337088161094
300.0335925285421
300.0333354346604
300.0328722084416
300.0321350075698
300.0310558754472
300.0295687626792
300.0276119255767
300.0251302640276
300.0220772207416
300.0184169124003
300.0141272889311
300.0092036289988
300.0036618878174
299.9975456338996
299.9909464570329
299.9840571298665
299.97729459726
299.971496066797
299.967818508107
299.9665469226545
299.9664031843252
299.9664111380174
299.9664518139293
299.9665829037891
299.9668607414249
299.9673504668568
299.9681166934139
299.9692224035387
299.9707262971916
299.9726807753305
299.9751300457972
299.9781084037141
299.9816387139193
299.9857311089887
299.9903818057972
299.9955715841787
300.0012624023755
300.0073875981439
300.0138232407832
300.0203119257199
300.0263033240677
300.0308254503304
300.0330384658151
300.0335162046916
300.0335349871325
300.0335195912983
300.0334510214931
300.0332801113955
300.0329520021733
300.0324097692678
300.0315980352814
300.0304660318384
300.0289706831983
300.0270798851747
300.0247759741477
300.0220594780699
300.0189536078754
300.0155112226371
300.011829494378
300.0080844451049
300.0045991986457
300.001894659863
300.0004431786957
300.0000412419379
300.000001002468
300.0000000041901
300.0000000000034
300.0000000000013
300.0000000000013
300.0000000000013
300.0000000000014
300.0000000000015
300.0000000000014
300.0000000000015
300.0000000000016
300.0000000000017
300.0000000000017
300.0000000000016
300.0000000000015
300.0000000000015
300.0000000000015
300.0000000000015
300.0000000000015
300.0000000000015
300.0000000000016
300.0000000000015
300.0000000000014
300.0000000000014
300.0000000000014
300.0000000000015
300.0000000000016
300.0000000000016
300.0000000000017
300.0000000000018
300.0000000000019
300.0000000000018
300.0000000000018
300.0000000000019
300.000000000002
300.0000000000022
300.0000000000023
300.0000000000024
300.0000000000024
300.0000000000023
300.0000000000022
300.0000000000022
300.000000000002
300.0000000000019
300.0000000000018
300.0000000000018
300.0000000000019
300.0000000000019
300.0000000000019
300.0000000000019
300.0000000000019
300.0000000000019
300.0000000000018
300.0000000000018
300.0000000000019
300.0000000000021
300.0000000000022
300.0000000000022
300.0000000000021
300.0000000000019
300.0000000000018
300.0000000000018
300.0000000000018
300.0000000000019
300.0000000000019
300.0000000000019
300.0000000000019
300.0000000000019
300.0000000000019
300.0000000000019
300.0000000000019
300.000000000002
300.0000000000021
300.0000000000022
300.0000000000021
300.000000000002
300.000000000002
300.0000000000021
300.0000000000022
300.0000000000023
300.0000000000023
300.0000000000021
300.0000000000019
300.0000000000019
300.0000000000018
300.0000000000018
300.0000000000018
300.0000000000018
300.0000000000019
300.0000000000019
300.0000000000019
300.000000000002
300.000000000002
300.0000000000022
300.0000000000022
300.0000000000022
300.0000000000021
300.0000000000018
300.0000000000017
300.0000000000017
300.0000000000016
300.0000000000016
300.0000000000016
300.0000000000015
300.0000000000016
300.0000000000017
300.0000000000018
300.0000000000018
300.0000000000016
300.0000000000015
300.0000000000015
300.0000000000015
300.0000000000015
300.0000000000017
300.0000000000018
300.0000000000019
300.000000000002
300.000000000002
300.000000000002
300.000000000002
300.0000000000018
300.0000000000015
300.0000000000014
300.0000000000014
300.0000000000014
300.0000000000015
300.0000000000015
300.0000000000015
300.0000000000015
300.0000000000013
300.0000000000013
300.0000000000014
300.0000000000013
300.0000000000012
300.0000000000011
300.0000000000011
300.0000000000011
300.0000000000012
300.0000000000012
300.0000000000012
300.0000000000013
300.0000000000014
300.0000000000014
300.0000000000014
300.0000000000014
300.0000000000015
300.0000000000015
300.0000000000015
300.0000000000017
300.0000000000019
300.000000000002
300.000000000002
300.000000000002
300.000000000002
300.000000000002
300.0000000000022
300.0000000000021
300.000000000002
300.000000000002
300.000000000002
300.000000000002
)
;

boundaryField
{
    inlet
    {
        type            fixedValue;
        value           uniform 300;
    }
    outlet
    {
        type            inletOutlet;
        inletValue      uniform 300;
        value           uniform 300;
    }
    frontAndBack
    {
        type            empty;
    }
}


// ************************************************************************* //
