/*--------------------------------*- C++ -*----------------------------------*\
| =========                 |                                                 |
| \\      /  F ield         | OpenFOAM: The Open Source CFD Toolbox           |
|  \\    /   O peration     | Version:  v2012                                 |
|   \\  /    A nd           | Website:  www.openfoam.com                      |
|    \\/     M anipulation  |                                                 |
\*---------------------------------------------------------------------------*/
FoamFile
{
    version     2.0;
    format      ascii;
    class       volVectorField;
    location    "0.006";
    object      U;
}
// * * * * * * * * * * * * * * * * * * * * * * * * * * * * * * * * * * * * * //

dimensions      [0 1 -1 0 0 0 0];


internalField   nonuniform List<vector> 
1000
(
(-0.002783633447145197 0 0)
(-0.03443561594960667 0 0)
(-0.04262523780411036 0 0)
(-0.05778812507037227 0 0)
(-0.07166269119735767 0 0)
(-0.08458333327890277 0 0)
(-0.09561161574357405 0 0)
(-0.1050436821272276 0 0)
(-0.113184418302437 0 0)
(-0.1186828834107447 0 0)
(-0.1201377832805484 0 0)
(-0.1199802730469837 0 0)
(-0.1191715035872293 0 0)
(-0.116657128255172 0 0)
(-0.111815568592511 0 0)
(-0.1044582372297086 0 0)
(-0.09486672530179098 0 0)
(-0.08347173614690159 0 0)
(-0.07063498327966691 0 0)
(-0.05660703763630332 0 0)
(-0.04158866120278415 0 0)
(-0.02579921832052113 0 0)
(-0.009506517920524612 0 0)
(0.006984186547250254 0 0)
(0.02335427848084548 0 0)
(0.03928441961781743 0 0)
(0.05447792179971414 0 0)
(0.06873792486703559 0 0)
(0.08205324077640384 0 0)
(0.09449859204270834 0 0)
(0.1056960608183493 0 0)
(0.1139885841625759 0 0)
(0.1174926112967546 0 0)
(0.1178766407426692 0 0)
(0.1177822108526023 0 0)
(0.1170860745210731 0 0)
(0.115290062320195 0 0)
(0.1117324495755587 0 0)
(0.1059232473251586 0 0)
(0.09762899046991207 0 0)
(0.0869497455170061 0 0)
(0.07425689274111 0 0)
(0.06004669162731693 0 0)
(0.04479128957079755 0 0)
(0.02885887928868433 0 0)
(0.01252091126635502 0 0)
(-0.003985634368676324 0 0)
(-0.02040234817056456 0 0)
(-0.0364570581539597 0 0)
(-0.05193741163871059 0 0)
(-0.06675904418846666 0 0)
(-0.08092562940443286 0 0)
(-0.09427326048980482 0 0)
(-0.1058789345974239 0 0)
(-0.1136097544617861 0 0)
(-0.1162822561226806 0 0)
(-0.116485332946579 0 0)
(-0.1163192992502961 0 0)
(-0.1157210754503404 0 0)
(-0.11413612871055 0 0)
(-0.1110783969465255 0 0)
(-0.1060641015439096 0 0)
(-0.09875984262543445 0 0)
(-0.08905768812319118 0 0)
(-0.07711186261240248 0 0)
(-0.06329778040006638 0 0)
(-0.04811225615954217 0 0)
(-0.03206363673053561 0 0)
(-0.01559466424324362 0 0)
(0.0009505059111361694 0 0)
(0.01732594105143868 0 0)
(0.03336758286894903 0 0)
(0.04898208335483205 0 0)
(0.06414544111631459 0 0)
(0.07884541233644403 0 0)
(0.09280051370775967 0 0)
(0.104821186537643 0 0)
(0.1125500286671561 0 0)
(0.115058989181162 0 0)
(0.1152252932115183 0 0)
(0.1151408454927813 0 0)
(0.1146053751194843 0 0)
(0.1132782809987168 0 0)
(0.1106781217482745 0 0)
(0.1063634130321553 0 0)
(0.09996381221391538 0 0)
(0.09125973455663441 0 0)
(0.08023392200036986 0 0)
(0.06709086928291287 0 0)
(0.05222713536555666 0 0)
(0.03615390950928835 0 0)
(0.01939894450841805 0 0)
(0.002425224228530348 0 0)
(-0.01441743281845417 0 0)
(-0.0309177835755327 0 0)
(-0.04700866950977139 0 0)
(-0.06272131590516668 0 0)
(-0.07802805673973501 0 0)
(-0.09248074593691134 0 0)
(-0.1046011191091741 0 0)
(-0.1119412187749287 0 0)
(-0.1141063213146137 0 0)
(-0.1142379902433633 0 0)
(-0.1141007355902111 0 0)
(-0.113618784561903 0 0)
(-0.112373481692546 0 0)
(-0.1099778004103667 0 0)
(-0.1060170849827666 0 0)
(-0.1001356863145727 0 0)
(-0.09208844249904533 0 0)
(-0.08179386299752381 0 0)
(-0.06936186598845573 0 0)
(-0.0550877745323872 0 0)
(-0.03941220235316157 0 0)
(-0.02285059237943298 0 0)
(-0.005903152229645431 0 0)
(0.01102956479577127 0 0)
(0.02769577390346769 0 0)
(0.04399413124548438 0 0)
(0.05992726748474813 0 0)
(0.07546713216436628 0 0)
(0.09020765880800899 0 0)
(0.1027333391957849 0 0)
(0.1105760225868874 0 0)
(0.11306300789199 0 0)
(0.1132405623086883 0 0)
(0.1131770324956322 0 0)
(0.1127650695814757 0 0)
(0.1117284643725645 0 0)
(0.1096733819112436 0 0)
(0.1062177778672281 0 0)
(0.1010023043567373 0 0)
(0.09374459867499188 0 0)
(0.08428476026676804 0 0)
(0.07262567161285929 0 0)
(0.05895218367394692 0 0)
(0.04361539481544005 0 0)
(0.02708133225178221 0 0)
(0.00985664676546066 0 0)
(-0.007594821008237702 0 0)
(-0.02492999842901245 0 0)
(-0.0419694053661402 0 0)
(-0.05865724674939071 0 0)
(-0.07488306767349508 0 0)
(-0.09008751420708647 0 0)
(-0.1026554754254511 0 0)
(-0.1101201331915648 0 0)
(-0.1122908807231698 0 0)
(-0.1124257632456845 0 0)
(-0.1123240614969072 0 0)
(-0.1119430806289162 0 0)
(-0.1109388620707227 0 0)
(-0.1089846554078208 0 0)
(-0.1057192823064449 0 0)
(-0.1008077873104465 0 0)
(-0.09397672285920119 0 0)
(-0.08505711157898665 0 0)
(-0.07401788012663382 0 0)
(-0.06098458915844916 0 0)
(-0.04623794571837168 0 0)
(-0.03018335568105248 0 0)
(-0.01328775960421066 0 0)
(0.004001614179695893 0 0)
(0.02132839551157005 0 0)
(0.03846499276811991 0 0)
(0.05529703208447787 0 0)
(0.07170037310966905 0 0)
(0.08719301679417601 0 0)
(0.1003146916640644 0 0)
(0.1085950848679188 0 0)
(0.1113307907067509 0 0)
(0.1115670548772499 0 0)
(0.111526562993838 0 0)
(0.111213338611361 0 0)
(0.1103969560915052 0 0)
(0.1087366837291374 0 0)
(0.1058959604598291 0 0)
(0.1015409863178346 0 0)
(0.09538051702696801 0 0)
(0.08719982458787139 0 0)
(0.07689771706830395 0 0)
(0.06451551367378365 0 0)
(0.05024578638249114 0 0)
(0.03441547546726641 0 0)
(0.01744503879157256 0 0)
(-0.0002147166229757866 0 0)
(-0.01816052089664497 0 0)
(-0.03609826746725661 0 0)
(-0.05383186820713824 0 0)
(-0.07110958860959914 0 0)
(-0.08723931897584325 0 0)
(-0.1004935119648615 0 0)
(-0.1083668077073023 0 0)
(-0.1107153891903676 0 0)
(-0.1108849639310932 0 0)
(-0.110806203868014 0 0)
(-0.1105040801584998 0 0)
(-0.1096851902825044 0 0)
(-0.1080660329804309 0 0)
(-0.1053250763590621 0 0)
(-0.1011511460395788 0 0)
(-0.09526930681791437 0 0)
(-0.08747450744698118 0 0)
(-0.0776607439927961 0 0)
(-0.065844132163977 0 0)
(-0.05217554935082285 0 0)
(-0.03693304138879498 0 0)
(-0.02048636306141466 0 0)
(-0.003240035637882836 0 0)
(0.01442772523383544 0 0)
(0.03221263766355024 0 0)
(0.04989190980418506 0 0)
(0.06722581606863988 0 0)
(0.0836337828778536 0 0)
(0.09760047557680308 0 0)
(0.1066097606287827 0 0)
(0.1097836856238706 0 0)
(0.1101184757329577 0 0)
(0.1100941814925117 0 0)
(0.1098542043657087 0 0)
(0.1092041457066277 0 0)
(0.1078457259246857 0 0)
(0.105479831938336 0 0)
(0.1017978929940389 0 0)
(0.09651345862821815 0 0)
(0.08938886061872704 0 0)
(0.08026661117751942 0 0)
(0.06909732602855195 0 0)
(0.05595574274575685 0 0)
(0.04104095059705808 0 0)
(0.02465952603283723 0 0)
(0.007186895930223621 0 0)
(-0.01099236503851791 0 0)
(-0.0295403865209532 0 0)
(-0.04816546361767578 0 0)
(-0.06649272729332933 0 0)
(-0.08370450626455286 0 0)
(-0.09795286946819648 0 0)
(-0.1065846621414912 0 0)
(-0.1092932189446238 0 0)
(-0.109522111775653 0 0)
(-0.1094649169555643 0 0)
(-0.1092314256036522 0 0)
(-0.1085625453895336 0 0)
(-0.1072085745504043 0 0)
(-0.1048808817832698 0 0)
(-0.1012934479104605 0 0)
(-0.0961804770628486 0 0)
(-0.0893224704297636 0 0)
(-0.08057068214814037 0 0)
(-0.0698700952754147 0 0)
(-0.05727701813761265 0 0)
(-0.04296236288325553 0 0)
(-0.02719365620507555 0 0)
(-0.01029929432300686 0 0)
(0.007375164653600426 0 0)
(0.02550868141339328 0 0)
(0.04381992201827601 0 0)
(0.0619883951757341 0 0)
(0.0793617665015153 0 0)
(0.0943874191303708 0 0)
(0.1044528453309746 0 0)
(0.108315570586894 0 0)
(0.1088158215461928 0 0)
(0.1088078604279109 0 0)
(0.1086285048937793 0 0)
(0.1081143596160148 0 0)
(0.106998171398979 0 0)
(0.1050118774867512 0 0)
(0.1018716754035444 0 0)
(0.09730347234956607 0 0)
(0.09106307747776041 0 0)
(0.08296197597273987 0 0)
(0.07289202055036345 0 0)
(0.06084336407027666 0 0)
(0.04691300859399724 0 0)
(0.03130170246950958 0 0)
(0.01429297619243991 0 0)
(-0.003787213950591823 0 0)
(-0.02261155505795956 0 0)
(-0.04185013560528819 0 0)
(-0.061058817890455 0 0)
(-0.07934775225306626 0 0)
(-0.09479968201470569 0 0)
(-0.1045718124431135 0 0)
(-0.1079319717713271 0 0)
(-0.1082886605080351 0 0)
(-0.1082498039887815 0 0)
(-0.1080714674605013 0 0)
(-0.1075282397264933 0 0)
(-0.106395557404018 0 0)
(-0.1044104223408105 0 0)
(-0.1013076792938886 0 0)
(-0.09683322095203006 0 0)
(-0.09076460939403387 0 0)
(-0.0829305223069747 0 0)
(-0.0732309772737615 0 0)
(-0.0616553296098124 0 0)
(-0.04829039796649424 0 0)
(-0.03331334513488533 0 0)
(-0.01697173968346519 0 0)
(0.0004445001680096802 0 0)
(0.01863510200138192 0 0)
(0.03730452784844927 0 0)
(0.0560971009726659 0 0)
(0.07433944972549084 0 0)
(0.09050561294704487 0 0)
(0.1019198314824903 0 0)
(0.1068107591870274 0 0)
(0.1076097156883365 0 0)
(0.1076211289576951 0 0)
(0.1074930060201003 0 0)
(0.1070935789260071 0 0)
(0.1061807213549277 0 0)
(0.104511129648671 0 0)
(0.1018217873918105 0 0)
(0.09785265778395343 0 0)
(0.09236147515507634 0 0)
(0.08514435731835215 0 0)
(0.07605629007287679 0 0)
(0.06502826715596464 0 0)
(0.05207949939567978 0 0)
(0.03732201134148316 0 0)
(0.02095148031975265 0 0)
(0.003222667019415615 0 0)
(-0.01557646656734351 0 0)
(-0.0351192103875804 0 0)
(-0.05494510893577293 0 0)
(-0.07416647431976869 0 0)
(-0.09090022669462341 0 0)
(-0.1021560418535915 0 0)
(-0.10653156190676 0 0)
(-0.1071320126852348 0 0)
(-0.1071125935866948 0 0)
(-0.106984867570059 0 0)
(-0.1065521540136798 0 0)
(-0.1056110764371221 0 0)
(-0.1039187693562977 0 0)
(-0.1012282896873426 0 0)
(-0.09729765850376482 0 0)
(-0.09190641855404241 0 0)
(-0.08487144400252161 0 0)
(-0.07606442653741947 0 0)
(-0.06542836214683072 0 0)
(-0.0529869906339193 0 0)
(-0.03884397568812844 0 0)
(-0.02317384178849473 0 0)
(-0.006205760217394019 0 0)
(0.01179929414309286 0 0)
(0.03056041447568083 0 0)
(0.04972300107329456 0 0)
(0.06864092155570968 0 0)
(0.08589178878877762 0 0)
(0.09883956885782759 0 0)
(0.1051352682535404 0 0)
(0.1064565183366225 0 0)
(0.1065013282508399 0 0)
(0.1064160776381785 0 0)
(0.1061151050838914 0 0)
(0.1053767156934782 0 0)
(0.1039793278600204 0 0)
(0.1016764826504398 0 0)
(0.09822106522997869 0 0)
(0.09337598519605464 0 0)
(0.086930614272989 0 0)
(0.07871732482724331 0 0)
(0.06862678074045829 0 0)
(0.05662113482432868 0 0)
(0.04274232594532502 0 0)
(0.02711030138858905 0 0)
(0.009910383802262538 0 0)
(-0.008620052545698266 0 0)
(-0.0281827848603793 0 0)
(-0.04834096941619681 0 0)
(-0.06826952711547506 0 0)
(-0.08621899038215652 0 0)
(-0.09917620900806887 0 0)
(-0.104971275671132 0 0)
(-0.1060124438248023 0 0)
(-0.1060234920097728 0 0)
(-0.1059410243125719 0 0)
(-0.1056071162588204 0 0)
(-0.1048366347895227 0 0)
(-0.1034027278345999 0 0)
(-0.1010728463377559 0 0)
(-0.09761604175592625 0 0)
(-0.0928161293920164 0 0)
(-0.08648465684016214 0 0)
(-0.07847575911473058 0 0)
(-0.06870036688107137 0 0)
(-0.0571355937517501 0 0)
(-0.04382785408324136 0 0)
(-0.02889080651478483 0 0)
(-0.01249680009619205 0 0)
(0.005138744165529879 0 0)
(0.02376495109006008 0 0)
(0.04305148794148277 0 0)
(0.06241259921687468 0 0)
(0.08058678186603162 0 0)
(0.09510209103316374 0 0)
(0.1031361490203598 0 0)
(0.1052884760557348 0 0)
(0.1054276404484384 0 0)
(0.105373780368888 0 0)
(0.1051566544635278 0 0)
(0.1045712863084545 0 0)
(0.1034127144398939 0 0)
(0.1014486899920912 0 0)
(0.0984429881786472 0 0)
(0.0941643793853833 0 0)
(0.08840028367660706 0 0)
(0.08096981327186425 0 0)
(0.07173651905596225 0 0)
(0.06062132930864152 0 0)
(0.04761289885152124 0 0)
(0.03277004246957471 0 0)
(0.01621637331834791 0 0)
(-0.001863809505075096 0 0)
(-0.02121325207418823 0 0)
(-0.04143981903247317 0 0)
(-0.06181501411337152 0 0)
(-0.0807947829463498 0 0)
(-0.09550639507184816 0 0)
(-0.1031037970854302 0 0)
(-0.1048902009323099 0 0)
(-0.1049718159296732 0 0)
(-0.1049248444880685 0 0)
(-0.1046760267265224 0 0)
(-0.1040573803127856 0 0)
(-0.1028537793191399 0 0)
(-0.1008453689823261 0 0)
(-0.09781001385686908 0 0)
(-0.09353597870700832 0 0)
(-0.08783263880602583 0 0)
(-0.08054305999699082 0 0)
(-0.07155587810775069 0 0)
(-0.06081419416289304 0 0)
(-0.0483211115029981 0 0)
(-0.03414166197287497 0 0)
(-0.01839866805012979 0 0)
(-0.001262830083476718 0 0)
(0.01705043152712588 0 0)
(0.03624621239929677 0 0)
(0.05581548892780355 0 0)
(0.07468761476603572 0 0)
(0.09065998275571717 0 0)
(0.1006547826874615 0 0)
(0.1040265443763149 0 0)
(0.1043811605032585 0 0)
(0.1043544991490938 0 0)
(0.1042068108029961 0 0)
(0.1037566419267983 0 0)
(0.1028097202517956 0 0)
(0.1011457356608377 0 0)
(0.09853838668238017 0 0)
(0.09476289195237915 0 0)
(0.08960737267517542 0 0)
(0.08288314349102542 0 0)
(0.07443562313610851 0 0)
(0.06415648095202789 0 0)
(0.05199415743066216 0 0)
(0.03795859624520412 0 0)
(0.02212135103095483 0 0)
(0.004617820329495549 0 0)
(-0.01433964336201498 0 0)
(-0.03441393372851229 0 0)
(-0.05498506104838458 0 0)
(-0.07474254203488553 0 0)
(-0.09108985802060066 0 0)
(-0.1007602467023136 0 0)
(-0.1036932454981228 0 0)
(-0.1039455002375974 0 0)
(-0.1039230168052813 0 0)
(-0.1037446527860156 0 0)
(-0.1032607695321724 0 0)
(-0.1022642542811934 0 0)
(-0.1005464035575765 0 0)
(-0.09789229105073023 0 0)
(-0.09409381100382283 0 0)
(-0.08895911559484347 0 0)
(-0.08232390842332518 0 0)
(-0.07406160233435559 0 0)
(-0.0640908785745489 0 0)
(-0.05238190662445935 0 0)
(-0.03896115711359465 0 0)
(-0.02391071372852698 0 0)
(-0.007361424825722791 0 0)
(0.01050827309248095 0 0)
(0.02944369755533057 0 0)
(0.04901177494666871 0 0)
(0.06832843750875675 0 0)
(0.08552188109925409 0 0)
(0.09753485167429334 0 0)
(0.1025595518527383 0 0)
(0.1033608718982028 0 0)
(0.1033549258505987 0 0)
(0.1032669145709497 0 0)
(0.1029264693472397 0 0)
(0.1021635478078992 0 0)
(0.1007653419085389 0 0)
(0.09851509048851684 0 0)
(0.09519379192629314 0 0)
(0.09059039535797929 0 0)
(0.08451089903693428 0 0)
(0.0767884422181979 0 0)
(0.06729377588340987 0 0)
(0.05594465897869948 0 0)
(0.04271280595855975 0 0)
(0.02762858727277185 0 0)
(0.0107855117155878 0 0)
(-0.007649204898707442 0 0)
(-0.02739660929163746 0 0)
(-0.0479415220301341 0 0)
(-0.06820296253780422 0 0)
(-0.08594453030955668 0 0)
(-0.09779271049800645 0 0)
(-0.1023182990696172 0 0)
(-0.1029306380954985 0 0)
(-0.1029248722877413 0 0)
(-0.1028111280551039 0 0)
(-0.1024443753157256 0 0)
(-0.1016351854116445 0 0)
(-0.1001806548259726 0 0)
(-0.09787224811955286 0 0)
(-0.09450560913511535 0 0)
(-0.08988950186842738 0 0)
(-0.0838549636693363 0 0)
(-0.07626389046889692 0 0)
(-0.067016829990629 0 0)
(-0.05605973383094485 0 0)
(-0.04338850779820624 0 0)
(-0.02904986397175228 0 0)
(-0.01313952143628693 0 0)
(0.004196204932506653 0 0)
(0.02274126431107247 0 0)
(0.04213743372978202 0 0)
(0.06167205905959674 0 0)
(0.07980458939238669 0 0)
(0.09370784259123568 0 0)
(0.1007200886488389 0 0)
(0.1023004882001181 0 0)
(0.1023654954363713 0 0)
(0.1023139077786994 0 0)
(0.1020731903006585 0 0)
(0.1014740255183247 0 0)
(0.1003167570323109 0 0)
(0.0983906054521107 0 0)
(0.09548149025813671 0 0)
(0.09138055194323316 0 0)
(0.0858912982843941 0 0)
(0.07883849062776044 0 0)
(0.07007833056379623 0 0)
(0.05950702161743963 0 0)
(0.0470667366215487 0 0)
(0.03275211282349477 0 0)
(0.01661907542725239 0 0)
(-0.001204280377067219 0 0)
(-0.02049116654607389 0 0)
(-0.0408232609614336 0 0)
(-0.06132867326904515 0 0)
(-0.08014916637055178 0 0)
(-0.09408356182651124 0 0)
(-0.1006104991784568 0 0)
(-0.1019052523703382 0 0)
(-0.1019463076282875 0 0)
(-0.1018724345220932 0 0)
(-0.101606914722905 0 0)
(-0.1009595844230392 0 0)
(-0.09974186742720105 0 0)
(-0.0977493473896929 0 0)
(-0.09478066145532363 0 0)
(-0.09064430475098458 0 0)
(-0.08516755096176051 0 0)
(-0.07820370697282406 0 0)
(-0.06963888696528817 0 0)
(-0.05939942657441578 0 0)
(-0.04745775077221628 0 0)
(-0.03383349505856083 0 0)
(-0.01859220115330678 0 0)
(-0.001849046978566302 0 0)
(0.01621444606516984 0 0)
(0.03530003191033321 0 0)
(0.05483894363496187 0 0)
(0.0736036337140199 0 0)
(0.08914163079371268 0 0)
(0.0983512418159016 0 0)
(0.1011547737963381 0 0)
(0.1013977924728041 0 0)
(0.1013769988861359 0 0)
(0.1012071927834706 0 0)
(0.1007471988355988 0 0)
(0.09979902761723712 0 0)
(0.09816227608528676 0 0)
(0.09562752404692444 0 0)
(0.09198774106287608 0 0)
(0.08704505788664209 0 0)
(0.08061864518322935 0 0)
(0.07255294012873033 0 0)
(0.06272586314945293 0 0)
(0.05105666889681133 0 0)
(0.03751335482563973 0 0)
(0.02211995900926586 0 0)
(0.004966543347010498 0 0)
(-0.0137669810902366 0 0)
(-0.03374084346561598 0 0)
(-0.05426103505850106 0 0)
(-0.07383408501733238 0 0)
(-0.08961709942376733 0 0)
(-0.09841411246638987 0 0)
(-0.1008034366768338 0 0)
(-0.100967331805464 0 0)
(-0.1009312601969425 0 0)
(-0.1007458710196546 0 0)
(-0.1002447589777791 0 0)
(-0.09924124449977083 0 0)
(-0.09753725448286846 0 0)
(-0.09493396658062765 0 0)
(-0.09124042257155418 0 0)
(-0.08628110409700417 0 0)
(-0.0799028634981446 0 0)
(-0.07198172799757034 0 0)
(-0.06242936402732582 0 0)
(-0.05119806126083123 0 0)
(-0.03828352756582483 0 0)
(-0.02372664523350268 0 0)
(-0.007616768902812716 0 0)
(0.009897921698703571 0 0)
(0.02857431026545658 0 0)
(0.04795905887325401 0 0)
(0.06708499093387575 0 0)
(0.08391872049285642 0 0)
(0.09531591164705153 0 0)
(0.09979052885605628 0 0)
(0.1004278062791413 0 0)
(0.1004257621284287 0 0)
(0.1003209111770943 0 0)
(0.09997997503750426 0 0)
(0.09922081151614759 0 0)
(0.09784764045976299 0 0)
(0.09565599812084177 0 0)
(0.09244102800820941 0 0)
(0.08800397529669012 0 0)
(0.08216010007580384 0 0)
(0.07474642901067791 0 0)
(0.06562827762341089 0 0)
(0.05470614780322515 0 0)
(0.04192473948344994 0 0)
(0.02728190057707743 0 0)
(0.01083639251414633 0 0)
(-0.007274765154147766 0 0)
(-0.02678134168699533 0 0)
(-0.04713167936870957 0 0)
(-0.06714184810332387 0 0)
(-0.08441599366948256 0 0)
(-0.09555292453892324 0 0)
(-0.09952792657265429 0 0)
(-0.1000048808137346 0 0)
(-0.09998414694352613 0 0)
(-0.09986754410234809 0 0)
(-0.09948633037734808 0 0)
(-0.09867234709572353 0 0)
(-0.09723007759873156 0 0)
(-0.09496432380807426 0 0)
(-0.09168429391820572 0 0)
(-0.08721186031508316 0 0)
(-0.08138779108858384 0 0)
(-0.07407860328033763 0 0)
(-0.06518351468435113 0 0)
(-0.05463919630821933 0 0)
(-0.04242203715356976 0 0)
(-0.02855090791708781 0 0)
(-0.01309214309470545 0 0)
(0.003832809159249466 0 0)
(0.02202439326836287 0 0)
(0.04112238145341365 0 0)
(0.06037294626386864 0 0)
(0.07814416303136516 0 0)
(0.09153633051869445 0 0)
(0.09804986749493712 0 0)
(0.09943236316836997 0 0)
(0.09948455396986494 0 0)
(0.09941998809389713 0 0)
(0.09917849293195979 0 0)
(0.09858003657165848 0 0)
(0.09744150227556019 0 0)
(0.09556204379104756 0 0)
(0.09273936112763939 0 0)
(0.08877484143636594 0 0)
(0.08348059445172422 0 0)
(0.07668634051288195 0 0)
(0.06824646356409292 0 0)
(0.05804745514708747 0 0)
(0.04601568696202132 0 0)
(0.03212516367851826 0 0)
(0.01640647648427069 0 0)
(-0.001037205975282661 0 0)
(-0.01999086862427608 0 0)
(-0.04002197988082581 0 0)
(-0.06020926690316079 0 0)
(-0.07860391021261756 0 0)
(-0.09194644483124159 0 0)
(-0.09793083440282625 0 0)
(-0.09902538182108443 0 0)
(-0.09904647871729073 0 0)
(-0.09897698188850806 0 0)
(-0.09870121217153896 0 0)
(-0.09805439697258915 0 0)
(-0.09684890309891847 0 0)
(-0.09489162704652869 0 0)
(-0.09199277289213353 0 0)
(-0.08797263239445176 0 0)
(-0.08266773014802203 0 0)
(-0.07593775257628009 0 0)
(-0.06767202161751795 0 0)
(-0.05779352205817964 0 0)
(-0.04626167042362146 0 0)
(-0.0330767019306735 0 0)
(-0.01828476650076378 0 0)
(-0.001982292897565998 0 0)
(0.01566885955986315 0 0)
(0.03438081780041864 0 0)
(0.05356682509191787 0 0)
(0.0719491724822291 0 0)
(0.08702986634761602 0 0)
(0.09578225940712842 0 0)
(0.09834745257780744 0 0)
(0.09855481291456843 0 0)
(0.09851765470417 0 0)
(0.09835855286190663 0 0)
(0.09790074671712005 0 0)
(0.09697159817700225 0 0)
(0.09537422890635017 0 0)
(0.09290948842417868 0 0)
(0.08937974914741886 0 0)
(0.08459578688511658 0 0)
(0.07838300742835229 0 0)
(0.07058814024078511 0 0)
(0.06108612517410841 0 0)
(0.04978724463703155 0 0)
(0.03664490458431504 0 0)
(0.0216648852235295 0 0)
(0.004918989053184767 0 0)
(-0.01342590457636076 0 0)
(-0.03303063703849043 0 0)
(-0.05317907713687881 0 0)
(-0.07232363572653318 0 0)
(-0.08756920818047832 0 0)
(-0.09583246923666928 0 0)
(-0.09796535904171744 0 0)
(-0.09809661852621508 0 0)
(-0.09805845652343741 0 0)
(-0.09787102197449496 0 0)
(-0.09737232465259406 0 0)
(-0.09638287343294651 0 0)
(-0.09471264470932841 0 0)
(-0.09217194472545924 0 0)
(-0.08857905014415667 0 0)
(-0.08376687364679819 0 0)
(-0.07758916088798543 0 0)
(-0.06992603178881199 0 0)
(-0.06068864954264532 0 0)
(-0.04982328447421629 0 0)
(-0.03731493668127046 0 0)
(-0.02319047844512515 0 0)
(-0.007523061406364504 0 0)
(0.009554761532864851 0 0)
(0.02780904205812546 0 0)
(0.04678325552006285 0 0)
(0.06549309946930539 0 0)
(0.08188402845998542 0 0)
(0.09284383537430722 0 0)
(0.09703996751618493 0 0)
(0.09761035038012539 0 0)
(0.09760290031838458 0 0)
(0.09750121101935931 0 0)
(0.09716378651103552 0 0)
(0.09642031303913028 0 0)
(0.09508075480000257 0 0)
(0.09294854815948532 0 0)
(0.08982687297192543 0 0)
(0.08552554355718017 0 0)
(0.07986628520041537 0 0)
(0.07268845947861768 0 0)
(0.06385681487442009 0 0)
(0.05326939178615534 0 0)
(0.04086346401922064 0 0)
(0.02662262863156441 0 0)
(0.01059091323881436 0 0)
(-0.007101885213889173 0 0)
(-0.02618701619627327 0 0)
(-0.04611201726331784 0 0)
(-0.06567764917024277 0 0)
(-0.0824559809384865 0 0)
(-0.09309030327668755 0 0)
(-0.0967617992492836 0 0)
(-0.09717592301182804 0 0)
(-0.09716826967034228 0 0)
(-0.09703827711740626 0 0)
(-0.0966632955054483 0 0)
(-0.09585867166064893 0 0)
(-0.09444220904119234 0 0)
(-0.09222573948819081 0 0)
(-0.08902728311890062 0 0)
(-0.08467701749563841 0 0)
(-0.07902337682472914 0 0)
(-0.0719384958761377 0 0)
(-0.06332318919226737 0 0)
(-0.05311134059420393 0 0)
(-0.04127366911539264 0 0)
(-0.0278211513796622 0 0)
(-0.01280942073109425 0 0)
(0.003651444966243207 0 0)
(0.02136858303443482 0 0)
(0.03998348782078918 0 0)
(0.05875160384717896 0 0)
(0.07608116272760916 0 0)
(0.08916088786453552 0 0)
(0.0955617597563498 0 0)
(0.09694355857618284 0 0)
(0.09699788438228148 0 0)
(0.09695335415910768 0 0)
(0.0967550257596831 0 0)
(0.09626069253080166 0 0)
(0.09531168279620379 0 0)
(0.09374334944006249 0 0)
(0.09139551916144167 0 0)
(0.08812134787312244 0 0)
(0.08379623901350103 0 0)
(0.07832732692410879 0 0)
(0.0716635103922383 0 0)
(0.06380630238426323 0 0)
(0.05482282209540727 0 0)
(0.04486594311932111 0 0)
(0.03421671391952585 0 0)
(0.02338426091257326 0 0)
(0.01330321710651946 0 0)
(0.00548032577097322 0 0)
(0.001281900477738297 0 0)
(0.0001192929889009876 0 0)
(2.899648987349023e-06 0 0)
(1.211041295802132e-08 0 0)
(-2.607157769301074e-13 0 0)
(-6.283250224039767e-12 0 0)
(-6.126820757881055e-12 0 0)
(-6.100749180188284e-12 0 0)
(-5.953010239926949e-12 0 0)
(-5.944319714029684e-12 0 0)
(-5.831342877358286e-12 0 0)
(-5.622770255814514e-12 0 0)
(-5.414197634269471e-12 0 0)
(-5.335982901190481e-12 0 0)
(-5.344673427087882e-12 0 0)
(-5.301220797599367e-12 0 0)
(-5.466340789655958e-12 0 0)
(-5.544555522734192e-12 0 0)
(-5.492412367348982e-12 0 0)
(-5.353363952985725e-12 0 0)
(-5.335982901190327e-12 0 0)
(-5.379435530678689e-12 0 0)
(-5.448959737860297e-12 0 0)
(-5.596698678121239e-12 0 0)
(-5.501102893246889e-12 0 0)
(-5.457650263758231e-12 0 0)
(-5.58800815222269e-12 0 0)
(-5.579317626326233e-12 0 0)
(-5.527174470939576e-12 0 0)
(-5.466340789655852e-12 0 0)
(-5.414197634269745e-12 0 0)
(-5.344673427087939e-12 0 0)
(-5.388126056576783e-12 0 0)
(-5.196934486826292e-12 0 0)
(-5.283839745804298e-12 0 0)
(-5.353363952985788e-12 0 0)
(-5.240387116315827e-12 0 0)
(-5.240387116315594e-12 0 0)
(-5.335982901190178e-12 0 0)
(-5.353363952986012e-12 0 0)
(-5.240387116315501e-12 0 0)
(-5.283839745804349e-12 0 0)
(-5.196934486826261e-12 0 0)
(-5.08395765015709e-12 0 0)
(-5.083957650156892e-12 0 0)
(-5.162172383236376e-12 0 0)
(-5.240387116315692e-12 0 0)
(-5.344673427088119e-12 0 0)
(-5.48372184145133e-12 0 0)
(-5.483721841450303e-12 0 0)
(-5.492412367349025e-12 0 0)
(-5.44026921196263e-12 0 0)
(-5.475031315553583e-12 0 0)
(-5.448959737860667e-12 0 0)
(-5.30122079759935e-12 0 0)
(-5.223006064520145e-12 0 0)
(-5.10133870195213e-12 0 0)
(-5.24907764221333e-12 0 0)
(-5.110029227848937e-12 0 0)
(-5.1534818573384e-12 0 0)
(-5.031814494770693e-12 0 0)
(-4.85800397681658e-12 0 0)
(-4.849313450918857e-12 0 0)
(-4.910147132202818e-12 0 0)
(-4.927528183998365e-12 0 0)
(-4.823241873225225e-12 0 0)
(-4.884075554509699e-12 0 0)
(-4.840622925021164e-12 0 0)
(-4.858003976816537e-12 0 0)
(-4.892766080406835e-12 0 0)
(-4.901456606305035e-12 0 0)
(-4.979671339384368e-12 0 0)
(-5.049195546566203e-12 0 0)
(-5.196934486826297e-12 0 0)
(-4.988361865282259e-12 0 0)
(-4.918837658100156e-12 0 0)
(-4.910147132202884e-12 0 0)
(-4.814551347327344e-12 0 0)
(-4.771098717839469e-12 0 0)
(-4.727646088351127e-12 0 0)
(-4.727646088350665e-12 0 0)
(-4.736336614248367e-12 0 0)
(-5.031814494770282e-12 0 0)
(-5.144791331440738e-12 0 0)
(-5.275149219906289e-12 0 0)
(-5.170862909133241e-12 0 0)
(-5.075267124259093e-12 0 0)
(-5.144791331440706e-12 0 0)
(-5.214315538622318e-12 0 0)
(-5.309911323497118e-12 0 0)
(-5.353363952985043e-12 0 0)
(-5.466340789655816e-12 0 0)
(-5.396816582474376e-12 0 0)
(-5.440269211962347e-12 0 0)
(-5.509793419143964e-12 0 0)
(-5.605389204018701e-12 0 0)
(-5.648841833507603e-12 0 0)
(-5.579317626325972e-12 0 0)
(-5.700984988893197e-12 0 0)
(-5.527174470939743e-12 0 0)
(-5.518483945042026e-12 0 0)
(-5.388126056576464e-12 0 0)
(-5.43157868606437e-12 0 0)
(-5.388126056576458e-12 0 0)
(-5.344673427087952e-12 0 0)
(-5.30991132349739e-12 0 0)
(-5.414197634269e-12 0 0)
(-5.466340789655502e-12 0 0)
(-5.370745004781287e-12 0 0)
(-5.379435530678462e-12 0 0)
(-5.257768168110396e-12 0 0)
(-5.309911323497167e-12 0 0)
(-5.275149219906393e-12 0 0)
(-5.257768168110968e-12 0 0)
(-5.318601849394912e-12 0 0)
(-5.353363952985374e-12 0 0)
(-5.396816582473863e-12 0 0)
(-5.327292375292807e-12 0 0)
(-5.561936574530222e-12 0 0)
(-5.570627100427699e-12 0 0)
(-5.561936574530745e-12 0 0)
(-5.431578686064638e-12 0 0)
(-5.31860184939486e-12 0 0)
(-5.275149219905738e-12 0 0)
(-5.335982901190243e-12 0 0)
(-5.249077642213273e-12 0 0)
(-5.13610080554312e-12 0 0)
(-5.101338701951684e-12 0 0)
(-5.031814494770676e-12 0 0)
(-5.023123968872944e-12 0 0)
(-4.953599761691342e-12 0 0)
(-4.997052391179517e-12 0 0)
(-5.075267124258839e-12 0 0)
(-4.918837658100515e-12 0 0)
(-4.875385028612014e-12 0 0)
(-4.788479769634645e-12 0 0)
(-4.840622925020825e-12 0 0)
(-4.849313450918838e-12 0 0)
(-4.805860821430316e-12 0 0)
(-4.788479769634893e-12 0 0)
(-4.82324187322521e-12 0 0)
(-4.875385028611964e-12 0 0)
(-4.710265036555761e-12 0 0)
(-4.666812407066785e-12 0 0)
(-4.527763992703393e-12 0 0)
(-4.484311363215521e-12 0 0)
(-4.423477681931445e-12 0 0)
(-4.284429267567877e-12 0 0)
(-4.240976638079135e-12 0 0)
(-4.180142956795916e-12 0 0)
(-4.223595586284353e-12 0 0)
(-4.084547171921092e-12 0 0)
(-4.136690327306981e-12 0 0)
(-3.936808231659792e-12 0 0)
(-3.962879809353274e-12 0 0)
(-3.875974550376384e-12 0 0)
(-3.858593498580419e-12 0 0)
(-3.754307187808115e-12 0 0)
(-3.519662988570456e-12 0 0)
(-3.502281936774785e-12 0 0)
(-3.311090367025294e-12 0 0)
(-3.432757729593407e-12 0 0)
(-3.389305100104616e-12 0 0)
)
;

boundaryField
{
    inlet
    {
        type            zeroGradient;
    }
    outlet
    {
        type            pressureInletOutletVelocity;
        value           uniform (-3.389305100104616e-12 0 0);
    }
    frontAndBack
    {
        type            empty;
    }
}


// ************************************************************************* //
