/*--------------------------------*- C++ -*----------------------------------*\
| =========                 |                                                 |
| \\      /  F ield         | OpenFOAM: The Open Source CFD Toolbox           |
|  \\    /   O peration     | Version:  v2012                                 |
|   \\  /    A nd           | Website:  www.openfoam.com                      |
|    \\/     M anipulation  |                                                 |
\*---------------------------------------------------------------------------*/
FoamFile
{
    version     2.0;
    format      ascii;
    class       volVectorField;
    location    "0.006";
    object      UMean;
}
// * * * * * * * * * * * * * * * * * * * * * * * * * * * * * * * * * * * * * //

dimensions      [0 1 -1 0 0 0 0];


internalField   nonuniform List<vector> 
1000
(
(-4.457737078574093e-05 0 0)
(1.958780153701296e-05 0 0)
(5.104797589466274e-05 0 0)
(0.0001152838422897678 0 0)
(0.0001903302759659235 0 0)
(0.0002791208733098541 0 0)
(0.0003858870015600524 0 0)
(0.00050317503181158 0 0)
(0.0006346076493178398 0 0)
(0.0007737220133842241 0 0)
(0.0009178790656475728 0 0)
(0.001061863581151618 0 0)
(0.001205580838316345 0 0)
(0.001347112013966887 0 0)
(0.001484850219589892 0 0)
(0.001615209743947174 0 0)
(0.001735987380293401 0 0)
(0.001844098465099102 0 0)
(0.00193819967476129 0 0)
(0.00201602439732744 0 0)
(0.002076883250738971 0 0)
(0.002119009920432291 0 0)
(0.002142265059261168 0 0)
(0.002145586034627874 0 0)
(0.002129455184474908 0 0)
(0.002093607087158867 0 0)
(0.002039304523227681 0 0)
(0.001966987496907643 0 0)
(0.001878270112016609 0 0)
(0.001773712090877616 0 0)
(0.001654940238335275 0 0)
(0.001523606789087048 0 0)
(0.001384741601927216 0 0)
(0.00124329093441132 0 0)
(0.001102027421463848 0 0)
(0.0009610791467526549 0 0)
(0.0008215801382972269 0 0)
(0.0006850678965854279 0 0)
(0.0005539480946118377 0 0)
(0.0004309826320549619 0 0)
(0.0003191384535611015 0 0)
(0.0002210410941292226 0 0)
(0.000138894510790387 0 0)
(7.424348515412259e-05 0 0)
(2.821344578071274e-05 0 0)
(1.471294008222369e-06 0 0)
(-5.581156361330391e-06 0 0)
(7.111626742798242e-06 0 0)
(3.933135107257404e-05 0 0)
(9.053110545303067e-05 0 0)
(0.000159986185854608 0 0)
(0.0002468945895455372 0 0)
(0.000350471604903057 0 0)
(0.0004694579975912669 0 0)
(0.0006008343670999635 0 0)
(0.000738979281360051 0 0)
(0.0008787145661540698 0 0)
(0.001018390899389898 0 0)
(0.00115773177249846 0 0)
(0.001295707248773098 0 0)
(0.001431223603058713 0 0)
(0.001561939112642858 0 0)
(0.001685701814260576 0 0)
(0.001799359051056105 0 0)
(0.001900460968988804 0 0)
(0.001986162831525739 0 0)
(0.002054809897651194 0 0)
(0.002104672668485653 0 0)
(0.002135262695829495 0 0)
(0.002145912702760158 0 0)
(0.002136970936432961 0 0)
(0.00210838311013424 0 0)
(0.002060934481723651 0 0)
(0.00199483014895159 0 0)
(0.001910882854862028 0 0)
(0.001809403120551696 0 0)
(0.001692049867545363 0 0)
(0.001561936906361692 0 0)
(0.001425318525617821 0 0)
(0.001287030845517092 0 0)
(0.001148901456240451 0 0)
(0.001011051558324486 0 0)
(0.000874263561588721 0 0)
(0.0007396788613226975 0 0)
(0.0006090597413461124 0 0)
(0.0004846142088403921 0 0)
(0.0003689838191504776 0 0)
(0.0002648953312130529 0 0)
(0.0001750746635943094 0 0)
(0.0001018187407085239 0 0)
(4.698084207759128e-05 0 0)
(1.171950269121398e-05 0 0)
(-3.331312599222082e-06 0 0)
(1.863405133326037e-06 0 0)
(2.711397803910674e-05 0 0)
(7.192818861687652e-05 0 0)
(0.0001358985299709679 0 0)
(0.000218529832944725 0 0)
(0.0003192445182084528 0 0)
(0.000436431334731408 0 0)
(0.0005661492767174753 0 0)
(0.0007019690643971728 0 0)
(0.0008390393338677053 0 0)
(0.0009760217850577718 0 0)
(0.001112761392878495 0 0)
(0.001248399079508903 0 0)
(0.00138212687800328 0 0)
(0.001512069208071254 0 0)
(0.001636469536990121 0 0)
(0.001752615911881419 0 0)
(0.00185816222139307 0 0)
(0.001950175079694714 0 0)
(0.002026521861696521 0 0)
(0.002084925859397764 0 0)
(0.002124258772917859 0 0)
(0.002143402002589867 0 0)
(0.002142383441350018 0 0)
(0.002121054829201182 0 0)
(0.00208007911245402 0 0)
(0.002019593876499147 0 0)
(0.001940287467984338 0 0)
(0.001842465871237416 0 0)
(0.001727937646415615 0 0)
(0.001600248765191749 0 0)
(0.001466012827973348 0 0)
(0.001330123043989731 0 0)
(0.001194371350149533 0 0)
(0.001058799325054034 0 0)
(0.0009240855896787192 0 0)
(0.0007910730016008804 0 0)
(0.0006612488546379037 0 0)
(0.0005363801387000289 0 0)
(0.0004187990382242098 0 0)
(0.0003109464250515232 0 0)
(0.0002155458699025671 0 0)
(0.0001350553033334381 0 0)
(7.181196362932898e-05 0 0)
(2.749387147036115e-05 0 0)
(3.376194690480584e-06 0 0)
(-3.680213606401317e-08 0 0)
(1.745525619691985e-05 0 0)
(5.554295172508984e-05 0 0)
(0.0001139537191122853 0 0)
(0.0001921463797169019 0 0)
(0.000289486184284584 0 0)
(0.0004040270732816498 0 0)
(0.000531496190262335 0 0)
(0.0006651083053391279 0 0)
(0.0008000206346243875 0 0)
(0.0009348502875217429 0 0)
(0.001069501675988561 0 0)
(0.001203258832610127 0 0)
(0.001335476791625278 0 0)
(0.001464575743659484 0 0)
(0.001589093112626888 0 0)
(0.001706646853401781 0 0)
(0.001815132116745865 0 0)
(0.00191174665216469 0 0)
(0.001994287921844259 0 0)
(0.0020602279085935 0 0)
(0.002107989956969836 0 0)
(0.002135954387620117 0 0)
(0.002143604813335114 0 0)
(0.002130377370305473 0 0)
(0.002096613964205151 0 0)
(0.002042313160376082 0 0)
(0.001968130273926067 0 0)
(0.001874456285186931 0 0)
(0.001763252043163063 0 0)
(0.001638244061872223 0 0)
(0.001506247719432432 0 0)
(0.001372396141057013 0 0)
(0.001238644654970284 0 0)
(0.001104993319538134 0 0)
(0.0009720349312795374 0 0)
(0.000840416786730178 0 0)
(0.0007114169903458655 0 0)
(0.0005865040825949119 0 0)
(0.0004677414607113699 0 0)
(0.0003572904161996627 0 0)
(0.0002577339859942125 0 0)
(0.0001714783250637194 0 0)
(0.000101045662341018 0 0)
(4.842162422895025e-05 0 0)
(1.539278576596301e-05 0 0)
(2.979608055276437e-06 0 0)
(1.193201433838621e-05 0 0)
(4.234345644336581e-05 0 0)
(9.423353190027102e-05 0 0)
(0.0001671570628031587 0 0)
(0.0002604401887119428 0 0)
(0.0003719089047301871 0 0)
(0.0004969955994253319 0 0)
(0.0006285901739876792 0 0)
(0.0007616394361525496 0 0)
(0.000894624607775048 0 0)
(0.001027500563403458 0 0)
(0.001159624892426632 0 0)
(0.001290508597237853 0 0)
(0.001418767035969287 0 0)
(0.001543173642589607 0 0)
(0.001661610639222122 0 0)
(0.001772196810159591 0 0)
(0.001872318092782484 0 0)
(0.00195982695981476 0 0)
(0.002032129711895713 0 0)
(0.002087407551463824 0 0)
(0.002123684802396772 0 0)
(0.002139986903767494 0 0)
(0.002135272314129195 0 0)
(0.002109464818507809 0 0)
(0.002062240257550161 0 0)
(0.001994079089087098 0 0)
(0.001905328519035422 0 0)
(0.001797983512554119 0 0)
(0.00167587407520095 0 0)
(0.00154601097702771 0 0)
(0.001413950164780835 0 0)
(0.001281925141320679 0 0)
(0.001149946585883823 0 0)
(0.001018538510801286 0 0)
(0.0008881928560489407 0 0)
(0.0007600300924880047 0 0)
(0.000635279403545327 0 0)
(0.000515785795786881 0 0)
(0.0004034557895988601 0 0)
(0.0003007008389623788 0 0)
(0.000209809754608031 0 0)
(0.0001333329417004568 0 0)
(7.341076102258678e-05 0 0)
(3.214771013753226e-05 0 0)
(1.098733855440465e-05 0 0)
(1.118311591215209e-05 0 0)
(3.329614643612396e-05 0 0)
(7.776505277705268e-05 0 0)
(0.0001444068429934481 0 0)
(0.0002326898853649863 0 0)
(0.0003404116899111745 0 0)
(0.0004628457743595786 0 0)
(0.0005925105763117482 0 0)
(0.000723901578744281 0 0)
(0.0008552685050773918 0 0)
(0.0009865661467288746 0 0)
(0.001117243717172432 0 0)
(0.001246908286231979 0 0)
(0.001374344926138306 0 0)
(0.001498504578754763 0 0)
(0.001617492402571534 0 0)
(0.001729627698160524 0 0)
(0.001832490050225597 0 0)
(0.001924033907006353 0 0)
(0.002001697911282161 0 0)
(0.002063548324429435 0 0)
(0.002107397061405343 0 0)
(0.002131914666814565 0 0)
(0.002135669328585286 0 0)
(0.002118140377702144 0 0)
(0.002078645988285706 0 0)
(0.002017353086980311 0 0)
(0.001934421906054405 0 0)
(0.001831695814084039 0 0)
(0.001712921984015702 0 0)
(0.001585257208827064 0 0)
(0.001454843836235008 0 0)
(0.001324371895921787 0 0)
(0.001193902501585779 0 0)
(0.001063898357215487 0 0)
(0.0009347387713675885 0 0)
(0.0008074094652082648 0 0)
(0.0006829543810546898 0 0)
(0.0005630249009239056 0 0)
(0.0004493160962021112 0 0)
(0.0003440567016033519 0 0)
(0.0002493972023460821 0 0)
(0.0001678375991732183 0 0)
(0.0001015718214900437 0 0)
(5.289101452513213e-05 0 0)
(2.35369427005783e-05 0 0)
(1.516564472444482e-05 0 0)
(2.877268644665935e-05 0 0)
(6.523479131921298e-05 0 0)
(0.0001247317804619978 0 0)
(0.0002070211402794663 0 0)
(0.0003100957065001673 0 0)
(0.0004293156706226413 0 0)
(0.0005569403786832776 0 0)
(0.0006867924361776031 0 0)
(0.0008166961670485547 0 0)
(0.0009465581538431142 0 0)
(0.001075917155644997 0 0)
(0.001204443774351552 0 0)
(0.001331082837656583 0 0)
(0.001454909038511286 0 0)
(0.001574234571474317 0 0)
(0.001687533587519451 0 0)
(0.001792581197788253 0 0)
(0.001887440279512362 0 0)
(0.001969639670445302 0 0)
(0.00203720224626178 0 0)
(0.002087835710111944 0 0)
(0.002119958886586908 0 0)
(0.00213185034234963 0 0)
(0.0021225991701605 0 0)
(0.002091178247284348 0 0)
(0.002037389389260672 0 0)
(0.001961122720986537 0 0)
(0.001863884912610136 0 0)
(0.001749128344338523 0 0)
(0.001623932914245545 0 0)
(0.00149513040316542 0 0)
(0.00136608764716985 0 0)
(0.001237014637230434 0 0)
(0.001108316310673421 0 0)
(0.0009802800882244742 0 0)
(0.0008537785872812742 0 0)
(0.0007297026117016542 0 0)
(0.0006095439895319251 0 0)
(0.0004948086592200214 0 0)
(0.0003875655478935822 0 0)
(0.0002898086991406115 0 0)
(0.0002039610838468064 0 0)
(0.0001321958824943472 0 0)
(7.690464638727618e-05 0 0)
(4.001818999326095e-05 0 0)
(2.349276420811609e-05 0 0)
(2.868005530180916e-05 0 0)
(5.685429641442475e-05 0 0)
(0.0001085731166729992 0 0)
(0.0001839711934846579 0 0)
(0.0002814203195242863 0 0)
(0.0003966834158350008 0 0)
(0.0005219750577807443 0 0)
(0.0006503245180608018 0 0)
(0.0007788550461499521 0 0)
(0.000907378305507727 0 0)
(0.001035490840221846 0 0)
(0.001162939166518247 0 0)
(0.001288782997052055 0 0)
(0.001412219449135286 0 0)
(0.001531718234460219 0 0)
(0.001645901901152091 0 0)
(0.001752712993709602 0 0)
(0.001850333232427196 0 0)
(0.001936396480549273 0 0)
(0.002008932041157619 0 0)
(0.002065613041341102 0 0)
(0.002104693474088648 0 0)
(0.002124250624454193 0 0)
(0.002123058753902209 0 0)
(0.002099798169864875 0 0)
(0.002053914549987237 0 0)
(0.001984992179836167 0 0)
(0.001894094153398354 0 0)
(0.001784169785420439 0 0)
(0.00166191800013219 0 0)
(0.00153480250616111 0 0)
(0.001407101210596972 0 0)
(0.001279355308667272 0 0)
(0.001151889190315784 0 0)
(0.001024951378721367 0 0)
(0.0008992694887222799 0 0)
(0.0007756548774426995 0 0)
(0.0006554093969365827 0 0)
(0.0005399298273190959 0 0)
(0.0004310842660743446 0 0)
(0.0003307705191445749 0 0)
(0.0002412662689209283 0 0)
(0.0001647357232002047 0 0)
(0.0001035612119391363 0 0)
(5.982318339262368e-05 0 0)
(3.56469886823809e-05 0 0)
(3.268953157634469e-05 0 0)
(5.252158910894981e-05 0 0)
(9.608197022650845e-05 0 0)
(0.0001638738044843327 0 0)
(0.0002547950852703588 0 0)
(0.0003652310912129735 0 0)
(0.0004877200560728545 0 0)
(0.0006144909187093438 0 0)
(0.0007417132966657408 0 0)
(0.0008689441361996386 0 0)
(0.0009958645856265702 0 0)
(0.001122252334295668 0 0)
(0.001247304483610416 0 0)
(0.001370286650226579 0 0)
(0.001489841242315743 0 0)
(0.001604683710318988 0 0)
(0.001712939791564098 0 0)
(0.00181287336137722 0 0)
(0.001902259104584185 0 0)
(0.001979136564701806 0 0)
(0.002041210930361038 0 0)
(0.002086618439956734 0 0)
(0.002113321674056118 0 0)
(0.002119845442674039 0 0)
(0.002104646325699081 0 0)
(0.00206685179583957 0 0)
(0.002005743736500299 0 0)
(0.001921909284304057 0 0)
(0.001817650216631342 0 0)
(0.001698998557901675 0 0)
(0.001573777806811062 0 0)
(0.001447395691681362 0 0)
(0.001320919042908977 0 0)
(0.001194661821077101 0 0)
(0.001068796668825431 0 0)
(0.0009439654587349571 0 0)
(0.0008208642712633282 0 0)
(0.0007006749398928579 0 0)
(0.0005846533398624612 0 0)
(0.0004745326053146109 0 0)
(0.0003720757640726776 0 0)
(0.0002794548983638219 0 0)
(0.0001987618509399955 0 0)
(0.0001323666719791025 0 0)
(8.240354463948525e-05 0 0)
(5.112545736349228e-05 0 0)
(4.038637461227178e-05 0 0)
(5.200759350855303e-05 0 0)
(8.723372774281399e-05 0 0)
(0.0001469363022071095 0 0)
(0.000230556741065686 0 0)
(0.0003352708346936503 0 0)
(0.0004542892706122544 0 0)
(0.0005792911030850242 0 0)
(0.000705233026339254 0 0)
(0.0008312167237862061 0 0)
(0.0009569624781215119 0 0)
(0.001082306638591737 0 0)
(0.001206537403839299 0 0)
(0.001329015626990633 0 0)
(0.001448504069934689 0 0)
(0.001563831672932711 0 0)
(0.001673259713088534 0 0)
(0.001775156530822797 0 0)
(0.001867409665964683 0 0)
(0.00194810795142158 0 0)
(0.002014997147953259 0 0)
(0.002066158205243744 0 0)
(0.002099482780826627 0 0)
(0.002113320481999614 0 0)
(0.002105960245887524 0 0)
(0.00207626176094455 0 0)
(0.002023244231504235 0 0)
(0.001947022060338476 0 0)
(0.001849219653089376 0 0)
(0.001734938494879539 0 0)
(0.001611995521968826 0 0)
(0.001486947935590274 0 0)
(0.001361717385886074 0 0)
(0.001236640765919787 0 0)
(0.001111852764828848 0 0)
(0.0009878890950533619 0 0)
(0.0008653712007691734 0 0)
(0.0007453455827743182 0 0)
(0.0006289719323257857 0 0)
(0.0005178317345578575 0 0)
(0.0004135917920142075 0 0)
(0.0003182883360268557 0 0)
(0.0002339592776822418 0 0)
(0.0001629063393390154 0 0)
(0.0001073039794829777 0 0)
(6.944815262450852e-05 0 0)
(5.135275082954233e-05 0 0)
(5.499967463593575e-05 0 0)
(8.190593960630365e-05 0 0)
(0.0001332436803361176 0 0)
(0.0002089910423589016 0 0)
(0.0003071440035461374 0 0)
(0.0004218910007745351 0 0)
(0.0005447640810750878 0 0)
(0.0006694090499427921 0 0)
(0.0007941682989165525 0 0)
(0.0009187519807897618 0 0)
(0.001043043098651192 0 0)
(0.00116641993635589 0 0)
(0.001288331575704993 0 0)
(0.00140764562560594 0 0)
(0.001523303277644108 0 0)
(0.001633673977390491 0 0)
(0.001737242095592291 0 0)
(0.001831979975348008 0 0)
(0.001916061956680172 0 0)
(0.00198725759687774 0 0)
(0.002043663650785759 0 0)
(0.0020831001079004 0 0)
(0.002103839923832642 0 0)
(0.002104002257517187 0 0)
(0.002082289013781429 0 0)
(0.002037440966184904 0 0)
(0.001969218676417674 0 0)
(0.001878526795267147 0 0)
(0.00176948542289323 0 0)
(0.001649366944379137 0 0)
(0.001525781547395669 0 0)
(0.00140174180401923 0 0)
(0.001277836484439159 0 0)
(0.001154119122026305 0 0)
(0.001031060586622384 0 0)
(0.0009091880467707485 0 0)
(0.0007894442564496366 0 0)
(0.000672878815671078 0 0)
(0.0005609533450098195 0 0)
(0.0004552235265537049 0 0)
(0.0003576145836947699 0 0)
(0.0002700850935498445 0 0)
(0.0001948738499549795 0 0)
(0.0001341464837293239 0 0)
(9.021989361408557e-05 0 0)
(6.519988604949889e-05 0 0)
(6.119170252342126e-05 0 0)
(7.991158296226185e-05 0 0)
(0.0001227908489451646 0 0)
(0.0001902746826919844 0 0)
(0.0002811587469850529 0 0)
(0.0003907652858146542 0 0)
(0.0005109755576393721 0 0)
(0.000634228943683628 0 0)
(0.0007577761377644906 0 0)
(0.0008812129227729655 0 0)
(0.001004422171693122 0 0)
(0.001126931119934273 0 0)
(0.001248195012986915 0 0)
(0.00136725769231057 0 0)
(0.001483079491728107 0 0)
(0.001594215832828325 0 0)
(0.001699170164227952 0 0)
(0.001796089757991086 0 0)
(0.001883144046283602 0 0)
(0.001958234945488811 0 0)
(0.002019396269806701 0 0)
(0.002064507057742714 0 0)
(0.002091701269087423 0 0)
(0.00209907449892219 0 0)
(0.002085106717695559 0 0)
(0.002048410559798342 0 0)
(0.001988347293100871 0 0)
(0.001905288683987108 0 0)
(0.001802254582508539 0 0)
(0.001685706803621345 0 0)
(0.001563801877608409 0 0)
(0.001440987941896898 0 0)
(0.001318243383829173 0 0)
(0.001195618725751141 0 0)
(0.001073502722094424 0 0)
(0.0009523384115245467 0 0)
(0.0008329762683670193 0 0)
(0.0007163583981548753 0 0)
(0.0006038461036735477 0 0)
(0.0004968808693039999 0 0)
(0.0003972947698457561 0 0)
(0.0003069480236177013 0 0)
(0.0002280223844585241 0 0)
(0.0001626365187735985 0 0)
(0.0001131182572379375 0 0)
(8.160508117920559e-05 0 0)
(7.030265189150713e-05 0 0)
(8.106041738778624e-05 0 0)
(0.0001155389093976788 0 0)
(0.0001745494407912669 0 0)
(0.0002576104517362444 0 0)
(0.0003611953347059556 0 0)
(0.0004780257281678823 0 0)
(0.0005996817933162149 0 0)
(0.0007220389062491294 0 0)
(0.0008443148709246644 0 0)
(0.0009664620591047779 0 0)
(0.001088029511699221 0 0)
(0.001208612876434977 0 0)
(0.00132728722749826 0 0)
(0.001443167641019869 0 0)
(0.001554852348496643 0 0)
(0.001660994642496371 0 0)
(0.001759780284872321 0 0)
(0.00184950238766646 0 0)
(0.00192807561705549 0 0)
(0.001993606512515403 0 0)
(0.002043936061799164 0 0)
(0.002077199196109661 0 0)
(0.00209139258534553 0 0)
(0.002084919192425662 0 0)
(0.002056208226407382 0 0)
(0.002004378126549458 0 0)
(0.001929277595647796 0 0)
(0.001832995848088883 0 0)
(0.001720848741704357 0 0)
(0.001601050302921623 0 0)
(0.001479465835868763 0 0)
(0.001357860190422456 0 0)
(0.001236334215683828 0 0)
(0.001115171374462144 0 0)
(0.0009947932227834507 0 0)
(0.0008758926254570958 0 0)
(0.0007593856869971495 0 0)
(0.0006464553973322505 0 0)
(0.0005385172201914327 0 0)
(0.0004372229810466901 0 0)
(0.0003444267461859901 0 0)
(0.0002621517971714343 0 0)
(0.0001925540028006323 0 0)
(0.0001378528586086006 0 0)
(0.0001002937710467264 0 0)
(8.204570701454687e-05 0 0)
(8.515186029176335e-05 0 0)
(0.000111349120295613 0 0)
(0.0001618536141568672 0 0)
(0.0002366928698383904 0 0)
(0.0003335191436757878 0 0)
(0.0004461028933542877 0 0)
(0.0005658202570000972 0 0)
(0.0006869364109589167 0 0)
(0.0008080910326092327 0 0)
(0.0009291098242975481 0 0)
(0.001049756761250534 0 0)
(0.001169545033148675 0 0)
(0.001287798628751099 0 0)
(0.001403560583621843 0 0)
(0.001515682792541557 0 0)
(0.001622750059693444 0 0)
(0.001723193199111422 0 0)
(0.001815226451521396 0 0)
(0.001896980688345852 0 0)
(0.001966451680479775 0 0)
(0.002021647591456928 0 0)
(0.002060544268338536 0 0)
(0.00208123992222737 0 0)
(0.00208191604915544 0 0)
(0.00206101959302697 0 0)
(0.002017322681999667 0 0)
(0.001950396590815323 0 0)
(0.001861376867483217 0 0)
(0.001754502942767916 0 0)
(0.001637373148765237 0 0)
(0.001517177023040512 0 0)
(0.001396691871562161 0 0)
(0.001276288438703126 0 0)
(0.001156113789452006 0 0)
(0.001036575952845272 0 0)
(0.0009182274962419908 0 0)
(0.0008019426818610392 0 0)
(0.0006887612554514659 0 0)
(0.0005800451306980762 0 0)
(0.0004773094093149304 0 0)
(0.0003823572889206438 0 0)
(0.0002971004526297594 0 0)
(0.0002236680473853936 0 0)
(0.0001642142176349431 0 0)
(0.0001210050503861792 0 0)
(9.621558340867891e-05 0 0)
(9.198201359638795e-05 0 0)
(0.0001101506614839016 0 0)
(0.0001521939796519581 0 0)
(0.0002186127806951338 0 0)
(0.0003080230320577149 0 0)
(0.0004154776542658278 0 0)
(0.0005326755147044151 0 0)
(0.0006524846287065827 0 0)
(0.0007724953036162416 0 0)
(0.0008924240462895456 0 0)
(0.001012060823813858 0 0)
(0.001131047831115224 0 0)
(0.001248728162839317 0 0)
(0.001364301848685217 0 0)
(0.001476642209877068 0 0)
(0.001584495064578717 0 0)
(0.001686303521296489 0 0)
(0.001780432061363695 0 0)
(0.001865000396841633 0 0)
(0.001938126631269675 0 0)
(0.001997767546011249 0 0)
(0.002041979102913702 0 0)
(0.002068757217639338 0 0)
(0.0020763084879907 0 0)
(0.002062906030653674 0 0)
(0.002027240406005996 0 0)
(0.001968482263940598 0 0)
(0.001887179281789097 0 0)
(0.001786329951315179 0 0)
(0.001672677763084335 0 0)
(0.001554059874097886 0 0)
(0.001434742030761989 0 0)
(0.001315427322948345 0 0)
(0.001196294409662581 0 0)
(0.0010776274563746 0 0)
(0.00095994278062592 0 0)
(0.0008439829726891563 0 0)
(0.0007307339449205291 0 0)
(0.0006214207672256527 0 0)
(0.0005175044182158159 0 0)
(0.0004206595811757658 0 0)
(0.0003327579427972907 0 0)
(0.0002558253515893216 0 0)
(0.000192010611918957 0 0)
(0.0001435220499568267 0 0)
(0.0001125804812322958 0 0)
(0.0001013289182539263 0 0)
(0.000111747030993883 0 0)
(0.0001454591854141144 0 0)
(0.0002033859683155751 0 0)
(0.0002849006080670178 0 0)
(0.0003863801413051246 0 0)
(0.0005003293463121171 0 0)
(0.0006186520377770105 0 0)
(0.0007375178959855111 0 0)
(0.0008563440250145799 0 0)
(0.000974970355180062 0 0)
(0.001093089542399951 0 0)
(0.001210150152046792 0 0)
(0.001325407808185847 0 0)
(0.001437852481426595 0 0)
(0.001546285337467877 0 0)
(0.001649264866990034 0 0)
(0.001745200100877558 0 0)
(0.001832311401891568 0 0)
(0.001908735362652011 0 0)
(0.00197249991546606 0 0)
(0.002021640000241405 0 0)
(0.002054179592683714 0 0)
(0.002068251275672556 0 0)
(0.002062097893954426 0 0)
(0.002034245325864232 0 0)
(0.001983653309222685 0 0)
(0.001910289958303863 0 0)
(0.001816167570502608 0 0)
(0.001706800097544863 0 0)
(0.001590196021269751 0 0)
(0.001472044274767135 0 0)
(0.001353837178570348 0 0)
(0.001235730346527745 0 0)
(0.001117991092382046 0 0)
(0.001001003470404657 0 0)
(0.0008854850598333599 0 0)
(0.000772272400869295 0 0)
(0.0006625598973749206 0 0)
(0.0005576559555999273 0 0)
(0.0004592079533560174 0 0)
(0.0003689440467029951 0 0)
(0.0002888812235065402 0 0)
(0.000221052022585505 0 0)
(0.0001676933790280613 0 0)
(0.0001309567429479094 0 0)
(0.0001130730560940441 0 0)
(0.0001160302415935966 0 0)
(0.0001416594384297625 0 0)
(0.0001911190357448722 0 0)
(0.0002644813729321207 0 0)
(0.0003592258375573218 0 0)
(0.0004690958036159979 0 0)
(0.0005855359019213385 0 0)
(0.0007032359824542305 0 0)
(0.0008209216875841601 0 0)
(0.0009385099037820224 0 0)
(0.001055685199100611 0 0)
(0.001172052101147852 0 0)
(0.001286869110151727 0 0)
(0.001399291408952762 0 0)
(0.001508124870708947 0 0)
(0.001612089581931713 0 0)
(0.001709589792360216 0 0)
(0.001798992259251441 0 0)
(0.00187840921328776 0 0)
(0.001945989050795624 0 0)
(0.001999709024829986 0 0)
(0.002037674024433814 0 0)
(0.002057916738623074 0 0)
(0.002058710343124506 0 0)
(0.002038404014773555 0 0)
(0.001995841859180181 0 0)
(0.001930499082982248 0 0)
(0.001843615798193878 0 0)
(0.00173937423956503 0 0)
(0.001625389398975856 0 0)
(0.001508518615885648 0 0)
(0.001391436276051359 0 0)
(0.001274389075017104 0 0)
(0.001157621186440175 0 0)
(0.001041421998063929 0 0)
(0.0009264424356992406 0 0)
(0.0008134168243210335 0 0)
(0.0007034633977187674 0 0)
(0.0005977855993222699 0 0)
(0.0004979585651138383 0 0)
(0.000405614271672633 0 0)
(0.0003227123970913544 0 0)
(0.0002512113349862419 0 0)
(0.0001933236191728714 0 0)
(0.0001511663919241507 0 0)
(0.0001269938419322266 0 0)
(0.0001228211215639705 0 0)
(0.0001406025660089483 0 0)
(0.0001817077959250284 0 0)
(0.0002467232013961137 0 0)
(0.0003341087933459116 0 0)
(0.0004389747917065798 0 0)
(0.0005530172158348144 0 0)
(0.000669495006272972 0 0)
(0.0007860928318138663 0 0)
(0.0009026320018363521 0 0)
(0.001018883824043492 0 0)
(0.001134474225954929 0 0)
(0.001248800469618503 0 0)
(0.001361038973456973 0 0)
(0.001470142792231698 0 0)
(0.001574852294773986 0 0)
(0.00167371274991514 0 0)
(0.001765098922377894 0 0)
(0.001847245972401072 0 0)
(0.001918286032988511 0 0)
(0.001976289724933753 0 0)
(0.0020193119445543 0 0)
(0.002045441981347762 0 0)
(0.002052860791222542 0 0)
(0.002039916894041481 0 0)
(0.002005257151506538 0 0)
(0.001948112049440983 0 0)
(0.001868955830492873 0 0)
(0.001770764621070407 0 0)
(0.001660026627101197 0 0)
(0.001544416321330448 0 0)
(0.001428061739720459 0 0)
(0.00131172526109398 0 0)
(0.001195524753794798 0 0)
(0.001079710263460221 0 0)
(0.0009647113007764501 0 0)
(0.0008511513672874359 0 0)
(0.0007398495774564535 0 0)
(0.0006318109926082133 0 0)
(0.0005282063338509724 0 0)
(0.0004303407226942797 0 0)
(0.0003396108444290455 0 0)
(0.0002574497870507192 0 0)
(0.0001852581471469154 0 0)
(0.0001243170308811295 0 0)
(7.56686180143624e-05 0 0)
(3.99231089791465e-05 0 0)
(1.690100829485619e-05 0 0)
(5.026115770786461e-06 0 0)
(8.437389596810925e-07 0 0)
(5.813159206804362e-08 0 0)
(1.108198622578771e-09 0 0)
(2.054038098728431e-12 0 0)
(-1.828240729918644e-12 0 0)
(-1.844396355040677e-12 0 0)
(-1.78467347718683e-12 0 0)
(-1.895257814161474e-12 0 0)
(-1.833686376002681e-12 0 0)
(-1.861093835494593e-12 0 0)
(-1.879070928154489e-12 0 0)
(-1.883753808656589e-12 0 0)
(-1.884683298956382e-12 0 0)
(-1.884902125148171e-12 0 0)
(-1.92049785232619e-12 0 0)
(-1.865030622885542e-12 0 0)
(-1.975971333943787e-12 0 0)
(-1.91354959972568e-12 0 0)
(-1.926162324602011e-12 0 0)
(-1.912888953033076e-12 0 0)
(-1.90350443549893e-12 0 0)
(-1.912861860266428e-12 0 0)
(-1.885933734337341e-12 0 0)
(-1.942219998952498e-12 0 0)
(-1.911809410487517e-12 0 0)
(-1.925505846026982e-12 0 0)
(-1.920070620237336e-12 0 0)
(-1.935803181389298e-12 0 0)
(-1.960026198777391e-12 0 0)
(-1.966680599063168e-12 0 0)
(-1.994875832844938e-12 0 0)
(-1.940179705222542e-12 0 0)
(-2.048065185833324e-12 0 0)
(-1.997245407891598e-12 0 0)
(-2.020484749447144e-12 0 0)
(-2.034037384917823e-12 0 0)
(-2.037997096957589e-12 0 0)
(-2.042707070225826e-12 0 0)
(-2.047527498619394e-12 0 0)
(-2.078121484273831e-12 0 0)
(-2.035581672613283e-12 0 0)
(-2.160552268645945e-12 0 0)
(-2.112014535274448e-12 0 0)
(-2.128107638627827e-12 0 0)
(-2.114692551048988e-12 0 0)
(-2.129489369723741e-12 0 0)
(-2.166114622032182e-12 0 0)
(-2.148125025018082e-12 0 0)
(-2.202666932276778e-12 0 0)
(-2.171589444941469e-12 0 0)
(-2.17611185290301e-12 0 0)
(-2.170088922484642e-12 0 0)
(-2.155410895171115e-12 0 0)
(-2.16360958315235e-12 0 0)
(-2.174327898426092e-12 0 0)
(-2.202029210232414e-12 0 0)
(-2.159599853697271e-12 0 0)
(-2.269294297492488e-12 0 0)
(-2.202183430595666e-12 0 0)
(-2.247174095603199e-12 0 0)
(-2.25572498955005e-12 0 0)
(-2.265334585452707e-12 0 0)
(-2.285008102113203e-12 0 0)
(-2.281990384727213e-12 0 0)
(-2.306555187786289e-12 0 0)
(-2.257592306385359e-12 0 0)
(-2.343668109893294e-12 0 0)
(-2.279108131174078e-12 0 0)
(-2.277524246358174e-12 0 0)
(-2.270115416725728e-12 0 0)
(-2.261935485275472e-12 0 0)
(-2.266962235506947e-12 0 0)
(-2.224772545753245e-12 0 0)
(-2.300348860178388e-12 0 0)
(-2.288044576030063e-12 0 0)
(-2.312774019747461e-12 0 0)
(-2.328935897046557e-12 0 0)
(-2.355199208164386e-12 0 0)
(-2.366155106160951e-12 0 0)
(-2.356820606042065e-12 0 0)
(-2.39945628441489e-12 0 0)
(-2.341794540880631e-12 0 0)
(-2.455179853108596e-12 0 0)
(-2.389338178124035e-12 0 0)
(-2.403384735570214e-12 0 0)
(-2.39488177497938e-12 0 0)
(-2.400508734193975e-12 0 0)
(-2.398189176562283e-12 0 0)
(-2.392787295716514e-12 0 0)
(-2.395982158114896e-12 0 0)
(-2.3292443377736e-12 0 0)
(-2.419075615542351e-12 0 0)
(-2.367630619910538e-12 0 0)
(-2.41386338406256e-12 0 0)
(-2.423410458196184e-12 0 0)
(-2.435535513273643e-12 0 0)
(-2.467625853267261e-12 0 0)
(-2.394148186222804e-12 0 0)
(-2.494958286635921e-12 0 0)
(-2.427789066088696e-12 0 0)
(-2.467596676441698e-12 0 0)
(-2.402003004474237e-12 0 0)
(-2.506141347059675e-12 0 0)
(-2.449667517137628e-12 0 0)
(-2.463482744038314e-12 0 0)
(-2.468707479871837e-12 0 0)
(-2.480982587194679e-12 0 0)
(-2.506816582165532e-12 0 0)
(-2.460169090278815e-12 0 0)
(-2.587673902016636e-12 0 0)
(-2.549804466504006e-12 0 0)
(-2.58118205833059e-12 0 0)
(-2.583495363785389e-12 0 0)
(-2.586759000129697e-12 0 0)
(-2.597225144268382e-12 0 0)
(-2.601339076671573e-12 0 0)
(-2.642355441226224e-12 0 0)
(-2.592310933221227e-12 0 0)
(-2.725367678050524e-12 0 0)
(-2.682144295048386e-12 0 0)
(-2.704035250451415e-12 0 0)
(-2.724900848841604e-12 0 0)
(-2.734556294041794e-12 0 0)
(-2.735039795722134e-12 0 0)
(-2.728191577952664e-12 0 0)
(-2.739483009442792e-12 0 0)
(-2.678390904846796e-12 0 0)
(-2.780278463746442e-12 0 0)
(-2.719030054728132e-12 0 0)
(-2.725580252065419e-12 0 0)
(-2.700750773517407e-12 0 0)
(-2.686472885525555e-12 0 0)
(-2.724988379318285e-12 0 0)
(-2.671044596983617e-12 0 0)
(-2.758335406869802e-12 0 0)
(-2.691822664897125e-12 0 0)
(-2.728039441647831e-12 0 0)
(-2.736075573029636e-12 0 0)
(-2.73753441430742e-12 0 0)
(-2.742836260322692e-12 0 0)
(-2.740249943142819e-12 0 0)
(-2.772117288826972e-12 0 0)
(-2.706402741439372e-12 0 0)
(-2.835689423595076e-12 0 0)
(-2.775118333741018e-12 0 0)
(-2.797603245950038e-12 0 0)
(-2.812043690541204e-12 0 0)
(-2.820950958571437e-12 0 0)
(-2.842552229777352e-12 0 0)
(-2.86699407335772e-12 0 0)
(-2.895731162471254e-12 0 0)
(-2.804072164987588e-12 0 0)
(-2.915715203917806e-12 0 0)
(-2.857501184757065e-12 0 0)
(-2.871214292768486e-12 0 0)
(-2.862705080001047e-12 0 0)
(-2.869034367087388e-12 0 0)
(-2.896916992024065e-12 0 0)
(-2.839274005020733e-12 0 0)
(-2.943214362004301e-12 0 0)
(-2.903798554737301e-12 0 0)
(-2.912066016664608e-12 0 0)
(-2.936926756096996e-12 0 0)
)
;

boundaryField
{
    inlet
    {
        type            calculated;
        value           uniform (-4.457737078574093e-05 0 0);
    }
    outlet
    {
        type            calculated;
        value           uniform (-2.936926756096996e-12 0 0);
    }
    frontAndBack
    {
        type            empty;
    }
}


// ************************************************************************* //
