/*--------------------------------*- C++ -*----------------------------------*\
| =========                 |                                                 |
| \\      /  F ield         | OpenFOAM: The Open Source CFD Toolbox           |
|  \\    /   O peration     | Version:  v2012                                 |
|   \\  /    A nd           | Website:  www.openfoam.com                      |
|    \\/     M anipulation  |                                                 |
\*---------------------------------------------------------------------------*/
FoamFile
{
    version     2.0;
    format      ascii;
    class       volScalarField;
    location    "0.0045";
    object      p;
}
// * * * * * * * * * * * * * * * * * * * * * * * * * * * * * * * * * * * * * //

dimensions      [1 -1 -2 0 0 0 0];


internalField   nonuniform List<scalar> 
1000
(
101339.045175077
101336.4331603864
101343.1337214999
101348.3964054162
101354.2316385035
101359.5040603594
101364.0678174108
101367.9618409076
101371.2543853666
101373.4533380757
101374.0442745144
101374.0254583731
101373.6672443587
101372.6647219351
101370.7042764117
101367.7145524344
101363.8043242333
101359.1536690652
101353.9121758502
101348.1798817415
101342.0373315611
101335.5739043929
101328.8969453166
101322.1307970364
101315.4129133662
101308.883007999
101302.6612728692
101296.8204290956
101291.3689627021
101286.2931761675
101281.7505095802
101278.395592107
101276.9774695223
101276.8193554073
101276.8938465579
101277.1656830685
101277.9227203088
101279.3985213837
101281.7987915051
101285.2130087137
101289.5949928603
101294.7871572229
101300.5844600217
101306.7971742938
101313.2790124745
101319.9188797801
101326.6189977766
101333.280056111
101339.8008596972
101346.0951360908
101352.1199734977
101357.8792465475
101363.3273573692
101368.1068472237
101371.3387649421
101372.4834892447
101372.5720891939
101372.5348636624
101372.2846822087
101371.6625137258
101370.441717521
101368.4282807318
101365.4802571394
101361.5470455501
101356.6831388447
101351.0359559411
101344.8088653169
101338.2138065446
101331.4346086369
101324.6144507323
101317.8611115703
101311.2507890097
101304.8221345998
101298.577568806
101292.5257272966
101286.8091617723
101281.9513101627
101278.9136239191
101277.9715882415
101277.9102168123
101277.9736254702
101278.1932047911
101278.7635427972
101279.8596481341
101281.6644757648
101284.323667787
101287.9197985956
101292.4503641644
101297.8238755967
101303.8759429142
101310.3998478412
101317.1829245753
101324.0403903369
101330.838334566
101337.5004591569
101344.0009988646
101350.3475289267
101356.5354387866
101362.415911911
101367.4362481284
101370.5953157951
101371.5915970301
101371.6573155306
101371.626827751
101371.4347100447
101370.9562065588
101370.0150963372
101368.4440465341
101366.0925469066
101362.8533458017
101358.6831299191
101353.6174016498
101347.7719101867
101341.3260757454
101334.4918717014
101327.4781273609
101320.4584640781
101313.5469570391
101306.7887884686
101300.1812855645
101293.7470119005
101287.692303541
101282.6573179144
101279.651054964
101278.7779494599
101278.7249648258
101278.773600677
101278.9486977366
101279.4044204464
101280.2855308353
101281.7497494775
101283.9385297904
101286.9599304617
101290.8690407189
101295.6545508196
101301.2343307382
101307.4619525981
101314.1463362195
101321.0839620271
101328.095253085
101335.0518858673
101341.8861945688
101348.5776829447
101355.0980473606
101361.266715099
101366.4948914257
101369.775243298
101370.8344311348
101370.9178383806
101370.8966892495
101370.74932931
101370.3733638151
101369.6196792861
101368.3419382829
101366.398168691
101363.6697953
101360.077879813
101355.59924152
101350.277077018
101344.2206924411
101337.5926227764
101330.5853822711
101323.3906513934
101316.1657678683
101309.0108023275
101301.9783132635
101295.1415889836
101288.7546764039
101283.4978027113
101280.3807850561
101279.4650185074
101279.403816829
101279.4405090645
101279.5791972068
101279.9493117882
101280.6748269107
101281.8946527154
101283.7407292035
101286.3257999229
101289.7279161916
101293.9774523626
101299.0480443685
101304.8535880581
101311.2552566242
101318.0811234591
101325.1544372756
101332.3214131077
101339.469893892
101346.5285819289
101353.421951741
101359.9328586985
101365.4548363178
101368.97283352
101370.1698515091
101370.2833665603
101370.2703597276
101370.1585547186
101369.860758526
101369.2471740636
101368.1885084571
101366.5537320841
101364.2243736352
101361.1068451532
101357.1465360351
101352.3397549836
101346.7392855153
101340.451576988
101333.6254653776
101326.4315752612
101319.0339011235
101311.5649713256
101304.1272777395
101296.8508048565
101290.0458288652
101284.4441577795
101281.094119647
101280.073386528
101279.993783181
101280.0215044899
101280.1305965902
101280.4329169729
101281.0369816042
101282.0672065641
101283.645679807
101285.8831854964
101288.8671115531
101292.6506476115
101297.2433462406
101302.6046144306
101308.6441092932
101315.2322123496
101322.2186278274
101329.4536797342
101336.8069752351
101344.1729889055
101351.4354475417
101358.3405155229
101364.2577186467
101368.1372884381
101369.557327683
101369.7226379184
101369.716361434
101369.631307502
101369.3952827865
101368.892514085
101368.007257178
101366.6184553069
101364.6115358567
101361.8877547214
101358.3756728195
101354.041892271
101348.8982204328
101343.0038405614
101336.4616635693
101329.4065300299
101321.9848977452
101314.3347987955
101306.5858417639
101298.9084262518
101291.6552075242
101285.5988804168
101281.8595364519
101280.635575704
101280.5199422467
101280.5399444096
101280.6240077961
101280.8711738645
101281.3776139331
101282.2554814082
101283.6171589445
101285.569032707
101288.2019334336
101291.5821160081
101295.742355374
101300.6745663242
101306.3272943483
101312.6105720182
101319.4070105213
101326.586322997
101334.0204532494
101341.5899250661
101349.1544548668
101356.4400104252
101362.8125811494
101367.1873052426
101368.9564362542
101369.2137492544
101369.2138182733
101369.1512334542
101368.9652000629
101368.552374685
101367.8082656987
101366.6211474876
101364.8816982549
101362.4902010709
101359.3660417313
101355.45689899
101350.7457816724
101345.255317041
101339.0484666915
101332.2228046876
101324.8972860351
101317.1984739528
101309.2622097704
101301.2760815405
101293.6066550938
101287.0341343
101282.7536791531
101281.1938381629
101281.0068760187
101281.0196636409
101281.0808145114
101281.2795228627
101281.7019703569
101282.4513420206
101283.6316483213
101285.3439974637
101287.6790382425
101290.7097342967
101294.4835611028
101299.0153940744
101304.2837714476
101310.2322362883
101316.7750659329
101323.8063473726
101331.211188337
101338.8709888848
101346.6390013852
101354.2431585132
101361.0769674457
101366.0482419419
101368.3140352
101368.733982727
101368.7430753279
101368.7004683154
101368.5576193415
101368.2216834449
101367.5972284665
101366.580299749
101365.0671325139
101362.9595417807
101360.1725928183
101356.6421181766
101352.3310786907
101347.2347397503
101341.3837522698
101334.8422311096
101327.6999207117
101320.0641372191
101312.0634438231
101303.8833554585
101295.8762830064
101288.7870745972
101283.8484832603
101281.7914990043
101281.4687106025
101281.4733453396
101281.5141360969
101281.6705813726
101282.0192342969
101282.656590854
101283.6799526585
101285.1856825041
101287.2630001035
101289.9880544593
101293.4173391555
101297.581545844
101302.481549394
101308.087483466
101314.3409107089
101321.1602706876
101328.448708318
101336.097275639
101343.964783955
101351.7984273101
101359.048214171
101364.6626302734
101367.5731025331
101368.2608599356
101368.2921722679
101368.2667579328
101368.1616224736
101367.8934082549
101367.3734936484
101366.5043165165
101365.1870324728
101363.3259730344
101360.8346878894
101357.6419042431
101353.697040742
101348.975541017
101343.4829981815
101337.2554894033
101330.3557388916
101322.8696045403
101314.911017242
101306.6507695016
101298.4076591448
101290.8557190979
101285.203015993
101282.4833799341
101281.9230652773
101281.9081752172
101281.9332911053
101282.0527110327
101282.3361288958
101282.8741564202
101283.758779774
101285.082321125
101286.9321617278
101289.3860325056
101292.5062442556
101296.3341977237
101300.8867779196
101306.1547170316
101312.1022856667
101318.6694432569
101325.7772804105
101333.330772115
101341.2024166343
101349.1680118842
101356.7497545473
101362.9881736155
101366.664718815
101367.772299582
101367.8648985245
101367.8473980597
101367.7748057849
101367.5640748341
101367.1352414784
101366.3954678603
101365.2504505928
101363.6071283714
101361.3787552584
101358.4896566319
101354.8801472355
101350.5115739408
101345.3704682375
101339.4702191307
101332.8503633404
101325.5761676641
101317.743487098
101309.5012867957
101301.125560833
101293.2008753921
101286.8503317892
101283.3364520434
101282.3959933821
101282.3349089724
101282.3496253857
101282.4356397761
101282.6599271356
101283.1076366411
101283.8664642075
101285.0256713028
101286.6711196974
101288.8811236707
101291.7215483426
101295.2412651341
101299.4688483929
101304.4102457837
101310.0472979162
101316.3385105446
101323.2224562772
101330.6188356357
101338.4155536889
101346.4203367298
101354.234421443
101361.0246130009
101365.5256508481
101367.2239076481
101367.4470032162
101367.4391625941
101367.3911249731
101367.2297185137
101366.8806785649
101366.2555680607
101365.2641024249
101363.8157199416
101361.8239177854
101359.2103517311
101355.9092532153
101351.8718363706
101347.0701616951
101341.4998767832
101335.1816778127
101328.162385579
101320.5191440666
101312.3772718005
101303.9687258443
101295.7821468533
101288.8068528901
101284.4133734323
101282.9126068646
101282.7483836608
101282.7559997724
101282.8140561993
101282.9874101378
101283.3550677464
101284.0015436036
101285.0132196869
101286.4743510556
101288.4631473431
101291.0478198035
101294.2827804964
101298.205269911
101302.8326559368
101308.1608397098
101314.1642742096
101320.7971605903
101327.9930860546
101335.6560331589
101343.6254031259
101351.5760648459
101358.8092011659
101364.1110489696
101366.551150501
101367.0161853048
101367.0260102763
101366.9970737071
101366.8797891028
101366.6027931623
101366.0827460764
101365.2319161447
101363.9617281951
101362.1862818386
101359.8256084097
101356.8095014514
101353.0819425545
101348.6048794305
101343.3605935408
101337.3538354446
101330.6149969518
101323.2048421342
101315.2269715804
101306.8710902598
101298.533843862
101291.0505918487
101285.7745054374
101283.5318239285
101283.1593877746
101283.1530249013
101283.1922632567
101283.3211302647
101283.6186348391
101284.164115964
101285.0418650578
101286.334662507
101288.1207081574
101290.4697909386
101293.4401224411
101297.0755451184
101301.4025905232
101306.4280809362
101312.1387177626
101318.502021068
101325.4651825867
101332.9472093559
101340.8140149382
101348.805135429
101356.357997525
101362.3906352929
101365.7032133468
101366.5772500287
101366.6321815732
101366.6183890676
101366.534365737
101366.3183753693
101365.8886803206
101365.1616277488
101364.050658849
101362.4706838289
101360.3410588999
101357.5889932076
101354.1530864166
101349.9868135632
101345.0617349335
101339.3703382217
101332.9287793595
101325.7810572325
101318.0100315604
101309.7706378067
101301.3813939656
101293.5244730628
101287.4411732176
101284.3229102466
101283.5960181227
101283.5615731649
101283.5818624754
101283.673916596
101283.9071994057
101284.3594592037
101285.1127034644
101286.2487534252
101287.84577398
101289.9750823736
101292.6980740666
101296.0633359529
101300.1040843747
101304.8361865623
101310.2569735013
101316.3446368348
101323.0571164049
101330.3272100499
101338.0445268088
101346.0000965018
101353.7470804814
101360.3725178741
101364.5909078897
101366.0659597863
101366.2359717299
101366.2301749987
101366.1801530503
101366.0281786633
101365.7033846295
101365.1303825694
101364.2331497752
101362.9393689788
101361.1849340194
101358.9188401276
101356.1085957245
101352.7462826397
101348.8558046725
101344.503545848
101339.8193635241
101335.0440838769
101330.6199073057
101327.2432496665
101325.4963896378
101325.0423518017
101325.0009126399
101325.0000032716
101324.9999999966
101324.9999999953
101324.9999999952
101324.9999999953
101324.9999999953
101324.9999999955
101324.9999999955
101324.9999999955
101324.9999999955
101324.9999999955
101324.9999999955
101324.9999999955
101324.9999999954
101324.9999999953
101324.9999999953
101324.9999999952
101324.9999999951
101324.9999999951
101324.9999999949
101324.9999999948
101324.9999999947
101324.9999999946
101324.9999999944
101324.9999999943
101324.9999999943
101324.9999999941
101324.9999999939
101324.9999999936
101324.9999999933
101324.9999999931
101324.9999999928
101324.9999999925
101324.9999999923
101324.9999999922
101324.9999999921
101324.9999999919
101324.9999999916
101324.9999999914
101324.9999999912
101324.999999991
101324.9999999906
101324.9999999903
101324.99999999
101324.9999999897
101324.9999999893
101324.999999989
101324.9999999887
101324.9999999885
101324.9999999882
101324.999999988
101324.9999999877
101324.9999999875
101324.9999999874
101324.9999999872
101324.999999987
101324.999999987
101324.9999999869
101324.9999999868
101324.9999999867
101324.9999999867
101324.9999999866
101324.9999999864
101324.9999999861
101324.9999999859
101324.9999999857
101324.9999999855
101324.9999999854
101324.999999985
101324.9999999847
101324.9999999844
101324.9999999842
101324.9999999839
101324.9999999837
101324.9999999836
101324.9999999834
101324.9999999833
101324.9999999831
101324.999999983
101324.9999999829
101324.9999999828
101324.9999999827
101324.9999999826
101324.9999999824
101324.9999999822
101324.999999982
101324.9999999817
101324.9999999815
101324.9999999811
101324.9999999808
101324.9999999805
101324.9999999803
101324.99999998
101324.9999999798
101324.9999999795
101324.9999999793
101324.9999999791
101324.9999999789
101324.9999999785
101324.9999999783
101324.9999999779
101324.9999999776
101324.9999999774
101324.9999999771
101324.9999999768
101324.9999999765
101324.9999999763
101324.9999999761
101324.9999999761
101324.9999999759
101324.9999999758
101324.9999999757
101324.9999999757
101324.9999999757
101324.9999999757
101324.9999999757
101324.9999999757
101324.9999999759
101324.9999999761
101324.9999999763
101324.9999999764
101324.9999999765
101324.9999999766
101324.9999999767
101324.9999999768
101324.9999999769
101324.9999999771
101324.9999999772
101324.9999999773
101324.9999999774
101324.9999999774
101324.9999999776
101324.9999999777
101324.9999999778
101324.999999978
101324.9999999781
101324.9999999782
101324.9999999782
101324.9999999784
101324.9999999784
101324.9999999786
101324.9999999786
101324.9999999787
101324.9999999788
101324.9999999788
101324.9999999789
101324.999999979
101324.9999999792
101324.9999999793
101324.9999999795
101324.9999999796
101324.9999999797
101324.9999999798
101324.9999999798
101324.9999999799
101324.99999998
101324.99999998
101324.99999998
101324.99999998
101324.99999998
101324.99999998
101324.99999998
101324.99999998
101324.9999999801
101324.9999999802
101324.9999999802
101324.9999999803
101324.9999999804
101324.9999999804
101324.9999999805
101324.9999999806
101324.9999999806
101324.9999999808
101324.9999999809
101324.999999981
101324.999999981
101324.999999981
101324.999999981
101324.999999981
101324.999999981
101324.9999999809
101324.9999999809
101324.9999999809
101324.9999999809
101324.9999999808
101324.9999999809
101324.9999999809
101324.9999999809
101324.999999981
101324.9999999811
101324.9999999811
101324.9999999811
101324.9999999812
101324.9999999812
101324.9999999812
101324.9999999812
101324.9999999812
101324.9999999813
101324.9999999813
101324.9999999813
101324.9999999813
101324.9999999813
101324.9999999814
101324.9999999814
101324.9999999814
101324.9999999814
101324.9999999814
101324.9999999814
101324.9999999814
101324.9999999814
101324.9999999814
101324.9999999814
101324.9999999815
101324.9999999814
101324.9999999814
101324.9999999814
101324.9999999815
101324.9999999814
101324.9999999814
101324.9999999815
101324.9999999814
101324.9999999814
101324.9999999814
101324.9999999814
101324.9999999814
101324.9999999814
101324.9999999814
101324.9999999815
101324.9999999815
101324.9999999815
101324.9999999815
101324.9999999816
101324.9999999816
101324.9999999815
101324.9999999815
101324.9999999815
101324.9999999815
101324.9999999814
101324.9999999814
101324.9999999813
101324.9999999813
101324.9999999812
101324.9999999812
101324.9999999813
101324.9999999813
101324.9999999813
101324.9999999814
101324.9999999814
101324.9999999813
101324.9999999813
101324.9999999813
101324.9999999813
101324.9999999813
101324.9999999813
101324.9999999813
101324.9999999812
101324.9999999812
101324.9999999812
101324.9999999812
101324.9999999812
101324.9999999812
101324.9999999812
101324.9999999812
101324.9999999812
101324.9999999812
101324.9999999812
101324.9999999812
101324.9999999812
101324.9999999812
101324.9999999812
101324.9999999812
101324.9999999811
101324.9999999812
101324.9999999811
101324.9999999811
101324.9999999811
101324.9999999811
101324.9999999811
101324.9999999811
101324.999999981
101324.999999981
101324.9999999811
101324.9999999811
101324.9999999812
101324.9999999812
101324.9999999812
101324.9999999812
101324.9999999812
101324.9999999812
101324.9999999812
101324.9999999812
101324.9999999811
101324.9999999812
101324.9999999812
101324.9999999812
101324.9999999812
101324.9999999812
101324.9999999813
101324.9999999812
101324.9999999813
101324.9999999813
101324.9999999813
101324.9999999813
101324.9999999814
101324.9999999814
101324.9999999814
101324.9999999814
101324.9999999814
101324.9999999814
101324.9999999813
101324.9999999812
101324.9999999812
101324.9999999811
101324.9999999811
101324.9999999811
101324.9999999811
101324.9999999811
101324.9999999811
101324.9999999811
101324.9999999811
101324.999999981
101324.999999981
101324.9999999809
101324.9999999809
101324.9999999808
101324.9999999807
101324.9999999806
101324.9999999806
101324.9999999807
101324.9999999806
101324.9999999806
101324.9999999806
101324.9999999806
101324.9999999806
101324.9999999805
101324.9999999805
101324.9999999805
101324.9999999805
101324.9999999805
101324.9999999804
101324.9999999804
101324.9999999804
101324.9999999804
101324.9999999804
101324.9999999804
101324.9999999805
101324.9999999805
101324.9999999805
101324.9999999806
101324.9999999806
101324.9999999806
101324.9999999807
101324.9999999807
101324.9999999807
101324.9999999807
101324.9999999807
101324.9999999806
101324.9999999806
101324.9999999806
101324.9999999806
101324.9999999806
101324.9999999806
101324.9999999806
101324.9999999806
101324.9999999806
101324.9999999805
101324.9999999805
101324.9999999805
101324.9999999805
)
;

boundaryField
{
    inlet
    {
        type            uniformFixedValue;
        uniformValue    sine;
        uniformValueCoeffs
        {
            frequency       constant 3000;
            scale           constant 50;
            level           constant 101325;
        }
        value           uniform 101326.3578702043;
    }
    outlet
    {
        type            pressureOutletNSCBC;
        pInf            101325;
        gamma           1.4;
        etaAc           1;
        fieldInf        1;
        lInf            2.25;
        value           uniform 101324.9999999805;
    }
    frontAndBack
    {
        type            empty;
    }
}


// ************************************************************************* //
