/*--------------------------------*- C++ -*----------------------------------*\
| =========                 |                                                 |
| \\      /  F ield         | OpenFOAM: The Open Source CFD Toolbox           |
|  \\    /   O peration     | Version:  v2012                                 |
|   \\  /    A nd           | Website:  www.openfoam.com                      |
|    \\/     M anipulation  |                                                 |
\*---------------------------------------------------------------------------*/
FoamFile
{
    version     2.0;
    format      ascii;
    class       volScalarField;
    location    "0.0045";
    object      pMean;
}
// * * * * * * * * * * * * * * * * * * * * * * * * * * * * * * * * * * * * * //

dimensions      [1 -1 -2 0 0 0 0];


internalField   nonuniform List<scalar> 
1000
(
101326.1244797499
101326.1637385108
101326.135902156
101326.1125786058
101326.0695198496
101326.0204079989
101325.9608502944
101325.896710072
101325.8253927472
101325.7502659499
101325.6719160927
101325.5936706926
101325.5153781607
101325.4383578015
101325.3633922748
101325.2923703956
101325.2265707451
101325.1676120214
101325.1163158394
101325.073831335
101325.0406524601
101325.0176146207
101325.0049501533
101325.0031247764
101325.0119930338
101325.031572404
101325.0613211044
101325.1008599398
101325.149391879
101325.2064807459
101325.2713844632
101325.3430461336
101325.4188185999
101325.4958638432
101325.5728717769
101325.649716626
101325.7256660211
101325.8000752746
101325.8713754703
101325.9383093403
101325.9990257481
101326.0523480014
101326.0968611507
101326.1319726407
101326.1568570958
101326.1714025674
101326.1751647652
101326.1683515685
101326.1508547393
101326.1232054701
101326.0855562946
101326.0385484048
101325.9823683382
101325.9179129152
101325.8465467367
101325.7714731185
101325.695340671
101325.619312481
101325.5434497454
101325.4682521661
101325.3944333468
101325.3230884651
101325.2555609584
101325.1933944124
101325.1381096287
101325.0911092462
101325.0534963152
101325.0260747189
101325.0093068609
101325.0034047472
101325.0083526735
101325.0240112797
101325.0501230665
101325.0864086778
101325.132562033
101325.1882358491
101325.2526396965
101325.3238176718
101325.3984182404
101325.4737473193
101325.5490296317
101325.6241566284
101325.6986185163
101325.7719085452
101325.8428979559
101325.9105297574
101325.9732163147
101326.0296305902
101326.0781699225
101326.1177606264
101326.1472894355
101326.1663069416
101326.174355214
101326.1715603431
101326.1579081178
101326.1337946839
101326.099309886
101326.0548324585
101326.0005156017
101325.9372970039
101325.8670308725
101325.793248907
101325.718590245
101325.6440117951
101325.5695603516
101325.4956264972
101325.4227474764
101325.3517928427
101325.2838449861
101325.2202418301
101325.1624084109
101325.1118327425
101325.0698448096
101325.0376022982
101325.0159003298
101325.0052517136
101325.0057958473
101325.0175039227
101325.0401478149
101325.0735235975
101325.1173612078
101325.1713249883
101325.2344602401
101325.3045020748
101325.377858567
101325.4518900771
101325.5258820643
101325.5997539857
101325.6730917584
101325.7454937071
101325.8160335111
101325.8838346452
101325.947521855
101326.0058767397
101326.0573379011
101326.1007022925
101326.1346537813
101326.1584232702
101326.171274313
101326.1730559985
101326.1636005193
101326.1431779657
101326.1118528162
101326.0699830912
101326.0177771134
101325.9562532408
101325.887410681
101325.8148955869
101325.7414363552
101325.6680353673
101325.5947166958
101325.5218115449
101325.4497353299
101325.3792233218
101325.3111662437
101325.246742813
101325.1872212778
101325.1340337962
101325.0885323864
101325.0520327508
101325.0255665137
101325.0099602307
101325.0056516914
101325.012882945
101325.0315980987
101325.0617027137
101325.1029265275
101325.1548876793
101325.2164702335
101325.2852478429
101325.357458897
101325.4304052621
101325.5033192665
101325.5761478989
101325.6485390863
101325.7201694054
101325.7902533364
101325.858043969
101325.9223395231
101325.9820355108
101326.0356771394
101326.0820540854
101326.1197816421
101326.1479048456
101326.1654527418
101326.1719917155
101326.1670999678
101326.1508334485
101326.1231294003
101326.084288757
101326.0345434335
101325.9749614227
101325.9076280023
101325.836288733
101325.7638668044
101325.6914739541
101325.6191294172
101325.5471184514
101325.4757667383
101325.4057082738
101325.3376919663
101325.2727601295
101325.2120398172
101325.1568698347
101325.1085553382
101325.0684617626
101325.0377440605
101325.0174499248
101325.0082800522
101325.0107647264
101325.0251004683
101325.0513880935
101325.0894645942
101325.1389710366
101325.1987200915
101325.2661443449
101325.337292949
101325.4092840945
101325.4812638846
101325.5531798431
101325.6247398184
101325.6956727972
101325.7653077281
101325.8329933958
101325.8976728217
101325.9583463054
101326.0136733519
101326.0624813672
101326.1033899902
101326.1353441562
101326.157226801
101326.1683750649
101326.1681361136
101326.1563161064
101326.1326699219
101326.0973495735
101326.0505292575
101325.9932374102
101325.9275831819
101325.8574102953
101325.7859238889
101325.7144213458
101325.642944811
101325.5717347841
101325.5010540865
101325.4314490516
101325.3635613283
101325.298317505
101325.2367207994
101325.1800118622
101325.1294226065
101325.0863110502
101325.051882978
101325.0273233512
101325.0135263655
101325.011272266
101325.0210072009
101325.0430720232
101325.0774776904
101325.1239886566
101325.181457531
101325.2473007948
101325.3173786905
101325.3885097576
101325.4596520678
101325.5307574623
101325.6015636124
101325.6718620052
101325.7410500816
101325.8085787659
101325.8734894559
101325.9348960805
101325.9915499674
101326.042350136
101326.0859405245
101326.1212338257
101326.1470226387
101326.1624868651
101326.1667831257
101326.1594921169
101326.1401699308
101326.1087804404
101326.0653695815
101326.0108276301
101325.9471678484
101325.8782516837
101325.8076477007
101325.7369487717
101325.6662618567
101325.5957837533
101325.5257339641
101325.4565773012
101325.3888796371
101325.3234536932
101325.2612131247
101325.2032845319
101325.1508409108
101325.105180783
101325.0675413008
101325.0391571877
101325.0210803044
101325.0142545843
101325.0193714061
101325.0369722071
101325.0673041751
101325.1102867021
101325.1649669324
101325.2288624404
101325.2977721626
101325.3680712246
101325.4384509976
101325.5087953176
101325.5789128774
101325.6486040943
101325.7173670032
101325.7846914531
101325.8497446061
101325.911695922
101325.9694229653
101326.0218616261
101326.0677350874
101326.1059245042
101326.1352078378
101326.1546342614
101326.1632433392
101326.1604098646
101326.1455260652
101326.1183487305
101326.0787679567
101326.0274545092
101325.9661989078
101325.8987448796
101325.82902963
101325.7590849183
101325.6891359564
101325.61935059
101325.549901288
101325.4811963194
101325.4137243534
101325.3482184811
101325.2854955941
101325.2265999598
101325.1726190125
101325.1248068438
101325.0843738186
101325.0525958984
101325.0305971449
101325.0194672853
101325.0200583181
101325.0331207727
101325.0590918882
101325.0981166567
101325.1494757909
101325.2109878542
101325.2785066123
101325.3479782193
101325.4176266368
101325.4872619253
101325.5567116677
101325.6258287144
101325.6941543266
101325.7612554008
101325.8263628615
101325.8887371472
101325.9473259334
101326.0011451155
101326.0489612619
101326.0896850276
101326.1220725946
101326.1451190923
101326.1577583116
101326.1592315502
101326.1487722974
101326.1259693456
101326.0905282163
101326.0428779453
101325.9844757905
101325.9187927382
101325.8500402881
101325.7808232871
101325.7115803967
101325.6424666561
101325.5736025619
101325.5053579276
101325.4381445932
101325.372636701
101325.3095593799
101325.2498894657
101325.1946284111
101325.1449833167
101325.1021201825
101325.0673286444
101325.0417668131
101325.026623467
101325.0228674624
101325.0314172297
101325.0528793999
101325.0876199978
101325.1351961669
101325.1938368717
101325.2596517155
101325.3282269647
101325.397170119
101325.4661214114
101325.5349240158
101325.60347418
101325.6713555714
101325.7382005913
101325.8032979726
101325.8659870791
101325.9252783075
101325.9802631727
101326.0297523852
101326.0726992894
101326.107853959
101326.1341929709
101326.1505735928
101326.1561504188
101326.1500212599
101326.1316452196
101326.1005447529
101326.0569185943
101326.0018227398
101325.9383148378
101325.8706764607
101325.8021822483
101325.7336135886
101325.665146484
101325.5968656776
101325.529084875
101325.4621719632
101325.3967230072
101325.333406893
101325.2731137543
101325.2167902442
101325.1655687279
101325.1205889512
101325.0831096068
101325.0543219888
101325.0354515189
101325.0275722308
101325.0317063812
101325.0486273671
101325.0788759778
101325.1223151697
101325.1776098291
101325.241329719
101325.3088503208
101325.3770910753
101325.4453589154
101325.5135276137
101325.5814943336
101325.648925909
101325.7154693114
101325.7805100347
101325.8434122166
101325.903288032
101325.9592521163
101326.010205121
101326.0551010413
101326.0927444708
101326.1220658291
101326.1419207714
101326.1513606012
101326.1494282806
101326.1354320261
101326.108781909
101326.0694164404
101326.0180408728
101325.9571470035
101325.8908935215
101325.8231411938
101325.7552369106
101325.6874000747
101325.6197047766
101325.5524011383
101325.4858257384
101325.4204959072
101325.3570366313
101325.2962523425
101325.2390436811
101325.1864656422
101325.1396304859
101325.0997522877
101325.0680377498
101325.0457217631
101325.0339526926
101325.0338235036
101325.0462407964
101325.0718926393
101325.1109222685
101325.1624375511
101325.2235975951
101325.2898272721
101325.3573456844
101325.4249530267
101325.492499353
101325.5598847371
101325.6268540708
101325.6930645653
101325.7579938581
101325.8210252052
101325.8813682113
101325.9381563799
101325.9903802566
101326.0369968914
101326.0768743055
101326.1089092412
101326.1319762623
101326.1450459587
101326.1471324998
101326.1374152326
101326.1152173897
101326.0802461884
101326.0328926486
101325.9750517927
101325.9105392931
101325.8436352107
101325.776406908
101325.7092129655
101325.6421200137
101325.5753269663
101325.5091289623
101325.4439830091
101325.3804614283
101325.3193024043
101325.2613526673
101325.207605665
101325.1591323799
101325.1171075324
101325.0827299743
101325.0572360498
101325.0418135035
101325.0376073814
101325.0456216308
101325.0666694895
101325.1011269996
101325.148510399
101325.2066213573
101325.2712150497
101325.3379382456
101325.404900189
101325.4718219892
101325.5386372069
101325.6051119415
101325.670972421
101325.7357218158
101325.7988218577
101325.8595128594
101325.9170068185
101325.9703201624
101326.0184755489
101326.0603479483
101326.0948717023
101326.1208938645
101326.1373823083
101326.1432840516
101326.1377340694
101326.1199367081
101326.0894595612
101326.0463680911
101325.992032558
101325.9296816691
101325.8637995154
101325.7972155079
101325.7306428325
101325.6641335211
101325.5978502204
101325.5320505568
101325.4671318921
101325.4036223251
101325.3421923322
101325.2836412011
101325.2288966622
101325.1789913451
101325.1350508599
101325.0982596931
101325.0698385008
101325.0510012674
101325.0429230898
101325.0466828086
101325.0631913472
101325.0930216862
101325.1360416266
101325.1906706984
101325.2531982008
101325.3189568524
101325.3852533777
101325.4515424392
101325.5177487079
101325.5837117374
101325.6491598648
101325.7136877293
101325.7767646864
101325.8377254733
101325.8957899157
101325.9500642473
101325.9995704461
101326.0432570561
101326.0800362918
101326.108801349
101326.1284675375
101326.1379923787
101326.1364209043
101326.122923513
101326.0969041308
101326.0582223582
101326.0077277773
101325.9480367138
101325.8834592028
101325.8175908894
101325.7516373439
101325.6857268341
101325.6199660726
101325.5545621134
101325.4898388
101325.4262412249
101325.3643339229
101325.3047919665
101325.248384698
101325.195951334
101325.1483675652
101325.1065018932
101325.0711587678
101325.0429995895
101325.0224161856
101325.0093015557
101325.0026749012
101325.0004251468
101325.0000269568
101325.0000004585
101325.0000000012
101324.9999999998
101324.9999999998
101324.9999999998
101324.9999999998
101324.9999999998
101324.9999999998
101324.9999999998
101324.9999999997
101324.9999999998
101324.9999999997
101324.9999999997
101324.9999999997
101324.9999999997
101324.9999999997
101324.9999999997
101324.9999999997
101324.9999999997
101324.9999999997
101324.9999999997
101324.9999999997
101324.9999999997
101324.9999999996
101324.9999999996
101324.9999999996
101324.9999999996
101324.9999999995
101324.9999999995
101324.9999999995
101324.9999999995
101324.9999999995
101324.9999999995
101324.9999999995
101324.9999999994
101324.9999999994
101324.9999999994
101324.9999999994
101324.9999999993
101324.9999999994
101324.9999999993
101324.9999999994
101324.9999999994
101324.9999999993
101324.9999999993
101324.9999999993
101324.9999999993
101324.9999999993
101324.9999999993
101324.9999999992
101324.9999999992
101324.9999999992
101324.9999999991
101324.9999999991
101324.999999999
101324.999999999
101324.999999999
101324.999999999
101324.999999999
101324.999999999
101324.9999999989
101324.999999999
101324.9999999989
101324.9999999989
101324.9999999989
101324.9999999989
101324.9999999989
101324.9999999989
101324.9999999988
101324.9999999989
101324.9999999988
101324.9999999989
101324.9999999988
101324.9999999987
101324.9999999987
101324.9999999987
101324.9999999986
101324.9999999986
101324.9999999986
101324.9999999986
101324.9999999986
101324.9999999985
101324.9999999985
101324.9999999985
101324.9999999985
101324.9999999984
101324.9999999984
101324.9999999984
101324.9999999983
101324.9999999983
101324.9999999982
101324.9999999982
101324.9999999982
101324.9999999982
101324.9999999982
101324.9999999982
101324.9999999981
101324.9999999981
101324.999999998
101324.999999998
101324.999999998
101324.9999999979
101324.9999999979
101324.9999999979
101324.9999999978
101324.9999999978
101324.9999999977
101324.9999999977
101324.9999999976
101324.9999999976
101324.9999999976
101324.9999999975
101324.9999999975
101324.9999999975
101324.9999999975
101324.9999999974
101324.9999999974
101324.9999999973
101324.9999999973
101324.9999999973
101324.9999999972
101324.9999999972
101324.9999999972
101324.9999999971
101324.999999997
101324.999999997
101324.999999997
101324.999999997
101324.9999999969
101324.9999999969
101324.9999999968
101324.9999999968
101324.9999999967
101324.9999999967
101324.9999999967
101324.9999999966
101324.9999999966
101324.9999999965
101324.9999999964
101324.9999999964
101324.9999999964
101324.9999999963
101324.9999999963
101324.9999999963
101324.9999999962
101324.9999999961
101324.9999999961
101324.9999999961
101324.9999999961
101324.999999996
101324.999999996
101324.999999996
101324.999999996
101324.999999996
101324.9999999959
101324.9999999958
101324.9999999958
101324.9999999958
101324.9999999958
101324.9999999957
101324.9999999957
101324.9999999957
101324.9999999957
101324.9999999956
101324.9999999957
101324.9999999956
101324.9999999955
101324.9999999955
101324.9999999955
101324.9999999954
101324.9999999954
101324.9999999954
101324.9999999954
101324.9999999954
101324.9999999952
101324.9999999952
101324.9999999951
101324.9999999951
101324.9999999951
101324.999999995
101324.999999995
101324.999999995
101324.999999995
101324.999999995
101324.9999999949
101324.9999999949
101324.9999999949
101324.9999999949
101324.9999999949
101324.9999999949
101324.9999999949
101324.9999999949
101324.9999999949
101324.9999999949
101324.9999999949
101324.9999999949
101324.9999999948
101324.9999999949
101324.9999999948
101324.9999999948
101324.9999999947
101324.9999999947
101324.9999999947
101324.9999999946
101324.9999999946
101324.9999999946
101324.9999999946
101324.9999999945
101324.9999999945
101324.9999999945
101324.9999999945
101324.9999999944
101324.9999999944
101324.9999999944
101324.9999999943
101324.9999999943
101324.9999999943
101324.9999999942
101324.9999999941
101324.999999994
101324.999999994
101324.9999999939
101324.9999999939
101324.9999999938
101324.9999999938
101324.9999999937
101324.9999999936
101324.9999999936
101324.9999999936
101324.9999999936
101324.9999999936
101324.9999999935
101324.9999999935
101324.9999999935
101324.9999999935
101324.9999999935
101324.9999999934
101324.9999999934
101324.9999999934
101324.9999999934
101324.9999999934
101324.9999999933
101324.9999999933
101324.9999999933
101324.9999999932
101324.9999999932
101324.9999999932
101324.9999999932
101324.9999999931
101324.9999999931
101324.9999999931
101324.9999999931
101324.9999999931
101324.9999999931
101324.999999993
101324.999999993
101324.9999999929
101324.9999999929
101324.9999999928
101324.9999999928
101324.9999999928
101324.9999999928
101324.9999999928
101324.9999999928
101324.9999999928
101324.9999999927
101324.9999999927
101324.9999999926
101324.9999999925
101324.9999999925
101324.9999999925
101324.9999999924
101324.9999999924
101324.9999999924
101324.9999999923
101324.9999999923
101324.9999999922
101324.9999999922
101324.9999999922
101324.9999999922
101324.9999999922
101324.9999999921
101324.9999999921
101324.9999999921
101324.9999999921
101324.9999999921
101324.999999992
101324.9999999919
101324.9999999919
101324.9999999919
101324.9999999918
101324.9999999918
101324.9999999917
101324.9999999917
101324.9999999917
101324.9999999916
101324.9999999916
101324.9999999917
101324.9999999916
101324.9999999916
101324.9999999916
101324.9999999915
101324.9999999915
101324.9999999915
101324.9999999914
101324.9999999914
101324.9999999913
101324.9999999913
101324.9999999913
101324.9999999913
101324.9999999912
101324.9999999912
101324.9999999912
101324.9999999911
101324.9999999911
101324.9999999911
101324.999999991
101324.999999991
101324.999999991
101324.9999999909
101324.9999999909
101324.9999999909
101324.9999999908
101324.9999999908
101324.9999999907
101324.9999999907
101324.9999999906
101324.9999999906
101324.9999999905
101324.9999999905
101324.9999999905
101324.9999999904
101324.9999999904
101324.9999999904
101324.9999999903
101324.9999999903
101324.9999999902
101324.9999999902
101324.9999999902
101324.9999999902
101324.9999999902
101324.9999999901
101324.9999999901
101324.9999999901
101324.99999999
101324.99999999
101324.99999999
101324.99999999
101324.9999999899
101324.9999999899
101324.9999999899
101324.9999999899
101324.9999999898
101324.9999999898
101324.9999999897
101324.9999999897
101324.9999999896
101324.9999999896
101324.9999999896
101324.9999999895
101324.9999999895
101324.9999999894
101324.9999999894
101324.9999999893
101324.9999999893
101324.9999999893
101324.9999999892
101324.9999999892
101324.9999999891
101324.9999999891
)
;

boundaryField
{
    inlet
    {
        type            calculated;
        value           uniform 101326.1788530283;
    }
    outlet
    {
        type            calculated;
        value           uniform 101324.9999999891;
    }
    frontAndBack
    {
        type            empty;
    }
}


// ************************************************************************* //
