/*--------------------------------*- C++ -*----------------------------------*\
| =========                 |                                                 |
| \\      /  F ield         | OpenFOAM: The Open Source CFD Toolbox           |
|  \\    /   O peration     | Version:  v2012                                 |
|   \\  /    A nd           | Website:  www.openfoam.com                      |
|    \\/     M anipulation  |                                                 |
\*---------------------------------------------------------------------------*/
FoamFile
{
    version     2.0;
    format      ascii;
    class       volScalarField;
    location    "0.0045";
    object      rho;
}
// * * * * * * * * * * * * * * * * * * * * * * * * * * * * * * * * * * * * * //

dimensions      [1 -3 0 0 0 0 0];


internalField   nonuniform List<scalar> 
1000
(
1.176535127397229
1.176511549312947
1.176564121997052
1.176605963722333
1.176655076355851
1.176699824442873
1.176737596359424
1.176769061623895
1.176795502177209
1.176813190855817
1.176817869312819
1.176817640056295
1.176814716733411
1.176806542433741
1.176790373977494
1.176765651802471
1.176733323960744
1.176694865279319
1.176651486159549
1.176604003794267
1.17655308806498
1.176499488170931
1.176444103192066
1.176387971802647
1.176332239590322
1.176278069292927
1.176226460241348
1.176178016399304
1.176132807597201
1.176090719057757
1.17605305457395
1.176025240415203
1.176013487436019
1.176012181704479
1.176012803156398
1.17601505840827
1.176021334027615
1.176033570049669
1.176053473027453
1.176081784765297
1.176118122263484
1.176161178535649
1.1762092528888
1.176260771590438
1.176314521181513
1.176369580132087
1.176425137462106
1.176480369632102
1.17653443761119
1.1765866262088
1.176636579816495
1.176684330750659
1.176729501125734
1.176769127454308
1.176795922758715
1.176805413465096
1.176806148070653
1.176805839509203
1.176803765377061
1.176798607129022
1.176788485736388
1.176771792631481
1.176747350842795
1.176714740646356
1.176674413582323
1.176627591624541
1.176575960674112
1.176521277787062
1.176465067051006
1.176408515602149
1.17635251712648
1.176297703503565
1.176244395312315
1.176192612707482
1.176142427384993
1.176095021581566
1.176054736255208
1.176029544983178
1.176021732718782
1.176021223762621
1.176021749603784
1.176023570564732
1.176028300355928
1.176037390298431
1.176052357578977
1.176074409894099
1.176104231853093
1.176141802454128
1.17618636272637
1.17623654916815
1.176290647337142
1.17634689357895
1.176403755569435
1.176460122920955
1.176515363029739
1.176569262328815
1.176621883701219
1.176673188991078
1.176721944434301
1.176763567793919
1.176789759183721
1.176798019166544
1.176798564023189
1.176798311251651
1.176796718439532
1.176792751260146
1.176784948685861
1.176771923352775
1.176752427323938
1.176725571248009
1.17669099580865
1.17664899509103
1.176600528493331
1.176547083357896
1.176490417023799
1.176432260880104
1.176374054504112
1.17631674382105
1.176260703548452
1.176205911596094
1.176152555147624
1.176102345381828
1.176060591216063
1.176035660591877
1.176028419980905
1.176027980579435
1.176028383911555
1.176029835981292
1.176033615265868
1.17604092225699
1.176053064888696
1.176071216152394
1.176096272042923
1.176128689220951
1.176168373655861
1.176214643994951
1.176266285704404
1.176321714038413
1.176379241203988
1.176437378060248
1.176495060557722
1.176551727673288
1.176607209525533
1.176661271513894
1.176712416588855
1.176755763270592
1.176782960279871
1.17679174182981
1.176792433342009
1.176792257995171
1.17679103625824
1.17678791919518
1.176781670523956
1.176771076960786
1.176754961381031
1.176732340590057
1.176702559955698
1.176665427065216
1.176621299795266
1.176571084134848
1.176516127444519
1.176458025738109
1.176398368227561
1.176338459475939
1.176279129279036
1.176220813510006
1.176164119981478
1.176111155536799
1.176067561414451
1.176041712370854
1.176034117988836
1.176033610444298
1.176033914727409
1.176035064856141
1.176038134190468
1.176044150830849
1.176054266725821
1.176069575991742
1.176091013505837
1.17611922639073
1.176154466333781
1.176196514458319
1.176244656465996
1.176297740877229
1.176354341801361
1.176412993435166
1.176472420515495
1.176531693040334
1.176590219863709
1.176647374834854
1.176701357680565
1.176747140414503
1.176776307788279
1.176786232085044
1.176787173216827
1.176787065375416
1.176786138414748
1.176783669434115
1.176778582301152
1.176769805051872
1.176756251299258
1.176736938736446
1.176711091309066
1.176678256061287
1.176638402153423
1.176591966947574
1.176539832758495
1.176483233382815
1.176423583355209
1.176362242335192
1.176300309167815
1.17623863371697
1.176178293903578
1.176121862844832
1.176075409540103
1.176047628152524
1.17603916330692
1.176038503159203
1.176038733045978
1.176039637734382
1.176042144851392
1.176047154305276
1.176055697851634
1.176068787917046
1.176087343151497
1.176112088135675
1.176143463795611
1.176181549133835
1.176226007275701
1.176276088784825
1.176330718563006
1.176388650112094
1.176448642156849
1.176509613405303
1.176570688840297
1.176630904406341
1.176688155586474
1.176737215329669
1.176769380559276
1.176781153917148
1.176782524476611
1.176782472435171
1.176781767261919
1.176779810415273
1.176775642033023
1.176768302484972
1.176756788077627
1.176740148846048
1.176717566014327
1.176688447137069
1.176652515111511
1.176609867586295
1.176560994984517
1.176506750292861
1.176448251281675
1.176386712117595
1.17632327718957
1.176259021130407
1.176195356926565
1.176135209075471
1.176084985615425
1.176053975855815
1.176043825683162
1.176042866742768
1.176043032615786
1.176043729742271
1.17604577946628
1.176049979323692
1.176057259380007
1.176068551585159
1.176084738132749
1.17610657217792
1.176134603024269
1.176169102282824
1.176210002679509
1.176256877269783
1.176308979742377
1.17636533642973
1.176424866768741
1.176486508766923
1.176549271655898
1.176611992230857
1.176672398460223
1.17672523392154
1.176761504561658
1.176776172227563
1.176778305572423
1.176778306141552
1.176777787256199
1.176776244878279
1.176772822199475
1.176766652885666
1.176756810613332
1.176742388964665
1.176722561119103
1.176696658588892
1.176664247409294
1.176625186486438
1.176579663166954
1.176528199199744
1.176471603328523
1.176410861617586
1.176347023280047
1.176281214544955
1.1762149908447
1.17615139194896
1.176096888096366
1.176061391108446
1.176048455547201
1.176046905088092
1.176047011132416
1.17604751824771
1.176049166114768
1.176052669426807
1.176058883877665
1.176068671993542
1.176082872210006
1.176102236191418
1.176127368900138
1.176158663883077
1.176196244297523
1.176239931933447
1.176289258364686
1.176343512488597
1.176401815811192
1.176463215435211
1.176526727789058
1.176591135998327
1.176654184246515
1.1767108441809
1.176752060958437
1.176770846444416
1.176774328176404
1.176774403559983
1.176774050308764
1.176772865965707
1.17677008076459
1.176764903483631
1.176756472232023
1.176743926674215
1.176726452706837
1.176703346043438
1.176674074529986
1.176638330881705
1.176596075606088
1.17654756256416
1.176493323063883
1.176434100932559
1.176370785733995
1.17630444327379
1.176236611708742
1.176170213332423
1.176111425082503
1.176070470460186
1.176053412196907
1.176050735350435
1.17605077378458
1.176051112056115
1.176052409438891
1.176055300778036
1.176060586297507
1.176069072892079
1.176081559652831
1.176098786406934
1.176121384551978
1.176149822443916
1.176184354424414
1.176224987533347
1.176271473857597
1.176323328549181
1.176379875027121
1.176440309917639
1.176503729626083
1.176568963303753
1.176633914756654
1.176694023990313
1.176740573266389
1.1767647037997
1.176770405921921
1.176770665527771
1.176770454819549
1.176769583153779
1.176767359422487
1.176763048870343
1.17675584260949
1.176744921106001
1.176729491132842
1.176708835856025
1.176682364234477
1.176649656730562
1.176610509531428
1.176564968754725
1.176513333240364
1.176456122760773
1.176394048918049
1.176328056132718
1.176259560407108
1.176191205204419
1.176128580089615
1.176081703719919
1.176059150249879
1.176054503635642
1.176054380153664
1.176054588435969
1.176055578771012
1.17605792912132
1.176062390914503
1.176069726968212
1.176080702871768
1.176096043217321
1.176116392536959
1.17614226744778
1.176174011121661
1.1762117633864
1.176255447158686
1.176304765899284
1.176359221466303
1.176418159268367
1.176480791118588
1.176546059601264
1.17661210561463
1.176674967584009
1.176726690767776
1.176757172868914
1.176766355721404
1.176767123448897
1.176766978354194
1.17676637649978
1.176764629353812
1.176761073943414
1.176754940551634
1.176745447298942
1.176731822583835
1.17671334713593
1.176689393438287
1.176659466495801
1.176623245642028
1.176580618971426
1.17653169722072
1.176476807901973
1.176416491864422
1.176351543608699
1.176283198084427
1.176213743723659
1.176148028049391
1.176095364960859
1.176066225065699
1.176058425984756
1.176057919419879
1.176058041461015
1.176058754767494
1.176060614754096
1.176064327548987
1.176070620393753
1.176080233500932
1.176093878870654
1.176112205885723
1.176135760655639
1.176164948324757
1.176200005677378
1.176240981823587
1.176287725933886
1.176339893659235
1.176396975359641
1.176458304925867
1.176522952650326
1.176589324102828
1.176654112950211
1.176710411266241
1.176747729361579
1.176761809490432
1.176763659154613
1.176763594148834
1.176763195874144
1.176761857670746
1.176758963816614
1.17675378108307
1.176745560914315
1.176733552440368
1.176717038418413
1.176695369214427
1.176667999417018
1.17663452437112
1.176594712211585
1.17654852659294
1.17649613881998
1.176437936790005
1.176374559834573
1.176307046783174
1.176237320828849
1.176169433908965
1.176111590318976
1.176075156229809
1.176062710629573
1.176061348750911
1.176061411910368
1.176061893364698
1.176063330965673
1.176066379898653
1.176071741024641
1.176080130681004
1.176092247550799
1.17610874015986
1.176130174088376
1.176157000445694
1.176189527901193
1.176227900287016
1.176272083385254
1.176321865094449
1.176376865367014
1.17643653322777
1.17650007225184
1.176566150594465
1.176632072344794
1.176692043573886
1.176736001397648
1.176756232167843
1.176760087734136
1.176760169192241
1.176759929282207
1.176758956887451
1.176756660340849
1.176752348675817
1.176745294505449
1.176734763436166
1.176720043229743
1.176700470797946
1.176675463952682
1.176644558094207
1.176607437532485
1.176563955119676
1.176514149963107
1.176458273742603
1.176396829962985
1.176330677343129
1.176261388659095
1.176192252881524
1.176130197405514
1.176086444276317
1.176067846153741
1.176064757601036
1.176064704834871
1.176065030233185
1.17606609890905
1.176068566070766
1.176073089660161
1.176080368681071
1.176091089593134
1.176105900850077
1.176125381128016
1.176150013060712
1.17618016008369
1.176216042038336
1.176257715287051
1.176305069309061
1.176357834505066
1.176415572704445
1.17647761204563
1.176542840478654
1.176609098205462
1.176671720791301
1.176721737904516
1.176749202432208
1.17675644901432
1.176756904447557
1.176756790095337
1.176756093465806
1.176754302708977
1.17675074014244
1.17674471219913
1.176735501207848
1.17672240165904
1.176704744878899
1.176681927267876
1.176653439623537
1.176618896028863
1.176578060465018
1.176530870381144
1.176477459431216
1.176418192108852
1.176353755136657
1.176285432937942
1.176215866536822
1.176150712860568
1.176100266014322
1.176074406950427
1.176068378963074
1.176068093316839
1.176068261573183
1.176069024964217
1.176070959542529
1.176074710059515
1.176080956581087
1.176090377617584
1.176103621340527
1.176121279110864
1.17614385997934
1.176171766742129
1.176205274692809
1.17624451521643
1.17628946595126
1.176339945798552
1.176395605713728
1.176455888178847
1.176519877595554
1.176585841072007
1.176650073652696
1.176705006064159
1.176739980808566
1.176752210397431
1.176753619955051
1.176753571894942
1.176753157167238
1.176751897160005
1.17674920431735
1.176744453594797
1.176737014681054
1.176726287973869
1.176711741930989
1.176692953610803
1.176669653539356
1.176641775957987
1.176609518930587
1.17657343273125
1.176534593936282
1.176494999283963
1.1764583153637
1.176430316851763
1.176415832168743
1.176412067348065
1.176411723739699
1.176411716199327
1.176411716172171
1.17641171617216
1.17641171617216
1.17641171617216
1.176411716172161
1.176411716172161
1.176411716172161
1.176411716172162
1.176411716172162
1.176411716172162
1.176411716172162
1.176411716172162
1.176411716172162
1.176411716172162
1.176411716172162
1.176411716172161
1.17641171617216
1.176411716172159
1.176411716172157
1.176411716172156
1.176411716172155
1.176411716172153
1.176411716172153
1.176411716172152
1.176411716172152
1.17641171617215
1.176411716172148
1.176411716172145
1.176411716172143
1.176411716172141
1.176411716172139
1.176411716172136
1.176411716172134
1.176411716172133
1.176411716172131
1.176411716172129
1.176411716172127
1.176411716172125
1.176411716172123
1.176411716172121
1.176411716172119
1.176411716172118
1.176411716172116
1.176411716172113
1.176411716172109
1.176411716172107
1.176411716172104
1.176411716172103
1.176411716172101
1.176411716172099
1.176411716172097
1.176411716172096
1.176411716172094
1.176411716172093
1.176411716172091
1.17641171617209
1.176411716172089
1.176411716172088
1.176411716172087
1.176411716172088
1.176411716172087
1.176411716172086
1.176411716172084
1.176411716172082
1.17641171617208
1.176411716172078
1.176411716172076
1.176411716172072
1.17641171617207
1.176411716172068
1.176411716172066
1.176411716172064
1.176411716172063
1.176411716172062
1.176411716172061
1.17641171617206
1.176411716172058
1.176411716172057
1.176411716172056
1.176411716172056
1.176411716172054
1.176411716172054
1.176411716172053
1.176411716172051
1.176411716172049
1.176411716172045
1.176411716172043
1.17641171617204
1.176411716172039
1.176411716172037
1.176411716172035
1.176411716172032
1.17641171617203
1.176411716172028
1.176411716172026
1.176411716172024
1.176411716172022
1.17641171617202
1.176411716172017
1.176411716172014
1.176411716172011
1.176411716172009
1.176411716172007
1.176411716172005
1.176411716172003
1.176411716172
1.176411716171999
1.176411716171998
1.176411716171997
1.176411716171996
1.176411716171995
1.176411716171996
1.176411716171996
1.176411716171996
1.176411716171996
1.176411716171997
1.176411716171999
1.176411716172
1.176411716172002
1.176411716172003
1.176411716172003
1.176411716172003
1.176411716172003
1.176411716172004
1.176411716172005
1.176411716172006
1.176411716172007
1.176411716172008
1.17641171617201
1.17641171617201
1.176411716172011
1.176411716172012
1.176411716172013
1.176411716172014
1.176411716172015
1.176411716172016
1.176411716172016
1.176411716172018
1.176411716172018
1.17641171617202
1.176411716172021
1.176411716172022
1.176411716172022
1.176411716172021
1.176411716172021
1.176411716172022
1.176411716172024
1.176411716172025
1.176411716172027
1.176411716172028
1.176411716172029
1.17641171617203
1.176411716172029
1.17641171617203
1.17641171617203
1.176411716172031
1.176411716172031
1.176411716172032
1.176411716172032
1.176411716172033
1.176411716172032
1.176411716172032
1.176411716172032
1.176411716172033
1.176411716172034
1.176411716172034
1.176411716172035
1.176411716172036
1.176411716172036
1.176411716172037
1.176411716172038
1.176411716172039
1.17641171617204
1.176411716172041
1.176411716172041
1.176411716172041
1.176411716172041
1.176411716172041
1.176411716172041
1.17641171617204
1.176411716172039
1.176411716172038
1.176411716172038
1.176411716172038
1.176411716172038
1.176411716172038
1.176411716172039
1.176411716172041
1.176411716172041
1.176411716172042
1.176411716172041
1.176411716172042
1.176411716172042
1.176411716172043
1.176411716172042
1.176411716172042
1.176411716172043
1.176411716172043
1.176411716172043
1.176411716172043
1.176411716172043
1.176411716172044
1.176411716172044
1.176411716172044
1.176411716172044
1.176411716172044
1.176411716172044
1.176411716172043
1.176411716172043
1.176411716172042
1.176411716172042
1.176411716172043
1.176411716172043
1.176411716172043
1.176411716172043
1.176411716172044
1.176411716172044
1.176411716172044
1.176411716172045
1.176411716172044
1.176411716172044
1.176411716172044
1.176411716172044
1.176411716172044
1.176411716172043
1.176411716172043
1.176411716172044
1.176411716172044
1.176411716172044
1.176411716172044
1.176411716172046
1.176411716172046
1.176411716172046
1.176411716172045
1.176411716172045
1.176411716172045
1.176411716172044
1.176411716172044
1.176411716172044
1.176411716172043
1.176411716172043
1.176411716172043
1.176411716172044
1.176411716172043
1.176411716172043
1.176411716172044
1.176411716172044
1.176411716172044
1.176411716172043
1.176411716172043
1.176411716172043
1.176411716172043
1.176411716172043
1.176411716172043
1.176411716172042
1.176411716172042
1.176411716172042
1.176411716172042
1.176411716172042
1.176411716172042
1.176411716172042
1.176411716172042
1.176411716172042
1.176411716172042
1.176411716172042
1.176411716172042
1.176411716172042
1.176411716172042
1.176411716172042
1.176411716172043
1.176411716172042
1.176411716172042
1.176411716172041
1.176411716172041
1.176411716172041
1.176411716172041
1.176411716172041
1.176411716172041
1.176411716172041
1.176411716172041
1.176411716172041
1.176411716172042
1.176411716172043
1.176411716172043
1.176411716172042
1.176411716172042
1.176411716172042
1.176411716172042
1.176411716172042
1.176411716172042
1.176411716172041
1.176411716172042
1.176411716172042
1.176411716172042
1.176411716172042
1.176411716172042
1.176411716172043
1.176411716172043
1.176411716172043
1.176411716172043
1.176411716172043
1.176411716172043
1.176411716172044
1.176411716172044
1.176411716172044
1.176411716172044
1.176411716172044
1.176411716172044
1.176411716172043
1.176411716172043
1.176411716172043
1.176411716172042
1.176411716172042
1.176411716172042
1.176411716172041
1.176411716172041
1.176411716172041
1.176411716172041
1.176411716172041
1.176411716172041
1.17641171617204
1.17641171617204
1.17641171617204
1.176411716172039
1.176411716172038
1.176411716172038
1.176411716172038
1.176411716172038
1.176411716172037
1.176411716172037
1.176411716172037
1.176411716172037
1.176411716172037
1.176411716172036
1.176411716172037
1.176411716172036
1.176411716172036
1.176411716172036
1.176411716172036
1.176411716172036
1.176411716172036
1.176411716172036
1.176411716172036
1.176411716172036
1.176411716172036
1.176411716172036
1.176411716172036
1.176411716172037
1.176411716172037
1.176411716172037
1.176411716172037
1.176411716172038
1.176411716172038
1.176411716172037
1.176411716172037
1.176411716172036
1.176411716172036
1.176411716172037
1.176411716172037
1.176411716172037
1.176411716172037
1.176411716172037
1.176411716172037
1.176411716172038
1.176411716172038
1.176411716172038
1.176411716172038
1.176411716172038
)
;

boundaryField
{
    inlet
    {
        type            calculated;
        value           uniform 1.176427481426743;
    }
    outlet
    {
        type            calculated;
        value           uniform 1.176411716172034;
    }
    frontAndBack
    {
        type            empty;
    }
}


// ************************************************************************* //
