/*--------------------------------*- C++ -*----------------------------------*\
| =========                 |                                                 |
| \\      /  F ield         | OpenFOAM: The Open Source CFD Toolbox           |
|  \\    /   O peration     | Version:  v2012                                 |
|   \\  /    A nd           | Website:  www.openfoam.com                      |
|    \\/     M anipulation  |                                                 |
\*---------------------------------------------------------------------------*/
FoamFile
{
    version     2.0;
    format      ascii;
    class       volScalarField;
    location    "0.0045";
    object      T;
}
// * * * * * * * * * * * * * * * * * * * * * * * * * * * * * * * * * * * * * //

dimensions      [0 0 0 1 0 0 0];


internalField   nonuniform List<scalar> 
1000
(
300.0101120321507
300.0083915189888
300.0148224245009
300.0197325082733
300.0244831353587
300.0286802703546
300.0325581885853
300.0360615167878
300.0390655139692
300.0410639985508
300.041620203739
300.0416229639738
300.0413080706817
300.040424966711
300.0387447978822
300.0361989636926
300.0328675957834
300.0289075585794
300.0244529067336
300.0195912941403
300.0143902507243
300.0089232512824
300.0032787643769
299.9975600185068
299.9918818375627
299.9863614070962
299.9810998214695
299.9761584656175
299.9715447399488
299.9672474285071
299.9634003409658
299.9605583690699
299.9593559931608
299.9592207408232
299.9592828564071
299.9595127392998
299.9601542181316
299.9614041998516
299.9634366057098
299.9663271530832
299.9700366395303
299.9744315767509
299.9793383715933
299.9845964415268
299.9900819976264
299.9957010466562
300.0013708638848
300.0070074227609
300.0125250987967
300.0178508963896
300.0229485132322
300.0278212367165
300.0324305032854
300.0364739321979
300.0392080283062
300.0401764018249
300.0402513418734
300.0402198338648
300.0400081757851
300.0394818457264
300.0384491039165
300.0367458027853
300.0342518265754
300.0309243152952
300.0268093021351
300.0220314340576
300.0167627059438
300.0111823879988
300.0054459930327
299.9996746626908
299.9939596028725
299.9883653091744
299.9829245113242
299.9776392785662
299.9725169402079
299.9676781803735
299.9635661177091
299.9609947083192
299.9601972612686
299.960145310446
299.9601989882863
299.9603848667656
299.9608676658249
299.9617955276759
299.9633233120415
299.9655742786315
299.9686182823363
299.9724531434307
299.9770013504157
299.9821236893164
299.9876451368428
299.9933856631823
299.9991888664903
300.0049414226769
300.0105787785961
300.016079149866
300.0214489643853
300.0266843383405
300.0316593875123
300.0359065690616
300.0385790443501
300.0394218550828
300.0394774504967
300.039451660125
300.0392891378428
300.0388843441467
300.0380881999251
300.0367591379319
300.0347698103315
300.0320294484549
300.0285013564009
300.0242155021079
300.0192697398537
300.0138158024706
300.0080329882073
300.0020979653207
299.9961576405539
299.9903085553844
299.9845889627524
299.9789966186436
299.9735506383918
299.9684256951256
299.9641637141005
299.9616189159324
299.9608798226811
299.9608349711168
299.9608761426819
299.9610243648617
299.9614101383027
299.9621560021316
299.9633954589173
299.9652482307422
299.9678057567172
299.9711146214414
299.9751651901744
299.9798878750573
299.9851586693297
299.990815790059
299.9966869528869
300.0026201657727
300.0085068355518
300.0142897147294
300.0199514763068
300.0254681902847
300.0306871074064
300.0351101527344
300.037885247616
300.0387812794248
300.0388518390129
300.0388339485639
300.0387092887386
300.0383912365881
300.0377536455261
300.0366727125115
300.0350283188629
300.0327201263207
300.0296813128075
300.0258922107889
300.0213892972473
300.0162649781112
300.0106567045435
300.004727314787
299.9986389700211
299.9925247991914
299.9864694911707
299.980517538635
299.974730988328
299.969324900867
299.9648751270177
299.9622365895971
299.9614613873799
299.9614095803548
299.961440641498
299.961558042944
299.9618713473883
299.9624854974701
299.9635180748966
299.9650807534755
299.9672689459824
299.9701486843576
299.9737456283023
299.9780373991402
299.9829510478116
299.988369006719
299.9941457104945
300.000131534721
300.006196316886
300.0122451436004
300.0182176916898
300.0240500724123
300.0295585947206
300.0342302355572
300.0372063918547
300.0382190279937
300.0383150580907
300.0383040558117
300.038209474002
300.0379575494409
300.0374384769308
300.036542874292
300.035159883711
300.033189261516
300.0305518015605
300.027201257
300.02313444507
300.0183959534563
300.0130757740765
300.0072997722783
300.0012122694628
299.9949520021074
299.9886311039932
299.9823363102851
299.9761776435511
299.9704177543557
299.9656761576524
299.9628403860619
299.9619763329051
299.9619089490969
299.9619324163335
299.9620247643247
299.9622806798797
299.96279202061
299.9636641003482
299.9650002563395
299.9668942483151
299.9694200193906
299.9726225508647
299.9765098738904
299.9810475653694
299.9861590915771
299.9917346841977
299.9976470908094
300.003769604828
300.0099918604911
300.0162245550066
300.0223693100967
300.0282113838931
300.0332174380182
300.0364995010085
300.0377008112821
300.037840658679
300.0378353500317
300.037763398409
300.0375637297169
300.037138402672
300.0363894978772
300.0352145968487
300.0335167588203
300.0312124226583
300.028241113448
300.0245745250322
300.0202225838632
300.0152352920503
300.0096996502721
300.003729686057
299.9974492750881
299.9909751850563
299.9844170779992
299.9779191640504
299.971779950741
299.9666535550117
299.963488261201
299.9624521797044
299.9623542963967
299.962371229075
299.962442389819
299.9626516163918
299.9630803167749
299.963823425395
299.9649760661908
299.966628280014
299.96885693028
299.9717180652622
299.975239380756
299.9794139755454
299.9841982332344
299.9895159408527
299.9952676852759
300.0013431522714
300.0076339341264
300.0140389038692
300.020439350135
300.0266034282466
300.0319947946771
300.0356957826872
300.0371924216532
300.0374101007719
300.0374101599491
300.0373572160692
300.0371998378187
300.0368505991103
300.0362211006226
300.0352168195572
300.0337452606051
300.0317220449673
300.0290789427521
300.0257716464831
300.021785725383
300.017140257146
300.0118884402943
300.0061127617175
299.9999138098619
299.993398627317
299.9866821288874
299.9799230502717
299.973431652218
299.967868389332
299.9642450833784
299.9629246855969
299.9627664226435
299.9627772479053
299.9628290127559
299.9629972192186
299.9633548190598
299.9639891556101
299.9649882673683
299.9664377303765
299.9684142586393
299.9709795853959
299.9741738569318
299.9780096134534
299.9824686291757
299.9875030539428
299.9930402697833
299.9989905792493
300.005256699471
300.0117382274211
300.0183109638504
300.0247447073746
300.0305263742661
300.0347320831507
300.0366488969785
300.0370041608745
300.0370118534552
300.0369758096835
300.0368549636723
300.0365707704701
300.0360424952871
300.0351821906362
300.0339020648112
300.0321190390848
300.0297612341624
300.0267743275789
300.0231269346099
300.0188149891232
300.013864354435
300.0083292040645
300.0022854006704
299.9958236852958
299.989052794935
299.9821296893482
299.9753526244517
299.9693521008365
299.9651717405083
299.9634305231158
299.9631572839191
299.9631612075191
299.9631957371805
299.9633281675008
299.9636232997171
299.9641628153185
299.9650290749655
299.9663036399763
299.9680620182269
299.9703686442734
299.973271303977
299.9767959314666
299.9809432124468
299.9856878054935
299.9909801844384
299.9967512558025
300.0029189905105
300.0093911391044
300.0160481892875
300.0226762166781
300.0288099144506
300.0335597809048
300.0360219981707
300.0366038235859
300.036630313229
300.0366088136359
300.0365198718198
300.0362929687454
300.0358531314237
300.0351178212157
300.0340034108302
300.032428953598
300.0303212926539
300.0276201002914
300.0242825414239
300.0202877860597
300.0156405010986
300.0103711379294
300.0045326921024
299.9981977376555
299.9914626150681
299.9844718058658
299.9774950926351
299.971103003596
299.9663182297202
299.964016100412
299.9635417974743
299.9635291932587
299.9635504538871
299.9636515420149
299.9638914525128
299.9643468861458
299.9650957049607
299.9662160516446
299.9677818806684
299.9698589697017
299.9725000338301
299.975740077655
299.9795933438002
299.9840519294628
299.9890855290525
299.9946432596395
300.0006582730146
300.0070500917249
300.0137107713316
300.0204505711524
300.0268652332548
300.0321430898402
300.0352534228382
300.0361904123102
300.0362687488707
300.0362539439682
300.0361925325706
300.0360142584849
300.0356514732389
300.0350256354901
300.0340569609693
300.03266671111
300.0307814826764
300.028337228987
300.0252834188124
300.0215873019168
300.0172374231173
300.0122450404729
300.0066435293671
300.0004880353767
299.9938595932307
299.9868841975764
299.9797953821184
299.9730879162311
299.9677125278854
299.9647381106783
299.9639420213963
299.9638903139515
299.9639027713077
299.9639755815952
299.9641654381364
299.9645444178489
299.9651867517721
299.966167993094
299.9675608123262
299.9694314842602
299.9718357369682
299.9748149037525
299.9783931267714
299.9825753863269
299.9873462505997
299.9926705334587
299.9984961786944
300.0047551638326
300.0113525713331
300.0181256607946
300.0247370234712
300.0304817861243
300.0342896779449
300.0357263748989
300.0359151089144
300.0359084759088
300.0358678369984
300.0357312900136
300.0354360078618
300.0349071726349
300.0340684009961
300.0328430709587
300.031157988003
300.0289468511645
300.0261539878736
300.0227380810716
300.0186754378977
300.0139623099936
300.008616133348
300.0026764439169
299.9962084375699
299.9893180870472
299.9822016381697
299.9752726390979
299.9693685308961
299.9656495946542
299.9643792169185
299.9642402036158
299.9642466505413
299.9642957945048
299.9644425361039
299.9647537523432
299.9653009817659
299.9661573411599
299.9673941428101
299.9690775756924
299.9712653575478
299.974003516136
299.9773235339416
299.9812400623067
299.9857495738612
299.9908303813955
299.9964436547025
300.0025331194956
300.0090174560612
300.0157607136485
300.0224877619588
300.0286073801862
300.0330928196531
300.0351571203739
300.0355505310462
300.0355588427448
300.0355343628427
300.0354351418587
300.0352008072197
300.0347608535218
300.0340410579584
300.0329664807064
300.0314644394116
300.0294672623917
300.0269155271271
300.0237618029309
300.0199738465697
300.0155366059292
300.0104540287788
300.0047517507646
299.9984811048977
299.9917296784467
299.9846579452437
299.9776015654087
299.9712676198787
299.9668016454201
299.9649032605828
299.9645879980959
299.9645826119611
299.964615826561
299.9647249103147
299.9649767425889
299.965438481191
299.966181474099
299.9672757868039
299.9687876023078
299.9707759770114
299.9732901588509
299.9763672230939
299.9800295821152
299.98428295637
299.9891160283167
299.9945012410735
300.0003938323248
300.0067251921154
300.0133817948508
300.0201432090687
300.0265334519418
300.0316372283935
300.0344396618567
300.0351790835317
300.0352255546475
300.0352138863356
300.0351428036767
300.0349600784696
300.0345965609065
300.033981479455
300.0330416013571
300.031704932077
300.0299032317981
300.0275748955972
300.024667944428
300.0211429721695
300.0169758611312
300.0121601879377
300.0067095455087
300.0006610805384
299.9940848248147
299.9871118171004
299.9800115731356
299.9733614754418
299.9682123089952
299.9655727858885
299.9649574833558
299.9649283261749
299.9649455006681
299.965023422719
299.9652208919762
299.9656037199834
299.9662413220346
299.9672029529398
299.9685547680652
299.9703571202424
299.9726619559661
299.9755103705892
299.9789304391732
299.982935542179
299.9875233622262
299.9926753764228
299.9983559189079
300.0045080479833
300.0110382829309
300.0177697498705
300.0243243600299
300.0299297557528
300.0334985457305
300.0347464241962
300.0348902518104
300.0348853478152
300.0348430297788
300.0347144610235
300.0344396881872
300.0339549320553
300.0331958748311
300.0321013303042
300.0306170542858
300.0286998806426
300.0263222991723
300.0234775832089
300.0201859243732
300.0165034546289
300.0125400162528
300.0084993622172
300.0047556749578
300.0018983051951
300.0004200623337
300.0000358395961
300.0000007723058
300.0000000027669
299.9999999999953
299.9999999999943
299.9999999999942
299.9999999999941
299.9999999999943
299.9999999999944
299.9999999999945
299.9999999999945
299.9999999999945
299.9999999999945
299.9999999999945
299.9999999999944
299.9999999999943
299.999999999994
299.999999999994
299.9999999999939
299.9999999999939
299.9999999999939
299.9999999999939
299.9999999999939
299.9999999999939
299.9999999999939
299.9999999999937
299.9999999999936
299.9999999999936
299.9999999999933
299.9999999999933
299.9999999999932
299.9999999999929
299.9999999999926
299.9999999999924
299.9999999999923
299.9999999999922
299.9999999999922
299.9999999999922
299.999999999992
299.9999999999919
299.9999999999917
299.9999999999916
299.9999999999914
299.9999999999908
299.9999999999902
299.9999999999899
299.9999999999897
299.9999999999895
299.9999999999894
299.9999999999891
299.9999999999888
299.9999999999886
299.9999999999883
299.9999999999879
299.9999999999878
299.9999999999877
299.9999999999877
299.9999999999876
299.9999999999876
299.9999999999876
299.9999999999876
299.9999999999876
299.9999999999873
299.9999999999871
299.9999999999869
299.9999999999867
299.9999999999865
299.9999999999865
299.9999999999865
299.9999999999865
299.9999999999863
299.999999999986
299.9999999999857
299.9999999999856
299.9999999999853
299.9999999999849
299.9999999999847
299.9999999999845
299.9999999999844
299.9999999999843
299.9999999999841
299.9999999999841
299.999999999984
299.999999999984
299.9999999999838
299.9999999999835
299.9999999999832
299.9999999999833
299.9999999999833
299.9999999999833
299.9999999999829
299.9999999999824
299.999999999982
299.9999999999819
299.9999999999817
299.9999999999815
299.9999999999812
299.999999999981
299.9999999999808
299.9999999999807
299.9999999999805
299.9999999999803
299.9999999999801
299.99999999998
299.9999999999798
299.9999999999795
299.9999999999791
299.9999999999789
299.9999999999787
299.9999999999787
299.9999999999787
299.9999999999786
299.9999999999785
299.9999999999784
299.9999999999783
299.9999999999782
299.999999999978
299.9999999999779
299.9999999999779
299.9999999999781
299.9999999999783
299.9999999999785
299.9999999999786
299.9999999999787
299.999999999979
299.9999999999793
299.9999999999795
299.9999999999795
299.9999999999797
299.9999999999797
299.9999999999797
299.9999999999797
299.9999999999797
299.9999999999798
299.99999999998
299.9999999999802
299.9999999999803
299.9999999999804
299.9999999999804
299.9999999999805
299.9999999999805
299.9999999999805
299.9999999999804
299.9999999999804
299.9999999999806
299.9999999999808
299.999999999981
299.9999999999813
299.9999999999814
299.9999999999814
299.9999999999814
299.9999999999815
299.9999999999816
299.9999999999818
299.9999999999819
299.9999999999819
299.9999999999821
299.9999999999822
299.999999999982
299.9999999999819
299.9999999999819
299.9999999999816
299.9999999999816
299.9999999999818
299.9999999999818
299.9999999999819
299.9999999999819
299.9999999999819
299.9999999999819
299.9999999999819
299.9999999999819
299.9999999999821
299.9999999999822
299.9999999999821
299.9999999999822
299.9999999999822
299.9999999999823
299.9999999999823
299.9999999999824
299.9999999999824
299.9999999999824
299.9999999999824
299.9999999999824
299.9999999999827
299.9999999999828
299.9999999999827
299.9999999999827
299.9999999999827
299.9999999999827
299.9999999999826
299.9999999999825
299.9999999999825
299.9999999999825
299.9999999999826
299.9999999999827
299.9999999999825
299.9999999999825
299.9999999999825
299.9999999999827
299.9999999999827
299.9999999999827
299.9999999999827
299.9999999999827
299.9999999999827
299.9999999999828
299.9999999999828
299.9999999999828
299.9999999999828
299.9999999999828
299.9999999999829
299.999999999983
299.9999999999831
299.9999999999832
299.9999999999832
299.9999999999832
299.9999999999832
299.9999999999832
299.9999999999831
299.9999999999829
299.9999999999829
299.9999999999828
299.9999999999828
299.9999999999828
299.9999999999828
299.9999999999828
299.9999999999828
299.9999999999828
299.9999999999831
299.9999999999832
299.9999999999832
299.9999999999832
299.9999999999832
299.9999999999831
299.999999999983
299.9999999999829
299.9999999999828
299.9999999999828
299.9999999999828
299.9999999999828
299.9999999999828
299.9999999999827
299.9999999999827
299.9999999999826
299.9999999999825
299.9999999999825
299.9999999999826
299.9999999999827
299.9999999999827
299.9999999999827
299.9999999999827
299.9999999999827
299.9999999999827
299.9999999999827
299.9999999999827
299.9999999999827
299.9999999999827
299.9999999999827
299.9999999999826
299.9999999999827
299.9999999999827
299.9999999999826
299.9999999999825
299.9999999999826
299.9999999999825
299.9999999999827
299.9999999999827
299.9999999999827
299.9999999999827
299.9999999999826
299.9999999999826
299.9999999999826
299.9999999999825
299.9999999999825
299.9999999999825
299.9999999999826
299.9999999999825
299.9999999999826
299.9999999999826
299.9999999999825
299.9999999999825
299.9999999999825
299.9999999999824
299.9999999999824
299.9999999999825
299.9999999999825
299.9999999999825
299.9999999999826
299.9999999999825
299.9999999999826
299.9999999999827
299.9999999999826
299.9999999999827
299.9999999999827
299.9999999999827
299.9999999999827
299.9999999999827
299.9999999999827
299.9999999999827
299.9999999999827
299.9999999999827
299.9999999999826
299.9999999999827
299.9999999999827
299.9999999999827
299.9999999999827
299.9999999999828
299.9999999999829
299.9999999999828
299.9999999999828
299.9999999999828
299.9999999999829
299.9999999999827
299.9999999999826
299.9999999999825
299.9999999999824
299.9999999999824
299.9999999999824
299.9999999999825
299.9999999999825
299.9999999999825
299.9999999999825
299.9999999999825
299.9999999999825
299.9999999999824
299.9999999999824
299.9999999999823
299.9999999999823
299.9999999999822
299.9999999999821
299.9999999999822
299.9999999999822
299.9999999999823
299.9999999999822
299.9999999999822
299.9999999999822
299.9999999999823
299.9999999999821
299.9999999999821
299.9999999999821
299.999999999982
299.999999999982
299.999999999982
299.999999999982
299.999999999982
299.999999999982
299.999999999982
299.999999999982
299.9999999999821
299.9999999999822
299.9999999999821
299.9999999999823
299.9999999999823
299.9999999999823
299.9999999999823
299.9999999999823
299.9999999999823
299.9999999999824
299.9999999999825
299.9999999999825
299.9999999999824
299.9999999999823
299.9999999999822
299.9999999999822
299.9999999999823
299.9999999999822
299.9999999999821
299.999999999982
299.9999999999819
299.9999999999818
299.9999999999818
299.9999999999818
)
;

boundaryField
{
    inlet
    {
        type            fixedValue;
        value           uniform 300;
    }
    outlet
    {
        type            temperatureOutletNSCBC;
        pInf            101325;
        gamma           1.4;
        etaAc           1;
        fieldInf        1;
        lInf            2.25;
        value           uniform 299.9999999999829;
    }
    frontAndBack
    {
        type            empty;
    }
}


// ************************************************************************* //
