/*--------------------------------*- C++ -*----------------------------------*\
| =========                 |                                                 |
| \\      /  F ield         | OpenFOAM: The Open Source CFD Toolbox           |
|  \\    /   O peration     | Version:  v2012                                 |
|   \\  /    A nd           | Website:  www.openfoam.com                      |
|    \\/     M anipulation  |                                                 |
\*---------------------------------------------------------------------------*/
FoamFile
{
    version     2.0;
    format      ascii;
    class       volVectorField;
    location    "0.0045";
    object      U;
}
// * * * * * * * * * * * * * * * * * * * * * * * * * * * * * * * * * * * * * //

dimensions      [0 1 -1 0 0 0 0];


internalField   nonuniform List<vector> 
1000
(
(0.002906305671238335 0 0)
(0.03441319718652779 0 0)
(0.04254663972913384 0 0)
(0.05763160252013372 0 0)
(0.07148894065348627 0 0)
(0.08447624207843676 0 0)
(0.09560832392250593 0 0)
(0.1051101568884297 0 0)
(0.1131874386381397 0 0)
(0.1186071332191836 0 0)
(0.1200607618424207 0 0)
(0.1199214080146433 0 0)
(0.1191232172842724 0 0)
(0.1166427485924578 0 0)
(0.1118515143738112 0 0)
(0.1045370665870256 0 0)
(0.09496901241864743 0 0)
(0.08358637444933402 0 0)
(0.07075979544676292 0 0)
(0.05673555119658496 0 0)
(0.04170384521073175 0 0)
(0.0258790755321161 0 0)
(0.00953311388808958 0 0)
(-0.007020847595133933 0 0)
(-0.02345784174338756 0 0)
(-0.03945265325223642 0 0)
(-0.05469890075869988 0 0)
(-0.06898927148322745 0 0)
(-0.08231110071352141 0 0)
(-0.09474518875673259 0 0)
(-0.1059085102148119 0 0)
(-0.1141273386865382 0 0)
(-0.1175520957330702 0 0)
(-0.1179130832997943 0 0)
(-0.1178184983848614 0 0)
(-0.1170951533262128 0 0)
(-0.1152593648985372 0 0)
(-0.1116426076816145 0 0)
(-0.1057640617165435 0 0)
(-0.09740354565033585 0 0)
(-0.08667630675418733 0 0)
(-0.0739644263831867 0 0)
(-0.05976768157835128 0 0)
(-0.04455594727588375 0 0)
(-0.02869230348438991 0 0)
(-0.01244220686715965 0 0)
(0.0039638330627652 0 0)
(0.02027501068590123 0 0)
(0.03622824539471562 0 0)
(0.05161983035895989 0 0)
(0.0663702391411512 0 0)
(0.08048551322146652 0 0)
(0.09381447525294602 0 0)
(0.1054771569786254 0 0)
(0.1133788856040584 0 0)
(0.116217233332974 0 0)
(0.1164575939495741 0 0)
(0.1162982463768381 0 0)
(0.115729044591811 0 0)
(0.1141936444610327 0 0)
(0.1112086016831181 0 0)
(0.1062828758714125 0 0)
(0.09906995725150551 0 0)
(0.0894438539458986 0 0)
(0.07754077232204384 0 0)
(0.06372371639558244 0 0)
(0.04848615846098105 0 0)
(0.03234205003055012 0 0)
(0.01574597445353471 0 0)
(-0.000943585010417847 0 0)
(-0.01746779498576467 0 0)
(-0.03365388107920959 0 0)
(-0.04940367774596155 0 0)
(-0.06468889409643272 0 0)
(-0.07948688919761103 0 0)
(-0.09348216727402095 0 0)
(-0.1054037346929113 0 0)
(-0.112853903900707 0 0)
(-0.1151308328456632 0 0)
(-0.1152534015929407 0 0)
(-0.1151567019383982 0 0)
(-0.1145857602085093 0 0)
(-0.1131988474927482 0 0)
(-0.1105134387979189 0 0)
(-0.106093308825345 0 0)
(-0.09958151527299136 0 0)
(-0.09077758128615718 0 0)
(-0.07968527124688538 0 0)
(-0.0665269044630655 0 0)
(-0.05170861067438152 0 0)
(-0.03574010026576922 0 0)
(-0.01913785443076209 0 0)
(-0.002348238693191308 0 0)
(0.01429605347739659 0 0)
(0.03059780621849982 0 0)
(0.0464985175974623 0 0)
(0.06203428678988777 0 0)
(0.07719192942619553 0 0)
(0.09158009988729775 0 0)
(0.1038426572820739 0 0)
(0.1115673671636693 0 0)
(0.1140304818975964 0 0)
(0.114207688893963 0 0)
(0.1140874668963299 0 0)
(0.1136455747880279 0 0)
(0.1124662898949021 0 0)
(0.110164787723145 0 0)
(0.1063212538557001 0 0)
(0.1005678937086085 0 0)
(0.09264058539114331 0 0)
(0.08243531953825156 0 0)
(0.0700406955643935 0 0)
(0.05573686702233956 0 0)
(0.03995931356524817 0 0)
(0.02323012719334394 0 0)
(0.006066079737286702 0 0)
(-0.01111169675595802 0 0)
(-0.02803373364958241 0 0)
(-0.044586431582943 0 0)
(-0.06076030683183244 0 0)
(-0.07649996271888471 0 0)
(-0.09132437191095735 0 0)
(-0.1036720152594672 0 0)
(-0.1110407481183305 0 0)
(-0.1131571284703536 0 0)
(-0.1132685961531231 0 0)
(-0.1131904842347262 0 0)
(-0.1127380066381896 0 0)
(-0.1116291161885982 0 0)
(-0.1094705399993329 0 0)
(-0.1058845632074946 0 0)
(-0.1005247683342793 0 0)
(-0.09312781166321095 0 0)
(-0.08355678388377687 0 0)
(-0.07183818726005332 0 0)
(-0.05817632319353615 0 0)
(-0.04293242039348744 0 0)
(-0.02657056050957058 0 0)
(-0.009584629536378481 0 0)
(0.007580910252998331 0 0)
(0.02460397917228011 0 0)
(0.04132409733914184 0 0)
(0.05770481400011349 0 0)
(0.07367293305054436 0 0)
(0.08876474904265545 0 0)
(0.1015403139749641 0 0)
(0.1095656408598627 0 0)
(0.1121775812635258 0 0)
(0.1123932421276212 0 0)
(0.1123038407172082 0 0)
(0.1119678676112382 0 0)
(0.1110403028408385 0 0)
(0.1091973487038824 0 0)
(0.1060713066331995 0 0)
(0.1013155230331766 0 0)
(0.09463849158616287 0 0)
(0.08584860849048469 0 0)
(0.07489042220927869 0 0)
(0.0618671264330713 0 0)
(0.04704349957845204 0 0)
(0.03082003039192844 0 0)
(0.0136719023673145 0 0)
(-0.003935354437444663 0 0)
(-0.02162386628300699 0 0)
(-0.03914526772668055 0 0)
(-0.05635890974597848 0 0)
(-0.07308718280908048 0 0)
(-0.08872654403496942 0 0)
(-0.1016131259802713 0 0)
(-0.1092487385079325 0 0)
(-0.1114742502306162 0 0)
(-0.1116125078911904 0 0)
(-0.1115539262044671 0 0)
(-0.1111950870154051 0 0)
(-0.1102946992168555 0 0)
(-0.1085171766584547 0 0)
(-0.1055297963222162 0 0)
(-0.1010093361212963 0 0)
(-0.09468049507238321 0 0)
(-0.08635049105358719 0 0)
(-0.07594438179018688 0 0)
(-0.06352946019786021 0 0)
(-0.04931820621165026 0 0)
(-0.033647206547612 0 0)
(-0.0169347697804101 0 0)
(0.0003815709311111813 0 0)
(0.0179199727331962 0 0)
(0.03541168509235824 0 0)
(0.05269197432498403 0 0)
(0.06956984704832075 0 0)
(0.0854974038195415 0 0)
(0.09899607689108737 0 0)
(0.107606997881029 0 0)
(0.1105519792718151 0 0)
(0.1108358480865598 0 0)
(0.1107734823319355 0 0)
(0.1105219642738542 0 0)
(0.1097860509305816 0 0)
(0.1082859441271146 0 0)
(0.1056958649093309 0 0)
(0.101696036968557 0 0)
(0.09599549219895338 0 0)
(0.08836665933292762 0 0)
(0.07867680992313007 0 0)
(0.0669146083546084 0 0)
(0.05320718275806122 0 0)
(0.03781762748199043 0 0)
(0.0211131159953111 0 0)
(0.003507443600259877 0 0)
(-0.01460365788802607 0 0)
(-0.0328917478245386 0 0)
(-0.05109647076604909 0 0)
(-0.06890327576973976 0 0)
(-0.08556757709798697 0 0)
(-0.09929557685013475 0 0)
(-0.1074987179755275 0 0)
(-0.1099840643093903 0 0)
(-0.1101714446986043 0 0)
(-0.1101296562381358 0 0)
(-0.1098451912279647 0 0)
(-0.1091105365847101 0 0)
(-0.107630335917017 0 0)
(-0.1051072718809528 0 0)
(-0.1012421985794714 0 0)
(-0.09576431251362301 0 0)
(-0.08845801911780991 0 0)
(-0.07919290318212295 0 0)
(-0.06794820688493391 0 0)
(-0.05482429874326916 0 0)
(-0.04003907683193055 0 0)
(-0.02390836362583228 0 0)
(-0.006805230836074775 0 0)
(0.01090009368254479 0 0)
(0.02889497207445304 0 0)
(0.04692841477435344 0 0)
(0.06470769136071459 0 0)
(0.08159844496063078 0 0)
(0.09606722028083509 0 0)
(0.1055656098921711 0 0)
(0.1090534889071491 0 0)
(0.1094615842187224 0 0)
(0.1094180496319002 0 0)
(0.1092322503438265 0 0)
(0.1086469175045349 0 0)
(0.1074182458579602 0 0)
(0.1052523349895804 0 0)
(0.1018542639850635 0 0)
(0.09694283373027837 0 0)
(0.09027770067870122 0 0)
(0.08168458570002028 0 0)
(0.0710797124742967 0 0)
(0.0584905861016421 0 0)
(0.04406444414269971 0 0)
(0.02805505787498194 0 0)
(0.01078860285339947 0 0)
(-0.007380674629171638 0 0)
(-0.02611048408809007 0 0)
(-0.04507638104882127 0 0)
(-0.06386635321392024 0 0)
(-0.08162916975934294 0 0)
(-0.09646792619179899 0 0)
(-0.1056216864280293 0 0)
(-0.1086070378617424 0 0)
(-0.1088855571539827 0 0)
(-0.1088594955382798 0 0)
(-0.108637022632357 0 0)
(-0.1080374399975359 0 0)
(-0.106796165041647 0 0)
(-0.1046463225523165 0 0)
(-0.1013121969989788 0 0)
(-0.09653349456810378 0 0)
(-0.09008651630884214 0 0)
(-0.08180924029109504 0 0)
(-0.07162353971465608 0 0)
(-0.05954947474811664 0 0)
(-0.04571033411941476 0 0)
(-0.0303260712582391 0 0)
(-0.01368857515476881 0 0)
(0.003881352011341808 0 0)
(0.02207624434085211 0 0)
(0.04060758559818456 0 0)
(0.05912362785096964 0 0)
(0.07694568967259612 0 0)
(0.0925331155927063 0 0)
(0.103244262078146 0 0)
(0.1075821555598479 0 0)
(0.1082132713541228 0 0)
(0.108189939102151 0 0)
(0.1080574485292321 0 0)
(0.1075944627096074 0 0)
(0.1065860335245546 0 0)
(0.1047654293073448 0 0)
(0.1018607268285986 0 0)
(0.0976038329046634 0 0)
(0.09175200570047851 0 0)
(0.0841081206408313 0 0)
(0.07454215096727614 0 0)
(0.06301180179487702 0 0)
(0.04957493430361525 0 0)
(0.03438655592756736 0 0)
(0.01768128323089316 0 0)
(-0.0002525165495709573 0 0)
(-0.01909979529479476 0 0)
(-0.03852304999281454 0 0)
(-0.05807028015439965 0 0)
(-0.07685350098694821 0 0)
(-0.09295366615535175 0 0)
(-0.1034295160522054 0 0)
(-0.1072392883970839 0 0)
(-0.1076949316877089 0 0)
(-0.1076855160366216 0 0)
(-0.1075178363333239 0 0)
(-0.1070377597582899 0 0)
(-0.1060018233313484 0 0)
(-0.1041668155720263 0 0)
(-0.1012768716814152 0 0)
(-0.09708445510057047 0 0)
(-0.09136666341210897 0 0)
(-0.08394536851567821 0 0)
(-0.07470589242118515 0 0)
(-0.06361148209681863 0 0)
(-0.05071269436419754 0 0)
(-0.03614843449066347 0 0)
(-0.02013219612883007 0 0)
(-0.002923423292955793 0 0)
(0.01520163912793752 0 0)
(0.0339536264274388 0 0)
(0.05296561184673782 0 0)
(0.07156837951570989 0 0)
(0.08828835303410217 0 0)
(0.1004596597318959 0 0)
(0.1060106156412286 0 0)
(0.1070335084601451 0 0)
(0.1070407872890359 0 0)
(0.1069545912656117 0 0)
(0.106596981929957 0 0)
(0.1057769591906236 0 0)
(0.104249025796075 0 0)
(0.101760641687172 0 0)
(0.09805753665399457 0 0)
(0.09290061128285643 0 0)
(0.08608177045576504 0 0)
(0.07744220125469109 0 0)
(0.06689123191444518 0 0)
(0.05441959771155881 0 0)
(0.04010219194904228 0 0)
(0.02409183474337292 0 0)
(0.00660704311431555 0 0)
(-0.01208407252369873 0 0)
(-0.03166448965837373 0 0)
(-0.05168836285847856 0 0)
(-0.07129858573842957 0 0)
(-0.0886604976506193 0 0)
(-0.1007462560382843 0 0)
(-0.1057758620528568 0 0)
(-0.1065653841350116 0 0)
(-0.1065756216374161 0 0)
(-0.106455962555282 0 0)
(-0.1060804684111984 0 0)
(-0.1052248551819317 0 0)
(-0.1036643869990059 0 0)
(-0.1011587040855429 0 0)
(-0.09747195440073507 0 0)
(-0.09238524451088609 0 0)
(-0.08571268617540907 0 0)
(-0.07731669087105204 0 0)
(-0.06712160250050583 0 0)
(-0.05512449019980838 0 0)
(-0.04139956695208984 0 0)
(-0.02609171790509599 0 0)
(-0.009399789145809339 0 0)
(0.00844148128705296 0 0)
(0.02716414354315638 0 0)
(0.04641839042483702 0 0)
(0.06558619659123301 0 0)
(0.0833277762333724 0 0)
(0.09707079728628332 0 0)
(0.1041934907224371 0 0)
(0.1058708272764438 0 0)
(0.1059442835968585 0 0)
(0.1058913086497445 0 0)
(0.1056283395074106 0 0)
(0.1049737105283807 0 0)
(0.1037015303856289 0 0)
(0.1015745820032302 0 0)
(0.09835093299326982 0 0)
(0.0937973907027842 0 0)
(0.08770183320160761 0 0)
(0.07988845419427359 0 0)
(0.07023400643035477 0 0)
(0.05868022755931768 0 0)
(0.04523979818941495 0 0)
(0.0299975734217127 0 0)
(0.013107465034804 0 0)
(-0.005215668323346155 0 0)
(-0.02469324625774173 0 0)
(-0.04491500970824509 0 0)
(-0.06510215294520497 0 0)
(-0.0835936055398056 0 0)
(-0.09742666722797241 0 0)
(-0.1040808738086248 0 0)
(-0.1054602376363196 0 0)
(-0.1055078480340558 0 0)
(-0.1054287911186872 0 0)
(-0.1051452636854293 0 0)
(-0.1044487576155232 0 0)
(-0.1031316329451148 0 0)
(-0.1009658412366424 0 0)
(-0.09772516391298637 0 0)
(-0.09319515229139859 0 0)
(-0.08718661065830655 0 0)
(-0.07954775746453846 0 0)
(-0.07017583162818623 0 0)
(-0.05902847302142936 0 0)
(-0.04613074431858323 0 0)
(-0.03157247491713297 0 0)
(-0.01549793155056918 0 0)
(0.001903287335903641 0 0)
(0.02039458769721203 0 0)
(0.03965707497079587 0 0)
(0.0591461866831807 0 0)
(0.07770352733336074 0 0)
(0.09297765418348458 0 0)
(0.1019720096759009 0 0)
(0.1046719381388982 0 0)
(0.1048944328764943 0 0)
(0.1048710278488017 0 0)
(0.1046796584861429 0 0)
(0.1041684084637229 0 0)
(0.1031183281602684 0 0)
(0.1013081502741114 0 0)
(0.09850625340209962 0 0)
(0.09448543675772052 0 0)
(0.08903286278475683 0 0)
(0.08196274299817788 0 0)
(0.07312960827988825 0 0)
(0.06243956825526119 0 0)
(0.04985847482435048 0 0)
(0.03541739468370498 0 0)
(0.01921409544486453 0 0)
(0.001410497039114634 0 0)
(-0.01776055211220844 0 0)
(-0.03793873337797241 0 0)
(-0.0584471543271819 0 0)
(-0.07784827440948328 0 0)
(-0.09339247844827486 0 0)
(-0.1019962840224967 0 0)
(-0.1043049057056915 0 0)
(-0.1044576621561854 0 0)
(-0.1044111323091747 0 0)
(-0.104207336378758 0 0)
(-0.1036559298949908 0 0)
(-0.1025600553699434 0 0)
(-0.1007022110149849 0 0)
(-0.09786375643023948 0 0)
(-0.0938343406825244 0 0)
(-0.08842315276588254 0 0)
(-0.08146911323836566 0 0)
(-0.07285137709917623 0 0)
(-0.06249985424256645 0 0)
(-0.05040210731254628 0 0)
(-0.03660350075658993 0 0)
(-0.02120300492904068 0 0)
(-0.004349688447430208 0 0)
(0.01375557753303631 0 0)
(0.03283500747790295 0 0)
(0.05242340014085125 0 0)
(0.07155080053194494 0 0)
(0.08817152859318918 0 0)
(0.09918115259698435 0 0)
(0.1033302489087769 0 0)
(0.1038749201524873 0 0)
(0.1038713472946877 0 0)
(0.1037406153937994 0 0)
(0.1033503784086069 0 0)
(0.102495259833174 0 0)
(0.1009658481851443 0 0)
(0.098539794975862 0 0)
(0.09499573760732989 0 0)
(0.0901218690965551 0 0)
(0.08372639312289316 0 0)
(0.07564835226860513 0 0)
(0.06576825472143674 0 0)
(0.05401741403400959 0 0)
(0.04038488052798735 0 0)
(0.02492122147267584 0 0)
(0.007740874846338495 0 0)
(-0.01096787878223763 0 0)
(-0.03089879725758923 0 0)
(-0.05148393892240129 0 0)
(-0.07152666914594309 0 0)
(-0.0886049061211651 0 0)
(-0.0993627928782254 0 0)
(-0.1030379827368186 0 0)
(-0.103440202642224 0 0)
(-0.1034206339746279 0 0)
(-0.1032792419622508 0 0)
(-0.1028544532122418 0 0)
(-0.1019542863033124 0 0)
(-0.100371353905142 0 0)
(-0.0978941326266861 0 0)
(-0.09431639504585841 0 0)
(-0.08944683182420357 0 0)
(-0.08311840240682258 0 0)
(-0.07519775962169133 0 0)
(-0.06559397984465502 0 0)
(-0.05426506014075023 0 0)
(-0.04122109856316294 0 0)
(-0.02652430823222723 0 0)
(-0.01028716871928473 0 0)
(0.007326619208696729 0 0)
(0.02608180333032481 0 0)
(0.0455864706598086 0 0)
(0.06504507212036062 0 0)
(0.08274569822143636 0 0)
(0.09571784612288466 0 0)
(0.1016877481263289 0 0)
(0.102826778425394 0 0)
(0.1028529605496505 0 0)
(0.1027788549700846 0 0)
(0.102493649395559 0 0)
(0.1018154503388172 0 0)
(0.1005427388188507 0 0)
(0.09846092631895174 0 0)
(0.09535326206634752 0 0)
(0.09100864726409867 0 0)
(0.08523147189013561 0 0)
(0.07785111099685328 0 0)
(0.06873023976749973 0 0)
(0.05777365284441231 0 0)
(0.04493773971362651 0 0)
(0.03023679800298373 0 0)
(0.01374542966401295 0 0)
(-0.004392329763371479 0 0)
(-0.02392474570505804 0 0)
(-0.04438127770807366 0 0)
(-0.06478745210139614 0 0)
(-0.0831064922178515 0 0)
(-0.09603034846957946 0 0)
(-0.1015276800169387 0 0)
(-0.1024374735038181 0 0)
(-0.1024390581492801 0 0)
(-0.1023577798140196 0 0)
(-0.1020360597966285 0 0)
(-0.1013091977138733 0 0)
(-0.09997341995947294 0 0)
(-0.09782395393976275 0 0)
(-0.09465825960818858 0 0)
(-0.09028545612405116 0 0)
(-0.08453403728614139 0 0)
(-0.07726078329203601 0 0)
(-0.06835942796533588 0 0)
(-0.0577664303492247 0 0)
(-0.04546396643234112 0 0)
(-0.03148269982915957 0 0)
(-0.01590405292720274 0 0)
(0.001138932257628356 0 0)
(0.01944966623332588 0 0)
(0.03870549671030871 0 0)
(0.058267097490196 0 0)
(0.07674890004206608 0 0)
(0.09150413402782315 0 0)
(0.09960925111275976 0 0)
(0.1017557411139855 0 0)
(0.1018947967059989 0 0)
(0.1018467964563511 0 0)
(0.101650107674726 0 0)
(0.1011190046298224 0 0)
(0.1000680934154067 0 0)
(0.09828898757855903 0 0)
(0.09557054918836956 0 0)
(0.09170440136863757 0 0)
(0.08649320199369159 0 0)
(0.07975879534751278 0 0)
(0.07135078386491076 0 0)
(0.06115509836731559 0 0)
(0.04910199598628037 0 0)
(0.03517296182792756 0 0)
(0.01940720888204876 0 0)
(0.00191196910838334 0 0)
(-0.01711018012082619 0 0)
(-0.03727999666152132 0 0)
(-0.05781796390848038 0 0)
(-0.07705430035993019 0 0)
(-0.0919493764044805 0 0)
(-0.09958469228890302 0 0)
(-0.1013642750681429 0 0)
(-0.1014483824407766 0 0)
(-0.1013992741741843 0 0)
(-0.1011735226701443 0 0)
(-0.1006024162021484 0 0)
(-0.09949499632505122 0 0)
(-0.09765059688702143 0 0)
(-0.09486890226113082 0 0)
(-0.09095856435615783 0 0)
(-0.08574495293705346 0 0)
(-0.07907780060868175 0 0)
(-0.07083833351631968 0 0)
(-0.06094539497156506 0 0)
(-0.04936018558976799 0 0)
(-0.03608937812096526 0 0)
(-0.02118677004750844 0 0)
(-0.004755699157011797 0 0)
(0.01303933850342942 0 0)
(0.03192815899369026 0 0)
(0.05139879169747685 0 0)
(0.07035718320492619 0 0)
(0.08656981632527122 0 0)
(0.0968923225138128 0 0)
(0.1005021004334302 0 0)
(0.1009182146676097 0 0)
(0.1009030055649239 0 0)
(0.1007814293058349 0 0)
(0.1004092819580032 0 0)
(0.09961460410166821 0 0)
(0.09821250744887197 0 0)
(0.09601704493818496 0 0)
(0.0928512272401948 0 0)
(0.08855815673257919 0 0)
(0.08301297195672264 0 0)
(0.07613609050903553 0 0)
(0.06790803993838977 0 0)
(0.05838720302353538 0 0)
(0.04773591569724451 0 0)
(0.03627186984158642 0 0)
(0.02458439910715068 0 0)
(0.01375582263727675 0 0)
(0.00549086880060059 0 0)
(0.001215035939169507 0 0)
(0.0001036666597693449 0 0)
(2.233938405903272e-06 0 0)
(8.031782156113883e-09 0 0)
(1.522163142302972e-11 0 0)
(1.220167367357832e-11 0 0)
(1.232351634934924e-11 0 0)
(1.245406207338772e-11 0 0)
(1.279348095589179e-11 0 0)
(1.313289983839535e-11 0 0)
(1.33069608037807e-11 0 0)
(1.354194310705267e-11 0 0)
(1.36028644449387e-11 0 0)
(1.368989492763121e-11 0 0)
(1.380303455513292e-11 0 0)
(1.384654979647793e-11 0 0)
(1.382914369994054e-11 0 0)
(1.395098637571125e-11 0 0)
(1.414245343763407e-11 0 0)
(1.427299916167593e-11 0 0)
(1.473426071994889e-11 0 0)
(1.518681922995375e-11 0 0)
(1.543050458149474e-11 0 0)
(1.557845640207011e-11 0 0)
(1.566548688476581e-11 0 0)
(1.598749967072972e-11 0 0)
(1.620507587746186e-11 0 0)
(1.63182155049641e-11 0 0)
(1.650968256688877e-11 0 0)
(1.659671304958278e-11 0 0)
(1.671855572535235e-11 0 0)
(1.721462947670279e-11 0 0)
(1.795438857959524e-11 0 0)
(1.853749281363951e-11 0 0)
(1.944260983364653e-11 0 0)
(2.01214475986556e-11 0 0)
(2.090472194289271e-11 0 0)
(2.122673472885829e-11 0 0)
(2.164448104578429e-11 0 0)
(2.216666394194155e-11 0 0)
(2.254089501752508e-11 0 0)
(2.287161085175817e-11 0 0)
(2.333287241002979e-11 0 0)
(2.394208578888338e-11 0 0)
(2.42902077196576e-11 0 0)
(2.489071805023869e-11 0 0)
(2.531716741543621e-11 0 0)
(2.59873021321709e-11 0 0)
(2.670095209025602e-11 0 0)
(2.742330509661075e-11 0 0)
(2.809343981334499e-11 0 0)
(2.870265319219881e-11 0 0)
(2.925094523316572e-11 0 0)
(2.97905342258631e-11 0 0)
(3.019087444625274e-11 0 0)
(3.058251161836839e-11 0 0)
(3.086100916299015e-11 0 0)
(3.123524023856935e-11 0 0)
(3.153114387972472e-11 0 0)
(3.166168960377021e-11 0 0)
(3.195759324492119e-11 0 0)
(3.220998164473274e-11 0 0)
(3.247107309281298e-11 0 0)
(3.293233465108393e-11 0 0)
(3.325434743705203e-11 0 0)
(3.385485776763344e-11 0 0)
(3.44292589534087e-11 0 0)
(3.509939367014518e-11 0 0)
(3.573471619380421e-11 0 0)
(3.616116555900341e-11 0 0)
(3.657020882765928e-11 0 0)
(3.70401734342008e-11 0 0)
(3.786696301978923e-11 0 0)
(3.851969163998679e-11 0 0)
(3.924204464634035e-11 0 0)
(3.990347631480833e-11 0 0)
(4.045176835577056e-11 0 0)
(4.075637504520309e-11 0 0)
(4.117412136212752e-11 0 0)
(4.18703652236708e-11 0 0)
(4.214886276829187e-11 0 0)
(4.238384507156343e-11 0 0)
(4.257531213348855e-11 0 0)
(4.268845176098976e-11 0 0)
(4.286251272637314e-11 0 0)
(4.326285294676445e-11 0 0)
(4.383725413254109e-11 0 0)
(4.421148520811597e-11 0 0)
(4.470755895947092e-11 0 0)
(4.542991196582459e-11 0 0)
(4.610004668256207e-11 0 0)
(4.680499359237661e-11 0 0)
(4.752734659872512e-11 0 0)
(4.818007521893018e-11 0 0)
(4.886761603220335e-11 0 0)
(4.95464537972077e-11 0 0)
(4.994679401759983e-11 0 0)
(5.033843118972011e-11 0 0)
(5.074747445837708e-11 0 0)
(5.129576649934273e-11 0 0)
(5.227050790550519e-11 0 0)
(5.323654626339894e-11 0 0)
(5.414166328341204e-11 0 0)
(5.52382473653385e-11 0 0)
(5.626520706112447e-11 0 0)
(5.716162103286222e-11 0 0)
(5.828431425960385e-11 0 0)
(5.907629165211354e-11 0 0)
(5.973772332057457e-11 0 0)
(6.033823365116531e-11 0 0)
(6.071246472674236e-11 0 0)
(6.091263483693489e-11 0 0)
(6.116502323674794e-11 0 0)
(6.134778725040277e-11 0 0)
(6.133038115386794e-11 0 0)
(6.137389639521376e-11 0 0)
(6.122594457462982e-11 0 0)
(6.127816286424746e-11 0 0)
(6.124335067117549e-11 0 0)
(6.10779927540489e-11 0 0)
(6.125205371944143e-11 0 0)
(6.109539885059587e-11 0 0)
(6.088652569213217e-11 0 0)
(6.056451290616614e-11 0 0)
(6.032082755461852e-11 0 0)
(5.994659647904724e-11 0 0)
(5.960717759653967e-11 0 0)
(5.931127395538127e-11 0 0)
(5.887612154192178e-11 0 0)
(5.848448436980057e-11 0 0)
(5.799711366671844e-11 0 0)
(5.777083441171709e-11 0 0)
(5.74401185774806e-11 0 0)
(5.716162103286131e-11 0 0)
(5.69353417778675e-11 0 0)
(5.650018936439052e-11 0 0)
(5.618687962670195e-11 0 0)
(5.589967903381387e-11 0 0)
(5.569950892361962e-11 0 0)
(5.542101137900425e-11 0 0)
(5.514251383437682e-11 0 0)
(5.49075315311177e-11 0 0)
(5.472476751745229e-11 0 0)
(5.467254922784025e-11 0 0)
(5.457681569687816e-11 0 0)
(5.446367606937678e-11 0 0)
(5.435053644187887e-11 0 0)
(5.430702120052968e-11 0 0)
(5.394149317321691e-11 0 0)
(5.350634075974997e-11 0 0)
(5.305378224975332e-11 0 0)
(5.266214507762349e-11 0 0)
(5.238364753301153e-11 0 0)
(5.193979207127841e-11 0 0)
(5.166999757493014e-11 0 0)
(5.1374093933771e-11 0 0)
(5.134798478895658e-11 0 0)
(5.115651772704353e-11 0 0)
(5.107819029261168e-11 0 0)
(5.118262687184476e-11 0 0)
(5.111300248569148e-11 0 0)
(5.114781467877101e-11 0 0)
(5.113040858222972e-11 0 0)
(5.113040858223024e-11 0 0)
(5.11217055339599e-11 0 0)
(5.12261421131885e-11 0 0)
(5.122614211319693e-11 0 0)
(5.112170553395502e-11 0 0)
(5.097375371338407e-11 0 0)
(5.0869317134151e-11 0 0)
(5.08519110376112e-11 0 0)
(5.086931713415209e-11 0 0)
(5.093894152030531e-11 0 0)
(5.08083957962654e-11 0 0)
(5.070395921702577e-11 0 0)
(5.051249215510988e-11 0 0)
(5.026880680356689e-11 0 0)
(5.007733974164176e-11 0 0)
(4.98858726797189e-11 0 0)
(4.985106048664164e-11 0 0)
(4.959867208683033e-11 0 0)
(4.951164160412771e-11 0 0)
(4.938109588009885e-11 0 0)
(4.924184710778784e-11 0 0)
(4.915481662510383e-11 0 0)
(4.897205261143914e-11 0 0)
(4.882410079086385e-11 0 0)
(4.858041543931222e-11 0 0)
(4.84324636187419e-11 0 0)
(4.840635447393481e-11 0 0)
(4.844986971528267e-11 0 0)
(4.828451179816339e-11 0 0)
(4.824969960508647e-11 0 0)
(4.810174778451023e-11 0 0)
(4.79624990121913e-11 0 0)
(4.787546852950688e-11 0 0)
(4.792768681912407e-11 0 0)
(4.795379596393202e-11 0 0)
(4.788417157777535e-11 0 0)
(4.791898377085191e-11 0 0)
(4.784935938470009e-11 0 0)
(4.799731120527709e-11 0 0)
(4.805823254316129e-11 0 0)
(4.809304473623146e-11 0 0)
(4.808434168797112e-11 0 0)
(4.81452630258544e-11 0 0)
(4.811045083277803e-11 0 0)
(4.792768681912371e-11 0 0)
(4.796249901219955e-11 0 0)
(4.78406563364291e-11 0 0)
(4.760567403314758e-11 0 0)
(4.746642526085101e-11 0 0)
(4.746642526084754e-11 0 0)
(4.753604964700328e-11 0 0)
(4.755345574354088e-11 0 0)
(4.781454719161998e-11 0 0)
(4.777103195027607e-11 0 0)
(4.78841715777752e-11 0 0)
(4.798860815700961e-11 0 0)
(4.801471730180562e-11 0 0)
(4.79015776743143e-11 0 0)
(4.785806243296612e-11 0 0)
(4.774492280546881e-11 0 0)
(4.765789232277195e-11 0 0)
(4.760567403315626e-11 0 0)
(4.737939477815716e-11 0 0)
(4.744901916430291e-11 0 0)
(4.753604964700312e-11 0 0)
(4.742291001950187e-11 0 0)
(4.743161306777094e-11 0 0)
(4.738809782642335e-11 0 0)
(4.740550392296195e-11 0 0)
(4.744031611603988e-11 0 0)
(4.754475269527304e-11 0 0)
(4.749253440565597e-11 0 0)
(4.742291001949163e-11 0 0)
(4.737939477815699e-11 0 0)
(4.747512830911689e-11 0 0)
(4.755345574354099e-11 0 0)
(4.757956488834967e-11 0 0)
(4.770140756411807e-11 0 0)
(4.766659537104362e-11 0 0)
(4.78928746260371e-11 0 0)
(4.794509291566164e-11 0 0)
(4.796249901219776e-11 0 0)
(4.805823254316324e-11 0 0)
(4.814526302585336e-11 0 0)
(4.818877826720103e-11 0 0)
(4.815396607412627e-11 0 0)
(4.818007521893219e-11 0 0)
(4.814526302585661e-11 0 0)
(4.817137217065561e-11 0 0)
(4.804082644662294e-11 0 0)
(4.805823254316007e-11 0 0)
(4.808434168797007e-11 0 0)
(4.811045083277814e-11 0 0)
(4.81452630258547e-11 0 0)
(4.814526302585488e-11 0 0)
(4.818007521892444e-11 0 0)
(4.8127856929316e-11 0 0)
(4.820618436373847e-11 0 0)
(4.833673008777967e-11 0 0)
(4.836283923258815e-11 0 0)
(4.847597886008738e-11 0 0)
(4.844986971528165e-11 0 0)
(4.839765142566353e-11 0 0)
(4.82758087498963e-11 0 0)
(4.839765142565601e-11 0 0)
(4.83802453291262e-11 0 0)
(4.831062094297166e-11 0 0)
(4.822359046027889e-11 0 0)
(4.809304473623954e-11 0 0)
(4.785806243296764e-11 0 0)
(4.779714109508289e-11 0 0)
(4.783195328815338e-11 0 0)
(4.770140756411971e-11 0 0)
(4.76665953710425e-11 0 0)
(4.752734659873348e-11 0 0)
(4.752734659872932e-11 0 0)
(4.740550392296332e-11 0 0)
(4.730106734373146e-11 0 0)
(4.745772221257981e-11 0 0)
(4.749253440565159e-11 0 0)
(4.762308012969689e-11 0 0)
(4.773621975719688e-11 0 0)
(4.79189837708533e-11 0 0)
(4.799731120527175e-11 0 0)
(4.813655997758545e-11 0 0)
(4.84063544739347e-11 0 0)
(4.847597886008813e-11 0 0)
(4.868485201854825e-11 0 0)
(4.865003982547473e-11 0 0)
(4.87370703081685e-11 0 0)
(4.888502212874667e-11 0 0)
(4.891113127355012e-11 0 0)
(4.893724041836277e-11 0 0)
(4.905908309413302e-11 0 0)
(4.903297394932544e-11 0 0)
(4.898075565970919e-11 0 0)
(4.898945870797392e-11 0 0)
(4.88066946943232e-11 0 0)
(4.890242822528598e-11 0 0)
(4.892853737009289e-11 0 0)
(4.904167699759065e-11 0 0)
(4.905908309413286e-11 0 0)
(4.900686480451725e-11 0 0)
(4.916351967336495e-11 0 0)
(4.914611357682198e-11 0 0)
(4.927665930086629e-11 0 0)
(4.929406539740508e-11 0 0)
(4.938109588009786e-11 0 0)
(4.940720502490127e-11 0 0)
(4.954645379721516e-11 0 0)
(4.956385989375356e-11 0 0)
(4.972051476260145e-11 0 0)
(4.983365439009764e-11 0 0)
(4.999901230721892e-11 0 0)
(5.010344888645146e-11 0 0)
(5.002512145202666e-11 0 0)
(5.010344888644648e-11 0 0)
(5.003382450029673e-11 0 0)
(4.992068487279531e-11 0 0)
(4.991198182452597e-11 0 0)
(5.000771535548855e-11 0 0)
(5.012085498298538e-11 0 0)
(5.030361899664481e-11 0 0)
(5.0512492155109e-11 0 0)
(5.052119520337782e-11 0 0)
(5.0651740927413e-11 0 0)
(5.058211654126382e-11 0 0)
(5.068655312049474e-11 0 0)
(5.070395921703369e-11 0 0)
(5.066914702395187e-11 0 0)
(5.056471044472442e-11 0 0)
(5.050378910683968e-11 0 0)
(5.059081958953273e-11 0 0)
(5.044286776894971e-11 0 0)
(5.042546167241587e-11 0 0)
(5.026010375529867e-11 0 0)
(5.021658851395209e-11 0 0)
(5.025140070702502e-11 0 0)
(5.033843118972214e-11 0 0)
(5.047767996203118e-11 0 0)
(5.042546167241581e-11 0 0)
(5.054730434818184e-11 0 0)
(5.052119520337756e-11 0 0)
(5.052989825164756e-11 0 0)
(5.047767996203152e-11 0 0)
(5.03732433827999e-11 0 0)
(5.03210250931795e-11 0 0)
(5.021658851395239e-11 0 0)
(5.025140070702979e-11 0 0)
(5.00686366933737e-11 0 0)
(5.021658851394778e-11 0 0)
(5.029491594837629e-11 0 0)
(5.029491594837611e-11 0 0)
(5.025140070702948e-11 0 0)
(5.032102509317917e-11 0 0)
(5.039935252760821e-11 0 0)
(5.033843118972258e-11 0 0)
(5.046027386549355e-11 0 0)
(5.026880680356412e-11 0 0)
(5.018177632087482e-11 0 0)
(4.999901230721983e-11 0 0)
(4.998160621068141e-11 0 0)
(4.996420011413737e-11 0 0)
(4.989457572798782e-11 0 0)
(5.007733974164356e-11 0 0)
(4.994679401760368e-11 0 0)
(5.004252754856643e-11 0 0)
(5.01643702243364e-11 0 0)
(5.028621290010721e-11 0 0)
)
;

boundaryField
{
    inlet
    {
        type            zeroGradient;
    }
    outlet
    {
        type            velocityOutletNSCBCx;
        pInf            101325;
        gamma           1.4;
        etaAc           1;
        fieldInf        (-1 0 0);
        lInf            2.25;
        value           uniform (5.039594525817582e-11 0 0);
    }
    frontAndBack
    {
        type            empty;
    }
}


// ************************************************************************* //
