/*--------------------------------*- C++ -*----------------------------------*\
| =========                 |                                                 |
| \\      /  F ield         | OpenFOAM: The Open Source CFD Toolbox           |
|  \\    /   O peration     | Version:  v2012                                 |
|   \\  /    A nd           | Website:  www.openfoam.com                      |
|    \\/     M anipulation  |                                                 |
\*---------------------------------------------------------------------------*/
FoamFile
{
    version     2.0;
    format      ascii;
    class       volVectorField;
    location    "0.0045";
    object      UMean;
}
// * * * * * * * * * * * * * * * * * * * * * * * * * * * * * * * * * * * * * //

dimensions      [0 1 -1 0 0 0 0];


internalField   nonuniform List<vector> 
1000
(
(0.002915981778307966 0 0)
(0.002794310972025069 0 0)
(0.002787622449093711 0 0)
(0.002703175759468694 0 0)
(0.002610264577707674 0 0)
(0.002482745458312887 0 0)
(0.002341664295729551 0 0)
(0.002180548726338539 0 0)
(0.002008691824088533 0 0)
(0.001823257674710971 0 0)
(0.001632815485521744 0 0)
(0.001440356804477079 0 0)
(0.001249428316951761 0 0)
(0.001060458534572643 0 0)
(0.0008774008215921946 0 0)
(0.0007032447107148854 0 0)
(0.0005425542879890048 0 0)
(0.0003979237167850452 0 0)
(0.0002726973245764015 0 0)
(0.0001684183804314956 0 0)
(8.75020342292109e-05 0 0)
(3.08543595065331e-05 0 0)
(9.475943208852483e-08 0 0)
(-4.60078031832854e-06 0 0)
(1.73262505565518e-05 0 0)
(6.506868876720112e-05 0 0)
(0.0001380736848576065 0 0)
(0.000234666182362832 0 0)
(0.0003536589725249303 0 0)
(0.0004932925061833821 0 0)
(0.000652330570341852 0 0)
(0.0008276020741337667 0 0)
(0.001013227972675015 0 0)
(0.001201783088832267 0 0)
(0.001390487596459841 0 0)
(0.00157833697801673 0 0)
(0.001764619706132214 0 0)
(0.001946452006187721 0 0)
(0.002121341393450429 0 0)
(0.002284888929049675 0 0)
(0.002433852846523735 0 0)
(0.002564075119134616 0 0)
(0.002673358267958282 0 0)
(0.002759007367756643 0 0)
(0.002820231696217235 0 0)
(0.002855531135712727 0 0)
(0.002865038415768767 0 0)
(0.002848071890350213 0 0)
(0.002805550576047177 0 0)
(0.002737584390545366 0 0)
(0.002645706606214291 0 0)
(0.002530388176458766 0 0)
(0.002393191934464514 0 0)
(0.002235182725083203 0 0)
(0.0020607591639131 0 0)
(0.001876775570700909 0 0)
(0.001690733483980313 0 0)
(0.001504496015432145 0 0)
(0.001318917704920217 0 0)
(0.001134864449358434 0 0)
(0.0009542251332606406 0 0)
(0.0007796125645136809 0 0)
(0.0006143701300417772 0 0)
(0.0004622131363533386 0 0)
(0.000326925413235917 0 0)
(0.000211880450927296 0 0)
(0.0001198427951988317 0 0)
(5.27158403982664e-05 0 0)
(1.168561750449497e-05 0 0)
(-2.774511417234469e-06 0 0)
(9.35399380769125e-06 0 0)
(4.768153777388978e-05 0 0)
(0.0001116132949536363 0 0)
(0.0002004145554838774 0 0)
(0.000313417314975103 0 0)
(0.0004497236047939035 0 0)
(0.0006074137566434001 0 0)
(0.0007816339969648429 0 0)
(0.0009642778934392193 0 0)
(0.001148708532335724 0 0)
(0.001333096915369179 0 0)
(0.001516864974490848 0 0)
(0.001699366936139115 0 0)
(0.001878591692818188 0 0)
(0.002052597828879258 0 0)
(0.002217970039142448 0 0)
(0.002371644669910664 0 0)
(0.002509549458827622 0 0)
(0.002628581090318038 0 0)
(0.002725302457095922 0 0)
(0.002797790824651644 0 0)
(0.002844143669935462 0 0)
(0.002864040266027716 0 0)
(0.002857009726515621 0 0)
(0.002823795254537523 0 0)
(0.002764581606589241 0 0)
(0.002680360344769503 0 0)
(0.002571321000894033 0 0)
(0.002438591709872065 0 0)
(0.002283690605800793 0 0)
(0.002111892398568066 0 0)
(0.001931142313824271 0 0)
(0.001748632792766904 0 0)
(0.001565982934164397 0 0)
(0.001383853099540228 0 0)
(0.001202880801248012 0 0)
(0.00102455473870299 0 0)
(0.000850885896381312 0 0)
(0.0006846232531507656 0 0)
(0.0005289416940683263 0 0)
(0.000387430308220295 0 0)
(0.0002636212892203237 0 0)
(0.0001608925232715411 0 0)
(8.194793956016934e-05 0 0)
(2.886472975494114e-05 0 0)
(2.761843175302853e-06 0 0)
(4.137867998952573e-06 0 0)
(3.276521315564715e-05 0 0)
(8.823257979407674e-05 0 0)
(0.0001698924392760985 0 0)
(0.0002772431740391966 0 0)
(0.0004093429476666424 0 0)
(0.0005639351336942178 0 0)
(0.0007353714129549921 0 0)
(0.0009149847739140032 0 0)
(0.001096217543013693 0 0)
(0.001277444930514293 0 0)
(0.001458163749770985 0 0)
(0.001637880769621281 0 0)
(0.001814961768689144 0 0)
(0.001987839497259504 0 0)
(0.002153650809393369 0 0)
(0.002309752062895559 0 0)
(0.002452432402991937 0 0)
(0.002578592806670518 0 0)
(0.002684579681618985 0 0)
(0.002767866449434911 0 0)
(0.002825882296435197 0 0)
(0.002857506141487652 0 0)
(0.002861707265261686 0 0)
(0.002838734388271334 0 0)
(0.002788580286976428 0 0)
(0.002712071288122076 0 0)
(0.002609433184141446 0 0)
(0.002481850374215072 0 0)
(0.002331105609793801 0 0)
(0.00216278609384186 0 0)
(0.001985146363446791 0 0)
(0.001805561526595768 0 0)
(0.001625790130766218 0 0)
(0.001446444102233827 0 0)
(0.00126797233088641 0 0)
(0.001091629882270462 0 0)
(0.0009190226580200934 0 0)
(0.0007525137733940494 0 0)
(0.0005948054435333509 0 0)
(0.0004491805311611636 0 0)
(0.0003189652553819146 0 0)
(0.0002076516064425571 0 0)
(0.0001182753192389997 0 0)
(5.354414466696367e-05 0 0)
(1.529601474365914e-05 0 0)
(4.80558553693178e-06 0 0)
(2.245957489687169e-05 0 0)
(6.832435606129001e-05 0 0)
(0.0001419596350812181 0 0)
(0.0002429343894657006 0 0)
(0.0003701009091271157 0 0)
(0.0005209169980737596 0 0)
(0.0006892333395112168 0 0)
(0.0008660731483163954 0 0)
(0.001044621190281917 0 0)
(0.001223216951181401 0 0)
(0.001401389398307737 0 0)
(0.001578771964816367 0 0)
(0.00175398383269051 0 0)
(0.001925722220143624 0 0)
(0.002091532699787347 0 0)
(0.002249097243934427 0 0)
(0.002395085886101734 0 0)
(0.002526564347877613 0 0)
(0.002639943684894965 0 0)
(0.002732460433804863 0 0)
(0.002801146160710337 0 0)
(0.002844259447802732 0 0)
(0.002860112264077233 0 0)
(0.002848302369130859 0 0)
(0.002808325508366386 0 0)
(0.002740674402884513 0 0)
(0.002645458687843621 0 0)
(0.002523882830530078 0 0)
(0.002377899850516048 0 0)
(0.002213262861025524 0 0)
(0.002038518688288677 0 0)
(0.001861455397130659 0 0)
(0.0016841526752212 0 0)
(0.001507197907669429 0 0)
(0.001330903125112267 0 0)
(0.00115634442349208 0 0)
(0.0009848367628177831 0 0)
(0.0008184364369007613 0 0)
(0.0006594755650309046 0 0)
(0.0005109255115651175 0 0)
(0.0003758505352797534 0 0)
(0.0002576618529697047 0 0)
(0.0001594799434115 0 0)
(8.435356455665362e-05 0 0)
(3.462388558256714e-05 0 0)
(1.224120189025952e-05 0 0)
(1.827022320362392e-05 0 0)
(5.341771625026839e-05 0 0)
(0.000117707229882367 0 0)
(0.0002109799298016202 0 0)
(0.0003321309661843196 0 0)
(0.0004784584763188294 0 0)
(0.0006434616389686115 0 0)
(0.0008177028962170328 0 0)
(0.0009939120694246947 0 0)
(0.001170208466159829 0 0)
(0.001346165536397705 0 0)
(0.001521490357918937 0 0)
(0.001695017529079007 0 0)
(0.001865633514299799 0 0)
(0.002031209205512715 0 0)
(0.002189692197417646 0 0)
(0.002338094257659017 0 0)
(0.002473680287166196 0 0)
(0.002593030055319617 0 0)
(0.002693317147164859 0 0)
(0.00277139762661299 0 0)
(0.002825107654833689 0 0)
(0.002852258715286509 0 0)
(0.002851820344943805 0 0)
(0.002822742808609422 0 0)
(0.002765007718410731 0 0)
(0.002678424726229823 0 0)
(0.002563987502553699 0 0)
(0.002423623205475741 0 0)
(0.002263081090977644 0 0)
(0.00209120932206385 0 0)
(0.001916419059294367 0 0)
(0.001741301515057799 0 0)
(0.001566467996171339 0 0)
(0.001392134706905552 0 0)
(0.001219217160836505 0 0)
(0.001048817385650406 0 0)
(0.0008827353562545221 0 0)
(0.0007230052349078553 0 0)
(0.000572317360540904 0 0)
(0.0004334696055356431 0 0)
(0.0003097210647507108 0 0)
(0.0002041461727728992 0 0)
(0.0001199461957399467 0 0)
(5.977047875943475e-05 0 0)
(2.606961348078096e-05 0 0)
(2.049010963769693e-05 0 0)
(4.43839146904213e-05 0 0)
(9.832736758709445e-05 0 0)
(0.0001826244034884521 0 0)
(0.0002964271890223836 0 0)
(0.0004371828912016385 0 0)
(0.0005983034529627032 0 0)
(0.0007699393202956161 0 0)
(0.000944026157151721 0 0)
(0.001118281833991888 0 0)
(0.001292246616958302 0 0)
(0.001465733371547816 0 0)
(0.001637697783866142 0 0)
(0.001807228612739018 0 0)
(0.001972411056048643 0 0)
(0.00213146742847531 0 0)
(0.00228165916069319 0 0)
(0.002420497509508082 0 0)
(0.002544723208442709 0 0)
(0.002651574256084711 0 0)
(0.002737833815959943 0 0)
(0.002801100629182597 0 0)
(0.002838824513067156 0 0)
(0.002849475853578381 0 0)
(0.002831495975796408 0 0)
(0.002784331829140497 0 0)
(0.002707384509351089 0 0)
(0.00260126895297602 0 0)
(0.002467653664647039 0 0)
(0.002311973640436503 0 0)
(0.002143201457890898 0 0)
(0.001970543828970031 0 0)
(0.001797409644806401 0 0)
(0.001624497387611541 0 0)
(0.001451965537058342 0 0)
(0.001280578993090549 0 0)
(0.001111290848486988 0 0)
(0.0009456572749270009 0 0)
(0.0007854994498333848 0 0)
(0.0006332159820834078 0 0)
(0.0004914056432699668 0 0)
(0.0003630955596341976 0 0)
(0.000251308542567097 0 0)
(0.0001592225266002708 0 0)
(8.971538991192601e-05 0 0)
(4.550977312170408e-05 0 0)
(2.876984740913202e-05 0 0)
(4.132694615817672e-05 0 0)
(8.437666444657506e-05 0 0)
(0.0001586674686393631 0 0)
(0.0002638642512470303 0 0)
(0.0003977539729326918 0 0)
(0.0005541439027356356 0 0)
(0.0007228843021105042 0 0)
(0.0008949722481158362 0 0)
(0.001067314103275627 0 0)
(0.001239463402116591 0 0)
(0.001411216936633326 0 0)
(0.001581740894310138 0 0)
(0.001750184168967835 0 0)
(0.001914912515695567 0 0)
(0.002074271490354034 0 0)
(0.002225842371301389 0 0)
(0.002367263943903424 0 0)
(0.002495543955577511 0 0)
(0.002607942704691006 0 0)
(0.002701332836483217 0 0)
(0.002773117065861286 0 0)
(0.002820575285523495 0 0)
(0.002841748964216093 0 0)
(0.002834711692216271 0 0)
(0.002798383325116383 0 0)
(0.002731770058056973 0 0)
(0.002635000665384884 0 0)
(0.002509307509990231 0 0)
(0.002359494345055402 0 0)
(0.002194318406775012 0 0)
(0.002023815899940905 0 0)
(0.001852535699195154 0 0)
(0.001681429574005592 0 0)
(0.001510589367541734 0 0)
(0.001340675807075429 0 0)
(0.001172488035823347 0 0)
(0.001007412421705399 0 0)
(0.0008470514625476855 0 0)
(0.0006935963573886647 0 0)
(0.0005494097293056811 0 0)
(0.0004173486125842526 0 0)
(0.0003002824380448628 0 0)
(0.0002013731222157191 0 0)
(0.0001235466314833368 0 0)
(6.975658572435692e-05 0 0)
(4.246504733180896e-05 0 0)
(4.396005652545773e-05 0 0)
(7.588483465303081e-05 0 0)
(0.000139517244331554 0 0)
(0.000235003593182526 0 0)
(0.0003607791608930996 0 0)
(0.0005113165928866423 0 0)
(0.0006766723646947909 0 0)
(0.0008467135310305466 0 0)
(0.001017277250967826 0 0)
(0.001187679232609382 0 0)
(0.001357810400034407 0 0)
(0.00152691418311646 0 0)
(0.001694300638441288 0 0)
(0.001858467917272085 0 0)
(0.002017972740976509 0 0)
(0.002170567236435519 0 0)
(0.002314109733672146 0 0)
(0.002445759109767617 0 0)
(0.002562922956557474 0 0)
(0.002662510866932754 0 0)
(0.002741900781422454 0 0)
(0.002798214896517597 0 0)
(0.002829256700915021 0 0)
(0.002832760875493541 0 0)
(0.002807263130908842 0 0)
(0.002751354165342319 0 0)
(0.002664710714322565 0 0)
(0.00254798871952383 0 0)
(0.002405156004934067 0 0)
(0.002244317451997233 0 0)
(0.002076157289166537 0 0)
(0.001906665233295544 0 0)
(0.00173729408707396 0 0)
(0.001568081198642251 0 0)
(0.001399616647178238 0 0)
(0.001232538120446337 0 0)
(0.001068111506868346 0 0)
(0.0009077293907982922 0 0)
(0.0007534223042722849 0 0)
(0.0006073262060152171 0 0)
(0.0004721464125488094 0 0)
(0.0003505805148972465 0 0)
(0.0002457379264055989 0 0)
(0.0001605231893992046 0 0)
(9.802498147957078e-05 0 0)
(6.089619646087148e-05 0 0)
(5.176404925086376e-05 0 0)
(7.263085447347299e-05 0 0)
(0.0001252369256261685 0 0)
(0.0002102191325709356 0 0)
(0.0003267455061560184 0 0)
(0.0004702423321418901 0 0)
(0.0006314401256126194 0 0)
(0.0007992689906578596 0 0)
(0.0009681155694456423 0 0)
(0.001136837806168138 0 0)
(0.001305390012758001 0 0)
(0.00147309743269549 0 0)
(0.001639405152374499 0 0)
(0.00180293552986931 0 0)
(0.001962425410567343 0 0)
(0.002115779896050518 0 0)
(0.002261053669071103 0 0)
(0.002395545172017777 0 0)
(0.002516816800964638 0 0)
(0.002621834642154663 0 0)
(0.002708012848561532 0 0)
(0.002772373378273491 0 0)
(0.002812586737142536 0 0)
(0.002826120118193543 0 0)
(0.002811237891582662 0 0)
(0.002766148911306745 0 0)
(0.002690141849108791 0 0)
(0.002583247984452627 0 0)
(0.002448525954662259 0 0)
(0.002292995907404099 0 0)
(0.002127577118737005 0 0)
(0.00195983143181903 0 0)
(0.001792123135897897 0 0)
(0.001624495357623373 0 0)
(0.001457445258241474 0 0)
(0.001291517113876322 0 0)
(0.001127808537510396 0 0)
(0.0009675875551988142 0 0)
(0.0008126787302143307 0 0)
(0.000665075186106873 0 0)
(0.0005272765483504358 0 0)
(0.000401871573178801 0 0)
(0.000291830538343925 0 0)
(0.0002000571986548868 0 0)
(0.0001296430224540807 0 0)
(8.341184385994342e-05 0 0)
(6.416814092842281e-05 0 0)
(7.42474047578966e-05 0 0)
(0.0001157128952657033 0 0)
(0.0001897176263006701 0 0)
(0.000296096587077194 0 0)
(0.0004314249812276554 0 0)
(0.0005874680994125727 0 0)
(0.0007527323420714338 0 0)
(0.0009198356983756484 0 0)
(0.001086921203203025 0 0)
(0.001253875971260905 0 0)
(0.001420201221211377 0 0)
(0.001585360494042779 0 0)
(0.001748198529923408 0 0)
(0.001907503114957733 0 0)
(0.002061425551716749 0 0)
(0.002208084200708264 0 0)
(0.002345018634697674 0 0)
(0.002469828503724056 0 0)
(0.002579663923642612 0 0)
(0.002671889376150375 0 0)
(0.002743594971769636 0 0)
(0.002792268668157719 0 0)
(0.002815303792847406 0 0)
(0.002810649479543735 0 0)
(0.002776321782191607 0 0)
(0.002711162106755882 0 0)
(0.002614741516748938 0 0)
(0.002489081090290181 0 0)
(0.002339986477063203 0 0)
(0.002177911296867076 0 0)
(0.002012023400139976 0 0)
(0.001845908963221691 0 0)
(0.001679848432714591 0 0)
(0.001514206019696617 0 0)
(0.001349469948191162 0 0)
(0.001186562246887669 0 0)
(0.001026656915508248 0 0)
(0.0008713739070400922 0 0)
(0.0007225912953455942 0 0)
(0.0005826033477126303 0 0)
(0.0004539014464962176 0 0)
(0.0003392982487947594 0 0)
(0.0002416748664502491 0 0)
(0.0001640755100319232 0 0)
(0.0001094326934712803 0 0)
(8.064916957268413e-05 0 0)
(8.031106880822084e-05 0 0)
(0.0001107300113658874 0 0)
(0.0001735012180187842 0 0)
(0.0002690691261385066 0 0)
(0.0003951609651332943 0 0)
(0.0005449136314338496 0 0)
(0.0007070332980869283 0 0)
(0.0008723544262951746 0 0)
(0.001037847170895106 0 0)
(0.001203238861118104 0 0)
(0.001368185768260661 0 0)
(0.001532165820416174 0 0)
(0.001694235538220494 0 0)
(0.001853220260535999 0 0)
(0.002007505683312188 0 0)
(0.002155260657963907 0 0)
(0.002294259413951061 0 0)
(0.002422134595575159 0 0)
(0.002536229382443559 0 0)
(0.002633876381207505 0 0)
(0.002712271121795294 0 0)
(0.002768763055928464 0 0)
(0.002800730336878192 0 0)
(0.002805864700603279 0 0)
(0.002782054320024491 0 0)
(0.002727748365920277 0 0)
(0.002642130029880405 0 0)
(0.002526262714626183 0 0)
(0.002384679143120151 0 0)
(0.002226820916176578 0 0)
(0.002063059002742836 0 0)
(0.00189855732955131 0 0)
(0.001734091323627286 0 0)
(0.001569911538784501 0 0)
(0.001406432708149633 0 0)
(0.001244440875536898 0 0)
(0.001084991970523629 0 0)
(0.0009295493953536422 0 0)
(0.0007798570225089399 0 0)
(0.0006380480712907242 0 0)
(0.0005064919769112498 0 0)
(0.0003878726222709241 0 0)
(0.0002850044326439346 0 0)
(0.0002008792364336165 0 0)
(0.0001384650611922729 0 0)
(0.0001007305286615387 0 0)
(9.042483638285746e-05 0 0)
(0.0001100558532337314 0 0)
(0.0001615623176998279 0 0)
(0.000245924445812276 0 0)
(0.0003619161141838054 0 0)
(0.0005041940115034938 0 0)
(0.0006623144640666271 0 0)
(0.0008256702393653547 0 0)
(0.000989596444544272 0 0)
(0.001153466411390465 0 0)
(0.001316992625966744 0 0)
(0.00147979123034813 0 0)
(0.001640972792872044 0 0)
(0.001799547123292884 0 0)
(0.001953970648706324 0 0)
(0.002102607320609725 0 0)
(0.002243304171667401 0 0)
(0.002373875353307203 0 0)
(0.00249170925400745 0 0)
(0.002594268972465585 0 0)
(0.002678727787842695 0 0)
(0.002742480617025016 0 0)
(0.002782790561674472 0 0)
(0.002797291709336192 0 0)
(0.002783653185677417 0 0)
(0.002740140662234462 0 0)
(0.002665496699306302 0 0)
(0.002560088382241005 0 0)
(0.002427055721798474 0 0)
(0.002274505732030197 0 0)
(0.002113219970560184 0 0)
(0.001950322950652419 0 0)
(0.001787361543880743 0 0)
(0.00162460805802388 0 0)
(0.001462385738260174 0 0)
(0.001301356407978425 0 0)
(0.00114247629050368 0 0)
(0.0009870499519533838 0 0)
(0.0008367066363525376 0 0)
(0.0006934131909838578 0 0)
(0.0005594292728890091 0 0)
(0.0004372924387625559 0 0)
(0.0003297474152883747 0 0)
(0.0002397031645276015 0 0)
(0.0001701382250215927 0 0)
(0.0001240341862078333 0 0)
(0.0001042592759337433 0 0)
(0.0001134644745272466 0 0)
(0.0001538728728936579 0 0)
(0.000226898118700864 0 0)
(0.0003322105109241191 0 0)
(0.000465950306454569 0 0)
(0.0006190252820158343 0 0)
(0.0007800161231526955 0 0)
(0.0009423203026052059 0 0)
(0.001104610552221666 0 0)
(0.001266692189848105 0 0)
(0.001428185229278159 0 0)
(0.001588410106456951 0 0)
(0.001746389000307394 0 0)
(0.001900807992396532 0 0)
(0.00205005257207657 0 0)
(0.002192198268228061 0 0)
(0.002325070990648615 0 0)
(0.002446262421853313 0 0)
(0.002553212242121804 0 0)
(0.002643244030708707 0 0)
(0.002713662497646479 0 0)
(0.002761799769175565 0 0)
(0.002785118208657357 0 0)
(0.002781268185980739 0 0)
(0.00274823429519635 0 0)
(0.002684546676060846 0 0)
(0.002589876541497066 0 0)
(0.00246629136586493 0 0)
(0.002320208550535356 0 0)
(0.002162162864739291 0 0)
(0.00200096544644555 0 0)
(0.001839552935957557 0 0)
(0.001678249875416497 0 0)
(0.001517311616306847 0 0)
(0.001357246824223533 0 0)
(0.001198847432730313 0 0)
(0.001043202644053504 0 0)
(0.0008916938448603032 0 0)
(0.0007459729594827421 0 0)
(0.0006079226502000647 0 0)
(0.0004795966619126432 0 0)
(0.0003631381252833671 0 0)
(0.0002606727436899839 0 0)
(0.000174169661358906 0 0)
(0.0001052481305168448 0 0)
(5.486781506691425e-05 0 0)
(2.276757334467426e-05 0 0)
(6.547457598080929e-06 0 0)
(1.040653669079199e-06 0 0)
(6.598489321020626e-08 0 0)
(1.123862375466606e-09 0 0)
(4.511821297415297e-12 0 0)
(1.142027760488616e-12 0 0)
(1.172244588021121e-12 0 0)
(1.199212054592459e-12 0 0)
(1.221026803824547e-12 0 0)
(1.222891145576852e-12 0 0)
(1.265762645600948e-12 0 0)
(1.227322092342172e-12 0 0)
(1.291336732686255e-12 0 0)
(1.298941797920712e-12 0 0)
(1.327433621649593e-12 0 0)
(1.348465291610741e-12 0 0)
(1.382572434667936e-12 0 0)
(1.414985228270508e-12 0 0)
(1.43121809928199e-12 0 0)
(1.509252924013547e-12 0 0)
(1.423927937811453e-12 0 0)
(1.512741946246554e-12 0 0)
(1.509347673818802e-12 0 0)
(1.530543762559261e-12 0 0)
(1.549460282460377e-12 0 0)
(1.572462191014875e-12 0 0)
(1.597347948634064e-12 0 0)
(1.624201158087435e-12 0 0)
(1.646018694078739e-12 0 0)
(1.676188146708752e-12 0 0)
(1.691219924603397e-12 0 0)
(1.714060201137181e-12 0 0)
(1.743555258095959e-12 0 0)
(1.779142170167496e-12 0 0)
(1.785144848993045e-12 0 0)
(1.836373839173742e-12 0 0)
(1.801082323553553e-12 0 0)
(1.879549095925876e-12 0 0)
(1.895533945388915e-12 0 0)
(1.934874621795441e-12 0 0)
(1.96850801582742e-12 0 0)
(1.992722164534721e-12 0 0)
(2.041069645938551e-12 0 0)
(2.071693340280832e-12 0 0)
(2.17845686325431e-12 0 0)
(2.109230983632908e-12 0 0)
(2.232887839493887e-12 0 0)
(2.259119601696684e-12 0 0)
(2.319592271387169e-12 0 0)
(2.358166589076628e-12 0 0)
(2.390562662125356e-12 0 0)
(2.429476964409027e-12 0 0)
(2.479287494273306e-12 0 0)
(2.523808755608754e-12 0 0)
(2.575700994424916e-12 0 0)
(2.630315896756757e-12 0 0)
(2.679243024026492e-12 0 0)
(2.724575232223066e-12 0 0)
(2.785047901913663e-12 0 0)
(2.856678754527836e-12 0 0)
(2.921378937579484e-12 0 0)
(2.976163832207963e-12 0 0)
(3.033802368024399e-12 0 0)
(3.083922228134509e-12 0 0)
(3.142466460616387e-12 0 0)
(3.193352679444023e-12 0 0)
(3.242929121554371e-12 0 0)
(3.30113615620099e-12 0 0)
(3.357855061556432e-12 0 0)
(3.416023081577243e-12 0 0)
(3.459421279047273e-12 0 0)
(3.54173935231867e-12 0 0)
(3.553028512913799e-12 0 0)
(3.658794376175506e-12 0 0)
(3.704709016996769e-12 0 0)
(3.771638607225496e-12 0 0)
(3.840078620816947e-12 0 0)
(3.914794415612718e-12 0 0)
(3.980088178325498e-12 0 0)
(4.048335905547605e-12 0 0)
(4.183791898895628e-12 0 0)
(4.133638597678255e-12 0 0)
(4.267327785838298e-12 0 0)
(4.311798885512259e-12 0 0)
(4.385171462484037e-12 0 0)
(4.456035956380739e-12 0 0)
(4.530211119936683e-12 0 0)
(4.608117753755919e-12 0 0)
(4.666425111724845e-12 0 0)
(4.729514548090624e-12 0 0)
(4.800457071238935e-12 0 0)
(4.873545398795575e-12 0 0)
(4.951624811670897e-12 0 0)
(5.035768212068603e-12 0 0)
(5.101251474391529e-12 0 0)
(5.168264667389085e-12 0 0)
(5.290007019836258e-12 0 0)
(5.32879591796683e-12 0 0)
(5.43798949476378e-12 0 0)
(5.518671740518796e-12 0 0)
(5.615734555510713e-12 0 0)
(5.691406208634178e-12 0 0)
(5.778311287173598e-12 0 0)
(5.86768543416254e-12 0 0)
(5.914567080346423e-12 0 0)
(6.061008477562726e-12 0 0)
(6.056298854899943e-12 0 0)
(6.210481868539515e-12 0 0)
(6.298186746904093e-12 0 0)
(6.388176767624625e-12 0 0)
(6.458274902805223e-12 0 0)
(6.550430235247384e-12 0 0)
(6.658631725849986e-12 0 0)
(6.742621854505097e-12 0 0)
(6.853150288849413e-12 0 0)
(6.939603912435754e-12 0 0)
(7.04436375570822e-12 0 0)
(7.153858302473408e-12 0 0)
(7.250879316081034e-12 0 0)
(7.337090491637108e-12 0 0)
(7.435220635314261e-12 0 0)
(7.567243341609834e-12 0 0)
(7.598287836557348e-12 0 0)
(7.743416670297159e-12 0 0)
(7.833169816505709e-12 0 0)
(7.934730460477578e-12 0 0)
(8.020417725347395e-12 0 0)
(8.098625329134868e-12 0 0)
(8.212849005875866e-12 0 0)
(8.288169527369782e-12 0 0)
(8.433939315672925e-12 0 0)
(8.416981887328651e-12 0 0)
(8.584739203920613e-12 0 0)
(8.649913135996597e-12 0 0)
(8.752281940070977e-12 0 0)
(8.840438273390057e-12 0 0)
(8.929269002377386e-12 0 0)
(9.012715713033735e-12 0 0)
(9.100763362751433e-12 0 0)
(9.186617833158458e-12 0 0)
(9.271402188120666e-12 0 0)
(9.33479816797147e-12 0 0)
(9.417492453706396e-12 0 0)
(9.518286738960189e-12 0 0)
(9.613493572477581e-12 0 0)
(9.688482469653116e-12 0 0)
(9.808410642009799e-12 0 0)
(9.828023851654731e-12 0 0)
(9.950532562819001e-12 0 0)
(1.00217983500077e-11 0 0)
(1.011430481408045e-11 0 0)
(1.01935267981357e-11 0 0)
(1.028168034469247e-11 0 0)
(1.036696074275248e-11 0 0)
(1.042736931698729e-11 0 0)
(1.056988138405251e-11 0 0)
(1.051957759784985e-11 0 0)
(1.066901754771783e-11 0 0)
(1.07289607332065e-11 0 0)
(1.083642651943904e-11 0 0)
(1.091988437713046e-11 0 0)
(1.099820623803663e-11 0 0)
(1.10729638342179e-11 0 0)
(1.113177002204287e-11 0 0)
(1.128408312041247e-11 0 0)
(1.125802413726575e-11 0 0)
(1.140506747441867e-11 0 0)
(1.146802593311413e-11 0 0)
(1.155408105016491e-11 0 0)
(1.163575538211568e-11 0 0)
(1.171373168490885e-11 0 0)
(1.184580733962381e-11 0 0)
(1.185657816305085e-11 0 0)
(1.204545911264959e-11 0 0)
(1.201098133064898e-11 0 0)
(1.217150700770673e-11 0 0)
(1.224188660554482e-11 0 0)
(1.233057520982578e-11 0 0)
(1.242710575385416e-11 0 0)
(1.24872161448791e-11 0 0)
(1.264355610996297e-11 0 0)
(1.26159644093817e-11 0 0)
(1.276763933994404e-11 0 0)
(1.28309377832351e-11 0 0)
(1.291986047526967e-11 0 0)
(1.29716941921499e-11 0 0)
(1.304888462891071e-11 0 0)
(1.313558070052817e-11 0 0)
(1.321992196081049e-11 0 0)
(1.329884297489743e-11 0 0)
(1.336289662986739e-11 0 0)
(1.35018583660026e-11 0 0)
(1.346641079187919e-11 0 0)
(1.362372612260324e-11 0 0)
(1.368660097852838e-11 0 0)
(1.378300333164136e-11 0 0)
(1.385897874149536e-11 0 0)
(1.395065475139499e-11 0 0)
(1.401922016914023e-11 0 0)
(1.408205601043846e-11 0 0)
(1.424492535179344e-11 0 0)
(1.421440198077471e-11 0 0)
(1.436481172276604e-11 0 0)
(1.442541537012809e-11 0 0)
(1.450336380532972e-11 0 0)
(1.455858343436106e-11 0 0)
(1.462662772817787e-11 0 0)
(1.475080292120815e-11 0 0)
(1.477524001063327e-11 0 0)
(1.489510408753326e-11 0 0)
(1.496828437813595e-11 0 0)
(1.504783798650431e-11 0 0)
(1.512071173362403e-11 0 0)
(1.520017895246624e-11 0 0)
(1.52853339463717e-11 0 0)
(1.534295018811586e-11 0 0)
(1.548535078482213e-11 0 0)
(1.545569966936164e-11 0 0)
(1.561799493836781e-11 0 0)
(1.567769567582433e-11 0 0)
(1.577845930672719e-11 0 0)
(1.584364438584261e-11 0 0)
(1.59142636449497e-11 0 0)
(1.59890268146496e-11 0 0)
(1.604985340272861e-11 0 0)
(1.619081881856433e-11 0 0)
(1.616832410014393e-11 0 0)
(1.631704785295451e-11 0 0)
(1.638497510289774e-11 0 0)
(1.647291685577466e-11 0 0)
(1.655361303532459e-11 0 0)
(1.661759702131958e-11 0 0)
(1.672369172213963e-11 0 0)
(1.674377032053257e-11 0 0)
(1.683570549901679e-11 0 0)
(1.688805476630414e-11 0 0)
(1.696156946797994e-11 0 0)
(1.703041634838561e-11 0 0)
(1.71174607648725e-11 0 0)
(1.7204577637094e-11 0 0)
(1.726495277022078e-11 0 0)
(1.742347476757917e-11 0 0)
(1.739854163505827e-11 0 0)
(1.755672643457837e-11 0 0)
(1.762828761822143e-11 0 0)
(1.77162572386874e-11 0 0)
(1.779638213264906e-11 0 0)
(1.786853132243117e-11 0 0)
(1.796167038079098e-11 0 0)
(1.802331627601004e-11 0 0)
(1.817790058294068e-11 0 0)
(1.815929896680373e-11 0 0)
(1.831366590653205e-11 0 0)
(1.838477563522146e-11 0 0)
(1.846370500958273e-11 0 0)
(1.853755133558029e-11 0 0)
(1.860755472095495e-11 0 0)
(1.872361208509967e-11 0 0)
(1.874713790434069e-11 0 0)
(1.886773211208861e-11 0 0)
(1.893724502788727e-11 0 0)
(1.90181223467699e-11 0 0)
(1.909160918086e-11 0 0)
(1.915786158865875e-11 0 0)
(1.923255230262347e-11 0 0)
(1.928486534204511e-11 0 0)
(1.94347316660365e-11 0 0)
(1.940701456130281e-11 0 0)
(1.957494187018787e-11 0 0)
(1.961960804299343e-11 0 0)
(1.969696011177701e-11 0 0)
(1.979128075594078e-11 0 0)
(1.987512875988805e-11 0 0)
(1.996250201393479e-11 0 0)
(2.001405426815663e-11 0 0)
(2.015722958385438e-11 0 0)
(2.012735274091881e-11 0 0)
(2.027083460010623e-11 0 0)
(2.03377391095042e-11 0 0)
(2.043238301770678e-11 0 0)
(2.051165795018295e-11 0 0)
(2.057820018091456e-11 0 0)
(2.068825207947505e-11 0 0)
(2.071273375704084e-11 0 0)
(2.081808717997699e-11 0 0)
(2.088552953385584e-11 0 0)
(2.09617557520155e-11 0 0)
(2.103355659692454e-11 0 0)
(2.111891781099575e-11 0 0)
(2.120065066488356e-11 0 0)
(2.124720068674984e-11 0 0)
(2.139083303092053e-11 0 0)
(2.135510120738384e-11 0 0)
(2.15066005721339e-11 0 0)
(2.15654374143081e-11 0 0)
(2.165584544887326e-11 0 0)
(2.17311102351889e-11 0 0)
(2.180888589133629e-11 0 0)
(2.189334140873945e-11 0 0)
(2.195457486362958e-11 0 0)
(2.210181048715005e-11 0 0)
(2.207782206592184e-11 0 0)
(2.221711821313369e-11 0 0)
(2.227115068283966e-11 0 0)
(2.235996190451458e-11 0 0)
(2.24466914172401e-11 0 0)
(2.25109262115433e-11 0 0)
(2.264819359822333e-11 0 0)
(2.261032711731091e-11 0 0)
(2.276572237110528e-11 0 0)
(2.279907430248138e-11 0 0)
(2.294210470671517e-11 0 0)
(2.290985354513116e-11 0 0)
(2.305922382602834e-11 0 0)
(2.312411629544852e-11 0 0)
(2.320405726331721e-11 0 0)
(2.327696445153841e-11 0 0)
(2.334938117018452e-11 0 0)
(2.349012085854406e-11 0 0)
(2.346215851901926e-11 0 0)
(2.36189081376702e-11 0 0)
(2.368545315516292e-11 0 0)
(2.376225623242911e-11 0 0)
(2.384640520634521e-11 0 0)
(2.393049844508203e-11 0 0)
(2.400446460171285e-11 0 0)
(2.406888889562729e-11 0 0)
(2.421013856087879e-11 0 0)
(2.418723140212909e-11 0 0)
(2.433787244511344e-11 0 0)
(2.440418337485285e-11 0 0)
(2.449399225624023e-11 0 0)
(2.457505907473396e-11 0 0)
(2.466398176676684e-11 0 0)
(2.47559113717348e-11 0 0)
(2.482221951471273e-11 0 0)
(2.496538647013628e-11 0 0)
(2.494371384560938e-11 0 0)
(2.509261873775844e-11 0 0)
(2.516073548730915e-11 0 0)
(2.524589605473206e-11 0 0)
(2.532386399724653e-11 0 0)
(2.538571889938894e-11 0 0)
(2.554282800994936e-11 0 0)
(2.551841321459651e-11 0 0)
(2.566727630535661e-11 0 0)
(2.572577873645571e-11 0 0)
(2.582341283703757e-11 0 0)
(2.590303611438339e-11 0 0)
(2.598129109307399e-11 0 0)
(2.607335167570913e-11 0 0)
(2.613884329831073e-11 0 0)
(2.628620432598725e-11 0 0)
(2.625517933835214e-11 0 0)
(2.642111968809243e-11 0 0)
(2.648043027929443e-11 0 0)
(2.656827728236625e-11 0 0)
(2.665369144485514e-11 0 0)
(2.674396571498913e-11 0 0)
(2.682457271825526e-11 0 0)
(2.687830143123357e-11 0 0)
(2.703684850942341e-11 0 0)
(2.700222302919503e-11 0 0)
(2.715606605824165e-11 0 0)
(2.72311942933663e-11 0 0)
(2.731367957217648e-11 0 0)
(2.740097201021019e-11 0 0)
(2.747562370955212e-11 0 0)
(2.764336430559063e-11 0 0)
(2.761418693915409e-11 0 0)
(2.777416641145534e-11 0 0)
(2.784990494679459e-11 0 0)
(2.794556880878249e-11 0 0)
)
;

boundaryField
{
    inlet
    {
        type            calculated;
        value           uniform (0.002915981778307966 0 0);
    }
    outlet
    {
        type            calculated;
        value           uniform (2.797706453380283e-11 0 0);
    }
    frontAndBack
    {
        type            empty;
    }
}


// ************************************************************************* //
