/*--------------------------------*- C++ -*----------------------------------*\
| =========                 |                                                 |
| \\      /  F ield         | OpenFOAM: The Open Source CFD Toolbox           |
|  \\    /   O peration     | Version:  v2012                                 |
|   \\  /    A nd           | Website:  www.openfoam.com                      |
|    \\/     M anipulation  |                                                 |
\*---------------------------------------------------------------------------*/
FoamFile
{
    version     2.0;
    format      ascii;
    class       volScalarField;
    location    "0.011";
    object      pMean;
}
// * * * * * * * * * * * * * * * * * * * * * * * * * * * * * * * * * * * * * //

dimensions      [1 -1 -2 0 0 0 0];


internalField   nonuniform List<scalar> 
1000
(
101324.9981907593
101324.9826862001
101325.0020605505
101325.0166577795
101325.060469767
101325.0818745957
101325.0752376034
101325.1103392246
101325.1369968972
101325.1554432339
101325.1844415336
101325.2445275616
101325.290593089
101325.2915203347
101325.3589975244
101325.3700122083
101325.3811179652
101325.3922576071
101325.4610165492
101325.4480260139
101325.4452216002
101325.4684236408
101325.5106298204
101325.4915517746
101325.4572295277
101325.4957479053
101325.4803939121
101325.4592324022
101325.4022011379
101325.3998552175
101325.3802610304
101325.3566576463
101325.3304993782
101325.3060501855
101325.2403656081
101325.2458597199
101325.1831883308
101325.1439031203
101325.1159149422
101325.0943002514
101325.0653105863
101325.0569501122
101325.0577302296
101325.0368607505
101325.0068742929
101325.0166342407
101325.0173670093
101324.9740262103
101324.9963189334
101324.9885603021
101325.0557283965
101325.0524120169
101325.0985518121
101325.1099245965
101325.1688975969
101325.1487690487
101325.1737552837
101325.1991158856
101325.2876107679
101325.2866796692
101325.3296203143
101325.3889625212
101325.4078192986
101325.4091364177
101325.4289074801
101325.4627137648
101325.4643367528
101325.4891619772
101325.5138911868
101325.514405428
101325.4988030111
101325.4816939073
101325.4648415542
101325.4321986057
101325.4484809143
101325.425942739
101325.4076775026
101325.3882354503
101325.3776591074
101325.2803017671
101325.2342072861
101325.2251970228
101325.1927138791
101325.1237405451
101325.1424410669
101325.1636597555
101325.0900944685
101325.0571077883
101325.0592165162
101324.9786592325
101324.963411001
101324.9561537736
101324.9859328021
101324.9708805225
101325.0265989573
101325.0292121402
101325.0444563627
101325.0603245948
101325.0575477
101325.0640639967
101325.0975333323
101325.1642666039
101325.1661304628
101325.2113731774
101325.2460566828
101325.320617687
101325.2999239295
101325.3335337043
101325.3792537977
101325.4221221336
101325.417129669
101325.4762935843
101325.5157976365
101325.4757594339
101325.4899359948
101325.5199423114
101325.5148584642
101325.4554686526
101325.494896169
101325.5172472732
101325.46852987
101325.4102336517
101325.416068896
101325.3969068571
101325.3248623929
101325.2647985268
101325.2834141854
101325.2545696919
101325.1967990854
101325.1579614882
101325.138073786
101325.1156256344
101325.0565267023
101325.0386243612
101325.0379080449
101325.0099377332
101324.992020896
101324.9617818036
101324.9548493093
101324.9497101989
101324.9534548435
101324.9697285008
101324.9897713533
101325.0452262259
101325.0756554983
101325.0291113179
101325.073461009
101325.140606148
101325.1165279695
101325.1662792345
101325.2250644313
101325.2989606417
101325.2939377362
101325.3397077549
101325.373697588
101325.4027373209
101325.3955759608
101325.4477614965
101325.4729720563
101325.4978661433
101325.4905583
101325.5247977025
101325.522695552
101325.4769606258
101325.4975226769
101325.4932103039
101325.4748382015
101325.4209763775
101325.4570666864
101325.3898365167
101325.3651514735
101325.3225623323
101325.2975246611
101325.2594285852
101325.2296547847
101325.1701755094
101325.1490815706
101325.108286255
101325.0845107938
101324.999238141
101325.0201292955
101325.011977699
101324.9995842843
101324.9587893695
101324.9797402414
101324.9937691844
101324.9581903306
101324.9388764934
101324.9932301803
101325.0365466012
101325.0331264571
101325.0553450988
101325.1081077357
101325.1405079228
101325.1248269143
101325.1666002701
101325.2235056805
101325.2728168299
101325.2902737053
101325.3338808341
101325.3783712112
101325.4020962456
101325.4110504362
101325.4375816338
101325.4836112602
101325.4903501298
101325.4962575283
101325.5064553065
101325.5161209334
101325.4949522083
101325.5014612565
101325.4636186639
101325.4898057669
101325.4540119888
101325.4265506005
101325.4057854036
101325.4004386474
101325.33350285
101325.2897315532
101325.2466407152
101325.2115381253
101325.1553059241
101325.1207372208
101325.1193487605
101325.1054533373
101325.0573878155
101325.0240822421
101325.0227144531
101324.9698447768
101324.9283875399
101324.9320471406
101324.9655153439
101324.9550963073
101324.9679307463
101324.9959772234
101324.986032976
101324.9866868949
101325.0074291132
101325.0301890281
101325.0675878924
101325.131998396
101325.1642940314
101325.2086756485
101325.2594007675
101325.2919405781
101325.3197395281
101325.3479090184
101325.3814267772
101325.395952542
101325.4065234104
101325.4643438445
101325.469385127
101325.5015513847
101325.5449881721
101325.5657402146
101325.54050564
101325.5235899624
101325.4967252128
101325.4760429209
101325.4413204524
101325.4214603211
101325.4156645893
101325.3966066693
101325.3456421601
101325.3120058258
101325.2748219374
101325.218360877
101325.171948851
101325.1487401359
101325.1192472461
101325.085643742
101325.039620463
101325.0360794723
101325.0018674858
101324.974900059
101324.9630427827
101324.9626931243
101324.9431694175
101324.9168721979
101324.9562803307
101324.9560690637
101324.983238703
101325.0061867848
101325.0454222316
101325.0513332375
101325.0790576913
101325.1013847102
101325.1397381911
101325.1750429747
101325.2205340577
101325.2702803372
101325.3167779873
101325.3538044564
101325.3974273671
101325.4351618145
101325.4504405758
101325.4673611601
101325.4928456351
101325.4952411996
101325.4985748373
101325.5032723554
101325.5119503987
101325.4953348264
101325.4881355881
101325.4855286619
101325.483066918
101325.464675609
101325.4449910527
101325.4319595845
101325.3815012883
101325.3256269663
101325.2673899025
101325.230373651
101325.1805563377
101325.1444665353
101325.1474604222
101325.1228528066
101325.0915855936
101325.0659748116
101325.0480464302
101325.000792244
101324.988978061
101324.9727559634
101324.9438223028
101324.9496818678
101324.9664398708
101324.965655658
101324.9702471458
101324.9970409699
101325.0270724553
101325.0424528653
101325.0731796428
101325.1272072031
101325.167147953
101325.1873537129
101325.240025986
101325.2849921798
101325.3105193794
101325.3432639721
101325.3771514247
101325.4155831992
101325.429714606
101325.4701324503
101325.5093214202
101325.541253782
101325.5607713957
101325.5667318803
101325.5639677
101325.549347973
101325.5342702229
101325.51498549
101325.5151248603
101325.4862167691
101325.4703128891
101325.4354747147
101325.4002416184
101325.3400098054
101325.3146659588
101325.270184673
101325.2276514794
101325.1967925911
101325.1667909128
101325.1187132153
101325.0847175748
101325.0491515383
101325.0094593919
101324.9695945377
101324.9600521234
101324.9196948445
101324.9021794024
101324.8923643224
101324.9060561687
101324.912131126
101324.9502252412
101324.9881400057
101325.0256895094
101325.0506133582
101325.083033312
101325.1238301376
101325.1499423038
101325.1810931926
101325.2176106914
101325.2584486648
101325.2846688791
101325.3317967836
101325.3677674331
101325.4048928025
101325.449970704
101325.4801489548
101325.507168522
101325.5290606655
101325.5312512083
101325.5179201449
101325.5177542181
101325.5047762209
101325.5046295008
101325.5079507478
101325.5053476124
101325.5046422342
101325.4787065911
101325.4462256098
101325.3916843091
101325.3462281
101325.3019812484
101325.263138693
101325.2296126492
101325.2117813234
101325.1646300531
101325.1396163155
101325.1107268556
101325.0713446775
101325.0130862502
101325.00830483
101324.9739002845
101324.9391914117
101324.911029884
101324.9027418902
101324.9022711791
101324.9178867102
101324.9418378499
101324.9622939475
101325.0000901769
101325.031095467
101325.0693758363
101325.0922837818
101325.1206332023
101325.1571575337
101325.2035373348
101325.2250597862
101325.2669163333
101325.3243836574
101325.3841432795
101325.4051589723
101325.4322257468
101325.4612333361
101325.4913372685
101325.489587996
101325.4966040059
101325.5252749959
101325.5473580427
101325.5627160545
101325.5509016652
101325.5469430237
101325.5247652228
101325.4963659533
101325.4334624706
101325.3972562165
101325.377331064
101325.3613133943
101325.3299840912
101325.308072027
101325.2739231381
101325.2377528008
101325.1636685171
101325.1136187707
101325.0588030565
101325.0333313052
101325.0020739846
101324.9930684496
101324.9892313558
101324.976584321
101324.9636558644
101324.9283907879
101324.9118219613
101324.8771778818
101324.8677863147
101324.8419378256
101324.8837859033
101324.955760205
101325.0381788873
101325.1451230108
101325.2422193077
101325.3198379227
101325.3424840821
101325.3197356066
101325.3064236254
101325.2644833694
101325.2303919581
101325.2093310941
101325.2407223921
101325.3339712485
101325.4437022656
101325.5105692364
101325.6041918709
101325.65567888
101325.6872872058
101325.6203689068
101325.5285100506
101325.3887612084
101325.2305768073
101325.1056298016
101324.9868021146
101324.9056150578
101324.8901813952
101324.9247736104
101324.9712729415
101325.0129647214
101325.0971005569
101325.1526973507
101325.1911315407
101325.1792749667
101325.0946299416
101324.9731725981
101324.8382104268
101324.7672597082
101324.6722656541
101324.6386392138
101324.6478469141
101324.6794615966
101324.76662355
101324.8734457654
101324.9802005479
101325.0672562407
101325.0806852982
101325.1832180477
101325.196383107
101325.2280657168
101325.2466651566
101325.2629271545
101325.2566425921
101325.261835523
101325.2256758558
101325.233082434
101325.2455682715
101325.2621075429
101325.3392558667
101325.3897622712
101325.495974707
101325.5423381164
101325.5535883026
101325.559144339
101325.5201633097
101325.5254474783
101325.4730191191
101325.4761946258
101325.3757299308
101325.3271969893
101325.2579470633
101325.1655655425
101325.0959983042
101325.0280591971
101325.0293441867
101325.0176570567
101325.0846983923
101325.1319735095
101325.1601757303
101325.2014067705
101325.1610140111
101325.0736327957
101324.9532487246
101324.8780376692
101324.7833653315
101324.7322259727
101324.7198214413
101324.7491098064
101324.8025350299
101324.8821087076
101324.9943214564
101325.0844965339
101325.1250357663
101325.1748774946
101325.2567135218
101325.2824425152
101325.3014271459
101325.3113644566
101325.3079920403
101325.2864409865
101325.27409028
101325.2503037251
101325.2804845511
101325.3251534752
101325.3771175107
101325.4341485086
101325.5255293749
101325.641504259
101325.6936837382
101325.6975636273
101325.6710458023
101325.605087135
101325.5325948468
101325.4832230448
101325.3906435777
101325.3116737351
101325.2196700385
101325.2403938834
101325.1712110858
101325.1276659958
101325.132932068
101325.1171896965
101325.1625422728
101325.216659767
101325.219001678
101325.2202559605
101325.2398600119
101325.1505003571
101325.0250042048
101324.9357601514
101324.8230441711
101324.799430386
101324.7478985814
101324.7685991912
101324.8183835524
101324.9270911786
101325.0363042563
101325.127608124
101325.1864101605
101325.2510410823
101325.27683606
101325.3218838888
101325.3163449573
101325.3319859451
101325.3843650577
101325.3351233036
101325.3548300011
101325.3302883791
101325.3056985308
101325.3482120589
101325.4066438156
101325.4462746189
101325.5259314987
101325.6193744343
101325.6690494181
101325.7049709201
101325.6478106542
101325.6185217503
101325.571311846
101325.5561346156
101325.5210876275
101325.4624336289
101325.3812378158
101325.2548452712
101325.2295691645
101325.1320708261
101325.078128621
101325.0937681895
101325.0921550413
101325.1790096255
101325.2366628473
101325.2852589113
101325.2709043508
101325.2461021269
101325.1413171148
101325.0142156399
101324.8976613273
101324.7948067507
101324.7917156915
101324.7594863152
101324.8010197397
101324.8362112661
101324.944558204
101325.0479725812
101325.1304844727
101325.1895711447
101325.2608369303
101325.3086507855
101325.3447805048
101325.36228498
101325.3680344391
101325.3237941671
101325.2952650659
101325.2394822809
101325.2277101926
101325.2208669001
101325.2771983024
101325.377452253
101325.4731625891
101325.538722828
101325.6158076113
101325.6807334046
101325.6615206529
101325.6664634727
101325.5976435801
101325.5659609612
101325.4942191685
101325.4214635384
101325.3115406099
101325.2232507743
101325.0880699875
101325.0594545375
101325.0150651023
101324.9573419033
101324.9718669243
101324.9974693443
101325.0652145367
101325.1243036972
101325.1517433937
101325.107881524
101325.0834562283
101324.9721654228
101324.8293797736
101324.7437323235
101324.626175691
101324.6344685451
101324.6539105747
101324.6709976662
101324.7243910954
101324.8515870344
101324.8951040256
101324.9917558265
101325.0501803557
101325.0928477305
101325.137857755
101325.1738424883
101325.1719106724
101325.1422400822
101325.1460212438
101325.0569365659
101325.0538084962
101325.0475439224
101325.05587819
101325.0810824569
101325.142498116
101325.233337284
101325.2977249599
101325.3780598992
101325.4701057669
101325.4435585028
101325.3911824027
101325.2722247891
101325.2280844078
101325.0112357482
101324.9627629483
101324.850107467
101324.7655568051
101324.7120293559
101324.7507990339
101324.7419615643
101324.7442968645
101324.8181717458
101324.7614198327
101324.8654161062
101324.8674146199
101324.8033036036
101324.7275037929
101324.6468489111
101324.5049668262
101324.3388758848
101324.2846150822
101324.1351916556
101324.1863526594
101324.206416153
101324.2916066351
101324.3511091149
101324.5063083572
101324.5802282445
101324.6299246201
101324.6443216369
101324.5804084961
101324.5647435933
101324.5615490286
101324.5386626774
101324.5144299098
101324.5070404753
101324.5601777199
101324.5478849427
101324.5543505385
101324.4799055291
101324.5281063649
101324.5351290574
101324.6113138904
101324.6412094161
101324.7838885775
101324.7957776487
101324.7930182133
101324.7677884801
101324.6450925004
101324.5231039881
101324.3654667297
101324.2368335787
101324.0945043294
101324.0133569291
101323.8800474186
101323.9314448029
101323.8925607802
101323.8663671675
101323.8725067593
101323.8638826112
101323.8797532
101323.902328656
101323.8280947511
101323.7580471437
101323.6418643283
101323.5290569633
101323.3752547422
101323.2755620402
101323.2104465074
101323.2102362597
101323.2422976756
101323.2379064978
101323.2826962402
101323.2873278167
101323.3650219735
101323.3669520774
101323.4858925199
101323.3876374795
101323.5832409332
101323.5231660558
101323.4833300287
101323.403485544
101323.3014877296
101323.2167767186
101323.1540993911
101323.1343193558
101323.1253684507
101323.1555530969
101323.2362216131
101323.2692321757
101323.3137705672
101323.2635638839
101323.3025215055
101323.1762848517
101323.0836187507
101322.9575646957
101322.7904642522
101322.70300072
101322.5611479972
101322.4442686941
101322.2711670633
101322.3459152018
101322.2457628141
101322.2393447044
101322.2161803534
101322.2183059685
101322.1975338899
101322.1686790796
101322.1510262172
101321.9248163247
101321.845182236
101321.6635634582
101321.5374027707
101321.3909257554
101321.3554164484
101321.305514823
101321.295867575
101321.3024154423
101321.2833959234
101321.2935999709
101321.3412345309
101321.3651290952
101321.3927600079
101321.4320116907
101321.4466300247
101321.4575894425
101321.4363521212
101321.3397625411
101321.2845426698
101321.1677752593
101321.1339435731
101321.1127300768
101321.0423801293
101320.9783376169
101321.0252263133
101321.0693249698
101321.0823438669
101321.1176511842
101321.0430064969
101320.9544565938
101320.7706919766
101320.5812573752
101320.4126148114
101320.2299822455
101320.2039396136
101320.1013544135
101320.1422837164
101319.9565786642
101319.9709655547
101319.8108372818
101319.7248065506
101319.6556735809
101319.5806486967
101319.5805184112
101319.5597936818
101319.5071811054
101319.3622831719
101319.3048639684
101319.0774077401
101318.9587669873
101318.7938674096
101318.8425591593
101318.6976562226
101318.7173104386
101318.6858791051
101318.6705113423
101318.6610471046
101318.6694998212
101318.6910194722
101318.7508470373
101318.8078832611
101318.7674853623
101318.7503538457
101318.687559422
101318.534556563
101318.4596451405
101318.2891212385
101318.2016692185
101318.1257239014
101318.0896716906
101318.1009412659
101318.058903751
101318.0950007897
101318.0208929347
101318.0974247349
101317.9857547066
101317.9004208511
101317.7913352351
101317.6604571971
101317.5501343507
101317.3589122225
101317.1724332173
101316.9962464555
101316.8494170631
101316.6717724673
101316.606169601
101316.5262444683
101316.4783332948
101316.4529570914
101316.4321472892
101316.3887516738
101316.2993963933
101316.1896798383
101316.0526646288
101315.9414243463
101315.7795226452
101315.6477406771
101315.5241982322
101315.4272183471
101315.3200139437
101315.2434637293
101315.2100743241
101315.2552305442
101315.2867377153
101315.3410037946
101315.3755920436
101315.436003756
101315.3171690419
101315.2987694619
101315.1563355342
101315.0182677123
101314.8917013656
101314.7712489309
101314.6637588012
101314.5918620708
101314.5616167737
101314.5470888029
101314.5423896974
101314.4962072474
101314.4458924465
101314.3559739988
101314.3536837862
101314.2122930442
101314.1425554285
101314.0315575568
101313.9042153213
101313.7825720513
101313.5737588818
101313.3567525623
101313.1592504651
101312.9598162354
101312.8080545197
101312.6995913252
101312.6341182949
101312.6144076896
101312.5401879909
101312.5188516238
101312.4347400115
101312.3213746662
101312.169419402
101312.0110905407
101311.8534387175
101311.7029392143
101311.5570765839
101311.5062377724
101311.3496242071
101311.2977944541
101311.1997725286
101311.1134373514
101311.0940943661
101311.0546631476
101311.0538605103
101311.0740484981
101311.0877622879
101311.0177753562
101310.9610977933
101310.8203028002
101310.6652940003
101310.5465213935
101310.3766196124
101310.2670026915
101310.180143332
101310.1122204543
101310.0524093334
101310.0048878838
101309.9424401306
101309.858631852
101309.7964267605
101309.7190973768
101309.5860383662
101309.4648049376
101309.3158169295
101308.9749452927
)
;

boundaryField
{
    inlet
    {
        type            calculated;
        value           uniform 101325.0000004036;
    }
    outlet
    {
        type            calculated;
        value           uniform 101309.010296884;
    }
    frontAndBack
    {
        type            empty;
    }
}


// ************************************************************************* //
