/*--------------------------------*- C++ -*----------------------------------*\
| =========                 |                                                 |
| \\      /  F ield         | OpenFOAM: The Open Source CFD Toolbox           |
|  \\    /   O peration     | Version:  v2012                                 |
|   \\  /    A nd           | Website:  www.openfoam.com                      |
|    \\/     M anipulation  |                                                 |
\*---------------------------------------------------------------------------*/
FoamFile
{
    version     2.0;
    format      ascii;
    class       volScalarField;
    location    "0.011";
    object      rho;
}
// * * * * * * * * * * * * * * * * * * * * * * * * * * * * * * * * * * * * * //

dimensions      [1 -3 0 0 0 0 0];


internalField   nonuniform List<scalar> 
1000
(
1.17625765026695
1.176334664997724
1.176293970018935
1.176238885045515
1.176209450027936
1.176140472257454
1.176074006064368
1.176013565649829
1.17601330589275
1.176017259739837
1.176015864252475
1.176011270320802
1.175989038489216
1.17596874318429
1.175972324984061
1.176032596355227
1.17612739306899
1.176217581611134
1.17625881395658
1.176255011167398
1.176219521101065
1.176210237657455
1.176259873087301
1.176373880495585
1.176526489228927
1.176649664263124
1.176679222098326
1.176657098694429
1.176649204171514
1.176691050752779
1.17677378985087
1.176854681123553
1.176898629848488
1.176891190333683
1.176815824860321
1.176752652287682
1.17671215396157
1.176726564846072
1.176761856412072
1.176789196277196
1.176792734156053
1.176764522099112
1.176695398083308
1.176608723031226
1.176502312594207
1.176424997255149
1.176341650654334
1.176284220466435
1.176205049726741
1.176176541973156
1.176181317475708
1.176201882227831
1.176185726137737
1.176093140495589
1.175999743824667
1.175912357710533
1.175897056917402
1.175946449057653
1.176044994961122
1.176130050698534
1.176165302802443
1.176135980872261
1.176014189270168
1.175935768857153
1.175935265735133
1.176026187915318
1.17619886161569
1.176392365873166
1.176547237105977
1.176611378934662
1.176568691149694
1.176488365182622
1.176424633820774
1.176466572530551
1.176596125037508
1.176762935734072
1.176890807188971
1.176960297570819
1.176931237242768
1.176850699591074
1.176750255812836
1.176697034516217
1.176718113147054
1.176792691664549
1.176859853877411
1.176895607349405
1.176869348137236
1.176760670752704
1.176636269294881
1.176533344285624
1.176437212244037
1.176386294989163
1.176395144797755
1.176405610213941
1.176409746140373
1.176318359674401
1.176180552139493
1.176066557508433
1.176004777902905
1.176008454789225
1.176057804043505
1.176088646329837
1.176056706496027
1.176004634222982
1.175887936865525
1.175835187231606
1.175875645014448
1.175965766449268
1.176111935423582
1.176208318533922
1.176244428219388
1.176193360556557
1.176131481912015
1.176113769052912
1.176194181097981
1.176360207932389
1.17653903843914
1.176678013913467
1.176721007622128
1.176675489546396
1.17660018832699
1.176564122166077
1.176629051996042
1.176783966355937
1.176945694225014
1.177049155556526
1.177016108993937
1.176908456915696
1.176757624475586
1.176658526009363
1.176677559424165
1.176717807118617
1.176815883361218
1.176869493967659
1.176826883188728
1.176723593176138
1.176571796627332
1.176430302313212
1.176354808783254
1.176323517770147
1.176311998441355
1.176275946337301
1.17623539501818
1.176174714930527
1.17606379110961
1.175993326409537
1.175949803768057
1.175979534513591
1.176035865209655
1.176052245702564
1.17602150494238
1.175964097138936
1.175887271287885
1.175849185018319
1.175888664056706
1.17597608900955
1.176121793853272
1.176245375935007
1.17632858983112
1.176326134671686
1.176299228483114
1.176279389352601
1.176329964543121
1.176444615156169
1.176595573031501
1.17672359651305
1.176775255325113
1.176755280411869
1.176682118896236
1.176640929749452
1.176688530062423
1.176791432236736
1.176925253918598
1.17704880063622
1.177089858105086
1.17702194543786
1.176887769803094
1.176742306406442
1.17665006971373
1.176624566656862
1.176645475398257
1.176671395294285
1.176654937167512
1.176590294957384
1.176484934698332
1.176370072002995
1.176293035416001
1.176207966517018
1.176144283480223
1.176103171753938
1.176113075198406
1.176083204765354
1.176074859101444
1.17603918697429
1.176037338113843
1.175999513735334
1.175937362783981
1.175924803418749
1.175874325599257
1.175874057621034
1.175943620248775
1.176060080421488
1.176155457442936
1.176207083239554
1.176211508068792
1.1761843888387
1.176190101619357
1.176292865303923
1.176484803756515
1.176601322137436
1.176642202951903
1.176608652806901
1.176536320810667
1.176512061702882
1.17658314524641
1.176764218244727
1.176973050533137
1.177069203389541
1.177047301655012
1.176946400562559
1.176833528111332
1.176726624225143
1.176723680392573
1.176770843971159
1.176830336057339
1.176831030694125
1.176795940615226
1.176723861471636
1.176659057064551
1.176542258387772
1.176398778027636
1.17631257764784
1.176308892460217
1.176276543525298
1.176272641973169
1.176262607993167
1.176286513891097
1.176235537758909
1.176059147334403
1.175851667246768
1.175756509759906
1.175702331136984
1.175749455146265
1.175896537568953
1.176076645677527
1.176189630989035
1.176200211495249
1.176126963173074
1.176023346326331
1.175942721349879
1.175939652088999
1.176008067770119
1.176137692776486
1.176267737565294
1.176464451286704
1.176611145841571
1.176651269432287
1.176645505376789
1.176665536289764
1.176716140208963
1.176776062678703
1.176819326635243
1.176812486761059
1.176805683718277
1.176838410778969
1.176883898353311
1.176942128665715
1.176973640431395
1.176958104567353
1.17688979283352
1.176799552553649
1.176714729796535
1.176672790712216
1.176666499102808
1.176663558579902
1.176631744091223
1.176568457405636
1.176476307246316
1.176363279429029
1.17621071862094
1.176146524134545
1.176137234563217
1.176136846477821
1.176117358821666
1.176096836004514
1.176080626632587
1.176064262611048
1.175978633160524
1.175854333027363
1.17580901518111
1.175775112848661
1.175814142000256
1.175917089552054
1.17605133875426
1.176149135203785
1.176174399812934
1.176161955393306
1.17616969788689
1.176248175797698
1.176400408079968
1.176522643207256
1.176563813619887
1.176527023664494
1.17645062960305
1.176416506135824
1.176454605747367
1.17657569412947
1.176761396469698
1.176986621339155
1.177071566390345
1.177066104861451
1.177007908322836
1.176965060628617
1.176856429385531
1.176754285848973
1.176707150354897
1.176669238000297
1.176645999889328
1.176665766320855
1.176710187096589
1.176773836654007
1.17681040350235
1.176747366689133
1.176559661641989
1.176316541288716
1.176184346167345
1.176148941598901
1.176173508873288
1.176208949069216
1.176202055602124
1.176107469412961
1.175942141069188
1.175842227331844
1.175799497002486
1.175842602450093
1.175937408162578
1.176023898880054
1.176073664798597
1.176057064841256
1.175995321119127
1.175934989104423
1.175914694503462
1.175948402805677
1.176035978372046
1.176143992347581
1.176316877000905
1.176490263325194
1.176532283360954
1.176526594614113
1.176526524822762
1.176548936961721
1.176608497806594
1.176704204763698
1.176841984993905
1.176936333605031
1.176942388682841
1.176917843209688
1.176895348897287
1.176888518761418
1.176895368433717
1.176910270373843
1.176906684670428
1.176879509334039
1.17684674315402
1.17683101649804
1.176835068196074
1.176826018208358
1.176779389668498
1.17669567562018
1.176581384109404
1.176426645587777
1.176209462377163
1.176032561011485
1.175975734832561
1.175962398559638
1.175956577418037
1.175982130507759
1.176013596917365
1.176046512221358
1.176042328752375
1.176004569285288
1.175944062285727
1.175894913585263
1.17588077599257
1.175893821272246
1.17592149453233
1.17594434795126
1.175979406102911
1.176049913545541
1.176180429617481
1.176359512827972
1.176422998310042
1.176425114958021
1.176413947118755
1.176438290510007
1.176484317354684
1.176519801763414
1.176546448369735
1.176589570533928
1.176722859981172
1.176861329973553
1.176927632261006
1.176977227675408
1.177012901858353
1.176995691529901
1.176919652557632
1.176833493062859
1.176729988024024
1.17668684474504
1.176722070325694
1.176792228403417
1.176900353937613
1.176970960717252
1.176952820557968
1.176833886639535
1.176600165469913
1.176287530731459
1.176064983950929
1.176039045841236
1.176113309167496
1.176183588063162
1.176194978130208
1.176133614643525
1.176009392873563
1.175866285391713
1.17578812145486
1.175795793451952
1.175868221511025
1.175993342026395
1.176066499558776
1.176043580485836
1.175993133514194
1.175895878487934
1.175844664240308
1.175890613016496
1.176052922281595
1.176247326835712
1.176445584991243
1.17651057932482
1.176504789382387
1.176419675421434
1.176329207381117
1.176336905625905
1.176468221670051
1.176705388958118
1.176864162828132
1.177064699798387
1.17713333050861
1.17709580747906
1.177010172199421
1.176815552483117
1.176611867892683
1.176533315244658
1.176552516904124
1.176646523083592
1.176878377576649
1.177172342043976
1.177342390017005
1.177383133522594
1.1772385041993
1.176904389717867
1.176392168533882
1.175893523854651
1.175637911094152
1.175599316468124
1.1756402284958
1.175948244381216
1.17641914868318
1.176668362107522
1.176676912812956
1.176652969463878
1.17658097028998
1.176224336543809
1.175654664588985
1.175320258726523
1.17516678479926
1.175076473196724
1.175121103000633
1.175449033859134
1.175959954154978
1.176285764065163
1.176475862187819
1.176618653996548
1.176605195862857
1.176460907023445
1.176137214943491
1.175863530902466
1.175827203535962
1.17579342654953
1.17566636668389
1.175609894097113
1.175720017187143
1.176358819937589
1.177096613094123
1.177519438264847
1.177729602571898
1.177836429682915
1.177936441003045
1.177912743536185
1.177670821465756
1.177066636469942
1.176584058159206
1.176327529758116
1.176264317108188
1.176319414080314
1.176745619641357
1.177257829512431
1.17749638503225
1.177370029699204
1.177006889859312
1.176622397645514
1.176248961788049
1.176080807145063
1.176146662474696
1.176293371820601
1.176337393667453
1.176279380644178
1.176070580417794
1.175662864398394
1.175257576667105
1.175035161406785
1.174979373933647
1.17512159740177
1.17560177349742
1.176221090909152
1.17661943449682
1.17682407167835
1.176771922706207
1.176409010627193
1.175837410926405
1.17538196378864
1.17519257612765
1.175346076873988
1.175726051777233
1.176220729756924
1.176672754611979
1.17694206530193
1.176955845292063
1.176802885720223
1.176651836127034
1.17660713525447
1.176908089795944
1.177346290083478
1.177609025840011
1.177787855857635
1.177803587338637
1.177442199614074
1.176763083763143
1.176331658283354
1.176201447122053
1.176281920451727
1.176571355466867
1.177136700700719
1.177552886763987
1.177623983498326
1.177323711000828
1.176754194583999
1.176321287142168
1.175928486461139
1.175859089159498
1.176029409413807
1.176312854423647
1.176450337009532
1.17639193372646
1.176068192620181
1.17556440894571
1.175143847721915
1.174903921394543
1.174910956328606
1.175261282224117
1.175942679188503
1.176514285636734
1.176733491894719
1.176618179398542
1.176331898843536
1.175776805037234
1.175425222991184
1.175409140503151
1.175724832737325
1.176261924197466
1.176652115931258
1.176937455813135
1.176908857297541
1.176660930437184
1.176350825868646
1.176147906553773
1.176171039565368
1.176516086431301
1.177141344364416
1.177706442002048
1.178065567869071
1.178154463137921
1.177915501791961
1.177185402908659
1.176459358114891
1.1760956528371
1.176104983484267
1.17628814500473
1.176933949703905
1.177453705986478
1.177602009535826
1.177337704967461
1.176770812661272
1.17635934659408
1.175915195509235
1.175826139863431
1.176019545521528
1.17637594767559
1.176558042468843
1.176573142553886
1.176250177766359
1.175690172988814
1.175053118745303
1.174748274982337
1.174762286655989
1.174983907091305
1.175612013367578
1.176386323923217
1.176818703270975
1.177030411008437
1.176932037377803
1.176377879936615
1.175684862625942
1.175185828883923
1.175032932072909
1.175302702717608
1.175847460221156
1.176470031588568
1.176974589956834
1.177184028881168
1.177072487261701
1.176779812809024
1.176475768838389
1.176363273650661
1.176659049028447
1.177178841960505
1.177619697373247
1.177948775816701
1.178029749009752
1.177658206809088
1.176834191918748
1.17619951039809
1.175881839929481
1.175970291110753
1.176443473283176
1.17729761346936
1.177867295986077
1.177946628563591
1.177540050550678
1.176734345720629
1.17604016850708
1.17546598735644
1.175370887143441
1.175628128643068
1.176074793314664
1.1764416413201
1.176488833675642
1.176176349480677
1.175665671286037
1.175160967509594
1.174833752077665
1.174769572896248
1.175143694818313
1.175914065089042
1.176553480745054
1.176892047555504
1.176813937099751
1.176315642404222
1.175521579899163
1.174919197749758
1.174755216089653
1.175065870464266
1.175776369951768
1.176630147992877
1.177286119312887
1.177548406996609
1.177377880331378
1.176909254404521
1.176419844520096
1.176116458571514
1.176220789735223
1.17682334460101
1.17747349652981
1.177964823033044
1.178149533622992
1.177949854773411
1.177118573356647
1.17619695813647
1.175660627580891
1.175559744171228
1.175878834566408
1.176672451257843
1.177634713299257
1.178133925851079
1.178103272268501
1.177578220294214
1.176655709746874
1.17578176813757
1.175190972845063
1.175094791006372
1.175359828563358
1.175873784892371
1.176280180008606
1.17638271819888
1.176052154618089
1.175454999274838
1.174840690424847
1.174558919733427
1.174743563960103
1.175372031023348
1.176298606846189
1.176995204512744
1.177212256819431
1.176892250075349
1.176314905020887
1.175289158720301
1.174611013966312
1.174477648419366
1.174913236593936
1.175808179598029
1.17658579312486
1.177301962127247
1.177494353471113
1.177285320464556
1.176744142342387
1.17628939625841
1.176219869423302
1.176545968672005
1.17714828234672
1.177752579028513
1.178158730084965
1.17813081636279
1.177468018147737
1.176418282790322
1.175523194145397
1.175097288327436
1.175237393200959
1.175816445991779
1.176960048629895
1.177926426638719
1.178240038696849
1.177907658713139
1.177065773201493
1.176247630652582
1.175251781703026
1.174877327155589
1.175005057244028
1.175516926007962
1.175859115394544
1.176162159015776
1.176023211044747
1.175481138544316
1.17503825529801
1.174638781505275
1.174646960566977
1.175087611558283
1.17562859190219
1.176399262058255
1.17676088451951
1.176713856747644
1.176243284727899
1.175603446261192
1.174664861797051
1.174159337796081
1.17417263066288
1.174710971948294
1.175816951866786
1.176773595540672
1.177690429117759
1.177994279395177
1.177832754376889
1.177284320054838
1.176652212582808
1.176376965924266
1.176485478096318
1.176865046120116
1.177236752017708
1.177368836401846
1.177141808404538
1.176483419885738
1.175685216032106
1.175260586713618
1.175228115232636
1.175566718629945
1.176359094715557
1.177404499625778
1.17810561966759
1.178350341450574
1.177937189310879
1.176926375191535
1.175631716294589
1.174426186536058
1.173791506732872
1.173760804086328
1.174255620912779
1.174978406603955
1.175729216356111
1.176134800917267
1.176054437180314
1.175675195731967
1.175217668866422
1.174834424260097
1.174842924700446
1.17535142921846
1.175867386534712
1.176267112496352
1.176327563880721
1.175945695057073
1.175114686874878
1.174318431717498
1.173948086947958
1.174149672831265
1.174962164588098
1.176105271508787
1.177211125546582
1.177851571332041
1.177868000484908
1.177343114202346
1.176482184685851
1.175743887984551
1.175391348860971
1.175455018225572
1.175897459627651
1.176518475756304
1.177084481352789
1.177230058052989
1.176937892635903
1.176438736512282
1.175861935056493
1.175578438878941
1.175696763068483
1.176362737303741
1.177099943701055
1.177637631431226
1.17767984491251
1.177053964440313
1.175830161282185
1.174630704376049
1.173820995954451
1.173605493433011
1.173962987975494
1.174663175966306
1.175431708256683
1.175877665168758
1.175876410453875
1.175497604455308
1.174976279217806
1.174604999842557
1.174573640478428
1.174772944688936
1.17518802744146
1.175480700582278
1.175547295816017
1.175607320808869
1.175383398541481
1.175167802452248
1.175160567242239
1.175378707161359
1.175405779734806
1.175594185883377
1.175857508375677
1.176080782585144
1.176159166986034
1.176294359521484
1.17631321008741
1.176265204377725
1.176104141940261
1.176010934518914
1.176064171982308
1.176313864817344
1.176606369473913
1.176777892629497
1.176757607941946
1.176402493668938
1.176009324215052
1.175597097977665
1.175462608340963
1.175641928200817
1.176247296531111
1.17689856726284
1.177290826548119
1.177206296205417
1.176503502538363
1.175307105812243
1.174210268160688
1.173555135043692
1.173363493570472
1.173805087131085
1.17462569851238
1.175543640366696
1.176005308715769
1.175925338971972
1.175506060641144
1.174929855313642
1.174387692705705
1.174213862632392
1.174486364685571
1.174972956024532
1.175439431614371
1.175656498722011
1.175519382770834
1.175000122684496
1.174358516063819
1.173983325187665
1.174004171147378
1.174566454427045
1.175642496831138
1.176576095605729
1.177164788489153
1.177375218904917
1.177044764278081
1.176315641817092
1.17551428256637
1.175141060996988
1.175219029132586
1.175663619244956
1.176211755181867
1.176639375837791
1.176645923883624
1.176273707299086
1.175839128439725
1.175490708267591
1.175453130793391
1.175779693795277
1.176305944227953
1.176944128507346
1.177244909844259
1.176996304895161
1.176078235844209
1.174704289112227
1.173833369067554
1.173347167653416
1.173365233534963
1.173836329857498
1.174760878388796
1.175586046505236
1.175854172127821
1.175727277052495
1.175275106740619
1.174613671850919
1.17401247698749
1.173853799700347
1.174081837092309
1.174554985133931
1.175077809196064
1.175447774299216
1.175461733618406
1.175096203426124
1.174582650047868
1.174073165404459
1.173817778821007
1.174034614035228
1.174765977310315
1.17591419339088
1.176797620317632
1.177189472613689
1.177194086907578
1.176738669690236
1.175876450526506
1.175108966692719
1.1749691565833
1.175143384836826
1.175529263259099
1.175999592391663
1.176441522928735
1.176462755420748
1.176242349873889
1.175789013136129
1.175347551050361
1.175067965339642
1.175144619155213
1.175575905869625
1.176126743216439
1.176546937581492
1.176658609931178
1.176193348585975
1.175151206576953
1.173996649497035
1.173311817695626
1.172974812860015
1.173177519249214
1.173772015911144
1.174622192067397
1.1751464920682
1.175257305861616
1.175095319457204
1.174695839543201
1.174170780250668
1.173904159094439
1.173940931244682
1.174157553628546
1.17446624041873
1.174739023681138
1.174811086170053
1.174648242139616
1.174319014703401
1.174103453563394
1.174149245408486
1.174553054060152
1.175558799709856
)
;

boundaryField
{
    inlet
    {
        type            calculated;
        value           uniform 1.176411716172193;
    }
    outlet
    {
        type            calculated;
        value           uniform 1.175739540324902;
    }
    frontAndBack
    {
        type            empty;
    }
}


// ************************************************************************* //
