/*--------------------------------*- C++ -*----------------------------------*\
| =========                 |                                                 |
| \\      /  F ield         | OpenFOAM: The Open Source CFD Toolbox           |
|  \\    /   O peration     | Version:  v2012                                 |
|   \\  /    A nd           | Website:  www.openfoam.com                      |
|    \\/     M anipulation  |                                                 |
\*---------------------------------------------------------------------------*/
FoamFile
{
    version     2.0;
    format      ascii;
    class       volScalarField;
    location    "0.011";
    object      T;
}
// * * * * * * * * * * * * * * * * * * * * * * * * * * * * * * * * * * * * * //

dimensions      [0 0 0 1 0 0 0];


internalField   nonuniform List<scalar> 
1000
(
299.9866955679259
299.9904122584508
299.9844824687731
299.9793180996102
299.97712662816
299.9708091648649
299.964608170785
299.958626123751
299.9585885250842
299.9589793097052
299.9588644140167
299.9584760582526
299.9563185985619
299.9543621510674
299.954793136815
299.9609863605596
299.9707211726447
299.9799763415378
299.9842297527539
299.9838717811179
299.9802715237406
299.9793426097326
299.9844225806314
299.9960725412529
300.0116535929554
300.0242293300965
300.0272500304333
300.0249956439284
300.024192701936
300.0284642114909
300.0369083561652
300.0451628877152
300.0496473425478
300.0488883608606
300.0411984529213
300.0347523281831
300.03061973173
300.0320900832301
300.0356909703384
300.0384803936662
300.0388412450279
300.035962547322
300.0289091332106
300.0200644989686
300.00920541909
300.0013149723634
299.9928087969536
299.9869475679548
299.9788673279598
299.9759573991307
299.9764444911913
299.9785432173347
299.9768941849456
299.967443789456
299.9579101272892
299.9489898145736
299.9474279685759
299.9524700523244
299.9625291087017
299.9712109523745
299.9748092430959
299.9718163324828
299.9593841200368
299.9513788423351
299.9513273957858
299.9606085545806
299.9782330761415
299.9979824802552
300.013787879819
300.0203332986122
300.0159770750595
300.0077797139035
300.0012758175533
300.0055560543196
300.018776728993
300.0357986649582
300.048846572234
300.0559368600009
300.0529719686525
300.0447545712711
300.0345060662693
300.0290757114122
300.0312266392762
300.0388361235129
300.045688967602
300.0493372485364
300.04665818757
300.0355688422708
300.0228744802634
300.0123716061892
300.0025614921175
299.9973649669016
299.9982679429972
299.9993357841695
299.9997578263203
299.9904310346989
299.9763655126025
299.9647298229858
299.9584235906052
299.9587987590066
299.9638359806386
299.966983922463
299.9637235137523
299.9584081074852
299.9464953105278
299.941110187998
299.9452401611013
299.9544397047615
299.969359592982
299.9791969002668
299.9828822076121
299.9776698211404
299.9713536391685
299.9695455188773
299.9777531811762
299.9946981984852
300.0129483750728
300.027129859329
300.0315166335436
300.0268717614909
300.0191872997696
300.0155066367391
300.0221324049618
300.0379395800838
300.0544406302735
300.0649958789444
300.0616240332259
300.0506401640184
300.0352498355999
300.0251372296553
300.0270789274401
300.0311855272962
300.0411924453193
300.0466621216775
300.042314186212
300.0317745024254
300.0162841404423
300.0018441074901
299.9941394122181
299.9909456728547
299.9897698035619
299.9860900751177
299.9819509220076
299.9757574131759
299.9644348963039
299.9572419127596
299.9527991768823
299.9558341119964
299.9615841640044
299.9632561543192
299.9601183513955
299.9542585469469
299.9464162672692
299.9425285072248
299.9465590628457
299.955483929811
299.970357073652
299.982971141439
299.9914648712037
299.9912150398607
299.9884696049202
299.9864453467821
299.9916077478443
300.0033094480849
300.0187154554859
300.0317801407527
300.0370519548367
300.0350144819776
300.027549942807
300.0233475744714
300.0282054589899
300.0387060941553
300.0523609489712
300.0649668011297
300.0691560717709
300.0622279679268
300.0485389429367
300.0336972501147
300.0242861468854
300.021684221223
300.0238182526872
300.0264636879351
300.0247846879834
300.0181887439948
300.0074371648086
299.9957152651259
299.9878536372432
299.9791719648322
299.9726722242468
299.9684761673443
299.9694874019898
299.9664387811995
299.9655871606147
299.961946378983
299.9617582218389
299.9578976166607
299.9515536167564
299.9502719017486
299.9451193057574
299.9450925186755
299.9521942787308
299.9640825814784
299.9738181648477
299.9790877905704
299.9795397984915
299.9767721234663
299.9773557470152
299.9878447925765
300.007433977475
300.0193247844234
300.0234966822927
300.0200733875614
300.0126925674717
300.0102172540409
300.0174716307337
300.035949395005
300.057257317848
300.0670672221372
300.0648329580277
300.0545386959949
300.0430226377619
300.0321149507859
300.0318147935379
300.0366275821831
300.0426982515777
300.0427693288003
300.039189033441
300.0318343050002
300.0252220803528
300.0133040622596
299.9986616199086
299.9898641569484
299.989488241964
299.9861868422568
299.9857887969346
299.9847649020801
299.9872052988773
299.9820032004491
299.9639996563
299.9428203866399
299.9331062404631
299.9275752105256
299.932386458416
299.9474019379631
299.9657873566412
299.9773201510935
299.9784002181199
299.9709239489833
299.9603476147507
299.952117818879
299.951804628745
299.9587883545692
299.9720195593995
299.9852932590969
300.0053704036475
300.0203403507392
300.0244346172806
300.0238464319656
300.0258905311413
300.0310541615592
300.0371684910854
300.0415831127352
300.04088528448
300.0401911470957
300.0435304533133
300.0481715992318
300.054112782697
300.0573277636556
300.0557426642618
300.0487728747203
300.0395652902108
300.030910127945
300.0266306240511
300.0259885574957
300.0256884412179
300.0224419707867
300.0159837497474
300.006579673665
299.9950446468185
299.9794743167507
299.9729217590798
299.9719734451472
299.9719337899187
299.9699446783551
299.9678497786259
299.9661952173082
299.964524880472
299.9557841849353
299.9430954604533
299.9384690260623
299.9350079255108
299.9389923566076
299.9495016791163
299.9632058335394
299.973188365509
299.9757672242512
299.9744970949519
299.9752875982519
299.9832977943273
299.9988349228387
300.0113095951165
300.0155110903246
300.0117568427337
300.003960809761
300.0004784126303
300.0043668166139
300.0167239240764
300.0356737538224
300.0586543885623
300.0673204508249
300.066763209357
300.0608258291309
300.0564544103917
300.0453711118216
300.0349487080378
300.0301389403359
300.0262703088088
300.0238989962022
300.0259160058575
300.0304486942073
300.0369433400763
300.0406743715838
300.0342423779106
300.0150885003988
299.990277160332
299.9767846386849
299.9731708221847
299.9756783225479
299.9792954919643
299.9785919009149
299.9689375594086
299.9520615236552
299.9418619188361
299.937499637652
299.9419000963071
299.9515780813871
299.9604068529556
299.9654866747338
299.9637922309968
299.9574896223738
299.9513309911365
299.9492593002466
299.9527002568998
299.9616396325183
299.9726649177805
299.9903107257585
300.0080059222454
300.0122937505204
300.0117131089733
300.0117059255924
300.0139930290763
300.0200709336338
300.0298371412428
300.0438959468396
300.0535223499094
300.0541400572289
300.051635639487
300.0493405317235
300.0486436354542
300.0493424765469
300.0508628743199
300.0504970095273
300.0477242573489
300.0443810314939
300.0427764409334
300.0431899001674
300.0422665789872
300.0375089599588
300.0289670110406
300.0173044636374
300.0015138315187
299.9793489015764
299.9612923729964
299.9554915715796
299.9541302504739
299.9535360633545
299.9561445308412
299.9593565743389
299.9627164477339
299.9622894405831
299.9584350922918
299.9522585850445
299.9472413796263
299.9457981383788
299.9471298132577
299.9499547054955
299.9522875429037
299.9558662050683
299.9630633504199
299.9763854985907
299.9946637193596
300.0011424265541
300.0013583754637
300.0002186299574
300.002703056713
300.007400205244
300.0110213444244
300.0137406591304
300.018141296411
300.031742920493
300.0458717112453
300.052636470309
300.0576966191671
300.0613362673743
300.059580418969
300.0518224055429
300.0430313782877
300.0324700308817
300.0280676597943
300.0316620953971
300.0388208279191
300.0498531413623
300.0570569926344
300.0552063594238
300.0430715743123
300.0192228690066
299.987317803377
299.9646028509259
299.9619549777149
299.9695352467014
299.9767085357585
299.9778710998254
299.9716078859618
299.9589281451353
299.9443196773191
299.9363402011127
299.9371233833743
299.9445173759672
299.9572897949054
299.9647573916471
299.9624179142558
299.957268613634
299.9473407193458
299.9421124968416
299.9468032661489
299.9633717022216
299.9832144294234
300.0034482610722
300.0100807645802
300.0094897357903
300.0008037697763
299.9915706771009
299.9923566278998
300.0057587796799
300.0299615367046
300.0461624035679
300.0666222645032
300.0736239027618
300.0697957756688
300.0610590281065
300.0412021544237
300.0204177639558
300.0124016970404
300.0143612835236
300.0239543595296
300.0476123987414
300.0776024813443
300.0949492525562
300.0991054828715
300.0843529362435
300.0502666413122
299.997998162201
299.9471012979264
299.9210059436504
299.917065065647
299.9212424631807
299.952688207415
300.0007509157254
300.0261812241177
300.0270527217362
300.0246089110338
300.0172623386413
299.9808683972666
299.9227104654998
299.8885636410162
299.8728907826743
299.8636685729435
299.8682279978554
299.9017169552021
299.9538743701413
299.9871280202887
300.0065278782529
300.0211002647746
300.0197287054589
300.0050051758721
299.9719695725811
299.9440291963096
299.9403187348194
299.9368683688166
299.9238962450602
299.9181311374696
299.9293775998472
299.9945842873202
300.0698594468317
300.112988399519
300.1344223634581
300.1453157199076
300.1555148448165
300.1530992938264
300.128431181897
300.0667957511024
300.0175512488944
299.9913699465734
299.9849180503774
299.9905433799049
300.034038820708
300.0862963031402
300.1106293470745
300.0977429131071
300.0606995054935
300.0214677736684
299.9833563021205
299.9661920818263
299.9729131822561
299.9878864614074
299.9923787047229
299.98645771473
299.9651458081178
299.9235239321706
299.8821409554488
299.8594286307945
299.8537319238866
299.8682581127974
299.9172903953434
299.9805090704016
300.0211606600496
300.0420410174243
300.0367193950953
299.9996853496655
299.9413406784751
299.8948418438465
299.8755041388993
299.8911814480021
299.929977345121
299.9804735308521
300.0266050324234
300.0540841707551
300.0554890823852
300.0398808871553
300.0244672436182
300.0199055999998
300.0506157479672
300.0953187559335
300.1221179356332
300.14035694027
300.1419612500545
300.1051051168095
300.0358151339022
299.991785582425
299.9784938626203
299.9867071065777
300.016249176939
300.0739320794256
300.1163874411841
300.1236401397978
300.093014339201
300.034912944684
299.9907358773658
299.9506408806791
299.9435551313364
299.96094039201
299.9898698438496
300.0038999190229
299.9979397832863
299.9648969336763
299.9134672923538
299.8705244605765
299.8460228733394
299.846741687836
299.8825203453671
299.9520885799117
300.0104252438829
300.0327905857267
300.0210223041281
299.9918088798928
299.9351462454649
299.8992526157804
299.8976123928779
299.9298463202111
299.9846732545857
300.0244941439857
300.053608367373
300.0506898533638
300.0253909176502
299.9937432023156
299.9730318200553
299.9753928782685
300.010607903317
300.0744051256186
300.1320469319007
300.168671854907
300.177736355557
300.1533717500815
300.0789032240594
300.0048163117946
299.9676920625582
299.9686409964416
299.9873373518633
300.0532379207281
300.1062613654801
300.1213881902999
300.0944321534062
300.0366007215719
299.9946134422158
299.9492769990514
299.9401842531138
299.9599256018847
299.9962997539218
300.0148813372319
300.0164225453752
299.9834620854598
299.9262973520941
299.8612474543448
299.8301142746795
299.8315462835832
299.8541829988018
299.9183227062418
299.9973563715071
300.0414751742098
300.0630739323317
300.0530373277545
299.9964884746282
299.9257453452023
299.8747918734861
299.8591783209698
299.8867311943683
299.9423514495967
300.0058971270479
300.0573830302648
300.0787489901481
300.0673691479546
300.0375067224764
300.0064802631887
299.9949984687916
300.0251833813734
300.0782146943066
300.1231842013455
300.1567479158832
300.1650053591927
300.1271193308742
300.0430539510186
299.9782786966593
299.94584875944
299.9548743937948
300.0031719537545
300.0903163037988
300.1484230824329
300.1565146107521
300.1150532296458
300.0328614217407
299.962017119786
299.9033960479983
299.8936827046671
299.9199471686547
299.965543973623
300.00298445703
300.0077993861678
299.9759064964015
299.9237749634181
299.8722430092357
299.8388286269957
299.8322742873525
299.8704862039465
299.9491393438283
300.0143978244811
300.0489442952727
300.0409728364706
299.9901216275685
299.9090572673074
299.8475407946332
299.8307907155562
299.86252492096
299.9350761080141
300.0222212946368
300.0891504877901
300.1159039176719
300.0985103530075
300.0507006517145
300.000759031964
299.9697943487097
299.9804449360178
300.0419337819858
300.1082600491025
300.1583714984909
300.177207226691
300.1568476676046
300.0720556361568
299.9780021773497
299.9232501390874
299.9129463024324
299.9455230550194
300.0265243304867
300.1246815865878
300.1755939750173
300.1724717463251
300.1189274844335
300.0248154845197
299.9356183591548
299.8752944027307
299.8654688950508
299.8925325814985
299.9450061619243
299.9864882934542
299.9969539061682
299.9632144045733
299.902250906549
299.8395197489178
299.8107404553979
299.8296028404761
299.8937853154705
299.9883706761073
300.0594502265827
300.0815896712913
300.0489413051936
299.9900276928111
299.885305716748
299.8160457688217
299.8024210092605
299.8469170549051
299.9383041493575
300.0176750647754
300.0907409937353
300.1103635381368
300.0890431384412
300.03383348889
299.9874259277038
299.980329124803
300.0136077010765
300.0750608231106
300.1367028298449
300.1781241902859
300.1752810268571
300.1076884544184
300.0005832506471
299.9092068521372
299.8657111933322
299.8800136061787
299.9391330327007
300.0558396500676
300.1544087566294
300.1863855529166
300.1524981748929
300.0666343732175
299.9831566119782
299.8814800183093
299.8432338768752
299.8562765132911
299.9085462596134
299.9434784927043
299.9744084856701
299.9602236084627
299.9048854050158
299.8596629777855
299.8188629466242
299.8197020257527
299.8647122874411
299.9199508548026
299.9986096405366
300.0355084450513
300.0307080664925
299.9826864288751
299.9173734772234
299.8215111843166
299.7698643645918
299.7712225450684
299.8262233621642
299.9391785291763
300.0368182949962
300.1303412742548
300.161325585434
300.1448571885113
300.0889221344714
300.0244289306311
299.9963347628245
300.0074054842954
300.0461340223434
300.0840581860925
300.0975336497401
300.0743775900285
300.0072032038588
299.9257227889917
299.8823650035518
299.8790480374745
299.9136226915066
299.9945061716679
300.1011545064275
300.1726526391938
300.1976021901994
300.1554824265574
300.0523758600037
299.9202393037337
299.7971292850131
299.7322881321959
299.7291515269538
299.7797107447621
299.8535446230825
299.9302131542303
299.9716143122544
299.9634101215482
299.9246910168199
299.8779741147134
299.8388368252722
299.8397048741643
299.8916324117591
299.9443121344522
299.9851173487129
299.9912869886998
299.9523100622144
299.8674569863172
299.7861140719258
299.7482690965814
299.7688702784195
299.8518673025837
299.9685794352473
300.0814297465041
300.1467614323499
300.148439347053
300.09490316876
300.0070656127884
299.9317045278913
299.8957077043915
299.9022071122947
299.947373903099
300.0107612964749
300.068520335109
300.083372480726
300.053564778535
300.0026284321282
299.9437577448743
299.9148183465069
299.9268985474333
299.9948722001012
300.0700909506165
300.1249386279844
300.1292415016318
300.0653945394903
299.9405022235766
299.8180207199306
299.7352936054908
299.7132651234712
299.7497998201358
299.821338454913
299.8998274414664
299.9453557171128
299.9452260253144
299.9065500852645
299.8533131128367
299.8153912826768
299.8121879594162
299.8325487102014
299.8749415396023
299.904825753022
299.9116239142127
299.9177535356691
299.8948901619942
299.872873494577
299.8721330777507
299.8944071957286
299.8971701779358
299.9164098322408
299.9432956599434
299.9660843656291
299.974085633287
299.9878869600518
299.9898112808199
299.984910468774
299.9684685874888
299.9589537808976
299.9643864907133
299.9898662945287
300.0197154992169
300.0372190001823
300.0351487790066
299.9989066650018
299.9587744700518
299.9166936195296
299.9029642347461
299.9212745141886
299.9830680571763
300.0495257784587
300.089543767687
300.0809202464258
300.0092042951804
299.8870737723347
299.7750478626219
299.7081068954375
299.6885191259235
299.7336526212874
299.8175018024377
299.9112523947882
299.9583817154374
299.9502189587969
299.9074120931782
299.8485731109315
299.7931971035246
299.7754362943697
299.8032744214431
299.8529732133806
299.9006090198105
299.9227728690722
299.9087743871342
299.8557494943672
299.7902083202791
299.7518724604667
299.7540004372278
299.8114429001682
299.9213384603386
300.0166330334237
300.0766992872228
300.0981642740063
300.0644558445707
299.9900613037845
299.9082603989772
299.870148006805
299.8781106966936
299.9235053809788
299.9794596517182
300.0231011788082
300.0237677884818
299.9857797033161
299.9414204620914
299.9058514659187
299.9020157971183
299.9353591929038
299.9890792745477
300.0542031156395
300.0848879063676
300.0595268913763
299.9658375994281
299.8255485282956
299.7365666936087
299.6868736331889
299.6887192655024
299.7368670440582
299.8313356291336
299.9156038153145
299.9429762863937
299.93002347469
299.8838542206523
299.8163002328167
299.7548791362344
299.7386623634918
299.7619622627887
299.8102996085203
299.8637047563125
299.9014912498207
299.9029191572459
299.865592666239
299.8131402732623
299.761088918099
299.73498952658
299.7571461735517
299.8318593561625
299.9491111641728
300.0392725040213
300.0792514736831
300.0797231536616
300.0332597205615
299.9452707620824
299.866910888977
299.8526307593341
299.8704231374159
299.9098251345178
299.9578419098997
300.0029498465328
300.0051155891093
299.9826185904785
299.9363426143525
299.8912720082415
299.8627228583013
299.8705527239084
299.9145926347109
299.9708261024124
300.0137128265779
300.0251085186001
299.9776290100812
299.8712451248684
299.7533075188115
299.6833190695895
299.6488680283719
299.6695960684632
299.7303552500613
299.8171734416817
299.8706140906605
299.8818390765007
299.8651795377649
299.8241799315186
299.7703228545966
299.742945530798
299.7465710338688
299.7684766039506
299.7995818112231
299.8266129693263
299.8333767461224
299.8169827811371
299.7847912379004
299.7642228299375
299.770637442766
299.8183233503507
299.9232761322384
)
;

boundaryField
{
    inlet
    {
        type            fixedValue;
        value           uniform 300;
    }
    outlet
    {
        type            inletOutlet;
        inletValue      uniform 300;
        value           uniform 299.9331071594181;
    }
    frontAndBack
    {
        type            empty;
    }
}


// ************************************************************************* //
