/*--------------------------------*- C++ -*----------------------------------*\
| =========                 |                                                 |
| \\      /  F ield         | OpenFOAM: The Open Source CFD Toolbox           |
|  \\    /   O peration     | Version:  v2012                                 |
|   \\  /    A nd           | Website:  www.openfoam.com                      |
|    \\/     M anipulation  |                                                 |
\*---------------------------------------------------------------------------*/
FoamFile
{
    version     2.0;
    format      ascii;
    class       volVectorField;
    location    "0.011";
    object      UMean;
}
// * * * * * * * * * * * * * * * * * * * * * * * * * * * * * * * * * * * * * //

dimensions      [0 1 -1 0 0 0 0];


internalField   nonuniform List<vector> 
1000
(
(-2.876320544642307e-05 0 0)
(-3.998860297560077e-05 0 0)
(5.046186230956004e-05 0 0)
(3.320154449234926e-05 0 0)
(7.058451892112704e-05 0 0)
(0.0001064458391027564 0 0)
(0.0002001535862354553 0 0)
(0.0002885933275070621 0 0)
(0.0002861241804743858 0 0)
(0.0004265075495729702 0 0)
(0.000500877194499076 0 0)
(0.0005329642892210712 0 0)
(0.0006529638980676529 0 0)
(0.0007299302732116618 0 0)
(0.0008256018033272089 0 0)
(0.0008384264961090588 0 0)
(0.001006814742199466 0 0)
(0.001015800370373408 0 0)
(0.001001973903125229 0 0)
(0.001032153124814197 0 0)
(0.001196110424610105 0 0)
(0.001131866420499683 0 0)
(0.00110668103115264 0 0)
(0.001210316060992945 0 0)
(0.001245221982330727 0 0)
(0.001200739250544557 0 0)
(0.001027909366038039 0 0)
(0.001104856573413203 0 0)
(0.001062142112207913 0 0)
(0.0009886569510927446 0 0)
(0.000907800594674995 0 0)
(0.0008555942940904072 0 0)
(0.0007325093417047476 0 0)
(0.000707884083518186 0 0)
(0.0005769022641257361 0 0)
(0.0005346225337657664 0 0)
(0.0004135192705785932 0 0)
(0.0004272834586699949 0 0)
(0.0003269993693013379 0 0)
(0.0002449936947728468 0 0)
(0.0002032146430165394 0 0)
(0.0001280020862361856 0 0)
(9.028374544512923e-06 0 0)
(1.223301358672471e-05 0 0)
(2.373556261532485e-05 0 0)
(-7.317889698354123e-05 0 0)
(-2.838016650128143e-05 0 0)
(-2.416540069658015e-05 0 0)
(6.323197952653297e-05 0 0)
(1.491368669735169e-05 0 0)
(0.0001034957757470342 0 0)
(0.0001051448421256259 0 0)
(0.0002251891723616508 0 0)
(0.0002120396344945089 0 0)
(0.0002935462116975761 0 0)
(0.0003433869789136361 0 0)
(0.0005659417139070687 0 0)
(0.0005361452391183434 0 0)
(0.0006295398725368544 0 0)
(0.0007132842238921092 0 0)
(0.0008213395156542617 0 0)
(0.000793228944781939 0 0)
(0.0008667801337361919 0 0)
(0.001012631075855275 0 0)
(0.001067386418108965 0 0)
(0.001136731395299489 0 0)
(0.001208161444968583 0 0)
(0.001269133553360395 0 0)
(0.001206718688527903 0 0)
(0.001190714994771519 0 0)
(0.001176252870244561 0 0)
(0.00112671979670461 0 0)
(0.001144229285440979 0 0)
(0.001130511988969589 0 0)
(0.001109076459638469 0 0)
(0.00102413286415789 0 0)
(0.001013057144974453 0 0)
(0.0008667399411016088 0 0)
(0.0007359406968485315 0 0)
(0.0007179676615293537 0 0)
(0.0006869372149421563 0 0)
(0.0004640501390089299 0 0)
(0.0004752697643511175 0 0)
(0.000496633249592971 0 0)
(0.0003422784445012892 0 0)
(0.0001851520869697553 0 0)
(0.0001882013082602427 0 0)
(0.0001201910481272769 0 0)
(1.425481164283785e-06 0 0)
(-1.950700193874467e-05 0 0)
(5.489341282202251e-05 0 0)
(-7.896280380726152e-05 0 0)
(-9.731096894494133e-06 0 0)
(-2.264177978937521e-05 0 0)
(-2.664182601827677e-05 0 0)
(-2.278781655890871e-05 0 0)
(3.867521704560694e-05 0 0)
(4.130144397203505e-05 0 0)
(0.0001428005223786767 0 0)
(0.0002719566302976273 0 0)
(0.0002557939442162426 0 0)
(0.0003260607964365441 0 0)
(0.000378074360207418 0 0)
(0.000552779536094929 0 0)
(0.0005429897223283924 0 0)
(0.0006429466755207675 0 0)
(0.0007741432620534286 0 0)
(0.0009444486927898735 0 0)
(0.0008975501450802052 0 0)
(0.0009941205019880206 0 0)
(0.001080219617645012 0 0)
(0.001062036067266051 0 0)
(0.001083923058939052 0 0)
(0.001221728271526762 0 0)
(0.001307095141588742 0 0)
(0.001182196889629614 0 0)
(0.001250387122439377 0 0)
(0.001290534965533322 0 0)
(0.001180787989543558 0 0)
(0.001021451159036536 0 0)
(0.001081107547710515 0 0)
(0.001112103504611435 0 0)
(0.000989593282961297 0 0)
(0.0008761168360141494 0 0)
(0.0008905839040494529 0 0)
(0.0007829862163943055 0 0)
(0.0006001401270668954 0 0)
(0.0004484369250719644 0 0)
(0.0004644268528385833 0 0)
(0.0004233046693851045 0 0)
(0.0003026998506863106 0 0)
(0.0002621222396277373 0 0)
(0.0002083563919769834 0 0)
(0.0001314832499748622 0 0)
(1.785685095018906e-05 0 0)
(-5.727970492587157e-05 0 0)
(-8.383462499904306e-05 0 0)
(-0.0001073450759650119 0 0)
(-0.0001053527103808707 0 0)
(-0.0001123541672794246 0 0)
(-0.0001049786431859569 0 0)
(-5.878460386701721e-05 0 0)
(8.55435428776467e-06 0 0)
(-6.334864676569192e-05 0 0)
(2.145826110503317e-05 0 0)
(0.0002038100748709244 0 0)
(0.0002267116225512066 0 0)
(0.0002247608837643033 0 0)
(0.0003647088628738396 0 0)
(0.0005277688757109424 0 0)
(0.0004457815424271867 0 0)
(0.0005666092711034245 0 0)
(0.0006965737749705566 0 0)
(0.0008334761194039329 0 0)
(0.0008533834652208939 0 0)
(0.0009916858624092297 0 0)
(0.001073487507265171 0 0)
(0.001142910909667298 0 0)
(0.001081914581424303 0 0)
(0.001169918106738306 0 0)
(0.001215764806516746 0 0)
(0.001179820878638298 0 0)
(0.001201344168306527 0 0)
(0.00129648077153358 0 0)
(0.001237545957334884 0 0)
(0.00109261410052407 0 0)
(0.001167390301998513 0 0)
(0.001047106204087308 0 0)
(0.0009955238625676784 0 0)
(0.000901711585102562 0 0)
(0.0009374741495761208 0 0)
(0.0008252803129776164 0 0)
(0.0007559939168588893 0 0)
(0.0006154937782551743 0 0)
(0.0005133010233367442 0 0)
(0.0003998370629969234 0 0)
(0.0003048867745398724 0 0)
(0.0001338246535621382 0 0)
(0.000170718749807154 0 0)
(0.0001174879297521775 0 0)
(9.304661208945218e-05 0 0)
(-6.759611450516991e-05 0 0)
(-4.164637996504071e-05 0 0)
(-3.135113000760485e-05 0 0)
(-0.00010530945601048 0 0)
(-0.0001793967130364334 0 0)
(-7.97253533057197e-05 0 0)
(-1.29782769981794e-05 0 0)
(-5.188578882305823e-05 0 0)
(-3.390799357093859e-05 0 0)
(0.0001097223316288875 0 0)
(0.0002003558445211237 0 0)
(0.0001576393756826112 0 0)
(0.0002531204873951757 0 0)
(0.0003687255747258182 0 0)
(0.0004474931530829347 0 0)
(0.0004632868860091389 0 0)
(0.0005867071154014887 0 0)
(0.000704127747036452 0 0)
(0.0008278351569774148 0 0)
(0.0008720338098743898 0 0)
(0.0009638612157880264 0 0)
(0.00106942016700376 0 0)
(0.001100151637392908 0 0)
(0.001099043899307983 0 0)
(0.001146366897435096 0 0)
(0.00123347213701743 0 0)
(0.001231576294221916 0 0)
(0.001254694627230452 0 0)
(0.0011901680721358 0 0)
(0.001208810239123459 0 0)
(0.001129889660586406 0 0)
(0.001108968714509056 0 0)
(0.001043710668608262 0 0)
(0.001117463730587922 0 0)
(0.001015771604565757 0 0)
(0.0008928500071183867 0 0)
(0.0008113826863665125 0 0)
(0.0007284718998524836 0 0)
(0.0005449473562800202 0 0)
(0.0004517268378042405 0 0)
(0.0004124951460121125 0 0)
(0.0003608339797334001 0 0)
(0.0002542372551788756 0 0)
(0.0001665671332754907 0 0)
(0.0001431865875088411 0 0)
(7.003750171564178e-05 0 0)
(-7.030976968445488e-05 0 0)
(-0.0001132444678461392 0 0)
(-7.004720177986982e-05 0 0)
(-0.000158833792306318 0 0)
(-0.0001614083124194209 0 0)
(-0.0001043575149212735 0 0)
(-7.550513671301521e-05 0 0)
(-8.916503615131063e-05 0 0)
(-5.031905559198889e-05 0 0)
(-2.04231552903868e-06 0 0)
(-1.912449699725646e-05 0 0)
(6.846551358718437e-05 0 0)
(0.0001296819873423611 0 0)
(0.0002494214448821775 0 0)
(0.0003911968671143548 0 0)
(0.0005264317757484063 0 0)
(0.0006330509288551576 0 0)
(0.0007048505436915738 0 0)
(0.0007962215872350726 0 0)
(0.000810290501088334 0 0)
(0.0008407844786579258 0 0)
(0.0009556946154389212 0 0)
(0.001019300489898414 0 0)
(0.001090394532369312 0 0)
(0.001176326260756069 0 0)
(0.001285956939922215 0 0)
(0.001277715058873237 0 0)
(0.001288191305369149 0 0)
(0.001309760491168714 0 0)
(0.00125966843911346 0 0)
(0.001202467103902684 0 0)
(0.001157731585398187 0 0)
(0.001107906616598702 0 0)
(0.001068255619776719 0 0)
(0.0009460983234340954 0 0)
(0.0008827502854126503 0 0)
(0.0008243628836687546 0 0)
(0.0007630130249882992 0 0)
(0.0006375484427766757 0 0)
(0.0005612753331563585 0 0)
(0.0004733626535799415 0 0)
(0.0003431463455993506 0 0)
(0.0002052487927626521 0 0)
(0.000190150470532774 0 0)
(9.008574685715171e-05 0 0)
(4.684154937750183e-05 0 0)
(-4.184663995204611e-05 0 0)
(-2.729402017665706e-05 0 0)
(-0.0001082972065604002 0 0)
(-0.0001659566697358743 0 0)
(-0.0001503376922991049 0 0)
(-0.0001617726083938707 0 0)
(-0.0001592151491339192 0 0)
(-0.0001390061288385363 0 0)
(-1.418702648418603e-05 0 0)
(-5.734363435513397e-06 0 0)
(3.49228820199207e-05 0 0)
(0.0001265153522625758 0 0)
(0.0001768200668351877 0 0)
(0.000255018774253796 0 0)
(0.0003042557031778908 0 0)
(0.0004060109766474018 0 0)
(0.0005400883655636738 0 0)
(0.0006518644497369118 0 0)
(0.0007484796120696868 0 0)
(0.0009002534340190203 0 0)
(0.0009415143446241865 0 0)
(0.001024447132935197 0 0)
(0.001074200390389951 0 0)
(0.001133727272466664 0 0)
(0.001166318937248254 0 0)
(0.001209315099894595 0 0)
(0.001245452315386075 0 0)
(0.001234058214223196 0 0)
(0.001186110407491215 0 0)
(0.001176983861371788 0 0)
(0.001183351734778248 0 0)
(0.001162904843453702 0 0)
(0.001140424902040491 0 0)
(0.001157586569318017 0 0)
(0.001100124383663112 0 0)
(0.001028847703938229 0 0)
(0.0008770281926705164 0 0)
(0.0007957616826903815 0 0)
(0.000655975297162147 0 0)
(0.0005316801065695107 0 0)
(0.0004338674168171225 0 0)
(0.0003810494592322099 0 0)
(0.0002904310004744792 0 0)
(0.0002296568962091774 0 0)
(0.0002282415498518069 0 0)
(0.0001545914828664077 0 0)
(9.652397023186902e-05 0 0)
(4.772833582857789e-05 0 0)
(-3.718705364754739e-05 0 0)
(-0.0001238447023608575 0 0)
(-0.000145893152060333 0 0)
(-0.000156582281088178 0 0)
(-0.0001669028892069417 0 0)
(-8.263173558268366e-05 0 0)
(-2.194811662203079e-05 0 0)
(-8.649227388914336e-06 0 0)
(1.481847396689965e-05 0 0)
(9.202430146614985e-05 0 0)
(0.0001818564001730723 0 0)
(0.000229628231645733 0 0)
(0.0003619538545611475 0 0)
(0.0005074586726920826 0 0)
(0.0005943969989406327 0 0)
(0.0006485620036106263 0 0)
(0.0007508084573697196 0 0)
(0.0008272249782520738 0 0)
(0.0008703235753205115 0 0)
(0.0009765126808112287 0 0)
(0.001066903113366787 0 0)
(0.001175085488571932 0 0)
(0.001228760807437752 0 0)
(0.001305326154922601 0 0)
(0.001350828162995208 0 0)
(0.001364625457380625 0 0)
(0.001322726888261631 0 0)
(0.001316073381602899 0 0)
(0.00130219056180426 0 0)
(0.001273060980123356 0 0)
(0.001232908085727108 0 0)
(0.001192498819355143 0 0)
(0.001141748143286562 0 0)
(0.001027946632225252 0 0)
(0.0009344084035334891 0 0)
(0.0008555229602379139 0 0)
(0.0007345617168751768 0 0)
(0.0006470393957928967 0 0)
(0.0005581417327770269 0 0)
(0.00047042210395073 0 0)
(0.0003466020857994423 0 0)
(0.00029008894507623 0 0)
(0.0001844605975987622 0 0)
(8.900517873806083e-05 0 0)
(2.247707741242071e-05 0 0)
(-5.290470515595698e-05 0 0)
(-0.0001503986998852373 0 0)
(-0.0002194661236235897 0 0)
(-0.0002274517284013982 0 0)
(-0.0002945195684224058 0 0)
(-0.0002824243665146876 0 0)
(-0.0002033188480656484 0 0)
(-0.0001295153707469741 0 0)
(-6.172856273209131e-05 0 0)
(3.525404233373603e-05 0 0)
(0.000130199106357023 0 0)
(0.0002027855042411536 0 0)
(0.0002705988704874065 0 0)
(0.0003306116101744861 0 0)
(0.0004389536469223992 0 0)
(0.0004927034237048557 0 0)
(0.0005984044176680756 0 0)
(0.0006995208651726975 0 0)
(0.0008101189232558346 0 0)
(0.0008925634798771365 0 0)
(0.0009925369307054695 0 0)
(0.001077245224394979 0 0)
(0.001152046073794656 0 0)
(0.001240376397855649 0 0)
(0.001243693830913345 0 0)
(0.001256615333579649 0 0)
(0.001256987136175358 0 0)
(0.001265432064162501 0 0)
(0.001242961627741548 0 0)
(0.001257297761415422 0 0)
(0.001219956866650705 0 0)
(0.001198993419015404 0 0)
(0.001181820031214691 0 0)
(0.001133915571209348 0 0)
(0.001060603059602112 0 0)
(0.0009764282466634945 0 0)
(0.0008654864914224033 0 0)
(0.0007504411427626038 0 0)
(0.0006425122871743668 0 0)
(0.0005283705360983939 0 0)
(0.0004233843069074389 0 0)
(0.0003829971524105841 0 0)
(0.0003183106250646439 0 0)
(0.0002264813122997645 0 0)
(0.0001882284033062692 0 0)
(0.0001285281440743841 0 0)
(-5.106033212258125e-06 0 0)
(-0.0001392368765802975 0 0)
(-0.0001941121048399771 0 0)
(-0.0002690551489666732 0 0)
(-0.0002827588542713347 0 0)
(-0.0002324463994211771 0 0)
(-0.0001907466159309889 0 0)
(-0.0001053337127947212 0 0)
(-6.800127397674907e-05 0 0)
(-1.759925775549275e-05 0 0)
(8.538628208119298e-06 0 0)
(8.050180941138624e-05 0 0)
(0.0001670711538318071 0 0)
(0.0003144412418073565 0 0)
(0.0003930926951057357 0 0)
(0.000500895249390759 0 0)
(0.0006026045424134071 0 0)
(0.0007193400855029022 0 0)
(0.0007237594964990421 0 0)
(0.0008080949725793972 0 0)
(0.0009101289173744413 0 0)
(0.001061709928686534 0 0)
(0.001119328091113482 0 0)
(0.001206020716247262 0 0)
(0.001263031637879158 0 0)
(0.001318552271611809 0 0)
(0.001261300946036918 0 0)
(0.001240866355574966 0 0)
(0.001228911276606922 0 0)
(0.001278674314228315 0 0)
(0.001283637445931755 0 0)
(0.001282376258794193 0 0)
(0.001238653463111127 0 0)
(0.001204518463882884 0 0)
(0.001072351335630773 0 0)
(0.0009509565800530187 0 0)
(0.0007661954324531514 0 0)
(0.0006964534958910941 0 0)
(0.0005867596111250168 0 0)
(0.000525192631284826 0 0)
(0.000486100753183267 0 0)
(0.0004734125026066711 0 0)
(0.0004601065702785167 0 0)
(0.0003764777611263913 0 0)
(0.0002346807345327622 0 0)
(9.668884118238806e-05 0 0)
(-0.0001004097326088346 0 0)
(-0.0002744076126874887 0 0)
(-0.0004219161108587302 0 0)
(-0.0004442493243377608 0 0)
(-0.0003900902787605181 0 0)
(-0.0002614840255632365 0 0)
(-0.0001447069047293598 0 0)
(5.051388922132202e-05 0 0)
(0.0001393167556836949 0 0)
(0.0001747669216809333 0 0)
(0.0001398290546156449 0 0)
(7.397773858766626e-05 0 0)
(3.374985032350573e-05 0 0)
(-1.215142088332274e-05 0 0)
(-1.615437043126488e-05 0 0)
(0.0001125748223814581 0 0)
(0.0003095899860005168 0 0)
(0.0005084584434986278 0 0)
(0.0007522975565870216 0 0)
(0.000997611185061492 0 0)
(0.001303606149999583 0 0)
(0.001346935405556598 0 0)
(0.001385638282274367 0 0)
(0.001392600069103168 0 0)
(0.001346159511168634 0 0)
(0.001356835933427948 0 0)
(0.001362735806786101 0 0)
(0.001373245341874204 0 0)
(0.001457054566796261 0 0)
(0.001588411324183402 0 0)
(0.001737559212820119 0 0)
(0.001859178691416467 0 0)
(0.002017072932618207 0 0)
(0.002143649804413595 0 0)
(0.002213482044075405 0 0)
(0.002094452453891083 0 0)
(0.001936529488145704 0 0)
(0.001682310490341974 0 0)
(0.001415593502606664 0 0)
(0.001181056043024587 0 0)
(0.0008451685193031368 0 0)
(0.0005364695794140408 0 0)
(0.0003999484331639913 0 0)
(0.0003656758095616664 0 0)
(0.0003795290613358619 0 0)
(0.0004021188228463183 0 0)
(0.0004171891433501344 0 0)
(0.0003555492645830003 0 0)
(0.0002023649045115596 0 0)
(5.478678602621348e-05 0 0)
(-0.0001519519412695144 0 0)
(-0.0003394485723280499 0 0)
(-0.0004406003458386817 0 0)
(-0.0003980444691343082 0 0)
(-0.0003676508432251816 0 0)
(-0.0002921674302468999 0 0)
(-0.0002624406914119156 0 0)
(-0.0002210273172264457 0 0)
(-0.0002090719592063621 0 0)
(-0.0001605042352312455 0 0)
(-5.990985556386744e-05 0 0)
(0.0001342931111298505 0 0)
(0.0003995313445919989 0 0)
(0.0006213692312339673 0 0)
(0.000887184653654344 0 0)
(0.001080703181860414 0 0)
(0.001259248531497541 0 0)
(0.001208059106798397 0 0)
(0.001184012183016699 0 0)
(0.001022199386528569 0 0)
(0.000944012317342253 0 0)
(0.001120517154275185 0 0)
(0.001236085745758931 0 0)
(0.001498561579158117 0 0)
(0.001688320039805008 0 0)
(0.001850818831071879 0 0)
(0.001991829873153146 0 0)
(0.001954186516744429 0 0)
(0.00187200562688722 0 0)
(0.001800139843373573 0 0)
(0.001729155102713188 0 0)
(0.001567846543493733 0 0)
(0.001605281387693965 0 0)
(0.001496329999083653 0 0)
(0.001371746230029121 0 0)
(0.001180569005033244 0 0)
(0.0009057997322448382 0 0)
(0.0005965141270448512 0 0)
(0.0003791197490791702 0 0)
(0.0002612574673669307 0 0)
(0.0003225709082288197 0 0)
(0.0002976337984488767 0 0)
(0.0003463877236827638 0 0)
(0.0003421929643869071 0 0)
(0.0002081283917095126 0 0)
(3.091354747577349e-05 0 0)
(-0.0001833110933617856 0 0)
(-0.0004149624242093659 0 0)
(-0.000561568090046615 0 0)
(-0.0006038859652327467 0 0)
(-0.0005012569894214297 0 0)
(-0.0004091616351079624 0 0)
(-0.0003210055202812187 0 0)
(-0.0002141376269230963 0 0)
(-0.0002492330575411128 0 0)
(-0.0003146196530776443 0 0)
(-0.0001976471056166775 0 0)
(-0.0001317849104292025 0 0)
(0.0001384904269494181 0 0)
(0.0003565370564686131 0 0)
(0.0006731582044981517 0 0)
(0.0008743043793604094 0 0)
(0.001079984637901914 0 0)
(0.001135308147196512 0 0)
(0.0010631280132461 0 0)
(0.001011975476611664 0 0)
(0.0009513649611573363 0 0)
(0.001008881760126118 0 0)
(0.001240280178051135 0 0)
(0.001440013925634969 0 0)
(0.001633763497607136 0 0)
(0.001707114056834855 0 0)
(0.001693431742108361 0 0)
(0.001601707703883118 0 0)
(0.001515474022100571 0 0)
(0.001427730993669065 0 0)
(0.001437316223469878 0 0)
(0.001431502594360129 0 0)
(0.001462099512763674 0 0)
(0.001527923943310288 0 0)
(0.001407471953712906 0 0)
(0.001199518826161026 0 0)
(0.0009548137086645044 0 0)
(0.0005357191285079543 0 0)
(0.0003447663587697233 0 0)
(1.773956369715121e-05 0 0)
(4.490344492681687e-05 0 0)
(7.767882580812178e-05 0 0)
(0.0001297770370034009 0 0)
(0.000122421076768417 0 0)
(3.146788106350585e-05 0 0)
(-3.267893720055884e-05 0 0)
(-0.0003148417339584365 0 0)
(-0.0004799677759933715 0 0)
(-0.0006837456561787415 0 0)
(-0.0006753909800325048 0 0)
(-0.0006345493417105517 0 0)
(-0.0004701162344055992 0 0)
(-0.0004466315073006236 0 0)
(-0.0003575547797945959 0 0)
(-0.0003028917214796805 0 0)
(-0.0004902198111868445 0 0)
(-0.0003547625758081025 0 0)
(-0.0003262851530476016 0 0)
(-0.0001094068938118451 0 0)
(0.0002148669190236131 0 0)
(0.0004320612176240698 0 0)
(0.0008557437670196085 0 0)
(0.0009894611787772333 0 0)
(0.001104994417789759 0 0)
(0.001017263582356705 0 0)
(0.001016072518667272 0 0)
(0.0007943429948330232 0 0)
(0.0007771089279840404 0 0)
(0.000824183020913325 0 0)
(0.001091806206848923 0 0)
(0.001327829716676296 0 0)
(0.001618652211500288 0 0)
(0.00171757598534239 0 0)
(0.001767952687202711 0 0)
(0.001748818606650627 0 0)
(0.001544954296779953 0 0)
(0.00147593878559927 0 0)
(0.00140879107201568 0 0)
(0.001267555616874201 0 0)
(0.001288619614403283 0 0)
(0.001294020721109325 0 0)
(0.001157667897435879 0 0)
(0.0009860074190934723 0 0)
(0.0006653852301138573 0 0)
(0.0004797797835123954 0 0)
(0.0001091623946684232 0 0)
(-1.887357209952871e-05 0 0)
(-7.977228386976304e-05 0 0)
(0.000191345636124731 0 0)
(9.278983936802815e-05 0 0)
(0.0002041346551351751 0 0)
(5.076347698036886e-05 0 0)
(-0.0001808644124843299 0 0)
(-0.0003910122324777409 0 0)
(-0.0007188295111604124 0 0)
(-0.0009148698634973468 0 0)
(-0.0008937888359624737 0 0)
(-0.0007065014306695381 0 0)
(-0.0006075575222941247 0 0)
(-0.0003291719025232792 0 0)
(-0.0002181948150885484 0 0)
(-0.0002266733991639344 0 0)
(-0.0001953146082273582 0 0)
(-0.0002314349833553364 0 0)
(-0.0001075044263106261 0 0)
(9.506125530985951e-05 0 0)
(0.0003730881715166779 0 0)
(0.0007308732679488766 0 0)
(0.000935762793775643 0 0)
(0.001075094624731504 0 0)
(0.00112214472591012 0 0)
(0.001174340918472328 0 0)
(0.000913757622779441 0 0)
(0.0009705401590301712 0 0)
(0.001070051857063373 0 0)
(0.001300329643917838 0 0)
(0.001643820762467454 0 0)
(0.001912736844062676 0 0)
(0.002098684297553676 0 0)
(0.002201043434056097 0 0)
(0.002068016731357123 0 0)
(0.001809660643725446 0 0)
(0.001702546200295733 0 0)
(0.001519196387770593 0 0)
(0.001472980662994147 0 0)
(0.001479822678324865 0 0)
(0.001461516044739885 0 0)
(0.001510851111458415 0 0)
(0.001354985110739765 0 0)
(0.001105141110393941 0 0)
(0.0007418389218616877 0 0)
(0.0004793680133713072 0 0)
(0.0002258898296710191 0 0)
(0.0002403037662480708 0 0)
(0.0003568391878439975 0 0)
(0.0004375858506019958 0 0)
(0.0006682558899228366 0 0)
(0.0006541411870825231 0 0)
(0.0004375324533981913 0 0)
(0.0002154085641641793 0 0)
(-0.0001722384110522913 0 0)
(-0.0005016945994917239 0 0)
(-0.0005863499886325011 0 0)
(-0.0004961815686892311 0 0)
(-0.0004101962863502461 0 0)
(-0.0001379619664447654 0 0)
(0.0001744417473526433 0 0)
(0.0002911041225451655 0 0)
(0.0003812586097527488 0 0)
(0.0002266007927920929 0 0)
(0.0004379690256541989 0 0)
(0.0005283068346994379 0 0)
(0.0008546661161930427 0 0)
(0.001012985622544927 0 0)
(0.001490692837170584 0 0)
(0.001708511794882068 0 0)
(0.001833783604559658 0 0)
(0.001774470416213192 0 0)
(0.001601307297401515 0 0)
(0.001473666555492931 0 0)
(0.001447315448320591 0 0)
(0.001576804912120647 0 0)
(0.001908989401471249 0 0)
(0.002235616404910636 0 0)
(0.002625366824712086 0 0)
(0.002881841040432547 0 0)
(0.002955667124436569 0 0)
(0.002706094636382197 0 0)
(0.002492667387682961 0 0)
(0.002414987546882652 0 0)
(0.002225948753153759 0 0)
(0.00222770148407198 0 0)
(0.002096776657945363 0 0)
(0.002298045095673063 0 0)
(0.002173626864577068 0 0)
(0.002008760039465378 0 0)
(0.001665496800564927 0 0)
(0.001246745283845199 0 0)
(0.001063844066430435 0 0)
(0.0009375810490410705 0 0)
(0.001048883558249809 0 0)
(0.001284962856908618 0 0)
(0.001523117835809811 0 0)
(0.001735435895137529 0 0)
(0.00175879988163163 0 0)
(0.001386959570290639 0 0)
(0.001221361729553261 0 0)
(0.0007438061378173592 0 0)
(0.0005371366271723001 0 0)
(0.000499646955361242 0 0)
(0.0007994216690761938 0 0)
(0.000829220403075344 0 0)
(0.001272911584630501 0 0)
(0.001527972209590018 0 0)
(0.001575850806129359 0 0)
(0.001650315214087593 0 0)
(0.001760374360582961 0 0)
(0.001800587224120805 0 0)
(0.002094959099284502 0 0)
(0.002445030727270569 0 0)
(0.002683325650387721 0 0)
(0.002986948017975961 0 0)
(0.003282744581285091 0 0)
(0.003283393041598776 0 0)
(0.003310343387746257 0 0)
(0.003158211631519623 0 0)
(0.003159310929211736 0 0)
(0.003308483226825694 0 0)
(0.003537985144389237 0 0)
(0.003935554590244153 0 0)
(0.004369425679822184 0 0)
(0.004765234397813291 0 0)
(0.005119524503650078 0 0)
(0.005125566801010792 0 0)
(0.00478158948464825 0 0)
(0.004556767368996822 0 0)
(0.004399102542161016 0 0)
(0.004040894620751727 0 0)
(0.003972971234164702 0 0)
(0.003795200340905197 0 0)
(0.003945816098795157 0 0)
(0.003887172953905363 0 0)
(0.003796739406297612 0 0)
(0.003561777980649273 0 0)
(0.00332480367496793 0 0)
(0.003405207281760605 0 0)
(0.003454200995546394 0 0)
(0.003595928143321266 0 0)
(0.003747748455052974 0 0)
(0.004102865366827815 0 0)
(0.004208215648616636 0 0)
(0.004000226361546792 0 0)
(0.003723392605934467 0 0)
(0.003380634388925723 0 0)
(0.00304521455823595 0 0)
(0.002803485869234985 0 0)
(0.002898881454421052 0 0)
(0.003103214101890904 0 0)
(0.00355153449690621 0 0)
(0.004128987960069198 0 0)
(0.004580406126951785 0 0)
(0.004887156595535018 0 0)
(0.005116914289394587 0 0)
(0.005148654105232626 0 0)
(0.005347251960550949 0 0)
(0.005509655307508275 0 0)
(0.005540386584932919 0 0)
(0.00586956026780808 0 0)
(0.006129654497099906 0 0)
(0.006372364435457877 0 0)
(0.006528158232921506 0 0)
(0.006577252103491193 0 0)
(0.006559874715063089 0 0)
(0.006704975197326605 0 0)
(0.006893687611017409 0 0)
(0.007166710248366655 0 0)
(0.007681482712904461 0 0)
(0.008080724771309373 0 0)
(0.008511291769967353 0 0)
(0.008697856726780829 0 0)
(0.008689378070753264 0 0)
(0.0083354203481393 0 0)
(0.00808370805145717 0 0)
(0.007911802021600547 0 0)
(0.007695260176958548 0 0)
(0.007819932577524004 0 0)
(0.007841617443596056 0 0)
(0.008226043665284103 0 0)
(0.008326492874224118 0 0)
(0.008371814784451811 0 0)
(0.008291734169474152 0 0)
(0.007994707142367134 0 0)
(0.008076412695713599 0 0)
(0.007999072203540309 0 0)
(0.007988879754106984 0 0)
(0.008015148118408243 0 0)
(0.008406116254420478 0 0)
(0.008378034671497685 0 0)
(0.008313170291350524 0 0)
(0.008027820248908815 0 0)
(0.007859342271755486 0 0)
(0.007690293921462614 0 0)
(0.007575764466079923 0 0)
(0.007978058968860724 0 0)
(0.008222085534338428 0 0)
(0.008824628896485935 0 0)
(0.009385456995631692 0 0)
(0.009766102229724901 0 0)
(0.01008486984223088 0 0)
(0.01003652194874762 0 0)
(0.01026453794565181 0 0)
(0.01039404753420493 0 0)
(0.0107186361505894 0 0)
(0.01082449347459553 0 0)
(0.01134931621951563 0 0)
(0.01170357772281391 0 0)
(0.01194775852614306 0 0)
(0.01200443260231536 0 0)
(0.01231515398450746 0 0)
(0.01242095809840227 0 0)
(0.01260521864674897 0 0)
(0.0129548992785476 0 0)
(0.01307396572813888 0 0)
(0.01342769168534014 0 0)
(0.0135485171473409 0 0)
(0.0137135866544581 0 0)
(0.01391430005288213 0 0)
(0.01388458384748372 0 0)
(0.01398872753209918 0 0)
(0.01398118439057763 0 0)
(0.01407832968247852 0 0)
(0.01400545621481403 0 0)
(0.01418607343094383 0 0)
(0.01403297976335163 0 0)
(0.01432158731576903 0 0)
(0.01431571959188811 0 0)
(0.01422696670646718 0 0)
(0.014230781404457 0 0)
(0.01412808223859049 0 0)
(0.01411917342762007 0 0)
(0.01415754731871168 0 0)
(0.01433869692908639 0 0)
(0.01435658347639157 0 0)
(0.01467464547448415 0 0)
(0.01472104643482374 0 0)
(0.01467434453185426 0 0)
(0.01449576882081895 0 0)
(0.01438736592582751 0 0)
(0.01425322859534617 0 0)
(0.01433700925230009 0 0)
(0.01467559713776028 0 0)
(0.01518000412039294 0 0)
(0.01572199669906124 0 0)
(0.01631049152200447 0 0)
(0.01675658565079868 0 0)
(0.01703988303958241 0 0)
(0.01707252282845615 0 0)
(0.01717844131749987 0 0)
(0.01734919347549508 0 0)
(0.01759008013773317 0 0)
(0.01792469630081563 0 0)
(0.01827216781250814 0 0)
(0.01869803303625924 0 0)
(0.01909784621205747 0 0)
(0.01916739398720698 0 0)
(0.01954904436390549 0 0)
(0.01951393581157225 0 0)
(0.0197996074614292 0 0)
(0.02021708977549969 0 0)
(0.02055163834013799 0 0)
(0.02112138322797812 0 0)
(0.02148808066440228 0 0)
(0.02176502211135866 0 0)
(0.02185793979545156 0 0)
(0.02174372907290195 0 0)
(0.02152091973486187 0 0)
(0.02143748300598123 0 0)
(0.02136188572371871 0 0)
(0.02139650854868893 0 0)
(0.0216005126256673 0 0)
(0.02184806816085765 0 0)
(0.02201200892578923 0 0)
(0.02213808626837254 0 0)
(0.0221390526729372 0 0)
(0.02206575322883201 0 0)
(0.02209166090865688 0 0)
(0.0221850914143378 0 0)
(0.02221569369683876 0 0)
(0.02261189589656793 0 0)
(0.02262891053706429 0 0)
(0.0227699461541382 0 0)
(0.02272920654619721 0 0)
(0.02246571862785117 0 0)
(0.02246817870992207 0 0)
(0.02232579697483448 0 0)
(0.02249448687515627 0 0)
(0.02293578462925115 0 0)
(0.02356540679425358 0 0)
(0.02404893173394426 0 0)
(0.024650162833721 0 0)
(0.02509299029298504 0 0)
(0.02535639497136352 0 0)
(0.02548334218990525 0 0)
(0.02550172031206177 0 0)
(0.02574531423283101 0 0)
(0.02604355082267897 0 0)
(0.02641415559511062 0 0)
(0.02690638242242201 0 0)
(0.02733579706382023 0 0)
(0.02776307834043956 0 0)
(0.02806098875536228 0 0)
(0.02838539301974529 0 0)
(0.02842019567089911 0 0)
(0.0287573978443233 0 0)
(0.02902762503873331 0 0)
(0.02945923518462094 0 0)
(0.02991751224855117 0 0)
(0.03042746430578145 0 0)
(0.0307832352065124 0 0)
(0.03103861745017814 0 0)
(0.03107974449052173 0 0)
(0.0308943273098901 0 0)
(0.03077678063247035 0 0)
(0.03064845357566747 0 0)
(0.0306700803983068 0 0)
(0.03082645326622183 0 0)
(0.03105936268637423 0 0)
(0.03132310336956059 0 0)
(0.03157242139536052 0 0)
(0.0316680391629736 0 0)
(0.03175260419497505 0 0)
(0.03167508643842246 0 0)
(0.03176315494864671 0 0)
(0.03184380645976609 0 0)
(0.03198883533411874 0 0)
(0.03218878467083813 0 0)
(0.03249733618294299 0 0)
(0.03269023460232075 0 0)
(0.03280306081889656 0 0)
(0.0327618424389971 0 0)
(0.03275015075589225 0 0)
(0.03273040162520065 0 0)
(0.03286166311489502 0 0)
(0.03320903732807991 0 0)
(0.03379653957329819 0 0)
(0.03435162535537705 0 0)
(0.03501601972054089 0 0)
(0.03562603520918551 0 0)
(0.03606980697595147 0 0)
(0.03639580703189414 0 0)
(0.03653042277513559 0 0)
(0.03681333181536764 0 0)
(0.03711035772220796 0 0)
(0.037557712847321 0 0)
(0.03784510137886545 0 0)
(0.03843483365580656 0 0)
(0.03891882172756031 0 0)
(0.03924534914279512 0 0)
(0.0397239537851046 0 0)
(0.03991283699336454 0 0)
(0.04031120211843203 0 0)
(0.04065151654655878 0 0)
(0.04114978050383535 0 0)
(0.04146210825640041 0 0)
(0.04212738284579141 0 0)
(0.04235241988873709 0 0)
)
;

boundaryField
{
    inlet
    {
        type            calculated;
        value           uniform (-2.876320544642307e-05 0 0);
    }
    outlet
    {
        type            calculated;
        value           uniform (0.04235241988873709 0 0);
    }
    frontAndBack
    {
        type            empty;
    }
}


// ************************************************************************* //
