/*--------------------------------*- C++ -*----------------------------------*\
| =========                 |                                                 |
| \\      /  F ield         | OpenFOAM: The Open Source CFD Toolbox           |
|  \\    /   O peration     | Version:  v2012                                 |
|   \\  /    A nd           | Website:  www.openfoam.com                      |
|    \\/     M anipulation  |                                                 |
\*---------------------------------------------------------------------------*/
FoamFile
{
    version     2.0;
    format      ascii;
    class       volScalarField;
    location    "0.003";
    object      p;
}
// * * * * * * * * * * * * * * * * * * * * * * * * * * * * * * * * * * * * * //

dimensions      [1 -1 -2 0 0 0 0];


internalField   nonuniform List<scalar> 
1000
(
101310.9370676145
101313.5703309284
101306.8340433428
101301.5432354154
101295.7145361116
101290.4740831056
101285.9479516451
101282.069405524
101278.7483298426
101276.534659822
101275.9569057718
101275.9705781928
101276.3387253816
101277.3500098793
101279.3262333582
101282.3301716421
101286.2479367367
101290.9012523766
101296.1436398042
101301.8742199841
101308.009353638
101314.4580257453
101321.1137805511
101327.8544840008
101334.5453328223
101341.0501655952
101347.2533664178
101353.0856951512
101358.5382873915
101363.6218204997
101368.1799221173
101371.5651361703
101373.0165990818
101373.1847567138
101373.1116297365
101372.8490271551
101372.107226106
101370.654135691
101368.2806682709
101364.8915843476
101360.5264953327
101355.3386830983
101349.5324215723
101343.2992092557
101336.7878703966
101330.1119210994
101323.3716503709
101316.669338003
101310.1094114152
101303.780942987
101297.7287053867
101291.9506111958
101286.498098743
101281.7453312958
101278.5848154338
101277.5085259554
101277.4352224515
101277.4759894696
101277.7372232101
101278.3797691872
101279.6294353446
101281.6774113686
101284.6600134976
101288.6207576833
101293.4983499024
101299.1408636298
101305.3440538337
101311.8986857729
101318.6258361321
101325.3876942355
101332.081268857
101338.6342277092
101345.0104192527
101351.2084056751
101357.222239976
101362.9237384006
101367.8250542988
101370.9813291685
101372.0199290093
101372.0959714912
101372.0392350937
101371.8339305962
101371.2871774883
101370.2246824168
101368.4610577054
101365.8453365061
101362.2872092478
101357.7808235807
101352.4108161273
101346.3379852783
101339.7696337385
101332.9230426809
101325.9902160792
101319.1123966699
101312.3710480126
101305.7946012768
101299.3778629975
101293.132575656
101287.2301663337
101282.2707125529
101279.268524936
101278.3940521105
101278.349658395
101278.3859991901
101278.5939938923
101279.099318322
101280.0781644559
101281.6959254827
101284.0979021509
101287.3836603547
101291.587490865
101296.6653429758
101302.4955662116
101308.8972525229
101315.6616974965
101322.5867881079
101329.5069235365
101336.3153499133
101342.9722962495
101349.4848746794
101355.8404128636
101361.863174937
101366.9740582066
101370.1778609685
101371.2031431496
101371.2814930782
101371.2388930073
101371.0809485304
101370.6539940366
101369.8143726372
101368.4020102286
101366.2703499556
101363.3035000301
101359.4369938427
101354.6728512594
101349.085768078
101342.8182114449
101336.0619951421
101329.0261304116
101321.8986168262
101314.816203678
101307.8534831892
101301.0387063491
101294.4163798414
101288.206259841
101283.0662853184
101280.0150418784
101279.1359583277
101279.0862105521
101279.1135754623
101279.2776427933
101279.6851219504
101280.4835335784
101281.8172033094
101283.8229791917
101286.6122306785
101290.254845548
101294.7640025121
101300.0873994594
101306.1097753704
101312.6672469317
101319.5706339189
101326.635282661
101333.712896582
101340.7127408052
101347.5927822733
101354.3000197234
101360.6294923184
101365.9856401356
101369.3701052257
101370.4956839155
101370.5957875126
101370.5651567935
101370.4467559906
101370.1099583462
101369.4317885557
101368.2707575997
101366.4908056769
101363.9724744816
101360.6287398525
101356.4188846026
101351.3590662131
101345.5272762743
101339.05843324
101332.1259505863
101324.9126394562
101317.5806589915
101310.2516065956
101303.0098434072
101295.9569648431
101289.3685850426
101283.9498059231
101280.7329183761
101279.7794953622
101279.714088628
101279.7346057808
101279.8653291421
101280.1973517856
101280.858888915
101281.9783080057
101283.6827849628
101286.0843946172
101289.2676378708
101293.276119846
101298.1023647534
101303.6844090484
101309.9102303793
101316.6298612855
101323.6762289793
101330.8930198342
101338.1583714873
101345.384685115
101352.4711155129
101359.1742509536
101364.877316194
101368.5605620062
101369.8632333458
101370.0020145451
101369.980371214
101369.8910354924
101369.6223173364
101369.0675809814
101368.1006234805
101366.5957481634
101364.4355573683
101361.5235844992
101357.7958892596
101353.231555926
101347.8606705568
101341.7659180792
101335.0737813726
101327.9361812647
101320.508347153
101312.9302651194
101305.324508667
101297.8420271927
101290.8108757658
101284.9870703497
101281.4620778005
101280.3608454446
101280.2694181476
101280.2827464059
101280.3851480813
101280.6559011572
101281.2092355731
101282.1598639372
101283.6247999387
101285.7124970032
101288.5132482529
101292.0879123906
101296.4581696013
101301.6009583288
101307.4478685583
101313.8902028245
101320.7920825948
101328.011356092
101335.4194799329
101342.9037991262
101350.3299833675
101357.4270533768
101363.5643099531
101367.6802829457
101369.2632022825
101369.46855617
101369.4548899927
101369.3902355212
101369.1769285459
101368.7213234221
101367.9094927749
101366.6260254849
101364.7586589138
101362.2081492754
101358.8976827135
101354.7824464224
101349.8582217661
101344.1657898609
101337.7879244213
101330.8391921249
101323.4516833315
101315.7610563889
101307.9043378585
101300.060604753
101292.5892184976
101286.2753374738
101282.2853718397
101280.916466826
101280.7718247078
101280.7797444166
101280.8586996313
101281.0783063814
101281.541294768
101282.3519911595
101283.6189434709
101285.4459387357
101287.9243687445
101291.1241304282
101295.0853835141
101299.8126806969
101305.2718051334
101311.3905026018
101318.0660286606
101325.1797135056
101332.6115297012
101340.2418861238
101347.9217867565
101355.3734774755
101361.9781199017
101366.6459971269
101368.6481297049
101368.9748438972
101368.9696967355
101368.9264775602
101368.7596581647
101368.3873559353
101367.7049188486
101366.6057148294
101364.9832826462
101362.7390454604
101359.7897368845
101356.0756145072
101351.5685132933
101346.2772177617
101340.2478388752
101333.5592695057
101326.3152033363
101318.6351095248
101310.6537030218
101302.5567365381
101294.7043588356
101287.8683196712
101283.2730312068
101281.4883224326
101281.2434346857
101281.2448492807
101281.3026364922
101281.4771507461
101281.8619452489
101282.5529993079
101283.6515364546
101285.2564673596
101287.4582517384
101290.3314642563
101293.9279955838
101298.2715493795
101303.3534402231
101309.1310595618
101315.5318008299
101322.4624867027
101329.8188690395
101337.4862526522
101345.3163158906
101353.0442315006
101360.093471482
101365.388616408
101367.9638649264
101368.5005238347
101368.5135278058
101368.4868228061
101368.3597529983
101368.0589790202
101367.4877004792
101366.546429863
101365.1339978298
101363.1538261111
101360.5197696199
101357.1630112119
101353.0390772517
101348.1331718338
101342.4624379646
101336.0751640492
101329.0472520878
101321.4771203182
101313.4869004977
101305.2531566698
101297.1121590375
101289.7808554516
101284.4907701581
101282.1256230382
101281.6988324833
101281.6910359093
101281.7289649579
101281.8633165912
101282.1784616919
101282.763935525
101283.7152304747
101285.1267546149
101287.0870338421
101289.6727981096
101292.94340278
101296.9357540848
101301.6598893687
101307.0965716349
101313.1988631429
101319.89744101
101327.1061361722
101334.7218963832
101342.6068840094
101350.5201873253
101357.944578412
101363.8621728461
101367.1179136886
101367.9774169067
101368.0296384532
101368.0137460906
101367.9210686344
101367.6832482715
101367.2114342515
101366.414447851
101365.1999065709
101363.4811890457
101361.1841530639
101358.2553440359
101354.6715383431
101350.4511819303
101345.6703708194
101340.4921129047
101335.2286489918
101330.448495302
101326.9866582235
101325.3763894474
101325.0253271191
101325.0003950955
101325.0000009494
101325.0000000007
101325.0000000004
101325.0000000005
101325.0000000005
101325.0000000006
101325.0000000006
101325.0000000006
101325.0000000005
101325.0000000006
101325.0000000006
101325.0000000006
101325.0000000007
101325.0000000007
101325.0000000008
101325.0000000008
101325.0000000009
101325.0000000009
101325.0000000009
101325.0000000009
101325.0000000009
101325.0000000009
101325.0000000009
101325.0000000009
101325.0000000008
101325.0000000008
101325.0000000009
101325.0000000008
101325.0000000008
101325.0000000008
101325.0000000008
101325.0000000008
101325.0000000008
101325.0000000008
101325.0000000007
101325.0000000008
101325.0000000007
101325.0000000008
101325.0000000008
101325.0000000007
101325.0000000007
101325.0000000007
101325.0000000007
101325.0000000007
101325.0000000007
101325.0000000007
101325.0000000007
101325.0000000007
101325.0000000007
101325.0000000007
101325.0000000007
101325.0000000006
101325.0000000006
101325.0000000006
101325.0000000006
101325.0000000006
101325.0000000006
101325.0000000006
101325.0000000006
101325.0000000006
101325.0000000005
101325.0000000006
101325.0000000005
101325.0000000005
101325.0000000005
101325.0000000005
101325.0000000004
101325.0000000005
101325.0000000003
101325.0000000003
101325.0000000003
101325.0000000003
101325.0000000004
101325.0000000004
101325.0000000003
101325.0000000003
101325.0000000004
101325.0000000004
101325.0000000005
101325.0000000005
101325.0000000005
101325.0000000005
101325.0000000004
101325.0000000004
101325.0000000003
101325.0000000004
101325.0000000004
101325.0000000004
101325.0000000005
101325.0000000005
101325.0000000006
101325.0000000006
101325.0000000007
101325.0000000007
101325.0000000007
101325.0000000007
101325.0000000007
101325.0000000007
101325.0000000008
101325.0000000008
101325.0000000007
101325.0000000008
101325.0000000008
101325.0000000008
101325.0000000008
101325.0000000008
101325.0000000008
101325.0000000008
101325.0000000008
101325.0000000008
101325.0000000008
101325.0000000008
101325.0000000007
101325.0000000008
101325.0000000007
101325.0000000007
101325.0000000007
101325.0000000007
101325.0000000007
101325.0000000008
101325.0000000007
101325.0000000007
101325.0000000006
101325.0000000007
101325.0000000006
101325.0000000006
101325.0000000007
101325.0000000007
101325.0000000008
101325.0000000008
101325.0000000008
101325.0000000009
101325.0000000009
101325.0000000009
101325.0000000009
101325.0000000009
101325.0000000009
101325.0000000009
101325.0000000009
101325.0000000009
101325.0000000009
101325.0000000009
101325.0000000008
101325.0000000008
101325.0000000008
101325.0000000008
101325.0000000008
101325.0000000008
101325.0000000008
101325.0000000008
101325.0000000009
101325.0000000009
101325.0000000009
101325.0000000009
101325.0000000008
101325.0000000008
101325.0000000008
101325.0000000008
101325.0000000008
101325.0000000007
101325.0000000008
101325.0000000007
101325.0000000007
101325.0000000008
101325.0000000008
101325.0000000008
101325.0000000008
101325.0000000008
101325.0000000009
101325.0000000009
101325.0000000009
101325.0000000009
101325.000000001
101325.000000001
101325.000000001
101325.000000001
101325.0000000009
101325.0000000009
101325.0000000008
101325.0000000008
101325.0000000008
101325.0000000009
101325.0000000009
101325.0000000008
101325.0000000008
101325.0000000008
101325.0000000008
101325.0000000008
101325.0000000007
101325.0000000007
101325.0000000008
101325.0000000008
101325.0000000008
101325.0000000008
101325.0000000007
101325.0000000007
101325.0000000007
101325.0000000007
101325.0000000007
101325.0000000007
101325.0000000006
101325.0000000007
101325.0000000006
101325.0000000006
101325.0000000006
101325.0000000005
101325.0000000006
101325.0000000006
101325.0000000007
101325.0000000007
101325.0000000006
101325.0000000006
101325.0000000006
101325.0000000007
101325.0000000006
101325.0000000006
101325.0000000006
101325.0000000006
101325.0000000006
101325.0000000007
101325.0000000007
101325.0000000007
101325.0000000007
101325.0000000007
101325.0000000007
101325.0000000007
101325.0000000007
101325.0000000007
101325.0000000007
101325.0000000006
101325.0000000005
101325.0000000004
101325.0000000004
101325.0000000004
101325.0000000004
101325.0000000004
101325.0000000004
101325.0000000004
101325.0000000004
101325.0000000005
101325.0000000006
101325.0000000006
101325.0000000007
101325.0000000007
101325.0000000007
101325.0000000008
101325.0000000007
101325.0000000006
101325.0000000006
101325.0000000006
101325.0000000005
101325.0000000005
101325.0000000004
101325.0000000005
101325.0000000004
101325.0000000005
101325.0000000004
101325.0000000005
101325.0000000006
101325.0000000006
101325.0000000007
101325.0000000007
101325.0000000006
101325.0000000007
101325.0000000007
101325.0000000007
101325.0000000007
101325.0000000008
101325.0000000007
101325.0000000007
101325.0000000006
101325.0000000005
101325.0000000004
101325.0000000003
101325.0000000003
101325.0000000003
101325.0000000003
101325.0000000003
101325.0000000004
101325.0000000005
101325.0000000004
101325.0000000004
101325.0000000004
101325.0000000004
101325.0000000004
101325.0000000005
101325.0000000005
101325.0000000005
101325.0000000005
101325.0000000005
101325.0000000006
101325.0000000006
101325.0000000006
101325.0000000006
101325.0000000007
101325.0000000007
101325.0000000008
101325.0000000008
101325.0000000008
101325.0000000008
101325.0000000008
101325.0000000008
101325.0000000008
101325.0000000008
101325.0000000008
101325.0000000008
101325.0000000009
101325.0000000009
101325.0000000009
101325.0000000009
101325.0000000009
101325.0000000009
101325.0000000008
101325.0000000008
101325.0000000009
101325.0000000009
101325.0000000008
101325.0000000008
101325.0000000008
101325.0000000008
101325.0000000009
101325.0000000009
101325.0000000009
101325.000000001
101325.000000001
101325.0000000011
101325.0000000011
101325.0000000011
101325.0000000011
101325.0000000011
101325.0000000011
101325.0000000012
101325.0000000011
101325.0000000012
101325.0000000012
101325.0000000012
101325.0000000012
101325.0000000011
101325.0000000012
101325.0000000011
101325.0000000012
101325.0000000012
101325.0000000012
101325.0000000012
101325.0000000012
101325.0000000011
101325.0000000011
101325.0000000011
101325.000000001
101325.000000001
101325.000000001
101325.000000001
101325.000000001
101325.0000000011
101325.0000000011
101325.0000000011
101325.0000000012
101325.0000000012
101325.0000000012
101325.0000000013
101325.0000000013
101325.0000000013
101325.0000000012
101325.0000000012
101325.0000000011
101325.0000000012
101325.0000000012
101325.0000000012
101325.0000000012
101325.0000000012
101325.0000000013
101325.0000000012
101325.0000000012
101325.0000000013
101325.0000000013
101325.0000000013
101325.0000000012
101325.0000000013
101325.0000000013
101325.0000000013
101325.0000000013
101325.0000000013
101325.0000000013
101325.0000000013
101325.0000000013
101325.0000000014
101325.0000000014
101325.0000000013
101325.0000000013
101325.0000000014
101325.0000000014
101325.0000000014
101325.0000000013
101325.0000000013
101325.0000000013
101325.0000000013
101325.0000000013
101325.0000000014
101325.0000000013
101325.0000000013
101325.0000000013
101325.0000000013
101325.0000000013
101325.0000000012
101325.0000000011
101325.0000000011
101325.0000000011
101325.0000000011
101325.0000000011
101325.0000000011
101325.000000001
101325.000000001
101325.0000000009
101325.0000000009
101325.0000000009
101325.0000000009
101325.0000000009
101325.0000000009
101325.0000000009
101325.0000000009
101325.0000000009
101325.0000000011
101325.0000000011
101325.0000000011
101325.0000000011
101325.0000000012
101325.0000000012
101325.0000000012
101325.0000000011
101325.0000000011
101325.000000001
101325.000000001
101325.000000001
101325.000000001
101325.0000000011
101325.000000001
101325.0000000011
101325.0000000011
101325.0000000011
101325.000000001
101325.000000001
101325.0000000009
101325.0000000009
101325.0000000009
101325.0000000009
101325.0000000008
101325.0000000008
101325.0000000009
101325.0000000009
101325.0000000009
101325.0000000009
101325.0000000009
101325.000000001
101325.000000001
101325.000000001
101325.0000000011
101325.0000000012
101325.0000000012
101325.0000000012
101325.0000000013
101325.0000000012
101325.0000000012
101325.0000000012
101325.0000000012
101325.0000000012
101325.0000000012
101325.0000000012
101325.0000000013
101325.0000000013
101325.0000000013
101325.0000000013
101325.0000000014
101325.0000000013
101325.0000000013
101325.0000000014
101325.0000000014
101325.0000000014
101325.0000000014
101325.0000000013
101325.0000000013
101325.0000000013
101325.0000000013
101325.0000000012
101325.0000000012
101325.0000000013
101325.0000000013
101325.0000000013
101325.0000000013
101325.0000000013
101325.0000000013
101325.0000000013
101325.0000000014
101325.0000000015
101325.0000000014
101325.0000000014
101325.0000000014
101325.0000000014
101325.0000000014
101325.0000000013
101325.0000000013
101325.0000000013
101325.0000000013
101325.0000000013
101325.0000000013
101325.0000000013
101325.0000000014
101325.0000000014
101325.0000000014
101325.0000000014
101325.0000000014
101325.0000000014
101325.0000000013
101325.0000000014
101325.0000000014
101325.0000000014
101325.0000000014
101325.0000000014
101325.0000000014
101325.0000000014
101325.0000000015
101325.0000000015
101325.0000000014
101325.0000000014
101325.0000000015
101325.0000000015
101325.0000000015
101325.0000000016
101325.0000000016
101325.0000000016
101325.0000000015
101325.0000000016
101325.0000000016
101325.0000000016
101325.0000000017
101325.0000000016
101325.0000000016
101325.0000000016
101325.0000000015
101325.0000000015
101325.0000000015
101325.0000000015
101325.0000000015
101325.0000000015
101325.0000000015
101325.0000000016
101325.0000000016
101325.0000000017
101325.0000000017
101325.0000000017
101325.0000000017
101325.0000000017
101325.0000000017
101325.0000000016
101325.0000000015
101325.0000000016
101325.0000000016
101325.0000000016
101325.0000000017
101325.0000000017
101325.0000000017
101325.0000000017
101325.0000000017
101325.0000000017
101325.0000000017
101325.0000000017
101325.0000000017
101325.0000000017
101325.0000000017
101325.0000000017
101325.0000000017
101325.0000000017
101325.0000000017
101325.0000000017
101325.0000000016
101325.0000000017
101325.0000000017
101325.0000000017
101325.0000000017
)
;

boundaryField
{
    inlet
    {
        type            uniformFixedValue;
        uniformValue    sine;
        uniformValueCoeffs
        {
            frequency       constant 3000;
            scale           constant 50;
            level           constant 101325;
        }
        value           uniform 101323.6440830864;
    }
    outlet
    {
        type            waveTransmissive;
        gamma           1.4;
        fieldInf        101325;
        lInf            2.25;
        value           uniform 101325.0000000017;
    }
    frontAndBack
    {
        type            empty;
    }
}


// ************************************************************************* //
