/*--------------------------------*- C++ -*----------------------------------*\
| =========                 |                                                 |
| \\      /  F ield         | OpenFOAM: The Open Source CFD Toolbox           |
|  \\    /   O peration     | Version:  v2012                                 |
|   \\  /    A nd           | Website:  www.openfoam.com                      |
|    \\/     M anipulation  |                                                 |
\*---------------------------------------------------------------------------*/
FoamFile
{
    version     2.0;
    format      ascii;
    class       volScalarField;
    location    "0.003";
    object      pMean;
}
// * * * * * * * * * * * * * * * * * * * * * * * * * * * * * * * * * * * * * //

dimensions      [1 -1 -2 0 0 0 0];


internalField   nonuniform List<scalar> 
1000
(
101325.0382032488
101325.0146078896
101325.0591749236
101325.1008227329
101325.1632366928
101325.2380674513
101325.324474379
101325.4224253408
101325.5283711102
101325.6423461198
101325.7594103516
101325.8773903372
101325.9943976133
101326.1104178078
101326.2225234531
101326.3293746515
101326.4276781784
101326.5163664266
101326.5928954062
101326.6568200289
101326.7062076584
101326.7409482055
101326.7596378808
101326.7626448163
101326.7491735906
101326.7201698457
101326.6755144199
101326.6166674179
101326.543912486
101326.4587214062
101326.3614086125
101326.2542875197
101326.1405738726
101326.0252190678
101325.9095925425
101325.7944979392
101325.6804413756
101325.5689180251
101325.4617324168
101325.3612765147
101325.2698476014
101325.1897101743
101325.122558706
101325.0697586356
101325.0321321512
101325.0102992076
101325.0045187357
101325.0149061081
101325.041218737
101325.0830520739
101325.1397703339
101325.2107814325
101325.2954030049
101325.3926143089
101325.4999103263
101325.6127612468
101325.7269208809
101325.8410685563
101325.9547913553
101326.0676378526
101326.1781998936
101326.2851270925
101326.3860849094
101326.4790802573
101326.5615347718
101326.6316991794
101326.6876484185
101326.7285348035
101326.7533914329
101326.7622318809
101326.7547885281
101326.7315644881
101326.69265653
101326.6387539194
101326.570026734
101326.4872317933
101326.3912059002
101326.2849777472
101326.173201611
101326.0603126003
101325.9473409208
101325.8347168366
101325.7229127246
101325.6129331361
101325.5061780503
101325.4044916548
101325.3099850508
101325.2249380807
101325.1515264986
101325.0916799058
101325.0468616981
101325.0180624259
101325.0057482339
101325.0100125598
101325.0306274488
101325.0672529485
101325.1194903938
101325.1870055695
101325.2692811813
101325.3650198153
101325.470966803
101325.5819227175
101325.6938947094
101325.8058452486
101325.9174577525
101326.0283705155
101326.1375013319
101326.2437639977
101326.3452782922
101326.4402722733
101326.5263876666
101326.6016691373
101326.6639393558
101326.711772194
101326.7437983194
101326.759552782
101326.7586146376
101326.7412988612
101326.7077046316
101326.6583772945
101326.5934629066
101326.5136343994
101326.4199309937
101326.3156705198
101326.2058604278
101326.0949176855
101325.9838917823
101325.873139412
101325.7630171694
101325.654336069
101325.5482154535
101325.4461931031
101325.3500810099
101325.2619681579
101325.1839851594
101325.1182391955
101325.0665380474
101325.0303505016
101325.0106183718
101325.0078579683
101325.022126357
101325.0532675176
101325.1009549763
101325.1648614426
101325.2443611887
101325.3379566085
101325.442050404
101325.5512230995
101325.6614155431
101325.7716045669
101325.8815279404
101325.9908876514
101326.0988045447
101326.2043660596
101326.3059912314
101326.4021256049
101326.4906538774
101326.5696858371
101326.6370250828
101326.6909997543
101326.7299240657
101326.752870129
101326.7590288859
101326.7483203282
101326.7206343756
101326.6763564619
101326.6156410637
101326.5391972254
101326.4482158825
101326.3461455636
101326.2381726787
101326.1288905938
101326.0194981411
101325.9103213096
101325.8016285019
101325.6940915508
101325.5886404346
101325.4865860299
101325.3895044003
101325.2992732977
101325.2178882489
101325.1474374559
101325.0898558498
101325.0468889644
101325.0198709598
101325.0097625255
101325.0170512014
101325.0419250317
101325.0842861679
101325.1438909994
101325.2200728822
101325.3111609905
101325.4133074818
101325.5208396548
101325.6295041779
101325.7381924083
101325.8466646646
101325.9546881271
101326.06151832
101326.1663872359
101326.2679291531
101326.3647761964
101326.455029338
101326.5369167098
101326.6083215587
101326.6674859434
101326.7125599835
101326.7422951865
101326.7555282689
101326.75177322
101326.7305911016
101326.6920928699
101326.6363046127
101326.5638743627
101326.4760535909
101326.3763445626
101326.2701248381
101326.1622969549
101326.0543198173
101325.9465142593
101325.8390842666
101325.732593933
101325.6278233508
101325.525906875
101325.4282222655
101325.3364577441
101325.2524555392
101325.1782158474
101325.1156925343
101325.0667610015
101325.0330142215
101325.0157601654
101325.0158920568
101325.0339894232
101325.0702874123
101325.124764381
101325.1968602057
101325.2848878833
101325.3848678998
101325.49082455
101325.5981346508
101325.7054929601
101325.8126863008
101325.9195177076
101326.0253613634
101326.1295501913
101326.2308979682
101326.328186218
101326.4197127863
101326.5038295989
101326.5785383391
101326.6420720066
101326.6925231047
101326.7284327097
101326.7483858948
101326.7515391089
101326.7371326966
101326.7049435957
101326.654777707
101326.5870951804
101326.5030558396
101326.4060690281
101326.3016538978
101326.1951654227
101326.0884586875
101325.9818873666
101325.8756033046
101325.7700824653
101325.6659910527
101325.5643153072
101325.4662729031
101325.3733799509
101325.2873298203
101325.2100080065
101325.1433294808
101325.0892124702
101325.0494033647
101325.0254528405
101325.0185829976
101325.0297308792
101325.0594881036
101325.1081284146
101325.1753273104
101325.259556816
101325.3569152397
101325.4612028679
101325.567257515
101325.6734118702
101325.7794448659
101325.8851836604
101325.9901116046
101326.0936335623
101326.1947222317
101326.2922718567
101326.3847608897
101326.4706497601
101326.5480779286
101326.6153041094
101326.6704326883
101326.7118729686
101326.7380512902
101326.7478390547
101326.7402076887
101326.7146037947
101326.6705831274
101326.6083322498
101326.5287914691
101326.4350774803
101326.3326932011
101326.2275092055
101326.1219741501
101326.016542428
101325.9113256849
101325.8067218395
101325.7033058698
101325.6019398472
101325.5037077786
101325.4099773262
101325.3223020251
101325.2424500742
101325.1722623374
101325.1136526987
101325.0684380348
101325.0383336189
101325.0247972994
101325.0290682547
101325.052052301
101325.0943419996
101325.1559063133
101325.2355453813
101325.3296679157
101325.4320551651
101325.5368750537
101325.6419074295
101325.7468485496
101325.851564378
101325.9556147308
101326.0584814834
101326.1592552112
101326.2569396546
101326.3501567388
101326.4374781997
101326.5171683271
101326.5875409659
101326.6467409469
101326.6931115409
101326.7249843089
101326.7410229069
101326.7399894524
101326.721041518
101326.6834941988
101326.6272288425
101326.5528844548
101326.4631048203
101326.3631434708
101326.2593167015
101326.1548941202
101326.0505324962
101325.9463370474
101325.8426137136
101325.7398840453
101325.6388765686
101325.5405900414
101325.4462330237
101325.3572642243
101325.2753052112
101325.202144073
101325.1396240054
101325.0896158318
101325.0538974369
101325.0341223342
101325.031725846
101325.0479074866
101325.0835199016
101325.138880576
101325.2131772133
101325.3033685468
101325.4034560331
101325.506992877
101325.6109439422
101325.7148450134
101325.8185679816
101325.9217690472
101326.0239702852
101326.1243893161
101326.2221007085
101326.3158715533
101326.4043557445
101326.4859498122
101326.5590200913
101326.6217797558
101326.6725398749
101326.7095888521
101326.731444811
101326.7367130343
101326.7243185678
101326.6933546409
101326.6434185914
101326.5748066395
101326.4896217913
101326.3926343074
101326.2904326495
101326.1872029643
101326.0839924946
101325.9808919778
101325.8781622396
101325.7762321868
101325.6757501249
101325.5775842386
101325.4828191474
101325.3927355548
101325.3087724544
101325.2324684815
101325.1653789409
101325.1089621788
101325.0644178878
101325.0324289496
101325.0127085984
101325.0033249191
101325.0004539494
101325.0000229344
101325.0000002868
101325.0000000012
101325.0000000006
101325.0000000006
101325.0000000006
101325.0000000007
101325.0000000007
101325.0000000007
101325.0000000007
101325.0000000007
101325.0000000007
101325.0000000007
101325.0000000007
101325.0000000007
101325.0000000007
101325.0000000007
101325.0000000007
101325.0000000007
101325.0000000007
101325.0000000007
101325.0000000007
101325.0000000007
101325.0000000007
101325.0000000007
101325.0000000007
101325.0000000007
101325.0000000007
101325.0000000007
101325.0000000007
101325.0000000006
101325.0000000006
101325.0000000006
101325.0000000007
101325.0000000007
101325.0000000007
101325.0000000007
101325.0000000007
101325.0000000007
101325.0000000006
101325.0000000007
101325.0000000007
101325.0000000007
101325.0000000007
101325.0000000007
101325.0000000007
101325.0000000007
101325.0000000007
101325.0000000007
101325.0000000007
101325.0000000007
101325.0000000007
101325.0000000007
101325.0000000007
101325.0000000007
101325.0000000007
101325.0000000007
101325.0000000007
101325.0000000007
101325.0000000007
101325.0000000007
101325.0000000007
101325.0000000007
101325.0000000007
101325.0000000007
101325.0000000007
101325.0000000007
101325.0000000007
101325.0000000007
101325.0000000007
101325.0000000007
101325.0000000007
101325.0000000007
101325.0000000007
101325.0000000007
101325.0000000007
101325.0000000007
101325.0000000007
101325.0000000007
101325.0000000007
101325.0000000007
101325.0000000007
101325.0000000007
101325.0000000007
101325.0000000007
101325.0000000007
101325.0000000007
101325.0000000007
101325.0000000007
101325.0000000007
101325.0000000007
101325.0000000007
101325.0000000007
101325.0000000008
101325.0000000008
101325.0000000007
101325.0000000007
101325.0000000007
101325.0000000007
101325.0000000007
101325.0000000007
101325.0000000007
101325.0000000007
101325.0000000007
101325.0000000007
101325.0000000008
101325.0000000008
101325.0000000007
101325.0000000007
101325.0000000007
101325.0000000007
101325.0000000007
101325.0000000007
101325.0000000007
101325.0000000007
101325.0000000008
101325.0000000007
101325.0000000007
101325.0000000007
101325.0000000007
101325.0000000007
101325.0000000007
101325.0000000007
101325.0000000007
101325.0000000007
101325.0000000007
101325.0000000007
101325.0000000007
101325.0000000007
101325.0000000007
101325.0000000007
101325.0000000007
101325.0000000007
101325.0000000007
101325.0000000007
101325.0000000007
101325.0000000007
101325.0000000007
101325.0000000007
101325.0000000007
101325.0000000007
101325.0000000007
101325.0000000008
101325.0000000008
101325.0000000008
101325.0000000007
101325.0000000007
101325.0000000007
101325.0000000007
101325.0000000008
101325.0000000008
101325.0000000008
101325.0000000008
101325.0000000008
101325.0000000008
101325.0000000007
101325.0000000007
101325.0000000007
101325.0000000008
101325.0000000007
101325.0000000008
101325.0000000007
101325.0000000007
101325.0000000007
101325.0000000008
101325.0000000008
101325.0000000007
101325.0000000008
101325.0000000008
101325.0000000008
101325.0000000008
101325.0000000008
101325.0000000008
101325.0000000008
101325.0000000008
101325.0000000008
101325.0000000008
101325.0000000008
101325.0000000008
101325.0000000008
101325.0000000008
101325.0000000008
101325.0000000008
101325.0000000008
101325.0000000008
101325.0000000007
101325.0000000007
101325.0000000007
101325.0000000008
101325.0000000007
101325.0000000008
101325.0000000008
101325.0000000008
101325.0000000008
101325.0000000008
101325.0000000007
101325.0000000007
101325.0000000008
101325.0000000008
101325.0000000008
101325.0000000008
101325.0000000008
101325.0000000008
101325.0000000008
101325.0000000007
101325.0000000007
101325.0000000007
101325.0000000007
101325.0000000007
101325.0000000007
101325.0000000008
101325.0000000008
101325.0000000007
101325.0000000008
101325.0000000007
101325.0000000008
101325.0000000008
101325.0000000008
101325.0000000008
101325.0000000007
101325.0000000008
101325.0000000008
101325.0000000008
101325.0000000007
101325.0000000007
101325.0000000007
101325.0000000007
101325.0000000007
101325.0000000007
101325.0000000007
101325.0000000007
101325.0000000007
101325.0000000007
101325.0000000007
101325.0000000007
101325.0000000007
101325.0000000007
101325.0000000007
101325.0000000007
101325.0000000007
101325.0000000007
101325.0000000007
101325.0000000007
101325.0000000007
101325.0000000007
101325.0000000007
101325.0000000007
101325.0000000007
101325.0000000007
101325.0000000007
101325.0000000007
101325.0000000007
101325.0000000007
101325.0000000007
101325.0000000007
101325.0000000007
101325.0000000007
101325.0000000007
101325.0000000007
101325.0000000007
101325.0000000007
101325.0000000007
101325.0000000007
101325.0000000007
101325.0000000007
101325.0000000007
101325.0000000007
101325.0000000007
101325.0000000007
101325.0000000007
101325.0000000007
101325.0000000007
101325.0000000007
101325.0000000007
101325.0000000007
101325.0000000007
101325.0000000007
101325.0000000007
101325.0000000007
101325.0000000007
101325.0000000007
101325.0000000007
101325.0000000007
101325.0000000007
101325.0000000007
101325.0000000007
101325.0000000007
101325.0000000007
101325.0000000007
101325.0000000007
101325.0000000007
101325.0000000007
101325.0000000007
101325.0000000007
101325.0000000007
101325.0000000007
101325.0000000008
101325.0000000008
101325.0000000008
101325.0000000008
101325.0000000008
101325.0000000008
101325.0000000008
101325.0000000008
101325.0000000008
101325.0000000008
101325.0000000008
101325.0000000007
101325.0000000008
101325.0000000008
101325.0000000008
101325.0000000008
101325.0000000008
101325.0000000008
101325.0000000008
101325.0000000008
101325.0000000008
101325.0000000008
101325.0000000008
101325.0000000008
101325.0000000008
101325.0000000008
101325.0000000008
101325.0000000008
101325.0000000008
101325.0000000008
101325.0000000008
101325.0000000008
101325.0000000008
101325.0000000008
101325.0000000008
101325.0000000008
101325.0000000008
101325.0000000008
101325.0000000008
101325.0000000008
101325.0000000008
101325.0000000008
101325.0000000008
101325.0000000008
101325.0000000008
101325.0000000008
101325.0000000008
101325.0000000008
101325.0000000008
101325.0000000008
101325.0000000008
101325.0000000008
101325.0000000008
101325.0000000008
101325.0000000008
101325.0000000008
101325.0000000008
101325.0000000008
101325.0000000008
101325.0000000008
101325.0000000008
101325.0000000008
101325.0000000008
101325.0000000008
101325.0000000008
101325.0000000008
101325.0000000008
101325.0000000008
101325.0000000008
101325.0000000008
101325.0000000008
101325.0000000008
101325.0000000008
101325.0000000008
101325.0000000008
101325.0000000008
101325.0000000008
101325.0000000008
101325.0000000008
101325.0000000008
101325.0000000008
101325.0000000008
101325.0000000008
101325.0000000008
101325.0000000008
101325.0000000008
101325.0000000008
101325.0000000008
101325.0000000008
101325.0000000008
101325.0000000008
101325.0000000008
101325.0000000008
101325.0000000008
101325.0000000008
101325.0000000008
101325.0000000008
101325.0000000008
101325.0000000008
101325.0000000008
101325.0000000008
101325.0000000008
101325.0000000008
101325.0000000009
101325.0000000008
101325.0000000008
101325.0000000008
101325.0000000008
101325.0000000008
101325.0000000008
101325.0000000008
101325.0000000008
101325.0000000008
101325.0000000008
101325.0000000008
101325.0000000008
101325.0000000008
101325.0000000008
101325.0000000008
101325.0000000009
101325.0000000008
101325.0000000008
101325.0000000008
101325.0000000008
101325.0000000008
101325.0000000008
101325.0000000008
101325.0000000008
101325.0000000008
101325.0000000008
101325.0000000008
101325.0000000008
101325.0000000008
101325.0000000008
101325.0000000008
101325.0000000008
101325.0000000008
101325.0000000008
101325.0000000008
101325.0000000008
101325.0000000008
101325.0000000008
101325.0000000008
101325.0000000008
101325.0000000008
101325.0000000008
101325.0000000008
101325.0000000008
101325.0000000008
101325.0000000008
101325.0000000008
101325.0000000008
101325.0000000008
101325.0000000009
101325.0000000008
101325.0000000008
101325.0000000009
101325.0000000009
101325.0000000009
101325.0000000009
101325.0000000009
101325.0000000009
101325.0000000009
101325.0000000009
101325.0000000009
101325.0000000009
101325.0000000009
101325.0000000009
101325.0000000009
101325.0000000009
101325.0000000009
101325.0000000009
101325.0000000009
101325.0000000009
101325.0000000009
101325.0000000009
101325.0000000009
101325.0000000009
101325.0000000009
101325.0000000009
101325.0000000009
101325.0000000009
101325.0000000009
101325.0000000008
101325.0000000009
101325.0000000009
101325.0000000009
101325.0000000009
101325.0000000009
101325.0000000009
101325.0000000009
101325.0000000009
101325.0000000009
101325.0000000009
101325.0000000009
101325.0000000009
101325.0000000009
101325.0000000009
101325.0000000009
101325.0000000009
101325.0000000009
101325.0000000009
101325.0000000009
101325.0000000009
101325.0000000009
101325.0000000009
101325.0000000009
101325.0000000009
101325.0000000009
101325.0000000009
101325.0000000009
101325.0000000009
101325.0000000009
101325.0000000009
101325.0000000009
101325.0000000009
101325.0000000009
101325.0000000009
101325.000000001
101325.0000000009
101325.0000000009
101325.0000000009
101325.000000001
101325.0000000009
101325.0000000009
101325.0000000009
101325.0000000009
101325.000000001
101325.0000000009
101325.000000001
101325.000000001
101325.0000000009
101325.000000001
101325.000000001
101325.0000000009
101325.0000000009
101325.0000000009
101325.0000000009
101325.0000000009
101325.0000000009
101325.0000000009
101325.0000000009
101325.0000000009
101325.0000000009
101325.0000000009
101325.0000000009
101325.0000000009
101325.000000001
101325.000000001
101325.000000001
101325.000000001
101325.000000001
101325.000000001
101325.000000001
101325.000000001
101325.000000001
101325.000000001
101325.000000001
101325.000000001
101325.000000001
101325.000000001
101325.000000001
101325.000000001
101325.000000001
101325.000000001
101325.000000001
101325.000000001
101325.000000001
101325.000000001
101325.000000001
101325.000000001
101325.000000001
101325.000000001
101325.000000001
101325.000000001
101325.000000001
101325.000000001
101325.000000001
101325.000000001
101325.0000000011
101325.0000000011
101325.000000001
101325.000000001
101325.000000001
)
;

boundaryField
{
    inlet
    {
        type            calculated;
        value           uniform 101325.0000000002;
    }
    outlet
    {
        type            calculated;
        value           uniform 101325.000000001;
    }
    frontAndBack
    {
        type            empty;
    }
}


// ************************************************************************* //
