/*--------------------------------*- C++ -*----------------------------------*\
| =========                 |                                                 |
| \\      /  F ield         | OpenFOAM: The Open Source CFD Toolbox           |
|  \\    /   O peration     | Version:  v2012                                 |
|   \\  /    A nd           | Website:  www.openfoam.com                      |
|    \\/     M anipulation  |                                                 |
\*---------------------------------------------------------------------------*/
FoamFile
{
    version     2.0;
    format      ascii;
    class       volScalarField;
    location    "0.003";
    object      rho;
}
// * * * * * * * * * * * * * * * * * * * * * * * * * * * * * * * * * * * * * //

dimensions      [1 -3 0 0 0 0 0];


internalField   nonuniform List<scalar> 
1000
(
1.176294875988811
1.1763184735011
1.1762649969405
1.176221887381391
1.176171772472125
1.176126226397873
1.176087717519925
1.176055437526112
1.176028027552443
1.176009724750906
1.176004911575994
1.176004942209897
1.176007905494263
1.176016321826969
1.176032826661731
1.176057849014676
1.176090402981858
1.176129017056712
1.17617249388162
1.176220007778422
1.1762708696991
1.176324327174567
1.176379499997947
1.176435378518185
1.176490847562205
1.176544779229573
1.176596214279344
1.176644576772553
1.17668979101844
1.176731943937428
1.176769738325105
1.176797806121337
1.176809839607606
1.176811232763249
1.176810624756593
1.17680844544087
1.176802294194402
1.176790246641847
1.176770568755637
1.176742470568468
1.176706280115759
1.176663267832607
1.176615127016611
1.176563445191539
1.176509456195053
1.176454101209939
1.17639821181225
1.176342636133222
1.176288240152446
1.176235762558654
1.176185574717571
1.176137659415762
1.176092443315144
1.176053029430818
1.176026819530115
1.176017893894362
1.176017285977799
1.176017624035038
1.176019790421716
1.176025119033361
1.176035482459915
1.176052466160044
1.176077200464308
1.1761100460421
1.176150494332428
1.176197285172207
1.17624872458914
1.176303077325947
1.176358859584251
1.176414928575029
1.176470430308579
1.176524765069587
1.176577633175322
1.176629022783841
1.176678884666896
1.17672615613629
1.17676679265049
1.17679296085548
1.176801571683635
1.17680220213321
1.176801731740799
1.176800029601923
1.17679549658345
1.176786687636826
1.176772065700246
1.176750379032903
1.176720878721262
1.176683516007363
1.176638992333461
1.17658864061452
1.176534179408387
1.176477410115723
1.176419924672281
1.176362894223421
1.176306994305947
1.176252460745324
1.176199250551753
1.176147461175563
1.17609851430243
1.176057386457624
1.176032489602109
1.176025237645169
1.17602486948851
1.176025170859337
1.17602689575077
1.176031086385009
1.17603920389962
1.176052619850867
1.176072539122291
1.176099787258001
1.176134648415814
1.176176757032104
1.17622510401974
1.176278188934528
1.176334280921977
1.176391703901398
1.176449084669938
1.176505538067966
1.176560734389661
1.176614732675847
1.176667427926763
1.176717363189121
1.176759737333875
1.176786299652205
1.176794800088005
1.176795449671296
1.176795096481094
1.176793786993058
1.176790247194282
1.176783286041677
1.17677157635862
1.176753902998523
1.176729304997175
1.176697247683345
1.176657747559928
1.176611423653161
1.176559456901342
1.176503437452296
1.176445098150634
1.176385997741567
1.176327270120297
1.176269533849005
1.176213023256846
1.176158107493571
1.176106609036869
1.176063984276291
1.176038680662814
1.176031390485303
1.176030977928871
1.176031204862888
1.176032565463535
1.176035944664772
1.17604256583685
1.176053625835038
1.176070259469259
1.176093390207412
1.176123597454089
1.176160990276592
1.176205134687055
1.176255074599456
1.176309450770072
1.176366694268731
1.176425273808632
1.176483959682427
1.176541999554402
1.17659904495288
1.176654656494662
1.176707134927585
1.17675154269136
1.176779602929123
1.176788934925715
1.176789764865958
1.176789510910479
1.176788529269002
1.176785736938278
1.176780114344365
1.176770488404561
1.176755731020516
1.176734851690234
1.176707128762047
1.176672224450226
1.176630272464765
1.176581919163206
1.176528282912745
1.176470801318857
1.176410990004176
1.176350193458552
1.176289419933888
1.176229368988393
1.176170883155683
1.176116248126422
1.17607131142761
1.176044634207771
1.17603672755339
1.176036185138834
1.176036355284299
1.176037439362772
1.176040192802626
1.176045678876551
1.176054962106541
1.17606909710744
1.176089013222714
1.176115411077012
1.176148652096504
1.176188674055787
1.176234962852419
1.176286589274607
1.176342309499299
1.176400737940733
1.176460578324848
1.176520820134782
1.176580737029429
1.176639492899697
1.1766950696755
1.176742353899234
1.17677289137861
1.176783691645034
1.176784842256718
1.176784662813867
1.1767839221444
1.176781694245202
1.176777095011702
1.176769078100417
1.176756601344378
1.176738691348095
1.176714548205443
1.176683641626716
1.176645797981696
1.176601266456232
1.176550732327266
1.176495244036075
1.176436061000744
1.176374470157769
1.176311632143101
1.176248563298788
1.176186515363499
1.176128208866307
1.176079913547519
1.176050681328549
1.176041548922181
1.176040790722438
1.176040901250965
1.176041750458553
1.176043995791185
1.176048584543477
1.176056468002941
1.176068616520282
1.176085929425441
1.176109155404199
1.176138798996394
1.176175039791756
1.17621768630979
1.176266170995706
1.176319592225754
1.176376823028648
1.176436684486152
1.176498110602511
1.176560167205769
1.17662174048721
1.176680583761654
1.176731468093731
1.176765593383105
1.176778717175517
1.176780419734244
1.176780306429014
1.176779770387368
1.176778001891089
1.176774224535244
1.176767493754351
1.176756852665651
1.176741370463052
1.176720224239083
1.176692777001275
1.17665865702198
1.176617829090817
1.176570631061983
1.176517748953396
1.176460132415573
1.176398876452126
1.176335105727582
1.176269956341669
1.176204913195517
1.176142956359374
1.176090597196633
1.176057509127087
1.176046156962799
1.1760449574596
1.176045023136082
1.176045677903679
1.176047499082025
1.176051338599074
1.176058061612971
1.176068568275693
1.176083719232666
1.176104272301344
1.1761308070009
1.176163656197088
1.176202857431168
1.176248126711056
1.176298864609809
1.176354218882735
1.176413205273517
1.176474828331719
1.176538096299414
1.1766017736953
1.176663557592456
1.176718317326005
1.17675701856215
1.176773618040871
1.176776326785621
1.176776284110787
1.176775925786105
1.176774542710012
1.176771456003436
1.17676579800358
1.176756684619231
1.176743233154311
1.176724626249176
1.176700173438951
1.176669379244355
1.176632009942508
1.176588138118368
1.17653814581076
1.176482686861659
1.176422620773862
1.176358937906628
1.176292755110983
1.17622561255764
1.176160496754759
1.176103807782195
1.176065700016054
1.176050899675539
1.176048868849137
1.176048880579921
1.176049359803207
1.176050807032308
1.176053998092328
1.17605972892202
1.176068838938135
1.176082148356929
1.176100407282152
1.176124234046388
1.176154058823225
1.17619007799275
1.17623221930425
1.176280129173387
1.176333205256846
1.176390674653835
1.176451672705279
1.176515248186652
1.17658017113763
1.17664424573229
1.176702692011652
1.176746594096344
1.176767945279963
1.176772394657515
1.176772502471795
1.176772281064107
1.176771227545341
1.176768733867423
1.176763997465761
1.176756193487862
1.176744483120435
1.176728065587761
1.176706226577985
1.176678395398655
1.176644203138737
1.17660352689836
1.176556508549
1.176503548175331
1.176445274819121
1.176382504244685
1.176316248899207
1.176247972678805
1.176180463981449
1.176119668313834
1.176075798931545
1.176056185148737
1.176052645829365
1.176052581173413
1.176052895715017
1.176054009878589
1.176056623341204
1.176061478603252
1.176069367557509
1.176081073088295
1.176097329274875
1.176118772340898
1.176145894384996
1.176179001296242
1.176218176106267
1.176263259053382
1.176313860650476
1.176369405787054
1.176429179683493
1.176492327608659
1.176557706470127
1.176623318656246
1.176684875769954
1.176733938835638
1.176760932015902
1.176768058073524
1.176768491036689
1.176768359275268
1.176767590898195
1.176765619158472
1.176761707401818
1.176755099665927
1.176745029995039
1.176730780177722
1.176711735437733
1.176687452484482
1.17665773863684
1.176622746670733
1.176583107340209
1.176540172041129
1.176496529620989
1.176456894052031
1.176428189238522
1.176414837143565
1.176411926181526
1.176411719448278
1.176411716180065
1.176411716172199
1.176411716172197
1.176411716172197
1.176411716172197
1.176411716172198
1.176411716172199
1.176411716172199
1.176411716172199
1.176411716172199
1.176411716172198
1.176411716172197
1.176411716172198
1.176411716172199
1.176411716172199
1.1764117161722
1.176411716172201
1.176411716172201
1.176411716172201
1.176411716172201
1.176411716172201
1.176411716172201
1.176411716172201
1.176411716172201
1.1764117161722
1.1764117161722
1.1764117161722
1.1764117161722
1.1764117161722
1.1764117161722
1.1764117161722
1.1764117161722
1.1764117161722
1.176411716172199
1.176411716172198
1.176411716172198
1.176411716172198
1.176411716172198
1.176411716172198
1.176411716172198
1.176411716172199
1.176411716172199
1.176411716172199
1.1764117161722
1.1764117161722
1.176411716172199
1.176411716172199
1.176411716172199
1.176411716172199
1.176411716172198
1.176411716172198
1.176411716172198
1.176411716172197
1.176411716172197
1.176411716172198
1.176411716172198
1.176411716172198
1.176411716172198
1.176411716172198
1.176411716172197
1.176411716172197
1.176411716172197
1.176411716172197
1.176411716172197
1.176411716172197
1.176411716172196
1.176411716172196
1.176411716172196
1.176411716172196
1.176411716172195
1.176411716172195
1.176411716172195
1.176411716172196
1.176411716172195
1.176411716172195
1.176411716172195
1.176411716172195
1.176411716172195
1.176411716172196
1.176411716172197
1.176411716172197
1.176411716172196
1.176411716172196
1.176411716172195
1.176411716172195
1.176411716172196
1.176411716172196
1.176411716172196
1.176411716172196
1.176411716172197
1.176411716172197
1.176411716172198
1.176411716172198
1.176411716172198
1.176411716172199
1.176411716172199
1.176411716172199
1.176411716172199
1.176411716172199
1.176411716172199
1.176411716172199
1.176411716172199
1.176411716172199
1.176411716172199
1.176411716172199
1.176411716172199
1.176411716172199
1.176411716172199
1.176411716172199
1.1764117161722
1.176411716172199
1.176411716172199
1.176411716172199
1.176411716172199
1.176411716172199
1.176411716172199
1.176411716172199
1.176411716172199
1.176411716172199
1.1764117161722
1.1764117161722
1.176411716172199
1.176411716172199
1.1764117161722
1.176411716172199
1.176411716172199
1.1764117161722
1.1764117161722
1.1764117161722
1.1764117161722
1.176411716172201
1.1764117161722
1.176411716172201
1.1764117161722
1.176411716172201
1.176411716172201
1.176411716172201
1.176411716172201
1.176411716172202
1.176411716172202
1.176411716172202
1.176411716172202
1.176411716172202
1.176411716172201
1.176411716172201
1.1764117161722
1.1764117161722
1.1764117161722
1.176411716172199
1.1764117161722
1.1764117161722
1.1764117161722
1.1764117161722
1.176411716172201
1.1764117161722
1.1764117161722
1.176411716172201
1.176411716172201
1.176411716172201
1.176411716172201
1.176411716172201
1.1764117161722
1.176411716172201
1.176411716172201
1.176411716172201
1.176411716172202
1.176411716172202
1.176411716172202
1.176411716172201
1.176411716172201
1.176411716172201
1.176411716172201
1.176411716172202
1.176411716172202
1.176411716172201
1.176411716172202
1.176411716172201
1.176411716172201
1.1764117161722
1.1764117161722
1.1764117161722
1.1764117161722
1.1764117161722
1.1764117161722
1.1764117161722
1.1764117161722
1.1764117161722
1.1764117161722
1.1764117161722
1.176411716172199
1.176411716172199
1.176411716172199
1.176411716172199
1.1764117161722
1.176411716172199
1.176411716172199
1.176411716172199
1.176411716172199
1.176411716172199
1.176411716172199
1.176411716172199
1.1764117161722
1.176411716172199
1.176411716172199
1.176411716172198
1.176411716172198
1.176411716172198
1.176411716172199
1.1764117161722
1.1764117161722
1.1764117161722
1.1764117161722
1.1764117161722
1.1764117161722
1.176411716172199
1.176411716172199
1.176411716172199
1.176411716172199
1.176411716172199
1.176411716172199
1.176411716172199
1.176411716172199
1.176411716172199
1.176411716172199
1.176411716172199
1.176411716172199
1.176411716172199
1.176411716172199
1.176411716172198
1.176411716172197
1.176411716172197
1.176411716172197
1.176411716172197
1.176411716172198
1.176411716172198
1.176411716172198
1.176411716172198
1.176411716172198
1.176411716172198
1.176411716172198
1.176411716172198
1.176411716172199
1.176411716172199
1.176411716172199
1.176411716172199
1.176411716172199
1.176411716172199
1.176411716172199
1.176411716172199
1.176411716172198
1.176411716172198
1.176411716172197
1.176411716172197
1.176411716172198
1.176411716172197
1.176411716172197
1.176411716172197
1.176411716172198
1.176411716172199
1.176411716172199
1.1764117161722
1.1764117161722
1.176411716172199
1.176411716172199
1.176411716172199
1.176411716172199
1.176411716172199
1.1764117161722
1.1764117161722
1.1764117161722
1.176411716172199
1.176411716172198
1.176411716172197
1.176411716172196
1.176411716172195
1.176411716172195
1.176411716172196
1.176411716172197
1.176411716172197
1.176411716172198
1.176411716172198
1.176411716172197
1.176411716172197
1.176411716172197
1.176411716172197
1.176411716172197
1.176411716172197
1.176411716172197
1.176411716172197
1.176411716172197
1.176411716172197
1.176411716172197
1.176411716172198
1.176411716172199
1.1764117161722
1.176411716172201
1.176411716172201
1.176411716172201
1.1764117161722
1.1764117161722
1.1764117161722
1.176411716172199
1.176411716172199
1.176411716172199
1.1764117161722
1.1764117161722
1.1764117161722
1.1764117161722
1.1764117161722
1.176411716172201
1.176411716172201
1.176411716172201
1.176411716172201
1.176411716172201
1.176411716172201
1.1764117161722
1.176411716172199
1.176411716172199
1.176411716172199
1.176411716172199
1.176411716172199
1.1764117161722
1.176411716172201
1.176411716172202
1.176411716172202
1.176411716172202
1.176411716172203
1.176411716172203
1.176411716172203
1.176411716172203
1.176411716172203
1.176411716172203
1.176411716172203
1.176411716172203
1.176411716172203
1.176411716172203
1.176411716172202
1.176411716172202
1.176411716172203
1.176411716172202
1.176411716172203
1.176411716172203
1.176411716172204
1.176411716172204
1.176411716172204
1.176411716172203
1.176411716172203
1.176411716172203
1.176411716172203
1.176411716172203
1.176411716172202
1.176411716172202
1.176411716172202
1.176411716172203
1.176411716172203
1.176411716172204
1.176411716172204
1.176411716172204
1.176411716172204
1.176411716172204
1.176411716172205
1.176411716172205
1.176411716172204
1.176411716172204
1.176411716172204
1.176411716172204
1.176411716172204
1.176411716172204
1.176411716172204
1.176411716172204
1.176411716172204
1.176411716172204
1.176411716172204
1.176411716172204
1.176411716172204
1.176411716172204
1.176411716172204
1.176411716172203
1.176411716172204
1.176411716172204
1.176411716172203
1.176411716172203
1.176411716172203
1.176411716172203
1.176411716172202
1.176411716172203
1.176411716172203
1.176411716172203
1.176411716172203
1.176411716172204
1.176411716172205
1.176411716172205
1.176411716172204
1.176411716172204
1.176411716172204
1.176411716172204
1.176411716172204
1.176411716172204
1.176411716172203
1.176411716172203
1.176411716172203
1.176411716172203
1.176411716172203
1.176411716172203
1.176411716172203
1.176411716172202
1.176411716172203
1.176411716172203
1.176411716172203
1.176411716172203
1.176411716172202
1.176411716172202
1.176411716172202
1.176411716172202
1.176411716172202
1.176411716172202
1.176411716172202
1.176411716172202
1.176411716172202
1.176411716172202
1.176411716172202
1.176411716172203
1.176411716172202
1.176411716172203
1.176411716172203
1.176411716172203
1.176411716172203
1.176411716172203
1.176411716172203
1.176411716172202
1.176411716172202
1.176411716172202
1.176411716172203
1.176411716172203
1.176411716172203
1.176411716172203
1.176411716172203
1.176411716172203
1.176411716172202
1.176411716172201
1.176411716172201
1.176411716172201
1.176411716172201
1.176411716172201
1.1764117161722
1.176411716172199
1.176411716172199
1.1764117161722
1.176411716172201
1.176411716172201
1.176411716172201
1.176411716172201
1.176411716172201
1.1764117161722
1.176411716172201
1.176411716172201
1.176411716172201
1.176411716172202
1.176411716172202
1.176411716172203
1.176411716172203
1.176411716172202
1.176411716172202
1.176411716172202
1.176411716172203
1.176411716172203
1.176411716172203
1.176411716172203
1.176411716172203
1.176411716172203
1.176411716172203
1.176411716172203
1.176411716172203
1.176411716172203
1.176411716172204
1.176411716172204
1.176411716172204
1.176411716172204
1.176411716172204
1.176411716172204
1.176411716172204
1.176411716172203
1.176411716172203
1.176411716172203
1.176411716172204
1.176411716172204
1.176411716172203
1.176411716172203
1.176411716172203
1.176411716172202
1.176411716172203
1.176411716172203
1.176411716172204
1.176411716172204
1.176411716172204
1.176411716172203
1.176411716172203
1.176411716172204
1.176411716172204
1.176411716172204
1.176411716172204
1.176411716172204
1.176411716172204
1.176411716172204
1.176411716172204
1.176411716172205
1.176411716172204
1.176411716172204
1.176411716172203
1.176411716172203
1.176411716172203
1.176411716172204
1.176411716172204
1.176411716172204
1.176411716172204
1.176411716172204
1.176411716172204
1.176411716172204
1.176411716172205
1.176411716172205
1.176411716172205
1.176411716172205
1.176411716172204
1.176411716172205
1.176411716172206
1.176411716172207
1.176411716172208
1.176411716172208
1.176411716172208
1.176411716172207
1.176411716172207
1.176411716172207
1.176411716172207
1.176411716172206
1.176411716172206
1.176411716172205
1.176411716172205
1.176411716172205
1.176411716172205
1.176411716172205
1.176411716172205
1.176411716172205
1.176411716172205
1.176411716172205
1.176411716172206
1.176411716172207
1.176411716172207
1.176411716172207
1.176411716172208
1.176411716172208
1.176411716172208
1.176411716172208
1.176411716172208
1.176411716172207
1.176411716172208
1.176411716172208
1.176411716172207
1.176411716172208
1.176411716172207
1.176411716172207
1.176411716172207
1.176411716172207
1.176411716172207
1.176411716172207
1.176411716172207
1.176411716172207
1.176411716172207
1.176411716172206
1.176411716172206
1.176411716172206
1.176411716172206
1.176411716172206
1.176411716172206
1.176411716172206
1.176411716172206
1.176411716172206
1.176411716172206
1.176411716172206
)
;

boundaryField
{
    inlet
    {
        type            calculated;
        value           uniform 1.176395973595895;
    }
    outlet
    {
        type            calculated;
        value           uniform 1.176411716172212;
    }
    frontAndBack
    {
        type            empty;
    }
}


// ************************************************************************* //
