/*--------------------------------*- C++ -*----------------------------------*\
| =========                 |                                                 |
| \\      /  F ield         | OpenFOAM: The Open Source CFD Toolbox           |
|  \\    /   O peration     | Version:  v2012                                 |
|   \\  /    A nd           | Website:  www.openfoam.com                      |
|    \\/     M anipulation  |                                                 |
\*---------------------------------------------------------------------------*/
FoamFile
{
    version     2.0;
    format      ascii;
    class       volScalarField;
    location    "0.003";
    object      T;
}
// * * * * * * * * * * * * * * * * * * * * * * * * * * * * * * * * * * * * * //

dimensions      [0 0 0 1 0 0 0];


internalField   nonuniform List<scalar> 
1000
(
299.9881574560787
299.9899366543768
299.9836280186533
299.9789552880699
299.974475982474
299.9705731022945
299.9669905743102
299.9637370113329
299.9608921910627
299.9590042180905
299.958520707442
299.9585533886776
299.9588879316626
299.9597364193246
299.9613797127838
299.9638942410526
299.9671940649793
299.9711264013226
299.9755627277417
299.980414784144
299.9856105325831
299.9910722873827
299.9967092442496
300.0024172212175
300.0080814752903
300.0135865311485
300.018834769628
300.0237681486558
300.0283798058178
300.0326792576199
300.0365344729234
300.0393978548307
300.040625791265
300.0407682983292
300.040706877537
300.0404852752068
300.0398580393467
300.0386288564654
300.0366209365448
300.0337537163205
300.0300606829487
300.025671483874
300.0207589024534
300.0154849127754
300.0099753887861
300.0043263402304
299.998622599899
299.9929507050813
299.9873990331483
299.9820429878372
299.9769204946835
299.9720298219567
299.967414542802
299.9633914175743
299.9607160258523
299.9598049284285
299.9597428785343
299.9597773945113
299.9599985389784
299.9605424656694
299.9616003193807
299.9633339284562
299.9658586523633
299.9692112756024
299.9733398484915
299.9781157023908
299.983365897186
299.9889132928132
299.9946064302202
300.0003286687692
300.0059928538392
300.0115377894397
300.0169329037628
300.0221770004459
300.0272650674635
300.0320886790043
300.0362351574431
300.0389052632186
300.0397838712632
300.0398482001869
300.0398002046876
300.0396265273807
300.0391639984297
300.0382651686645
300.036773194919
300.0345603384372
300.0315501563653
300.0277376374895
300.0231943141449
300.0180561563286
300.0124984964494
300.0067051371312
300.0008385237393
299.9950181750767
299.989313041281
299.9837472013911
299.9783162788829
299.9730302305692
299.968034180315
299.9638361226263
299.9612947674868
299.9605545145295
299.9605169349015
299.9605476984465
299.9607237689937
299.9611515314094
299.9619801301074
299.9633495609267
299.965382799287
299.9681640898968
299.9717224056664
299.9760203929252
299.9809550112587
299.9863730744287
299.9920978927889
299.9979583848103
300.0038143981445
300.0095756019241
300.0152083584047
300.020718702872
300.0260959300725
300.0311913814391
300.0355151799909
300.0382255074123
300.0390928536787
300.0391591345461
300.0391230970523
300.0389894829181
300.0386282963433
300.0379180063265
300.0367231878854
300.0349198411242
300.0324098934523
300.0291387599376
300.0251080873413
300.0203809987176
300.0150779574838
300.0093611943859
300.0034075181466
299.9973759890015
299.9913823256615
299.9854896639388
299.9797219294371
299.9741168105937
299.9688603421345
299.9645095043536
299.9619266368763
299.9611824846256
299.9611403728264
299.9611635379449
299.9613024226948
299.9616473565763
299.9623232141778
299.9634521604238
299.9651500216607
299.9675110439185
299.9705943440096
299.9744110209719
299.97891673732
299.9840138647884
299.9895636324957
299.9954058809682
300.0013843092607
300.0073734112495
300.0132964108935
300.0191177535866
300.024792611199
300.0301476017195
300.0346789289874
300.0375421097575
300.0384943078013
300.0385789917848
300.038553079814
300.0384529176489
300.0381679991794
300.0375942898243
300.0366120890779
300.035106282048
300.0329757870441
300.0301469464546
300.0265852622765
300.0223043398182
300.0173700918754
300.011896599412
300.0060305300165
299.9999265276057
299.9937217879533
299.9875192061509
299.9813901827148
299.9754207192922
299.9698441308834
299.9652573258257
299.9625342562719
299.9617271789028
299.9616718119324
299.9616891803192
299.9617998387646
299.9620808972509
299.9626408886172
299.9635884709086
299.9650312869042
299.9670641863451
299.9697586648435
299.9731515862738
299.9772365639855
299.9819610838493
299.9872302632343
299.992917115488
299.9988801974068
300.0049871955492
300.0111349734746
300.0172494062698
300.0232451762495
300.0289163660348
300.0337412306022
300.0368571941297
300.0379592115028
300.0380766156599
300.038058306568
300.0379827321
300.0377554056504
300.0372861155996
300.0364680943026
300.0351949969211
300.0333674906169
300.0309039377169
300.027750203092
300.0238885362898
300.0193443248145
300.0141874538434
300.0085248711741
300.002485063441
299.9961993385465
299.9897861291244
299.9833491549421
299.977016174519
299.9710648811875
299.9661352783327
299.9631514184979
299.962219223784
299.962141830462
299.9621531132952
299.9622397968922
299.9624689896595
299.9629373860732
299.9637420864265
299.9649821338334
299.9667493172439
299.9691200421842
299.9721457855815
299.9758448481368
299.9801976489524
299.9851462189246
299.990598493762
299.9964394164967
300.0025486393979
300.0088173517573
300.0151502079916
300.0214335427879
300.0274381030233
300.0326303548559
300.0361124251384
300.037451529749
300.0376252524867
300.0376136916072
300.037558996312
300.0373785452279
300.0369931160685
300.0363063267833
300.035220535957
300.0336407588475
300.0314830144541
300.0286822846058
300.0252006101291
300.0210343624814
300.0162179761856
300.0108214127656
300.004941540418
299.9986900689365
299.9921817466434
299.9855325022602
299.9788938795434
299.9725700523126
299.9672256790537
299.963848250544
299.9626894757437
299.9625670361366
299.9625737404095
299.9626405761587
299.9628264728626
299.9632183904349
299.963904637993
299.9649770942602
299.9665236015358
299.968621500595
299.9713299258477
299.9746828276922
299.9786840054848
299.9833044349566
299.9884828948126
299.9941323628254
300.0001523502867
300.0064412356494
300.012897785345
300.0193959067035
300.0257005970005
300.0312883393703
300.0352373517647
300.0369311082729
300.0372074986104
300.0372031443757
300.0371665823644
300.0370254578106
300.0367104996411
300.0361331730171
300.0352032648588
300.0338307011775
300.0319320698483
300.0294369002948
300.0262946103077
300.0224813193285
300.0180043961068
300.0129027829663
300.0072431582155
300.0011131914194
299.9946139140903
299.9878592781587
299.9810064552312
299.9743602625668
299.9685739856757
299.9646841989457
299.9631734551411
299.962966158033
299.9629673555622
299.9630162722925
299.963163997754
299.9634897236345
299.9640746938029
299.9650045882767
299.9663631241078
299.9682268571312
299.9706588868922
299.973703100148
299.9773795129735
299.9816807162929
299.9865705821468
299.9919875924099
299.9978528245526
300.0040779975863
300.0105660050157
300.0171913069822
300.0237298180879
300.0296937937776
300.0341735237898
300.0363521376074
300.0368061363589
300.0368171373596
300.0367945456424
300.0366870477245
300.0364325998915
300.0359493099115
300.0351530098994
300.0339581048448
300.0322828769515
300.0300544254115
300.0272144971756
300.0237254211707
300.0195746220587
300.014776536467
300.0093719469811
300.0034250008384
299.9970189044962
299.9902569449108
299.9832884969339
299.9763981428561
299.9701927514425
299.9657148888091
299.963712820876
299.9633515444527
299.9633449446557
299.9633770513079
299.9634907789033
299.9637575463117
299.964253142901
299.965058398306
299.9662532201194
299.9679125303955
299.9701012575748
299.9728696126067
299.9762487929035
299.980247242247
299.9848486177322
299.9900131264519
299.9956820302802
300.001782339679
300.0082267884919
300.0148986925738
300.0215941820309
300.0278756569272
300.0328820501267
300.0356363717529
300.0363634911795
300.0364076692436
300.036394224614
300.0363158214483
300.0361146302835
300.0357154842829
300.0350412454044
300.034013753899
300.0325597185828
300.0306163982557
300.0281385446408
300.0251064761274
300.0215357575262
300.0174907264657
300.0131092627652
300.0086555392488
300.0046106274032
300.0016811720009
300.0003185141367
300.0000214327054
300.0000003343432
300.0000000008032
300.0000000000003
300.0000000000002
300.0000000000002
300.0000000000003
300.0000000000003
300.0000000000003
300.0000000000001
300
300.0000000000001
300.0000000000003
300.0000000000005
300.0000000000006
300.0000000000005
300.0000000000005
300.0000000000006
300.0000000000006
300.0000000000005
300.0000000000005
300.0000000000005
300.0000000000005
300.0000000000006
300.0000000000006
300.0000000000005
300.0000000000005
300.0000000000005
300.0000000000006
300.0000000000006
300.0000000000005
300.0000000000005
300.0000000000005
300.0000000000005
300.0000000000005
300.0000000000006
300.0000000000007
300.0000000000009
300.0000000000008
300.0000000000009
300.0000000000009
300.0000000000007
300.0000000000006
300.0000000000005
300.0000000000003
300.0000000000003
300.0000000000003
300.0000000000003
300.0000000000004
300.0000000000005
300.0000000000006
300.0000000000006
300.0000000000006
300.0000000000006
300.0000000000005
300.0000000000006
300.0000000000005
300.0000000000005
300.0000000000005
300.0000000000005
300.0000000000005
300.0000000000005
300.0000000000005
300.0000000000005
300.0000000000005
300.0000000000005
300.0000000000005
300.0000000000005
300.0000000000005
300.0000000000004
300.0000000000002
300.0000000000002
300.0000000000002
300.0000000000003
300.0000000000003
300.0000000000003
300.0000000000003
300.0000000000003
300.0000000000004
300.0000000000005
300.0000000000005
300.0000000000005
300.0000000000005
300.0000000000004
300.0000000000003
300.0000000000004
300.0000000000003
300.0000000000003
300.0000000000003
300.0000000000003
300.0000000000004
300.0000000000005
300.0000000000006
300.0000000000006
300.0000000000006
300.0000000000006
300.0000000000007
300.0000000000006
300.0000000000006
300.0000000000006
300.0000000000006
300.0000000000006
300.0000000000005
300.0000000000006
300.0000000000007
300.0000000000007
300.0000000000006
300.0000000000006
300.0000000000006
300.0000000000006
300.0000000000006
300.0000000000005
300.0000000000005
300.0000000000006
300.0000000000006
300.0000000000006
300.0000000000006
300.0000000000006
300.0000000000005
300.0000000000005
300.0000000000004
300.0000000000005
300.0000000000003
300.0000000000003
300.0000000000002
300.0000000000002
300.0000000000002
300.0000000000001
300.0000000000002
300.0000000000002
300.0000000000003
300.0000000000005
300.0000000000005
300.0000000000006
300.0000000000006
300.0000000000006
300.0000000000006
300.0000000000006
300.0000000000006
300.0000000000004
300.0000000000003
300.0000000000003
300.0000000000003
300.0000000000003
300.0000000000002
300.0000000000002
300.0000000000003
300.0000000000004
300.0000000000005
300.0000000000007
300.0000000000007
300.0000000000007
300.0000000000007
300.0000000000006
300.0000000000006
300.0000000000006
300.0000000000003
300.0000000000003
300.0000000000002
300.0000000000001
300.0000000000002
300.0000000000001
300.0000000000002
300.0000000000002
300.0000000000002
300.0000000000001
300
299.9999999999999
300
300.0000000000001
300.0000000000003
300.0000000000005
300.0000000000006
300.0000000000005
300.0000000000006
300.0000000000005
300.0000000000006
300.0000000000005
300.0000000000005
300.0000000000005
300.0000000000004
300.0000000000005
300.0000000000004
300.0000000000005
300.0000000000005
300.0000000000005
300.0000000000005
300.0000000000005
300.0000000000005
300.0000000000004
300.0000000000003
300.0000000000004
300.0000000000006
300.0000000000006
300.0000000000006
300.0000000000005
300.0000000000004
300.0000000000004
300.0000000000004
300.0000000000003
300.0000000000003
300.0000000000003
300.0000000000002
300.0000000000002
300.0000000000002
300.0000000000003
300.0000000000002
300.0000000000001
300.0000000000002
300.0000000000002
300.0000000000002
300
299.9999999999999
299.9999999999998
299.9999999999999
300.0000000000001
300.0000000000001
300.0000000000001
300.0000000000002
300.0000000000002
300.0000000000003
300.0000000000004
300.0000000000004
300.0000000000003
300.0000000000003
300.0000000000003
300.0000000000004
300.0000000000003
300.0000000000003
300.0000000000004
300.0000000000005
300.0000000000005
300.0000000000005
300.0000000000002
299.9999999999999
299.9999999999999
299.9999999999999
299.9999999999998
299.9999999999998
299.9999999999998
299.9999999999999
300
300.0000000000002
300.0000000000002
300.0000000000003
300.0000000000003
300.0000000000003
300.0000000000005
300.0000000000003
300.0000000000002
300.0000000000002
300.0000000000003
300.0000000000002
300.0000000000001
300
300
300.0000000000001
300.0000000000001
300
300
300.0000000000001
300.0000000000001
300.0000000000001
300.0000000000001
300.0000000000002
300.0000000000003
300.0000000000005
300.0000000000005
300.0000000000004
300.0000000000004
300.0000000000003
300.0000000000002
300.0000000000001
300
299.9999999999999
300
300.0000000000001
300.0000000000002
300.0000000000001
300
299.9999999999999
300
299.9999999999999
299.9999999999999
300.0000000000001
300.0000000000001
300.0000000000001
300.0000000000003
300.0000000000003
300.0000000000003
300.0000000000003
300.0000000000003
300.0000000000005
300.0000000000005
300.0000000000004
300.0000000000002
300.0000000000002
300.0000000000001
300.0000000000001
300.0000000000003
300.0000000000004
300.0000000000005
300.0000000000005
300.0000000000005
300.0000000000006
300.0000000000006
300.0000000000006
300.0000000000005
300.0000000000005
300.0000000000006
300.0000000000006
300.0000000000006
300.0000000000006
300.0000000000004
300.0000000000003
300.0000000000004
300.0000000000005
300.0000000000006
300.0000000000007
300.0000000000007
300.0000000000007
300.0000000000008
300.0000000000009
300.0000000000008
300.0000000000007
300.0000000000006
300.0000000000006
300.0000000000006
300.0000000000006
300.0000000000005
300.0000000000005
300.0000000000006
300.0000000000007
300.0000000000009
300.0000000000008
300.0000000000009
300.0000000000009
300.0000000000009
300.000000000001
300.0000000000009
300.0000000000009
300.0000000000008
300.0000000000008
300.0000000000007
300.0000000000006
300.0000000000006
300.0000000000006
300.0000000000007
300.0000000000007
300.0000000000006
300.0000000000005
300.0000000000005
300.0000000000006
300.0000000000006
300.0000000000006
300.0000000000006
300.0000000000006
300.0000000000005
300.0000000000005
300.0000000000005
300.0000000000006
300.0000000000007
300.0000000000006
300.0000000000006
300.0000000000005
300.0000000000005
300.0000000000004
300.0000000000005
300.0000000000006
300.0000000000007
300.0000000000007
300.0000000000007
300.0000000000007
300.0000000000006
300.0000000000006
300.0000000000007
300.0000000000007
300.0000000000007
300.0000000000008
300.000000000001
300.000000000001
300.000000000001
300.000000000001
300.0000000000011
300.0000000000012
300.0000000000012
300.0000000000013
300.0000000000014
300.0000000000013
300.0000000000012
300.0000000000012
300.0000000000011
300.000000000001
300.0000000000009
300.0000000000009
300.0000000000009
300.000000000001
300.000000000001
300.000000000001
300.0000000000012
300.0000000000012
300.0000000000011
300.0000000000011
300.0000000000011
300.0000000000011
300.0000000000009
300.0000000000008
300.0000000000008
300.0000000000007
300.0000000000006
300.0000000000005
300.0000000000006
300.0000000000006
300.0000000000006
300.0000000000005
300.0000000000003
300.0000000000002
300.0000000000002
300.0000000000004
300.0000000000004
300.0000000000003
300.0000000000003
300.0000000000003
300.0000000000006
300.0000000000007
300.0000000000007
300.0000000000007
300.0000000000009
300.0000000000009
300.0000000000009
300.0000000000007
300.0000000000007
300.0000000000007
300.0000000000006
300.0000000000004
300.0000000000003
300.0000000000004
300.0000000000003
300.0000000000005
300.0000000000006
300.0000000000007
300.0000000000007
300.0000000000007
300.0000000000006
300.0000000000006
300.0000000000006
300.0000000000007
300.0000000000007
300.0000000000007
300.0000000000007
300.0000000000005
300.0000000000005
300.0000000000005
300.0000000000007
300.0000000000009
300.000000000001
300.0000000000011
300.0000000000011
300.0000000000013
300.0000000000013
300.0000000000012
300.0000000000012
300.0000000000011
300.0000000000011
300.000000000001
300.0000000000009
300.0000000000009
300.000000000001
300.000000000001
300.000000000001
300.000000000001
300.0000000000011
300.0000000000013
300.0000000000014
300.0000000000014
300.0000000000013
300.0000000000011
300.0000000000012
300.0000000000012
300.0000000000012
300.0000000000011
300.000000000001
300.0000000000009
300.000000000001
300.0000000000009
300.0000000000009
300.000000000001
300.0000000000011
300.0000000000011
300.0000000000013
300.0000000000013
300.0000000000013
300.0000000000013
300.0000000000014
300.0000000000014
300.0000000000014
300.0000000000014
300.0000000000014
300.0000000000014
300.0000000000013
300.0000000000011
300.000000000001
300.000000000001
300.000000000001
300.000000000001
300.000000000001
300.0000000000011
300.0000000000012
300.0000000000012
300.0000000000013
300.0000000000014
300.0000000000015
300.0000000000013
300.0000000000011
300.0000000000011
300.0000000000011
300.0000000000011
300.0000000000011
300.0000000000011
300.0000000000011
300.0000000000011
300.0000000000011
300.0000000000012
300.0000000000012
300.0000000000012
300.0000000000011
300.000000000001
300.0000000000009
300.0000000000008
300.0000000000009
300.0000000000008
300.0000000000008
300.0000000000009
300.0000000000011
300.0000000000013
300.0000000000015
300.0000000000015
300.0000000000015
300.0000000000015
300.0000000000013
300.0000000000013
300.0000000000011
300.0000000000011
300.0000000000012
300.0000000000012
300.0000000000011
300.0000000000012
300.0000000000013
300.0000000000013
300.0000000000011
300.000000000001
300.000000000001
300.000000000001
300.000000000001
300.0000000000009
300.0000000000007
300.0000000000008
300.0000000000009
300.000000000001
300.0000000000012
300.0000000000013
300.0000000000013
300.0000000000013
300.0000000000013
300.0000000000013
300.0000000000013
300.0000000000014
300.0000000000013
300.0000000000014
300.0000000000016
300.0000000000015
300.0000000000015
300.0000000000015
300.0000000000015
300.0000000000015
300.0000000000015
300.0000000000015
300.0000000000016
300.0000000000016
300.0000000000016
)
;

boundaryField
{
    inlet
    {
        type            fixedValue;
        value           uniform 300;
    }
    outlet
    {
        type            inletOutlet;
        inletValue      uniform 300;
        value           uniform 300;
    }
    frontAndBack
    {
        type            empty;
    }
}


// ************************************************************************* //
