/*--------------------------------*- C++ -*----------------------------------*\
| =========                 |                                                 |
| \\      /  F ield         | OpenFOAM: The Open Source CFD Toolbox           |
|  \\    /   O peration     | Version:  v2012                                 |
|   \\  /    A nd           | Website:  www.openfoam.com                      |
|    \\/     M anipulation  |                                                 |
\*---------------------------------------------------------------------------*/
FoamFile
{
    version     2.0;
    format      ascii;
    class       volVectorField;
    location    "0.003";
    object      U;
}
// * * * * * * * * * * * * * * * * * * * * * * * * * * * * * * * * * * * * * //

dimensions      [0 1 -1 0 0 0 0];


internalField   nonuniform List<vector> 
1000
(
(-0.002794607711915397 0 0)
(-0.03444527814301748 0 0)
(-0.04263498754894942 0 0)
(-0.05777915966431642 0 0)
(-0.07163981851707693 0 0)
(-0.08456536792176138 0 0)
(-0.09560757399418546 0 0)
(-0.1050565273720597 0 0)
(-0.1132136373274459 0 0)
(-0.1186968180523445 0 0)
(-0.1201249008959678 0 0)
(-0.1199600692888696 0 0)
(-0.1191629725013702 0 0)
(-0.1166523888829823 0 0)
(-0.1118194693504084 0 0)
(-0.104464811091334 0 0)
(-0.09487171033841096 0 0)
(-0.08347537253466367 0 0)
(-0.07063972835275246 0 0)
(-0.0566136484994194 0 0)
(-0.04159492572655184 0 0)
(-0.02580231424916632 0 0)
(-0.009506417896617441 0 0)
(0.006984810083547613 0 0)
(0.02335395617872061 0 0)
(0.03928492046427606 0 0)
(0.05448119781418087 0 0)
(0.06874330570010084 0 0)
(0.082059827103248 0 0)
(0.0945067080538005 0 0)
(0.1057023063562442 0 0)
(0.1139878302427622 0 0)
(0.1174883718577217 0 0)
(0.1178731532576685 0 0)
(0.1177878973797964 0 0)
(0.1170830195950106 0 0)
(0.1152874962827381 0 0)
(0.1117289386424088 0 0)
(0.105920453701212 0 0)
(0.09762720919114701 0 0)
(0.08694816535496946 0 0)
(0.0742541644960726 0 0)
(0.06004210559443034 0 0)
(0.04478552998597515 0 0)
(0.0288536624283365 0 0)
(0.01251782237819542 0 0)
(-0.003985899882039722 0 0)
(-0.02039979686602032 0 0)
(-0.03645220153984981 0 0)
(-0.05193169189803224 0 0)
(-0.06675466833933985 0 0)
(-0.08092383163924668 0 0)
(-0.09427284528679199 0 0)
(-0.105877816048482 0 0)
(-0.1136081369149343 0 0)
(-0.116282271284662 0 0)
(-0.1164868504567886 0 0)
(-0.1163185664787671 0 0)
(-0.1157207902798879 0 0)
(-0.1141347529789039 0 0)
(-0.1110765731150082 0 0)
(-0.1060626054930207 0 0)
(-0.09875983837068185 0 0)
(-0.0890600432024697 0 0)
(-0.07711669391086952 0 0)
(-0.06330431577209841 0 0)
(-0.04811911467326899 0 0)
(-0.03206941241093067 0 0)
(-0.01559846238455846 0 0)
(0.00094895547804137 0 0)
(0.01732656580020618 0 0)
(0.03337015670563778 0 0)
(0.04898601780808471 0 0)
(0.06414958295873119 0 0)
(0.0788484122288291 0 0)
(0.09280162810661598 0 0)
(0.1048210079606453 0 0)
(0.1125503342217624 0 0)
(0.1150605133963139 0 0)
(0.1152271281301208 0 0)
(0.115142998778141 0 0)
(0.1146069183967981 0 0)
(0.1132792763263435 0 0)
(0.1106780911452226 0 0)
(0.1063621225580919 0 0)
(0.09996124995639516 0 0)
(0.09125616397086488 0 0)
(0.08022979200880742 0 0)
(0.06708667606274644 0 0)
(0.0522233165627248 0 0)
(0.03615081154063327 0 0)
(0.01939683933801702 0 0)
(0.002424328140300146 0 0)
(-0.01441697587816827 0 0)
(-0.03091596876940428 0 0)
(-0.04700571569964025 0 0)
(-0.06271768136448928 0 0)
(-0.07802433893653153 0 0)
(-0.0924775675400627 0 0)
(-0.1045990839872104 0 0)
(-0.1119405957916742 0 0)
(-0.1141065172901507 0 0)
(-0.1142383263023283 0 0)
(-0.1141009857993017 0 0)
(-0.1136190439924659 0 0)
(-0.1123736453919932 0 0)
(-0.1099778691470532 0 0)
(-0.106017148561607 0 0)
(-0.1001359810902284 0 0)
(-0.09208932946654873 0 0)
(-0.08179573301143984 0 0)
(-0.06936497455575613 0 0)
(-0.05509206604537763 0 0)
(-0.03941722192434462 0 0)
(-0.02285555680923058 0 0)
(-0.005907167944954577 0 0)
(0.01102722125376586 0 0)
(0.02769541758713014 0 0)
(0.04399556449896265 0 0)
(0.05992986506732918 0 0)
(0.07547009367742841 0 0)
(0.09021032165805315 0 0)
(0.1027354282956164 0 0)
(0.1105776889765426 0 0)
(0.1130645158830661 0 0)
(0.1132420358388572 0 0)
(0.1131785114109404 0 0)
(0.1127664118773346 0 0)
(0.1117295574237296 0 0)
(0.1096740241521387 0 0)
(0.1062177575092257 0 0)
(0.1010014393780761 0 0)
(0.09374279978679456 0 0)
(0.08428208270328827 0 0)
(0.07262233925714952 0 0)
(0.05894857047448544 0 0)
(0.04361196312400473 0 0)
(0.02707854621965199 0 0)
(0.009854889645078347 0 0)
(-0.007595301949659295 0 0)
(-0.02492911108922003 0 0)
(-0.04196720303048222 0 0)
(-0.05865391274239797 0 0)
(-0.07487894554335378 0 0)
(-0.09008325451578615 0 0)
(-0.1026522098788875 0 0)
(-0.1101188786225039 0 0)
(-0.1122910418090539 0 0)
(-0.1124261027879768 0 0)
(-0.1123244397057997 0 0)
(-0.1119435440227293 0 0)
(-0.110939440280607 0 0)
(-0.1089853918141111 0 0)
(-0.1057202167283672 0 0)
(-0.1008089684799958 0 0)
(-0.09397821754149129 0 0)
(-0.08505899909136794 0 0)
(-0.07402022345527226 0 0)
(-0.06098738694097091 0 0)
(-0.04624108521307935 0 0)
(-0.0301865950517789 0 0)
(-0.01329075928535947 0 0)
(0.003999212865894521 0 0)
(0.02132687105520957 0 0)
(0.03846446713865106 0 0)
(0.05529745495943831 0 0)
(0.07170156672126293 0 0)
(0.08719473461567595 0 0)
(0.1003166397793667 0 0)
(0.1085969670230121 0 0)
(0.1113325146498884 0 0)
(0.1115687315286183 0 0)
(0.1115282249957337 0 0)
(0.1112149225654682 0 0)
(0.1103983736451572 0 0)
(0.1087377994798827 0 0)
(0.1058966046506195 0 0)
(0.1015409748650852 0 0)
(0.09537968758716052 0 0)
(0.08719808282632556 0 0)
(0.0768950838656218 0 0)
(0.06451215793193533 0 0)
(0.05024202887351973 0 0)
(0.03441175759760639 0 0)
(0.01744186017035731 0 0)
(-0.0002168796771949887 0 0)
(-0.01816129582491733 0 0)
(-0.03609744375318536 0 0)
(-0.05382943431589893 0 0)
(-0.07110579674914545 0 0)
(-0.08723485928400519 0 0)
(-0.1004896959086521 0 0)
(-0.1083648943926714 0 0)
(-0.1107148975237109 0 0)
(-0.1108847172546021 0 0)
(-0.1108059923498065 0 0)
(-0.1105039792864608 0 0)
(-0.1096852655431418 0 0)
(-0.1080663546779389 0 0)
(-0.1053257066359645 0 0)
(-0.1011521442950493 0 0)
(-0.09527072941670055 0 0)
(-0.0874764020531045 0 0)
(-0.07766313431516583 0 0)
(-0.06584699417663997 0 0)
(-0.05217878565151347 0 0)
(-0.03693646506615709 0 0)
(-0.02048970096189475 0 0)
(-0.003242953954291847 0 0)
(0.01442557676196831 0 0)
(0.03221157022756289 0 0)
(0.04989213552950306 0 0)
(0.06722737684668349 0 0)
(0.08363642961314456 0 0)
(0.09760349440777875 0 0)
(0.1066121523559302 0 0)
(0.1097852384563704 0 0)
(0.1101197982384655 0 0)
(0.1100954779489958 0 0)
(0.1098554274487797 0 0)
(0.1092052103322992 0 0)
(0.1078465345649199 0 0)
(0.1054802728459773 0 0)
(0.1017978509381889 0 0)
(0.09651282778054511 0 0)
(0.08938756542003448 0 0)
(0.08026463283971991 0 0)
(0.06909472896401377 0 0)
(0.05595269304615254 0 0)
(0.04103771886766919 0 0)
(0.02465646874455726 0 0)
(0.007184414617925452 0 0)
(-0.01099388057630978 0 0)
(-0.02954062055463932 0 0)
(-0.04816423609154727 0 0)
(-0.06649008765251499 0 0)
(-0.08370092407394922 0 0)
(-0.09794949147058404 0 0)
(-0.106582784859546 0 0)
(-0.1092925999269428 0 0)
(-0.1095217204374953 0 0)
(-0.1094645548958418 0 0)
(-0.1092311489140212 0 0)
(-0.1085623947104275 0 0)
(-0.1072086048076508 0 0)
(-0.1048811513887591 0 0)
(-0.1012940142865582 0 0)
(-0.09618138964340082 0 0)
(-0.08932376758377668 0 0)
(-0.08057238689087738 0 0)
(-0.06987220580152931 0 0)
(-0.05727949330713777 0 0)
(-0.04296510699272024 0 0)
(-0.0271965086477052 0 0)
(-0.01030202922671861 0 0)
(0.007372824434934901 0 0)
(0.0255070336825773 0 0)
(0.04381923826525645 0 0)
(0.06198885174070064 0 0)
(0.07936332586981676 0 0)
(0.09438964718073305 0 0)
(0.1044549295624617 0 0)
(0.1083171031431588 0 0)
(0.1088171496319813 0 0)
(0.1088091743139129 0 0)
(0.1086297765032389 0 0)
(0.1081155304162069 0 0)
(0.1069991638945744 0 0)
(0.1050126004189624 0 0)
(0.1018720329243762 0 0)
(0.0973033742018717 0 0)
(0.09106245270004072 0 0)
(0.08296079018253504 0 0)
(0.07289029422547086 0 0)
(0.06084118798110118 0 0)
(0.04691055367831082 0 0)
(0.03129922027781615 0 0)
(0.01429078413734834 0 0)
(-0.003788764460447643 0 0)
(-0.02261212394024745 0 0)
(-0.04184945731582058 0 0)
(-0.0610568138533592 0 0)
(-0.07934474388702299 0 0)
(-0.09479663651832594 0 0)
(-0.1045699642284793 0 0)
(-0.1079313367014877 0 0)
(-0.1082883169810896 0 0)
(-0.1082494836806972 0 0)
(-0.1080712200695066 0 0)
(-0.1075281154824264 0 0)
(-0.1063956145300724 0 0)
(-0.1044107141282335 0 0)
(-0.1013082564178474 0 0)
(-0.09683412787376745 0 0)
(-0.0907658789898742 0 0)
(-0.08293216795672824 0 0)
(-0.07323298453370181 0 0)
(-0.06165764951972988 0 0)
(-0.04829294277514928 0 0)
(-0.03331598645607432 0 0)
(-0.01697431030644843 0 0)
(0.0004421980902428819 0 0)
(0.0186332808239123 0 0)
(0.03730339085312866 0 0)
(0.05609680720970536 0 0)
(0.07434004826763899 0 0)
(0.09050692613844616 0 0)
(0.101921395473313 0 0)
(0.1068121730475686 0 0)
(0.107611016420081 0 0)
(0.1076224223513318 0 0)
(0.1074942769919225 0 0)
(0.1070947918860285 0 0)
(0.1061818201570073 0 0)
(0.1045120417470981 0 0)
(0.1018224290168693 0 0)
(0.09785294106831012 0 0)
(0.09236131859532948 0 0)
(0.08514369944526376 0 0)
(0.07605510498067666 0 0)
(0.06502658058575636 0 0)
(0.05207740406855293 0 0)
(0.03731967776092147 0 0)
(0.02094915700877975 0 0)
(0.003220666326104976 0 0)
(-0.01557779835210565 0 0)
(-0.03511954541765842 0 0)
(-0.05494423409916071 0 0)
(-0.07416446715438568 0 0)
(-0.09089769340945315 0 0)
(-0.1021540121903824 0 0)
(-0.1065304088692132 0 0)
(-0.1071311573946125 0 0)
(-0.1071117597002947 0 0)
(-0.1069840854842305 0 0)
(-0.1065514761548893 0 0)
(-0.1056105728480129 0 0)
(-0.1039185166841384 0 0)
(-0.1012283683499971 0 0)
(-0.09729814676966225 0 0)
(-0.09190738472530645 0 0)
(-0.08487293559694319 0 0)
(-0.07606645787289598 0 0)
(-0.06543090270283454 0 0)
(-0.05298995551643731 0 0)
(-0.03884721900342658 0 0)
(-0.02317715562546714 0 0)
(-0.006208883015600497 0 0)
(0.01179665855857262 0 0)
(0.03055856730059517 0 0)
(0.04972220157145701 0 0)
(0.0686413014181488 0 0)
(0.08589320409871612 0 0)
(0.09884148082048536 0 0)
(0.10513707409111 0 0)
(0.1064581553878813 0 0)
(0.1065029445813708 0 0)
(0.1064176729097287 0 0)
(0.1061166444940274 0 0)
(0.1053781389915872 0 0)
(0.1039805584341047 0 0)
(0.1016774297166433 0 0)
(0.09822163337450641 0 0)
(0.09337608426009936 0 0)
(0.08693017003314696 0 0)
(0.07871629232715591 0 0)
(0.06862516188653704 0 0)
(0.05661899532408071 0 0)
(0.04273980439421521 0 0)
(0.02710761111702825 0 0)
(0.009907811552009031 0 0)
(-0.00862216015097297 0 0)
(-0.02818406707449598 0 0)
(-0.04834113836043839 0 0)
(-0.06826850032221934 0 0)
(-0.08621708276759717 0 0)
(-0.09917419569265137 0 0)
(-0.1049697351901508 0 0)
(-0.1060111571049252 0 0)
(-0.1060222490821099 0 0)
(-0.1059397874748934 0 0)
(-0.1056059959095712 0 0)
(-0.1048356323052405 0 0)
(-0.1034019312413667 0 0)
(-0.1010723731063416 0 0)
(-0.09761596156465237 0 0)
(-0.09281646010254332 0 0)
(-0.08648544003115857 0 0)
(-0.07847699095206033 0 0)
(-0.0687017680672906 0 0)
(-0.05713651548392499 0 0)
(-0.04382736025187106 0 0)
(-0.02888751081411367 0 0)
(-0.0124883871345238 0 0)
(0.00515556505865332 0 0)
(0.02379347364203853 0 0)
(0.0430932217702352 0 0)
(0.06246393252278271 0 0)
(0.08063153812574615 0 0)
(0.09510533470863328 0 0)
(0.1030707004582948 0 0)
(0.1051813122883377 0 0)
(0.1053141477537961 0 0)
(0.1052613860469053 0 0)
(0.1050429992831536 0 0)
(0.1044586937959084 0 0)
(0.1033046982006049 0 0)
(0.101354490151584 0 0)
(0.09838263409794833 0 0)
(0.09417704367912576 0 0)
(0.08855625213285581 0 0)
(0.08138936871828126 0 0)
(0.07261944695376767 0 0)
(0.06229148144256912 0 0)
(0.05059153510862206 0 0)
(0.03791838920468375 0 0)
(0.02503613479369864 0 0)
(0.01333626942620751 0 0)
(0.004862807485000471 0 0)
(0.0009213063037038345 0 0)
(6.199446481258595e-05 0 0)
(9.670925649798472e-07 0 0)
(2.321291610416927e-09 0 0)
(-8.951241674634892e-13 0 0)
(-1.555604135689112e-12 0 0)
(-1.546913609791497e-12 0 0)
(-1.555604135689057e-12 0 0)
(-1.425246247223533e-12 0 0)
(-1.451317824916604e-12 0 0)
(-1.364412565939744e-12 0 0)
(-1.277507306962473e-12 0 0)
(-1.199292573883232e-12 0 0)
(-1.251435729269438e-12 0 0)
(-1.155839944394693e-12 0 0)
(-1.060244159519949e-12 0 0)
(-9.733389005428798e-13 0 0)
(-7.213136495094743e-13 0 0)
(-6.083368128393769e-13 0 0)
(-2.694063028288348e-13 0 0)
(-2.085726215449084e-13 0 0)
(-9.559578487474147e-14 0 0)
(-2.172631474426083e-13 0 0)
(-3.128589323173612e-13 0 0)
(-4.084547171921249e-13 0 0)
(-3.910736653966942e-13 0 0)
(-3.302399841128094e-13 0 0)
(-3.736926136012964e-13 0 0)
(-4.258357689875222e-13 0 0)
(-4.866694502714101e-13 0 0)
(-5.996462869416244e-13 0 0)
(-6.691704941232452e-13 0 0)
(-5.909557610438892e-13 0 0)
(-5.040505020668326e-13 0 0)
(-6.344083905324718e-13 0 0)
(-7.039325977140291e-13 0 0)
(-7.734568048956554e-13 0 0)
(-7.560757531002658e-13 0 0)
(-7.821473307933971e-13 0 0)
(-6.865515459186399e-13 0 0)
(-7.473852272025637e-13 0 0)
(-7.734568048957049e-13 0 0)
(-7.039325977141244e-13 0 0)
(-7.821473307933934e-13 0 0)
(-7.386947013048659e-13 0 0)
(-8.429810120773278e-13 0 0)
(-8.082189084865603e-13 0 0)
(-8.082189084865076e-13 0 0)
(-7.300041754071879e-13 0 0)
(-7.126231236118345e-13 0 0)
(-7.126231236117829e-13 0 0)
(-7.300041754071185e-13 0 0)
(-7.473852272025778e-13 0 0)
(-8.429810120773245e-13 0 0)
(-8.690525897703442e-13 0 0)
(-9.038146933612617e-13 0 0)
(-9.907199523382972e-13 0 0)
(-9.733389005428897e-13 0 0)
(-1.068934685417646e-12 0 0)
(-1.147149418496882e-12 0 0)
(-1.155839944394693e-12 0 0)
(-1.234054677474024e-12 0 0)
(-1.173220996189976e-12 0 0)
(-1.216673625678617e-12 0 0)
(-1.260126255167132e-12 0 0)
(-1.199292573883201e-12 0 0)
(-1.155839944394694e-12 0 0)
(-1.016791530031343e-12 0 0)
(-9.0381469336127e-13 0 0)
(-9.820294264405973e-13 0 0)
(-9.646483746451104e-13 0 0)
(-8.342904861796333e-13 0 0)
(-7.126231236117657e-13 0 0)
(-6.517894423278402e-13 0 0)
(-5.822652351462202e-13 0 0)
(-5.561936574530461e-13 0 0)
(-5.04050502066857e-13 0 0)
(-3.910736653967118e-13 0 0)
(-2.780968287265212e-13 0 0)
(-6.952420718162938e-14 0 0)
(8.690525897733382e-15 0 0)
(8.690525897742717e-15 0 0)
(1.303578884656049e-13 0 0)
(1.738105179541142e-13 0 0)
(3.12858932317397e-13 0 0)
(1.998820956472468e-13 0 0)
(1.30357888465591e-13 0 0)
(1.390484143632883e-13 0 0)
(8.690525897707087e-14 0 0)
(1.738105179543784e-14 0 0)
(-1.129768366701366e-13 0 0)
(-9.55957848747122e-14 0 0)
(-1.39048414363252e-13 0 0)
(-1.216673625678149e-13 0 0)
(-1.042863107723955e-13 0 0)
(-4.345262948846806e-14 0 0)
(-8.690525897696242e-14 0 0)
(-2.085726215448004e-13 0 0)
(-3.563115618057921e-13 0 0)
(-4.953599761690245e-13 0 0)
(-3.736926136012236e-13 0 0)
(-2.867873546241825e-13 0 0)
(-2.172631474425541e-13 0 0)
(-3.215494582150463e-13 0 0)
(-3.823831394989873e-13 0 0)
(-2.867873546242143e-13 0 0)
(-2.346441992379998e-13 0 0)
(-1.303578884655273e-13 0 0)
(-6.083368128390337e-14 0 0)
(-6.952420718157803e-14 0 0)
(-8.690525897652538e-15 0 0)
(3.47621035908766e-14 0 0)
(-8.690525897650981e-15 0 0)
(9.559578487479547e-14 0 0)
(1.303578884656155e-13 0 0)
(1.911915697495343e-13 0 0)
(2.172631474426704e-13 0 0)
(2.607157769311877e-13 0 0)
(3.997641912944214e-13 0 0)
(4.866694502715043e-13 0 0)
(4.084547171921587e-13 0 0)
(3.389305100105265e-13 0 0)
(3.12858932317395e-13 0 0)
(3.823831394990219e-13 0 0)
(4.258357689875761e-13 0 0)
(4.953599761692124e-13 0 0)
(4.692883984760515e-13 0 0)
(5.475031315554244e-13 0 0)
(6.170273387370806e-13 0 0)
(5.214315538623285e-13 0 0)
(3.389305100105425e-13 0 0)
(6.952420718168326e-14 0 0)
(2.607157769316157e-14 0 0)
(-1.303578884655108e-13 0 0)
(-2.520252510333497e-13 0 0)
(-3.215494582150095e-13 0 0)
(-4.519073466806003e-13 0 0)
(-5.475031315553465e-13 0 0)
(-6.517894423278289e-13 0 0)
(-6.691704941231497e-13 0 0)
(-5.6488418335076e-13 0 0)
(-5.30122079759945e-13 0 0)
(-5.648841833507272e-13 0 0)
(-5.735747092485321e-13 0 0)
(-7.213136495093841e-13 0 0)
(-7.908378566910841e-13 0 0)
(-7.821473307933745e-13 0 0)
(-6.691704941231422e-13 0 0)
(-5.648841833507669e-13 0 0)
(-4.779789243737037e-13 0 0)
(-5.214315538622469e-13 0 0)
(-4.258357689874703e-13 0 0)
(-3.215494582150164e-13 0 0)
(-2.694063028287935e-13 0 0)
(-2.085726215448751e-13 0 0)
(-2.780968287264888e-13 0 0)
(-3.997641912943939e-13 0 0)
(-4.605978725783133e-13 0 0)
(-4.51907346680623e-13 0 0)
(-3.823831394989709e-13 0 0)
(-3.997641912943239e-13 0 0)
(-3.650020877035594e-13 0 0)
(-3.12858932317336e-13 0 0)
(-1.56429466158624e-13 0 0)
(-2.085726215448635e-13 0 0)
(-3.041684064196268e-13 0 0)
(-2.259536733402884e-13 0 0)
(-1.651199920563732e-13 0 0)
(2.607157769312251e-14 0 0)
(8.690525897705115e-14 0 0)
(9.559578487475562e-14 0 0)
(2.172631474426019e-13 0 0)
(1.65119992056392e-13 0 0)
(1.390484143632955e-13 0 0)
(1.988346794989026e-26 0 0)
(5.214315538625141e-14 0 0)
(3.476210359084758e-14 0 0)
(1.216673625678918e-13 0 0)
(1.129768366701692e-13 0 0)
(2.520252510334208e-13 0 0)
(3.650020877036058e-13 0 0)
(4.258357689875488e-13 0 0)
(2.607157769311429e-13 0 0)
(2.433347251357315e-13 0 0)
(3.041684064196044e-13 0 0)
(2.607157769311399e-13 0 0)
(2.085726215449097e-13 0 0)
(2.433347251357068e-13 0 0)
(2.085726215449003e-13 0 0)
(1.042863107724546e-13 0 0)
(1.390484143632587e-13 0 0)
(1.998820956471977e-13 0 0)
(2.520252510334116e-13 0 0)
(3.47621035908163e-13 0 0)
(2.954778805219323e-13 0 0)
(3.041684064196121e-13 0 0)
(2.780968287265374e-13 0 0)
(3.997641912943868e-13 0 0)
(4.866694502714545e-13 0 0)
(4.345262948852026e-13 0 0)
(3.38930510010431e-13 0 0)
(4.084547171921029e-13 0 0)
(5.561936574530616e-13 0 0)
(4.605978725782807e-13 0 0)
(4.171452430897784e-13 0 0)
(4.171452430898103e-13 0 0)
(5.214315538622739e-13 0 0)
(6.604799682255139e-13 0 0)
(7.126231236116834e-13 0 0)
(6.952420718163335e-13 0 0)
(7.73456804895718e-13 0 0)
(7.560757531002162e-13 0 0)
(8.516715379750266e-13 0 0)
(7.908378566911401e-13 0 0)
(8.16909434384215e-13 0 0)
(8.08218908486545e-13 0 0)
(8.603620638726822e-13 0 0)
(8.69052589770441e-13 0 0)
(8.603620638727387e-13 0 0)
(5.996462869415484e-13 0 0)
(5.735747092484569e-13 0 0)
(4.258357689875029e-13 0 0)
(2.867873546242272e-13 0 0)
(2.780968287265241e-13 0 0)
(3.302399841127065e-13 0 0)
(2.780968287265087e-13 0 0)
(6.952420718159449e-14 0 0)
(5.214315538618013e-14 0 0)
(-5.214315538626361e-14 0 0)
(-4.345262948855527e-14 0 0)
(-8.690525897706272e-14 0 0)
(-6.952420718165279e-14 0 0)
(-2.259536733402987e-13 0 0)
(-3.910736653967258e-13 0 0)
(-4.779789243737551e-13 0 0)
(-6.865515459186266e-13 0 0)
(-5.909557610439297e-13 0 0)
(-5.301220797599843e-13 0 0)
(-6.691704941232982e-13 0 0)
(-6.69170494123251e-13 0 0)
(-6.865515459186307e-13 0 0)
(-6.778610200209496e-13 0 0)
(-5.64884183350794e-13 0 0)
(-4.519073466805957e-13 0 0)
(-4.866694502714831e-13 0 0)
(-4.432168207829289e-13 0 0)
(-3.476210359082114e-13 0 0)
(-3.99764191294428e-13 0 0)
(-3.476210359081713e-13 0 0)
(-2.520252510334567e-13 0 0)
(-2.085726215449407e-13 0 0)
(-1.651199920564003e-13 0 0)
(-4.345262948855881e-14 0 0)
(-1.390484143633017e-13 0 0)
(-1.738105179542694e-14 0 0)
(-7.82147330793559e-14 0 0)
(-1.564294661586797e-13 0 0)
(-3.215494582150674e-13 0 0)
(-2.607157769311606e-13 0 0)
(-3.04168406419642e-13 0 0)
(-3.997641912944119e-13 0 0)
(-4.605978725783579e-13 0 0)
(-4.953599761691803e-13 0 0)
(-4.345262948852704e-13 0 0)
(-3.997641912944019e-13 0 0)
(-3.389305100105309e-13 0 0)
(-1.998820956472514e-13 0 0)
(-3.041684064196958e-13 0 0)
(-2.60715776931202e-13 0 0)
(-4.084547171921297e-13 0 0)
(-2.867873546242729e-13 0 0)
(-2.172631474426353e-13 0 0)
(-2.954778805219352e-13 0 0)
(-3.302399841127909e-13 0 0)
(-1.042863107724489e-13 0 0)
(8.690525897709317e-15 0 0)
(6.083368128393131e-14 0 0)
(1.303578884655519e-13 0 0)
(1.825010438517894e-13 0 0)
(3.563115618058728e-13 0 0)
(2.259536733403089e-13 0 0)
(6.083368128393043e-14 0 0)
(2.607157769313549e-14 0 0)
(-1.129768366701419e-13 0 0)
(-2.259536733403047e-13 0 0)
(-1.564294661586729e-13 0 0)
(-2.520252510334494e-13 0 0)
(-4.171452430898127e-13 0 0)
(-4.779789243737331e-13 0 0)
(-7.82147330793424e-13 0 0)
(-8.864336415658635e-13 0 0)
(-9.298862710543762e-13 0 0)
(-1.086315737213049e-12 0 0)
(-1.225364151576244e-12 0 0)
(-1.173220996190088e-12 0 0)
(-1.303578884655717e-12 0 0)
(-1.52084203209814e-12 0 0)
(-1.564294661586803e-12 0 0)
(-1.433936773121258e-12 0 0)
(-1.312269410553392e-12 0 0)
(-1.294888358757994e-12 0 0)
(-1.286197832860149e-12 0 0)
(-1.234054677474084e-12 0 0)
(-1.225364151576306e-12 0 0)
(-1.225364151576249e-12 0 0)
(-1.147149418496994e-12 0 0)
(-1.00810100413375e-12 0 0)
(-9.472673228498158e-13 0 0)
(-7.995283825888173e-13 0 0)
(-7.126231236117581e-13 0 0)
(-6.952420718163413e-13 0 0)
(-7.039325977140809e-13 0 0)
(-8.08218908486435e-13 0 0)
(-8.082189084865276e-13 0 0)
(-9.385767969520565e-13 0 0)
(-9.298862710543532e-13 0 0)
(-1.008101004133722e-12 0 0)
(-1.068934685417517e-12 0 0)
(-1.060244159519953e-12 0 0)
(-1.14714941849694e-12 0 0)
(-1.164530470292329e-12 0 0)
(-1.181911522087789e-12 0 0)
(-1.242745203371682e-12 0 0)
(-1.155839944394695e-12 0 0)
(-1.068934685417652e-12 0 0)
(-1.190602047985423e-12 0 0)
(-1.042863107724507e-12 0 0)
(-9.994104782360626e-13 0 0)
(-1.129768366701444e-12 0 0)
(-1.060244159519913e-12 0 0)
(-1.042863107724541e-12 0 0)
(-9.907199523383186e-13 0 0)
(-1.051553633622236e-12 0 0)
(-1.042863107724396e-12 0 0)
(-1.068934685417655e-12 0 0)
(-1.129768366701515e-12 0 0)
(-1.095006263110682e-12 0 0)
(-1.103696789008492e-12 0 0)
(-9.646483746452108e-13 0 0)
(-9.211957451566563e-13 0 0)
(-7.039325977140714e-13 0 0)
(-7.473852272025544e-13 0 0)
(-8.255999602818563e-13 0 0)
(-8.603620638728187e-13 0 0)
(-7.734568048955881e-13 0 0)
(-6.952420718163459e-13 0 0)
(-7.386947013048496e-13 0 0)
(-7.647662789979571e-13 0 0)
(-7.213136495094595e-13 0 0)
(-8.951241674634235e-13 0 0)
(-1.042863107724611e-12 0 0)
(-1.207983099780811e-12 0 0)
(-1.234054677473995e-12 0 0)
(-1.112387314906157e-12 0 0)
(-1.042863107724504e-12 0 0)
(-1.042863107724567e-12 0 0)
(-9.472673228498031e-13 0 0)
(-8.603620638727268e-13 0 0)
(-8.516715379750055e-13 0 0)
(-7.821473307934833e-13 0 0)
(-8.082189084864173e-13 0 0)
(-7.300041754071679e-13 0 0)
(-6.257178646347207e-13 0 0)
(-6.865515459186601e-13 0 0)
(-8.429810120773143e-13 0 0)
(-8.082189084864004e-13 0 0)
(-1.016791530031506e-12 0 0)
(-1.199292573883129e-12 0 0)
(-1.286197832860209e-12 0 0)
(-1.399174669530408e-12 0 0)
(-1.433936773121272e-12 0 0)
(-1.442627299018884e-12 0 0)
(-1.312269410553349e-12 0 0)
(-1.442627299018921e-12 0 0)
(-1.303578884655574e-12 0 0)
(-1.260126255167264e-12 0 0)
(-1.234054677473892e-12 0 0)
(-1.164530470292404e-12 0 0)
(-1.138458892599287e-12 0 0)
(-1.164530470292346e-12 0 0)
(-1.207983099780915e-12 0 0)
(-9.907199523383122e-13 0 0)
(-1.077625211315342e-12 0 0)
(-1.025482055928954e-12 0 0)
(-1.147149418497001e-12 0 0)
(-1.216673625678612e-12 0 0)
(-1.181911522087764e-12 0 0)
(-1.24274520337175e-12 0 0)
(-1.138458892599297e-12 0 0)
(-1.225364151576344e-12 0 0)
(-1.112387314905953e-12 0 0)
(-1.164530470292404e-12 0 0)
(-1.121077840803868e-12 0 0)
(-1.051553633622415e-12 0 0)
(-9.646483746451591e-13 0 0)
(-9.472673228498174e-13 0 0)
(-9.64648374645003e-13 0 0)
(-9.298862710543544e-13 0 0)
(-9.820294264406018e-13 0 0)
(-1.016791530031441e-12 0 0)
(-1.051553633622219e-12 0 0)
(-9.820294264405539e-13 0 0)
(-9.90719952338297e-13 0 0)
(-9.472673228495896e-13 0 0)
(-8.51671537975027e-13 0 0)
(-8.082189084864855e-13 0 0)
(-7.647662789979613e-13 0 0)
(-7.213136495093997e-13 0 0)
(-7.734568048956245e-13 0 0)
(-8.429810120772952e-13 0 0)
(-7.039325977140554e-13 0 0)
(-6.51789442327807e-13 0 0)
(-4.692883984759361e-13 0 0)
(-4.345262948852064e-13 0 0)
(-3.823831394989591e-13 0 0)
(-1.477389402609589e-13 0 0)
(-1.825010438517595e-13 0 0)
(-5.214315538621264e-14 0 0)
(-2.607157769311434e-14 0 0)
(-8.690525897703283e-14 0 0)
(3.476210359083343e-14 0 0)
(2.607157769311198e-14 0 0)
(6.083368128393612e-14 0 0)
(-2.607157769311685e-14 0 0)
(3.476210359082067e-14 0 0)
(-1.911915697494842e-13 0 0)
(-3.215494582150347e-13 0 0)
(-4.953599761691513e-13 0 0)
(-6.952420718161854e-13 0 0)
(-7.734568048956962e-13 0 0)
(-8.429810120772888e-13 0 0)
(-1.008101004133733e-12 0 0)
(-1.199292573883171e-12 0 0)
(-1.329650462348707e-12 0 0)
(-1.616437816973036e-12 0 0)
(-1.642509394665871e-12 0 0)
(-1.764176757234002e-12 0 0)
(-1.677271498256968e-12 0 0)
(-1.546913609791391e-12 0 0)
(-1.442627299018897e-12 0 0)
(-1.364412565939545e-12 0 0)
(-1.277507306962502e-12 0 0)
(-1.207983099780894e-12 0 0)
(-1.051553633622191e-12 0 0)
(-8.342904861794084e-13 0 0)
(-7.908378566910865e-13 0 0)
(-7.126231236116765e-13 0 0)
(-6.604799682254665e-13 0 0)
(-5.648841833506992e-13 0 0)
(-4.866694502713659e-13 0 0)
(-7.213136495094503e-13 0 0)
(-8.429810120771762e-13 0 0)
(-9.21195745156629e-13 0 0)
(-1.042863107724497e-12 0 0)
(-1.068934685417628e-12 0 0)
(-1.164530470292344e-12 0 0)
(-1.320959936450996e-12 0 0)
(-1.451317824916679e-12 0 0)
(-1.416555721325766e-12 0 0)
(-1.529532557995972e-12 0 0)
(-1.538223083893396e-12 0 0)
(-1.47738940260974e-12 0 0)
(-1.381793617734958e-12 0 0)
(-1.468698876711988e-12 0 0)
(-1.607747291075246e-12 0 0)
(-1.564294661586776e-12 0 0)
(-1.572985187484479e-12 0 0)
(-1.529532557995678e-12 0 0)
(-1.486079928507427e-12 0 0)
(-1.338340988246417e-12 0 0)
(-1.294888358757917e-12 0 0)
(-1.312269410553325e-12 0 0)
(-1.216673625678542e-12 0 0)
(-1.112387314906071e-12 0 0)
(-1.060244159519853e-12 0 0)
(-1.268816781064816e-12 0 0)
(-1.31226941055308e-12 0 0)
(-1.35572204004184e-12 0 0)
(-1.477389402609731e-12 0 0)
(-1.494770454405074e-12 0 0)
(-1.538223083893593e-12 0 0)
(-1.538223083893673e-12 0 0)
(-1.546913609791362e-12 0 0)
(-1.625128342870522e-12 0 0)
(-1.677271498256937e-12 0 0)
(-1.564294661586764e-12 0 0)
(-1.616437816972984e-12 0 0)
(-1.64250939466593e-12 0 0)
(-1.564294661586746e-12 0 0)
(-1.477389402609708e-12 0 0)
(-1.381793617734964e-12 0 0)
(-1.399174669530156e-12 0 0)
(-1.35572204004186e-12 0 0)
(-1.364412565939503e-12 0 0)
(-1.355722040041852e-12 0 0)
(-1.425246247223279e-12 0 0)
(-1.503460980302857e-12 0 0)
(-1.460008350814311e-12 0 0)
(-1.520842032098176e-12 0 0)
(-1.460008350814223e-12 0 0)
(-1.581675713382097e-12 0 0)
(-1.572985187484487e-12 0 0)
(-1.55560413568908e-12 0 0)
(-1.503460980302692e-12 0 0)
(-1.54691360979136e-12 0 0)
(-1.572985187484476e-12 0 0)
(-1.581675713382186e-12 0 0)
(-1.625128342870711e-12 0 0)
(-1.46869887671187e-12 0 0)
(-1.572985187484473e-12 0 0)
(-1.581675713382178e-12 0 0)
(-1.555604135688977e-12 0 0)
(-1.546913609791246e-12 0 0)
(-1.512151506200456e-12 0 0)
(-1.633818868768403e-12 0 0)
(-1.494770454405128e-12 0 0)
(-1.590366239279713e-12 0 0)
(-1.599056765177587e-12 0 0)
(-1.581675713382179e-12 0 0)
(-1.607747291075299e-12 0 0)
(-1.720724127745285e-12 0 0)
(-1.73810517954087e-12 0 0)
(-1.625128342870702e-12 0 0)
(-1.65119992056381e-12 0 0)
(-1.798938860824619e-12 0 0)
(-1.729414653643075e-12 0 0)
(-1.607747291075291e-12 0 0)
(-1.885844119801755e-12 0 0)
(-1.937987275187866e-12 0 0)
(-2.007511482369708e-12 0 0)
(-2.094416741346757e-12 0 0)
(-2.111797793142162e-12 0 0)
(-2.085726215449066e-12 0 0)
(-2.276917785198397e-12 0 0)
(-2.294298836993851e-12 0 0)
(-2.294298836993962e-12 0 0)
(-2.415966199561699e-12 0 0)
(-2.320370414686837e-12 0 0)
(-2.276917785198525e-12 0 0)
(-2.042273585960405e-12 0 0)
(-2.085726215449067e-12 0 0)
(-1.998820956471808e-12 0 0)
(-1.964058852881212e-12 0 0)
(-2.033583060062865e-12 0 0)
(-1.990130430574338e-12 0 0)
(-2.050964111858038e-12 0 0)
(-2.068345163653667e-12 0 0)
(-2.25084620750545e-12 0 0)
(-2.242155681607761e-12 0 0)
(-2.233465155709873e-12 0 0)
(-2.31167988878924e-12 0 0)
(-2.320370414687078e-12 0 0)
(-2.520252510334296e-12 0 0)
(-2.468109354947879e-12 0 0)
(-2.372513570073195e-12 0 0)
(-2.320370414687086e-12 0 0)
(-2.216084103914628e-12 0 0)
(-2.12917884493758e-12 0 0)
(-2.050964111858033e-12 0 0)
(-2.216084103914622e-12 0 0)
(-2.163940948528387e-12 0 0)
(-2.320370414686943e-12 0 0)
(-2.224774629812106e-12 0 0)
(-2.207393578016911e-12 0 0)
(-2.224774629812346e-12 0 0)
(-2.372513570073171e-12 0 0)
(-2.415966199561455e-12 0 0)
(-2.337751466482495e-12 0 0)
(-2.337751466482512e-12 0 0)
(-2.346441992380219e-12 0 0)
(-2.563705139822614e-12 0 0)
(-2.528943036231855e-12 0 0)
(-2.650610398799879e-12 0 0)
(-2.7462061836746e-12 0 0)
(-2.833111442651377e-12 0 0)
(-2.980850382912453e-12 0 0)
(-2.972159857014928e-12 0 0)
(-3.137279849071157e-12 0 0)
(-3.059065115991803e-12 0 0)
(-3.067755641889669e-12 0 0)
(-3.189423004457366e-12 0 0)
)
;

boundaryField
{
    inlet
    {
        type            zeroGradient;
    }
    outlet
    {
        type            pressureInletOutletVelocity;
        value           uniform (-3.189423004457366e-12 0 0);
    }
    frontAndBack
    {
        type            empty;
    }
}


// ************************************************************************* //
