/*--------------------------------*- C++ -*----------------------------------*\
| =========                 |                                                 |
| \\      /  F ield         | OpenFOAM: The Open Source CFD Toolbox           |
|  \\    /   O peration     | Version:  v2012                                 |
|   \\  /    A nd           | Website:  www.openfoam.com                      |
|    \\/     M anipulation  |                                                 |
\*---------------------------------------------------------------------------*/
FoamFile
{
    version     2.0;
    format      ascii;
    class       volVectorField;
    location    "0.003";
    object      UMean;
}
// * * * * * * * * * * * * * * * * * * * * * * * * * * * * * * * * * * * * * //

dimensions      [0 1 -1 0 0 0 0];


internalField   nonuniform List<vector> 
1000
(
(-7.692818717718034e-05 0 0)
(6.034640950835768e-05 0 0)
(0.0001143592164175686 0 0)
(0.0002405034513383321 0 0)
(0.0003876700269657269 0 0)
(0.0005694327305976096 0 0)
(0.0007829712501971533 0 0)
(0.001020131556727684 0 0)
(0.001281644206160803 0 0)
(0.001559220819663165 0 0)
(0.001846955891815234 0 0)
(0.002134690931643355 0 0)
(0.002422398359488961 0 0)
(0.002705172456405192 0 0)
(0.002980883858369416 0 0)
(0.003241297088739575 0 0)
(0.003483099387586098 0 0)
(0.003699122815936674 0 0)
(0.003887530163420089 0 0)
(0.004043010290838551 0 0)
(0.004164879261683959 0 0)
(0.004248982334464476 0 0)
(0.004295651277076703 0 0)
(0.004302139407763398 0 0)
(0.004270005066867772 0 0)
(0.004198177316562373 0 0)
(0.00408969725407597 0 0)
(0.003944931911925193 0 0)
(0.003767589373284132 0 0)
(0.003558341592140888 0 0)
(0.003320880540191223 0 0)
(0.003058127462266968 0 0)
(0.002780496560254938 0 0)
(0.002497507573437892 0 0)
(0.002215050484983584 0 0)
(0.001933106474975193 0 0)
(0.001654146216780966 0 0)
(0.001381095122656078 0 0)
(0.00111889849952448 0 0)
(0.0008729428514090573 0 0)
(0.0006492841817974584 0 0)
(0.0004530700003874515 0 0)
(0.0002888064722938663 0 0)
(0.0001594980391814867 0 0)
(6.747111198713828e-05 0 0)
(1.39772535172191e-05 0 0)
(-1.044046841719062e-07 0 0)
(2.526170647543453e-05 0 0)
(8.97081699839379e-05 0 0)
(0.0001920798153652724 0 0)
(0.0003309931262630679 0 0)
(0.0005047886863296982 0 0)
(0.0007119510852208102 0 0)
(0.0009499104755079008 0 0)
(0.001212676480955345 0 0)
(0.001488949119855686 0 0)
(0.0017684285168839 0 0)
(0.00204777194584181 0 0)
(0.002326466786150096 0 0)
(0.002602403879263848 0 0)
(0.002873444454664819 0 0)
(0.003134867064291154 0 0)
(0.003382392430077612 0 0)
(0.003609699472314176 0 0)
(0.003811922096599108 0 0)
(0.003983332045737135 0 0)
(0.0041206499092271 0 0)
(0.004220382678649847 0 0)
(0.004281585253137423 0 0)
(0.004302887081238819 0 0)
(0.004285000617124381 0 0)
(0.004227818949907767 0 0)
(0.004132918173653496 0 0)
(0.004000698388191982 0 0)
(0.00383279425864897 0 0)
(0.003629832112364124 0 0)
(0.003395124733422489 0 0)
(0.003134901847457999 0 0)
(0.002861655393711742 0 0)
(0.00258507498422141 0 0)
(0.002308808537990834 0 0)
(0.002033108704127872 0 0)
(0.001759523160509592 0 0)
(0.001490359922723453 0 0)
(0.001229118080322354 0 0)
(0.0009802411386735325 0 0)
(0.0007489721115165179 0 0)
(0.00054081417492265 0 0)
(0.0003611671806572801 0 0)
(0.0002146723529317735 0 0)
(0.0001049954679108706 0 0)
(3.44909989385332e-05 0 0)
(4.379955312095103e-06 0 0)
(1.478976144762273e-05 0 0)
(6.52692852440576e-05 0 0)
(0.0001549077363643914 0 0)
(0.0002828224062403383 0 0)
(0.0004480883706039599 0 0)
(0.0006494904293753759 0 0)
(0.0008838678635629852 0 0)
(0.001143287582693662 0 0)
(0.001414942588656394 0 0)
(0.001689067402745881 0 0)
(0.001963054781279655 0 0)
(0.002236511561852166 0 0)
(0.002507807986587991 0 0)
(0.002775241109142861 0 0)
(0.003035142690147801 0 0)
(0.003283921997266031 0 0)
(0.003516232833528661 0 0)
(0.003727306781346292 0 0)
(0.003911357192189108 0 0)
(0.004064041649115796 0 0)
(0.004180885369288662 0 0)
(0.004259537679041749 0 0)
(0.004297859126581374 0 0)
(0.004295804262079892 0 0)
(0.004253172591927927 0 0)
(0.004171194937246219 0 0)
(0.004050242182580295 0 0)
(0.003891597861770815 0 0)
(0.003695970746489618 0 0)
(0.003466882333045522 0 0)
(0.003211525828603895 0 0)
(0.002943026730389298 0 0)
(0.002671270795036959 0 0)
(0.002399734455703681 0 0)
(0.002128614219203 0 0)
(0.001859155177931271 0 0)
(0.001593155554718652 0 0)
(0.00133347745550985 0 0)
(0.001083769338592941 0 0)
(0.0008485808956396104 0 0)
(0.0006329099207595825 0 0)
(0.000442086686406882 0 0)
(0.0002811430668228684 0 0)
(0.0001546351006966021 0 0)
(6.603524509874069e-05 0 0)
(1.777560774909442e-05 0 0)
(1.098367729794214e-05 0 0)
(4.593682769859319e-05 0 0)
(0.0001221409912134707 0 0)
(0.0002389239033377745 0 0)
(0.000395334387058178 0 0)
(0.0005899706732433604 0 0)
(0.0008190777983073028 0 0)
(0.001073977614521754 0 0)
(0.001341235093190544 0 0)
(0.001611023321707187 0 0)
(0.001880714489693316 0 0)
(0.002149987203615855 0 0)
(0.002417537167514556 0 0)
(0.002681942104922583 0 0)
(0.002940178465084742 0 0)
(0.003189180125624711 0 0)
(0.003424329728563661 0 0)
(0.003641267718778285 0 0)
(0.003834541456757416 0 0)
(0.003999595298077059 0 0)
(0.004131519764868898 0 0)
(0.004227012448136154 0 0)
(0.004282983453566215 0 0)
(0.004298254408064106 0 0)
(0.004271840576531968 0 0)
(0.00420428323153841 0 0)
(0.004095721235150902 0 0)
(0.003947317014471357 0 0)
(0.003760007762467836 0 0)
(0.003537555531404615 0 0)
(0.003287579133813134 0 0)
(0.003023543533203557 0 0)
(0.00275587863745848 0 0)
(0.002488329367895147 0 0)
(0.002221062472291298 0 0)
(0.00195510316438196 0 0)
(0.001691901949217029 0 0)
(0.00143386125283418 0 0)
(0.001184075551624692 0 0)
(0.0009465140621765778 0 0)
(0.0007256593575249041 0 0)
(0.0005265110050482605 0 0)
(0.0003540537189885882 0 0)
(0.0002131548416990809 0 0)
(0.0001079632014984203 0 0)
(4.186852537211967e-05 0 0)
(1.709326131503025e-05 0 0)
(3.495919207588615e-05 0 0)
(9.582526444559469e-05 0 0)
(0.0001995606433336419 0 0)
(0.00034544297106186 0 0)
(0.0005319561367667263 0 0)
(0.0007549283103830129 0 0)
(0.001005054081446567 0 0)
(0.001268288248235143 0 0)
(0.001534343735778515 0 0)
(0.001800363101888438 0 0)
(0.002066067887055369 0 0)
(0.002330364608199991 0 0)
(0.002592086266568227 0 0)
(0.002848651136300956 0 0)
(0.0030974220264356 0 0)
(0.003334344858742941 0 0)
(0.003555476739089757 0 0)
(0.003755770379516173 0 0)
(0.003930749709040623 0 0)
(0.004075408047262532 0 0)
(0.00418592921506339 0 0)
(0.004258542099551304 0 0)
(0.004291108919575097 0 0)
(0.004281736935756831 0 0)
(0.004230076689778323 0 0)
(0.004135679255284883 0 0)
(0.003999307052604607 0 0)
(0.003821850890942582 0 0)
(0.003607106628363323 0 0)
(0.003362930500914131 0 0)
(0.003103151748858331 0 0)
(0.002839076432966799 0 0)
(0.002574975370435894 0 0)
(0.002311065317592366 0 0)
(0.002048197708968068 0 0)
(0.001787554294902845 0 0)
(0.001531181182933536 0 0)
(0.001281730624823607 0 0)
(0.001042694545473803 0 0)
(0.000818088438269694 0 0)
(0.0006125319155257717 0 0)
(0.0004308075433585504 0 0)
(0.0002778101093256873 0 0)
(0.000158025888308746 0 0)
(7.545638100701209e-05 0 0)
(3.319523783366027e-05 0 0)
(3.354084103732897e-05 0 0)
(7.782203694218331e-05 0 0)
(0.0001667082889683662 0 0)
(0.0003000383329644524 0 0)
(0.0004765455991318866 0 0)
(0.0006920326635236933 0 0)
(0.0009368437428018581 0 0)
(0.001196222805395333 0 0)
(0.001458952457878351 0 0)
(0.001721738925774138 0 0)
(0.001984280652967822 0 0)
(0.002245689782958321 0 0)
(0.002504964824805147 0 0)
(0.002759893662885658 0 0)
(0.003008159947707148 0 0)
(0.00324619219053012 0 0)
(0.00347041231427221 0 0)
(0.00367619358888744 0 0)
(0.00385923256643061 0 0)
(0.004014618258646542 0 0)
(0.004138272925543049 0 0)
(0.004226029271647684 0 0)
(0.004275016839330931 0 0)
(0.004282585624214767 0 0)
(0.004247480081250472 0 0)
(0.004168548720080222 0 0)
(0.0040459086598353 0 0)
(0.003880100112983822 0 0)
(0.00367458652207885 0 0)
(0.003437090336109368 0 0)
(0.003181699500915022 0 0)
(0.002920926314398129 0 0)
(0.002659922813317462 0 0)
(0.002399035358772917 0 0)
(0.002138968672428819 0 0)
(0.001880700544981427 0 0)
(0.001625985030873949 0 0)
(0.001377127583873286 0 0)
(0.001137211626918614 0 0)
(0.0009098482215952491 0 0)
(0.0006992751180573691 0 0)
(0.0005100136029066232 0 0)
(0.0003468426767321153 0 0)
(0.0002143726270072292 0 0)
(0.0001169592228364811 0 0)
(5.83139601122304e-05 0 0)
(4.151702500725948e-05 0 0)
(6.879165146776779e-05 0 0)
(0.0001416568350543787 0 0)
(0.0002607039672899996 0 0)
(0.0004252183630948334 0 0)
(0.0006314149183643189 0 0)
(0.0008697915451913988 0 0)
(0.001125091968549843 0 0)
(0.001384738116320786 0 0)
(0.001644599708212921 0 0)
(0.001904264697641774 0 0)
(0.00216303682070091 0 0)
(0.002420030143983974 0 0)
(0.002673364427460499 0 0)
(0.002920957870102707 0 0)
(0.003159667658789966 0 0)
(0.003386206931239011 0 0)
(0.003596362778976888 0 0)
(0.003786024240024334 0 0)
(0.003950486228526373 0 0)
(0.004085556239457376 0 0)
(0.00418688611930597 0 0)
(0.004251077791780418 0 0)
(0.00427492251796892 0 0)
(0.004256365236310685 0 0)
(0.004193581962251217 0 0)
(0.004085947342853039 0 0)
(0.003933468004195161 0 0)
(0.003738931478465597 0 0)
(0.00350946945106445 0 0)
(0.003259015482327059 0 0)
(0.003001462213527624 0 0)
(0.002743312126707301 0 0)
(0.002485219047061428 0 0)
(0.002227756633192256 0 0)
(0.001971738985663066 0 0)
(0.001718669721429858 0 0)
(0.001470574559308357 0 0)
(0.00123019143134124 0 0)
(0.001000779329752099 0 0)
(0.0007862294160307274 0 0)
(0.000590774473888482 0 0)
(0.000419019456546596 0 0)
(0.0002755496811030229 0 0)
(0.0001649106019678022 0 0)
(9.119840092065959e-05 0 0)
(5.809152147937107e-05 0 0)
(6.852479091247883e-05 0 0)
(0.0001248144165461381 0 0)
(0.0002283056682505883 0 0)
(0.0003790379565979032 0 0)
(0.0005739846712654035 0 0)
(0.0008044442300152301 0 0)
(0.001055078240800253 0 0)
(0.001311713027096699 0 0)
(0.001568827003982426 0 0)
(0.001825808452216632 0 0)
(0.002082087565365098 0 0)
(0.002336918615436721 0 0)
(0.00258866194942836 0 0)
(0.002835468950003282 0 0)
(0.003074525369245887 0 0)
(0.003302828260773802 0 0)
(0.003516511462298774 0 0)
(0.003711689330071927 0 0)
(0.003883878748988389 0 0)
(0.004028890067663134 0 0)
(0.004142316231347599 0 0)
(0.004220419367652123 0 0)
(0.004259597226548917 0 0)
(0.004257155666288798 0 0)
(0.004210694885095995 0 0)
(0.004118867779931935 0 0)
(0.00398107784051791 0 0)
(0.00379921710572387 0 0)
(0.003579417832611646 0 0)
(0.003334847244393742 0 0)
(0.003080665327057088 0 0)
(0.002825196451047647 0 0)
(0.002569753884854633 0 0)
(0.002314755761405364 0 0)
(0.002060929557111963 0 0)
(0.00180950044036357 0 0)
(0.001562321657814702 0 0)
(0.001321765583698767 0 0)
(0.001090859225102279 0 0)
(0.0008731041036613374 0 0)
(0.0006725325418986076 0 0)
(0.0004934621749766565 0 0)
(0.0003404601718091692 0 0)
(0.0002180510235700368 0 0)
(0.0001306363847105989 0 0)
(8.222418780943558e-05 0 0)
(7.637050760141872e-05 0 0)
(0.0001159721453214726 0 0)
(0.0002031506980463368 0 0)
(0.0003386663902692922 0 0)
(0.0005205614604556062 0 0)
(0.0007413611661214136 0 0)
(0.0009863907317271586 0 0)
(0.001239861722007069 0 0)
(0.001494359140779686 0 0)
(0.00174875071107149 0 0)
(0.00200264394540891 0 0)
(0.00225535023030591 0 0)
(0.002505506692768799 0 0)
(0.002751403722824414 0 0)
(0.002990565273388538 0 0)
(0.003220185602520197 0 0)
(0.00343675120837733 0 0)
(0.003636557401891124 0 0)
(0.003815382844977789 0 0)
(0.003969078222658569 0 0)
(0.00409327804113543 0 0)
(0.004184028221375375 0 0)
(0.004237470288371301 0 0)
(0.004250429139572691 0 0)
(0.004220027570587383 0 0)
(0.004144297251385406 0 0)
(0.004022016205688392 0 0)
(0.003854163201636293 0 0)
(0.003645617348880373 0 0)
(0.003408312699544763 0 0)
(0.003158125570065327 0 0)
(0.002905565079353464 0 0)
(0.002652929949369387 0 0)
(0.002400628997834633 0 0)
(0.002149213727393156 0 0)
(0.001899760012631808 0 0)
(0.001653848510205304 0 0)
(0.001413604562350414 0 0)
(0.001181682059459846 0 0)
(0.0009612149569199664 0 0)
(0.0007557246826948071 0 0)
(0.0005689767300473402 0 0)
(0.0004047776899795315 0 0)
(0.0002666972435747334 0 0)
(0.000157672461383436 0 0)
(7.93759033231623e-05 0 0)
(3.110706205130904e-05 0 0)
(8.138533217135575e-06 0 0)
(1.111152514309101e-06 0 0)
(5.613593506742047e-08 0 0)
(7.004929569532258e-10 0 0)
(1.381926997501443e-12 0 0)
(-6.455164248333775e-14 0 0)
(-8.014873980190695e-14 0 0)
(-6.83696385132279e-14 0 0)
(-4.003060466262986e-14 0 0)
(-4.820011581826069e-14 0 0)
(-3.397016118288241e-14 0 0)
(-2.707192599790256e-14 0 0)
(-5.472738850689236e-14 0 0)
(-4.906291623112718e-14 0 0)
(-5.527341195658417e-14 0 0)
(-8.003203249968236e-14 0 0)
(-1.018562980154548e-13 0 0)
(-1.402196555034461e-13 0 0)
(-7.111642823341192e-14 0 0)
(-1.973187031162475e-13 0 0)
(-1.149066752747809e-13 0 0)
(-1.89019980304553e-13 0 0)
(-1.364933580681674e-13 0 0)
(-2.195972934870751e-13 0 0)
(-1.999571217700621e-13 0 0)
(-2.277126191095503e-13 0 0)
(-2.272207811930248e-13 0 0)
(-2.486532436227908e-13 0 0)
(-2.459356307281345e-13 0 0)
(-2.425802957892188e-13 0 0)
(-2.652006718308466e-13 0 0)
(-2.81510517316591e-13 0 0)
(-2.883712394401398e-13 0 0)
(-2.952986514506825e-13 0 0)
(-2.940940653670069e-13 0 0)
(-3.036890728569797e-13 0 0)
(-2.715570516840904e-13 0 0)
(-3.27497362510505e-13 0 0)
(-2.500495631315034e-13 0 0)
(-3.360336680445747e-13 0 0)
(-3.35187540103454e-13 0 0)
(-3.776523256410052e-13 0 0)
(-3.668569001853573e-13 0 0)
(-3.520475771568268e-13 0 0)
(-3.504178430436015e-13 0 0)
(-3.247172278468451e-13 0 0)
(-3.361628797006066e-13 0 0)
(-3.24004479679712e-13 0 0)
(-3.083031794127161e-13 0 0)
(-3.10528954390838e-13 0 0)
(-2.827276077540828e-13 0 0)
(-2.810520243435689e-13 0 0)
(-2.470485182171795e-13 0 0)
(-2.481614057062539e-13 0 0)
(-2.398210017152152e-13 0 0)
(-2.205768012021476e-13 0 0)
(-1.971644827525777e-13 0 0)
(-2.074347253482337e-13 0 0)
(-2.285587470506606e-13 0 0)
(-1.979397526887717e-13 0 0)
(-1.876611738572264e-13 0 0)
(-1.671206886659323e-13 0 0)
(-1.610435727144383e-13 0 0)
(-1.587677803210683e-13 0 0)
(-1.539661084581822e-13 0 0)
(-1.705593859635817e-13 0 0)
(-1.820342146428981e-13 0 0)
(-1.735520946420258e-13 0 0)
(-1.624982458742905e-13 0 0)
(-1.675791816389577e-13 0 0)
(-1.841891316161014e-13 0 0)
(-1.807671067901806e-13 0 0)
(-1.655076270244912e-13 0 0)
(-1.40002913370747e-13 0 0)
(-1.328504229916329e-13 0 0)
(-1.305204450651046e-13 0 0)
(-1.243016131037632e-13 0 0)
(-1.272776493104643e-13 0 0)
(-1.221050149512111e-13 0 0)
(-1.079334139669356e-13 0 0)
(-1.287906761214324e-13 0 0)
(-1.621606283214313e-13 0 0)
(-1.8461011152768e-13 0 0)
(-2.08672656375377e-13 0 0)
(-2.063926958640645e-13 0 0)
(-1.993360721975093e-13 0 0)
(-2.030248565713507e-13 0 0)
(-2.08914407215683e-13 0 0)
(-1.950345744869969e-13 0 0)
(-1.919835121574401e-13 0 0)
(-1.901078590859908e-13 0 0)
(-1.702092640569067e-13 0 0)
(-1.551248452445187e-13 0 0)
(-1.428789147469541e-13 0 0)
(-1.535784734900649e-13 0 0)
(-1.645823048425393e-13 0 0)
(-1.548080682813442e-13 0 0)
(-1.578841393185059e-13 0 0)
(-1.845475897585976e-13 0 0)
(-2.172923242681297e-13 0 0)
(-2.145538707837977e-13 0 0)
(-2.052756402570671e-13 0 0)
(-2.062384755004134e-13 0 0)
(-2.024496562960824e-13 0 0)
(-1.995611505660784e-13 0 0)
(-1.865732950757953e-13 0 0)
(-2.012033890330749e-13 0 0)
(-2.072596643948846e-13 0 0)
(-1.91037349385819e-13 0 0)
(-1.656910242136831e-13 0 0)
(-1.638487160857157e-13 0 0)
(-1.628858808423588e-13 0 0)
(-1.391817941372189e-13 0 0)
(-1.309455930945987e-13 0 0)
(-1.211296753540304e-13 0 0)
(-1.269316955217041e-13 0 0)
(-1.340841859008076e-13 0 0)
(-1.335048175076347e-13 0 0)
(-1.328337505198498e-13 0 0)
(-1.014478224576288e-13 0 0)
(-8.252873514364092e-14 0 0)
(-8.84599669673494e-14 0 0)
(-9.179446131659419e-14 0 0)
(-8.432102585636133e-14 0 0)
(-9.500391212772344e-14 0 0)
(-7.754783420947587e-14 0 0)
(-6.964508260177327e-14 0 0)
(-7.222097948655331e-14 0 0)
(-5.182637842302413e-14 0 0)
(-5.536927866909535e-14 0 0)
(-7.979444977726049e-14 0 0)
(-1.02052199558431e-13 0 0)
(-9.765900325330244e-14 0 0)
(-9.911784453111022e-14 0 0)
(-1.080001038538883e-13 0 0)
(-9.049400852037801e-14 0 0)
(-9.632520551361632e-14 0 0)
(-6.773608458683523e-14 0 0)
(-5.316851239859942e-14 0 0)
(-5.95332284877124e-14 0 0)
(-5.223068586287527e-14 0 0)
(-7.18750256978341e-14 0 0)
(-7.681007733470916e-14 0 0)
(-8.217444511904077e-14 0 0)
(-5.757004493960488e-14 0 0)
(-1.192748628722573e-13 0 0)
(-7.661000767375786e-14 0 0)
(-6.680659428699086e-14 0 0)
(-5.568605563227086e-14 0 0)
(-2.602989651372828e-14 0 0)
(-1.610560770680881e-14 0 0)
(-3.818412841671087e-14 0 0)
(-5.426889553385015e-14 0 0)
(-4.515322160661962e-14 0 0)
(-1.195041093587739e-13 0 0)
(-1.004099610914518e-13 0 0)
(-1.151901072944439e-13 0 0)
(-1.21717379983098e-13 0 0)
(-1.356722388346596e-13 0 0)
(-1.547205378046922e-13 0 0)
(-1.162779860758973e-13 0 0)
(-1.696840811968729e-13 0 0)
(-1.5358264160801e-13 0 0)
(-1.523655511705413e-13 0 0)
(-1.553499236130864e-13 0 0)
(-1.695590376587927e-13 0 0)
(-1.816757565003435e-13 0 0)
(-2.037251003846862e-13 0 0)
(-2.162878078454581e-13 0 0)
(-1.621272833779223e-13 0 0)
(-1.670748393686243e-13 0 0)
(-1.044196905464194e-13 0 0)
(-1.124099726307747e-13 0 0)
(-1.018938110768716e-13 0 0)
(-9.501224836363252e-14 0 0)
(-1.072164976818412e-13 0 0)
(-8.460862599400413e-14 0 0)
(-7.345891051372528e-14 0 0)
(-5.143874345494803e-14 0 0)
(-1.092380348810721e-13 0 0)
(-8.751380419577504e-14 0 0)
(-8.501710155179336e-14 0 0)
(-3.037307540363464e-14 0 0)
(-4.0597468702037e-15 0 0)
(4.601602201941083e-15 0 0)
(4.512404478105709e-14 0 0)
(-9.5866712540744e-15 0 0)
(1.356305576551967e-14 0 0)
(-3.997225101158322e-15 0 0)
(-1.025357012405563e-15 0 0)
(-1.492186221285603e-14 0 0)
(-4.58909784815788e-15 0 0)
(7.848566074509057e-15 0 0)
(9.461627715953556e-15 0 0)
(5.496913934718754e-14 0 0)
(-1.096215017329989e-15 0 0)
(5.508584664940782e-14 0 0)
(5.301012391701647e-14 0 0)
(2.875167752629897e-14 0 0)
(1.702259365285165e-14 0 0)
(1.373811671885061e-14 0 0)
(-8.336235873110016e-15 0 0)
(-3.193611962985229e-14 0 0)
(3.973466828910451e-14 0 0)
(-6.834046168766399e-14 0 0)
(8.094485032759273e-15 0 0)
(-7.14832226119595e-15 0 0)
(-8.711366487515838e-16 0 0)
(-1.127892713631763e-14 0 0)
(-8.148670565966671e-15 0 0)
(-1.122890972107288e-14 0 0)
(-1.369643553951083e-14 0 0)
(-1.224176237965153e-14 0 0)
(-2.249950062149375e-14 0 0)
(-1.820217102890851e-14 0 0)
(-8.448775057384072e-15 0 0)
(-1.733937061605829e-15 0 0)
(1.012435846787292e-14 0 0)
(1.377979789822573e-14 0 0)
(4.148527782246057e-14 0 0)
(-2.652173443027062e-14 0 0)
(-4.60993843783425e-15 0 0)
(-2.271624275420173e-14 0 0)
(-6.477255273400459e-15 0 0)
(-4.280657120845522e-15 0 0)
(6.83988153386288e-15 0 0)
(2.509206997801129e-14 0 0)
(2.854743974740487e-14 0 0)
(9.166108154261629e-14 0 0)
(1.888157425244722e-15 0 0)
(7.872741158552151e-14 0 0)
(8.111991128110747e-14 0 0)
(9.425781901710771e-14 0 0)
(7.946933657821741e-14 0 0)
(8.048218923681291e-14 0 0)
(1.023231272243284e-13 0 0)
(7.631407130026159e-14 0 0)
(7.915255961505782e-14 0 0)
(9.429950019647327e-14 0 0)
(9.709213921396086e-14 0 0)
(8.55881337090825e-14 0 0)
(6.413066257173658e-14 0 0)
(5.142207098320497e-14 0 0)
(4.483227652552136e-14 0 0)
(4.98256818135011e-14 0 0)
(-1.338382669426044e-14 0 0)
(1.588052933824951e-14 0 0)
(2.547136871024297e-14 0 0)
(4.478225911026962e-14 0 0)
(2.529213963896451e-14 0 0)
(1.062870073819168e-14 0 0)
(8.619667892772897e-15 0 0)
(7.715186300540944e-15 0 0)
(7.275866670037764e-14 0 0)
(-2.876834999807049e-14 0 0)
(5.124284191192152e-14 0 0)
(1.66391268026957e-14 0 0)
(1.543037260109712e-14 0 0)
(7.210844030220999e-15 0 0)
(9.211540639655401e-16 0 0)
(-1.350887023236019e-14 0 0)
(6.127133366670383e-16 0 0)
(2.027372564336138e-14 0 0)
(1.741439673888444e-14 0 0)
(1.490102162314932e-14 0 0)
(2.440016240054051e-14 0 0)
(3.787985580734088e-14 0 0)
(3.207366752172041e-14 0 0)
(1.618897006553398e-14 0 0)
(-5.839533229118381e-15 0 0)
(-2.685101574726071e-14 0 0)
(-3.432861932542486e-14 0 0)
(-4.812092157746729e-14 0 0)
(-5.722825926881613e-14 0 0)
(-6.047522314139687e-14 0 0)
(-3.963463345864712e-14 0 0)
(-2.114069417417993e-14 0 0)
(-2.079057226751049e-14 0 0)
(-2.212020188927279e-14 0 0)
(-8.227864806758051e-15 0 0)
(3.256133732031149e-14 0 0)
(-2.019453140258298e-14 0 0)
(6.310530555928736e-15 0 0)
(-1.925670486685815e-15 0 0)
(1.989859502908387e-14 0 0)
(2.823483090217985e-14 0 0)
(1.965684418875257e-14 0 0)
(5.576941799093477e-15 0 0)
(-3.700455104068817e-14 0 0)
(2.463357700488838e-15 0 0)
(-9.352839837822657e-14 0 0)
(-1.811047243430567e-14 0 0)
(-8.240369160551388e-15 0 0)
(2.967283159030139e-14 0 0)
(3.647936818067623e-14 0 0)
(8.590491067228027e-15 0 0)
(-2.193263658212183e-14 0 0)
(-5.918310658104628e-14 0 0)
(-6.739429891605493e-14 0 0)
(-6.668571886684422e-14 0 0)
(-4.285658862359395e-14 0 0)
(-2.932270968362362e-14 0 0)
(-3.150263536443734e-14 0 0)
(-4.389028187185874e-14 0 0)
(-8.054471100586442e-14 0 0)
(-5.751169128849111e-14 0 0)
(-7.055373231195393e-14 0 0)
(-3.888437223006296e-14 0 0)
(-1.549289437015358e-14 0 0)
(4.772495037345177e-15 0 0)
(6.823209062130909e-15 0 0)
(9.044815922312335e-15 0 0)
(-1.873569012478026e-14 0 0)
(-5.900387750977086e-14 0 0)
(1.071206309693805e-14 0 0)
(-9.953048820683691e-14 0 0)
(-4.557420151821304e-14 0 0)
(-5.328521970083082e-14 0 0)
(-5.478991027591647e-14 0 0)
(-6.930329693098776e-14 0 0)
(-8.80181464660874e-14 0 0)
(-9.973472598573343e-14 0 0)
(-9.893444734191655e-14 0 0)
(-9.11025537391345e-14 0 0)
(-1.048573429297462e-13 0 0)
(-1.243432942831179e-13 0 0)
(-1.193748977027458e-13 0 0)
(-9.049400852041155e-14 0 0)
(-8.64592703578387e-14 0 0)
(-1.217507249265758e-13 0 0)
(-9.536237027029352e-14 0 0)
(-1.555499932740668e-13 0 0)
(-1.226260296932675e-13 0 0)
(-1.487142798581245e-13 0 0)
(-1.475555430717457e-13 0 0)
(-1.820383827608324e-13 0 0)
(-1.919251585063175e-13 0 0)
(-1.433207352482224e-13 0 0)
(-1.720599084207433e-13 0 0)
(-1.183328682186279e-13 0 0)
(-2.095688017317364e-13 0 0)
(-1.174367228622686e-13 0 0)
(-1.36451676888798e-13 0 0)
(-1.59830650394893e-13 0 0)
(-1.418202127910871e-13 0 0)
(-1.145232084245956e-13 0 0)
(-1.032984668214883e-13 0 0)
(-8.714284169942068e-14 0 0)
(-8.109907069142219e-14 0 0)
(-8.565065547813831e-14 0 0)
(-8.466281152716413e-14 0 0)
(-6.549363713699461e-14 0 0)
(-5.849953523945801e-14 0 0)
(-6.135052790806135e-14 0 0)
(-7.756450668123777e-14 0 0)
(-6.356796665030682e-14 0 0)
(-1.346218731146613e-13 0 0)
(-1.191039700368947e-13 0 0)
(-1.351637284464132e-13 0 0)
(-1.459049683688949e-13 0 0)
(-1.288990471877907e-13 0 0)
(-1.190747932113159e-13 0 0)
(-1.256937644945667e-13 0 0)
(-1.389150345892997e-13 0 0)
(-1.019605009638595e-13 0 0)
(-2.189970845042094e-13 0 0)
(-1.483599898335018e-13 0 0)
(-1.76328061187782e-13 0 0)
(-1.742731790450358e-13 0 0)
(-1.742940196347232e-13 0 0)
(-1.724975608040784e-13 0 0)
(-1.810588750457563e-13 0 0)
(-2.174215359241905e-13 0 0)
(-1.755486231336298e-13 0 0)
(-2.96594936128948e-13 0 0)
(-2.295841040630397e-13 0 0)
(-2.416883185508173e-13 0 0)
(-2.342148830905317e-13 0 0)
(-2.311971657045006e-13 0 0)
(-2.248199452615811e-13 0 0)
(-2.003280842664089e-13 0 0)
(-2.85428548176938e-13 0 0)
(-1.715847429759802e-13 0 0)
(-2.510165664927862e-13 0 0)
(-1.779327865933112e-13 0 0)
(-1.773325776104823e-13 0 0)
(-1.689880055015078e-13 0 0)
(-1.678959586021251e-13 0 0)
(-1.912374190468095e-13 0 0)
(-1.255895615461667e-13 0 0)
(-2.196514790202656e-13 0 0)
(-1.584718439475696e-13 0 0)
(-2.049505270580558e-13 0 0)
(-1.994069302024431e-13 0 0)
(-1.920543701624044e-13 0 0)
(-1.965017520006666e-13 0 0)
(-2.123822813389296e-13 0 0)
(-2.384371865602434e-13 0 0)
(-2.560433167242649e-13 0 0)
(-2.620412384349625e-13 0 0)
(-2.018244386056511e-13 0 0)
(-3.211159739496672e-13 0 0)
(-2.791055132671835e-13 0 0)
(-3.066234278842965e-13 0 0)
(-3.143344460668504e-13 0 0)
(-3.117627173000586e-13 0 0)
(-3.099412497617867e-13 0 0)
(-3.313403672480305e-13 0 0)
(-3.619551934919613e-13 0 0)
(-3.301399492822869e-13 0 0)
(-4.37944151593204e-13 0 0)
(-3.576495276635301e-13 0 0)
(-3.574077768232034e-13 0 0)
(-3.685241473599268e-13 0 0)
(-3.98809692286961e-13 0 0)
(-4.351848575191944e-13 0 0)
(-4.087506535656179e-13 0 0)
(-4.470056399872672e-13 0 0)
(-3.977801671566207e-13 0 0)
(-3.824123163245697e-13 0 0)
(-3.551820018450267e-13 0 0)
(-3.67694691890629e-13 0 0)
(-3.840878997350576e-13 0 0)
(-3.636224406666062e-13 0 0)
(-3.56507463348914e-13 0 0)
(-2.846532782407472e-13 0 0)
(-3.926242052691184e-13 0 0)
(-3.248797844463731e-13 0 0)
(-3.571826984546466e-13 0 0)
(-3.755182492574304e-13 0 0)
(-3.653105284309019e-13 0 0)
(-3.476168677902377e-13 0 0)
(-3.436446513967289e-13 0 0)
(-3.801073471056339e-13 0 0)
(-3.273097972033674e-13 0 0)
(-4.332675232683972e-13 0 0)
(-3.473667807139976e-13 0 0)
(-3.528561920364894e-13 0 0)
(-3.242420624020856e-13 0 0)
(-2.970826059275315e-13 0 0)
(-2.985206066156295e-13 0 0)
(-2.739662238514147e-13 0 0)
(-3.193320194728115e-13 0 0)
(-2.931020532981187e-13 0 0)
(-3.056105752256935e-13 0 0)
(-2.905678375926322e-13 0 0)
(-3.091701479435191e-13 0 0)
(-3.205032606129671e-13 0 0)
(-3.268012868151026e-13 0 0)
(-3.538982215205995e-13 0 0)
(-3.140593502830672e-13 0 0)
(-4.246228466679877e-13 0 0)
(-3.663483897970346e-13 0 0)
(-3.862719935337916e-13 0 0)
(-4.032862509507789e-13 0 0)
(-3.961879461048474e-13 0 0)
(-3.876391362169697e-13 0 0)
(-3.934953419178116e-13 0 0)
(-4.336176451750645e-13 0 0)
(-3.998517217710555e-13 0 0)
(-5.268417709439086e-13 0 0)
(-4.706138599797751e-13 0 0)
(-4.784457535826314e-13 0 0)
(-4.586430252660754e-13 0 0)
(-4.817885841677297e-13 0 0)
(-5.272169015581646e-13 0 0)
(-5.152544030802861e-13 0 0)
(-5.573982435367303e-13 0 0)
(-5.142873997189111e-13 0 0)
(-5.057094130055862e-13 0 0)
(-4.901956780457386e-13 0 0)
(-4.605103421016415e-13 0 0)
(-4.715016691003239e-13 0 0)
(-4.860775775244191e-13 0 0)
(-5.157629134685175e-13 0 0)
(-4.748820127468505e-13 0 0)
(-5.796601614358418e-13 0 0)
(-5.139456140481045e-13 0 0)
(-5.630085302793184e-13 0 0)
(-5.660637607268155e-13 0 0)
(-5.824611366891777e-13 0 0)
(-6.202409576660481e-13 0 0)
(-6.226834747768943e-13 0 0)
(-6.488800960081053e-13 0 0)
(-6.040353151287049e-13 0 0)
(-6.823959323358984e-13 0 0)
(-5.970245407594993e-13 0 0)
(-5.803020515980577e-13 0 0)
(-5.558185268387137e-13 0 0)
(-5.349279197407839e-13 0 0)
(-5.205687534493752e-13 0 0)
(-4.749945519311549e-13 0 0)
(-5.695608116754887e-13 0 0)
(-5.766757889932659e-13 0 0)
(-6.169689850858534e-13 0 0)
(-6.500263284406472e-13 0 0)
(-6.931621809658909e-13 0 0)
(-7.10630763238074e-13 0 0)
(-6.99889523315586e-13 0 0)
(-7.581931570119972e-13 0 0)
(-7.061083552768776e-13 0 0)
(-8.262376823261474e-13 0 0)
(-7.6755474989752e-13 0 0)
(-7.635491885604958e-13 0 0)
(-7.521410497680838e-13 0 0)
(-7.42245937786787e-13 0 0)
(-7.294956650188848e-13 0 0)
(-7.030322842397367e-13 0 0)
(-6.851760669995624e-13 0 0)
(-6.147223695180115e-13 0 0)
(-6.982514529665166e-13 0 0)
(-6.5030142422446e-13 0 0)
(-7.086509072181673e-13 0 0)
(-7.153907539215637e-13 0 0)
(-7.228891980894194e-13 0 0)
(-7.623195937692026e-13 0 0)
(-6.898235184988101e-13 0 0)
(-7.878284755408051e-13 0 0)
(-7.197255965756148e-13 0 0)
(-7.422501059047257e-13 0 0)
(-6.729884901530952e-13 0 0)
(-7.75353298556721e-13 0 0)
(-7.100722354345717e-13 0 0)
(-7.068377759158092e-13 0 0)
(-7.211510929099198e-13 0 0)
(-7.450093999786528e-13 0 0)
(-7.645286962755475e-13 0 0)
(-7.309545062966837e-13 0 0)
(-8.848622611037038e-13 0 0)
(-8.520008192919079e-13 0 0)
(-8.783933420662259e-13 0 0)
(-8.800439167691033e-13 0 0)
(-8.75275589849689e-13 0 0)
(-8.79464548375922e-13 0 0)
(-8.780390520415729e-13 0 0)
(-9.27035278385713e-13 0 0)
(-8.828448920224656e-13 0 0)
(-1.034564384912787e-12 0 0)
(-9.989269765552465e-13 0 0)
(-1.02728685099562e-12 0 0)
(-1.058789486360005e-12 0 0)
(-1.07788780274534e-12 0 0)
(-1.064974973377802e-12 0 0)
(-1.054667217720828e-12 0 0)
(-1.048069087027274e-12 0 0)
(-9.838383896250541e-13 0 0)
(-1.085415423738634e-12 0 0)
(-1.022581045845272e-12 0 0)
(-1.020713729009696e-12 0 0)
(-9.886734064314506e-13 0 0)
(-9.574750436763232e-13 0 0)
(-9.94396232358277e-13 0 0)
(-9.494472485305853e-13 0 0)
(-1.034693596568894e-12 0 0)
(-9.651110357360857e-13 0 0)
(-9.981308660294375e-13 0 0)
(-1.01080194455659e-12 0 0)
(-9.961968593069228e-13 0 0)
(-9.942003308153155e-13 0 0)
(-9.783198014769691e-13 0 0)
(-1.005966927750196e-12 0 0)
(-9.625851562666016e-13 0 0)
(-1.111166056350698e-12 0 0)
(-1.051987117887526e-12 0 0)
(-1.08466099439225e-12 0 0)
(-1.111695407328703e-12 0 0)
(-1.121578014956197e-12 0 0)
(-1.159578746183606e-12 0 0)
(-1.208462433343629e-12 0 0)
(-1.236668087420256e-12 0 0)
(-1.126508898475206e-12 0 0)
(-1.226593746367536e-12 0 0)
(-1.18389554622555e-12 0 0)
(-1.199292573883224e-12 0 0)
(-1.200342939603239e-12 0 0)
(-1.225151577561449e-12 0 0)
(-1.268537517163041e-12 0 0)
(-1.211751078395566e-12 0 0)
(-1.316254131300655e-12 0 0)
(-1.277090495168848e-12 0 0)
(-1.279762258766236e-12 0 0)
(-1.319267680568784e-12 0 0)
)
;

boundaryField
{
    inlet
    {
        type            calculated;
        value           uniform (-7.692818717718034e-05 0 0);
    }
    outlet
    {
        type            calculated;
        value           uniform (-1.319267680568784e-12 0 0);
    }
    frontAndBack
    {
        type            empty;
    }
}


// ************************************************************************* //
