/*--------------------------------*- C++ -*----------------------------------*\
| =========                 |                                                 |
| \\      /  F ield         | OpenFOAM: The Open Source CFD Toolbox           |
|  \\    /   O peration     | Version:  v2012                                 |
|   \\  /    A nd           | Website:  www.openfoam.com                      |
|    \\/     M anipulation  |                                                 |
\*---------------------------------------------------------------------------*/
FoamFile
{
    version     2.0;
    format      ascii;
    class       volVectorField;
    location    "0.001";
    object      UMean;
}
// * * * * * * * * * * * * * * * * * * * * * * * * * * * * * * * * * * * * * //

dimensions      [0 1 -1 0 0 0 0];


internalField   nonuniform List<vector> 
1000
(
(-0.0002077042240832808 0 0)
(0.0001801804896457135 0 0)
(0.0003072252680310755 0 0)
(0.0006584230897802774 0 0)
(0.001077359554692678 0 0)
(0.001615134127878745 0 0)
(0.002245737382744498 0 0)
(0.002952462860465532 0 0)
(0.003734849531149083 0 0)
(0.004578581226993247 0 0)
(0.005453486873874283 0 0)
(0.006329386317564202 0 0)
(0.00720721705988132 0 0)
(0.008074682975135885 0 0)
(0.008930644115406391 0 0)
(0.009745378624072223 0 0)
(0.01050848439640244 0 0)
(0.0111920176085698 0 0)
(0.0117938712493457 0 0)
(0.01229501366998972 0 0)
(0.01269701978964258 0 0)
(0.01298266667720506 0 0)
(0.01315464330495105 0 0)
(0.01319873075379928 0 0)
(0.01312240720475701 0 0)
(0.01291772263689965 0 0)
(0.01260099629780231 0 0)
(0.01217435431135046 0 0)
(0.011648398616537 0 0)
(0.01099567574207706 0 0)
(0.01021106598760743 0 0)
(0.009346060386195582 0 0)
(0.008471205998676568 0 0)
(0.007592443784634922 0 0)
(0.00671797628525888 0 0)
(0.005840706672241752 0 0)
(0.00496707681885718 0 0)
(0.004098255799886116 0 0)
(0.003244123495995495 0 0)
(0.002422772201855496 0 0)
(0.001661599056170535 0 0)
(0.0009906007236331466 0 0)
(0.0004327478094334817 0 0)
(-5.395342217672642e-06 0 0)
(-0.0003237751378138331 0 0)
(-0.000522376727144866 0 0)
(-0.0005938464268077211 0 0)
(-0.0005346326892814199 0 0)
(-0.0003517695933167112 0 0)
(-5.839191541819996e-05 0 0)
(0.0003530945592718054 0 0)
(0.0009257939000912658 0 0)
(0.001687443227814618 0 0)
(0.002549549166014646 0 0)
(0.003425981621292965 0 0)
(0.004302764410504836 0 0)
(0.005179521163039318 0 0)
(0.006056197293690866 0 0)
(0.006932515000628189 0 0)
(0.007807704431056184 0 0)
(0.008679983496961384 0 0)
(0.009545099508743318 0 0)
(0.01039404811080885 0 0)
(0.01120897393036877 0 0)
(0.01196011897248964 0 0)
(0.01260816250336679 0 0)
(0.0131177679397836 0 0)
(0.01347250173519729 0 0)
(0.013677076821039 0 0)
(0.01374766471652392 0 0)
(0.01370383205527077 0 0)
(0.0135574484568805 0 0)
(0.01329561147605956 0 0)
(0.0128601614064893 0 0)
(0.01218399299618296 0 0)
(0.01134153275191131 0 0)
(0.01046579620605255 0 0)
(0.009588840340590573 0 0)
(0.008711979338643176 0 0)
(0.007835043599359683 0 0)
(0.006958290346543532 0 0)
(0.00608167595662938 0 0)
(0.005205559322870814 0 0)
(0.004330793699436306 0 0)
(0.003459236473139588 0 0)
(0.002595269106609237 0 0)
(0.00174787329538884 0 0)
(0.0009347766588946327 0 0)
(0.000187667225788246 0 0)
(-0.0004429570032269424 0 0)
(-0.0008964662712806837 0 0)
(-0.001141514716238183 0 0)
(-0.001212287826311167 0 0)
(-0.001165958814864973 0 0)
(-0.001021531256193852 0 0)
(-0.0007381179326060659 0 0)
(-0.0002161981009648179 0 0)
(0.0005604233325642994 0 0)
(0.001430551580094591 0 0)
(0.002307869602487243 0 0)
(0.003185210631825835 0 0)
(0.004062498434780701 0 0)
(0.004939729182982709 0 0)
(0.005816897045376842 0 0)
(0.006693916094950553 0 0)
(0.007570659203375639 0 0)
(0.008446698659727737 0 0)
(0.009321101672727051 0 0)
(0.0101916206852668 0 0)
(0.011053484689401 0 0)
(0.01189653318686883 0 0)
(0.01269981799727076 0 0)
(0.01342172364824319 0 0)
(0.01399248721614763 0 0)
(0.01433972403433379 0 0)
(0.0144594035257129 0 0)
(0.01441402496944983 0 0)
(0.01423922270891577 0 0)
(0.01389801436780053 0 0)
(0.01330459962499973 0 0)
(0.01249155808368391 0 0)
(0.01161823198834028 0 0)
(0.01074159065228535 0 0)
(0.00986509507502069 0 0)
(0.008988375693255932 0 0)
(0.008111934072163877 0 0)
(0.00723523860779416 0 0)
(0.006358992604736069 0 0)
(0.005482221212075985 0 0)
(0.004606472143913865 0 0)
(0.003731166513450879 0 0)
(0.002859765868738626 0 0)
(0.002000376111852888 0 0)
(0.001182825573043236 0 0)
(0.0004958201336448944 0 0)
(0.0001002804074475026 0 0)
(5.015760065157338e-06 0 0)
(2.526294952102533e-08 0 0)
(4.594949885688651e-12 0 0)
(5.694482724912823e-14 0 0)
(2.437098557499928e-14 0 0)
(3.998892348324508e-14 0 0)
(-8.240369160559179e-15 0 0)
(-1.900661779069223e-15 0 0)
(3.043559717267745e-14 0 0)
(8.915604266275039e-15 0 0)
(7.291288706404626e-14 0 0)
(-3.082323214077733e-14 0 0)
(3.658773924702477e-14 0 0)
(-2.919766614552611e-14 0 0)
(1.360473694489407e-14 0 0)
(-4.20146288004161e-15 0 0)
(6.939916364352915e-14 0 0)
(4.040156715896636e-14 0 0)
(7.211260842022695e-14 0 0)
(1.640571219825681e-14 0 0)
(9.115673927230631e-15 0 0)
(8.753047666752429e-14 0 0)
(7.640160177693746e-14 0 0)
(9.589588936617434e-14 0 0)
(7.16249386216582e-14 0 0)
(6.035851583915523e-14 0 0)
(8.624252822513268e-14 0 0)
(8.467948399892261e-14 0 0)
(1.129518279625395e-13 0 0)
(-1.171657951963644e-14 0 0)
(6.799867601685868e-14 0 0)
(4.661623100236521e-14 0 0)
(3.362420739413914e-14 0 0)
(8.55422844117944e-14 0 0)
(1.206795186168921e-13 0 0)
(9.52956803833257e-14 0 0)
(3.194862398364349e-14 0 0)
(9.178195696280986e-14 0 0)
(-1.342967599155846e-14 0 0)
(6.253427340204285e-14 0 0)
(8.402925760083551e-15 0 0)
(-1.222925802583231e-14 0 0)
(-2.125740147637676e-15 0 0)
(-4.734148352332029e-14 0 0)
(-4.920463224095514e-14 0 0)
(-1.888907686485043e-13 0 0)
(-8.634256305560797e-14 0 0)
(-1.90978995734716e-13 0 0)
(-1.557417266991346e-13 0 0)
(-2.389331925947303e-13 0 0)
(-2.256160557874196e-13 0 0)
(-2.768839064070211e-13 0 0)
(-2.327435374589153e-13 0 0)
(-3.191236135760095e-13 0 0)
(-2.311054671098629e-13 0 0)
(-2.165253905678366e-13 0 0)
(-1.999071043548195e-13 0 0)
(-1.901412040294702e-13 0 0)
(-1.52328038109104e-13 0 0)
(-1.398987104223308e-13 0 0)
(-8.165343037698715e-14 0 0)
(-2.657425271625946e-13 0 0)
(-1.024856838238607e-13 0 0)
(-2.454229522219342e-13 0 0)
(-1.122515841491905e-13 0 0)
(-1.72635108695984e-13 0 0)
(-1.219799714130881e-13 0 0)
(-1.460258437890636e-13 0 0)
(-1.493770106100255e-13 0 0)
(-1.10100835293935e-13 0 0)
(-9.517063684521882e-14 0 0)
(-3.129839758554517e-14 0 0)
(-1.556541962224758e-13 0 0)
(-1.09325565357733e-13 0 0)
(-1.481015665214573e-13 0 0)
(-1.562419008515137e-13 0 0)
(-1.709970383469206e-13 0 0)
(-1.785371636941176e-13 0 0)
(-1.571047012643933e-13 0 0)
(-1.712471254230965e-13 0 0)
(-1.062870073819921e-13 0 0)
(-1.807379299646308e-13 0 0)
(-2.045837326796104e-13 0 0)
(-2.045837326796219e-13 0 0)
(-1.810880518712867e-13 0 0)
(-1.535409604286483e-13 0 0)
(-1.045113891410237e-13 0 0)
(-7.671421062217478e-14 0 0)
(-6.322201286157078e-14 0 0)
(-1.180410999630267e-14 0 0)
(1.23417972101246e-14 0 0)
(3.017300574267937e-14 0 0)
(7.141236460689433e-14 0 0)
(1.098757569253568e-13 0 0)
(8.145336071604135e-14 0 0)
(7.782709811123788e-14 0 0)
(9.494555847665083e-14 0 0)
(7.385071359977168e-14 0 0)
(4.536579562139904e-14 0 0)
(3.906360130133643e-14 0 0)
(2.617161252358857e-14 0 0)
(3.07106929564952e-14 0 0)
(6.152142074345799e-14 0 0)
(8.965621681516707e-14 0 0)
(8.00403687355432e-14 0 0)
(1.248309640816961e-13 0 0)
(2.039460106353567e-14 0 0)
(6.543528348587794e-14 0 0)
(5.988335039439569e-14 0 0)
(6.002089828630256e-14 0 0)
(2.864747457790048e-14 0 0)
(-8.465447529129749e-15 0 0)
(8.002786438171894e-15 0 0)
(1.80062694858818e-15 0 0)
(2.555889918691542e-14 0 0)
(-2.932270968362116e-14 0 0)
(1.803127819350641e-14 0 0)
(7.377568747689871e-15 0 0)
(7.777708069597276e-15 0 0)
(3.238627636698098e-14 0 0)
(-3.618759992511729e-14 0 0)
(-4.47655866385368e-14 0 0)
(1.355471952965464e-14 0 0)
(1.095381393724769e-14 0 0)
(2.204517576640461e-14 0 0)
(5.566938316054034e-14 0 0)
(3.518725162034366e-14 0 0)
(4.674127454045099e-14 0 0)
(4.951724108619628e-14 0 0)
(3.611257380225519e-14 0 0)
(7.044952936354133e-14 0 0)
(-6.100874223726925e-14 0 0)
(2.114486229210722e-14 0 0)
(-1.549289437015526e-14 0 0)
(6.264681258629086e-15 0 0)
(3.955127109990829e-14 0 0)
(4.182706349326224e-14 0 0)
(7.46885053050165e-14 0 0)
(1.142147676973103e-13 0 0)
(1.196291528968784e-13 0 0)
(4.37652383336523e-16 0 0)
(-1.200417965726028e-15 0 0)
(-3.562490400368175e-14 0 0)
(-4.416537765566753e-14 0 0)
(-3.121086710887704e-14 0 0)
(-5.666973146531779e-14 0 0)
(-1.103384180163212e-13 0 0)
(-1.327712287508169e-13 0 0)
(-1.248184597278922e-13 0 0)
(-1.046739457405452e-13 0 0)
(-8.374165746320411e-14 0 0)
(-7.402577455309988e-14 0 0)
(-5.228070327813715e-14 0 0)
(-1.431748511204515e-14 0 0)
(1.89816090830435e-14 0 0)
(1.312957150012839e-13 0 0)
(6.662319709779896e-14 0 0)
(1.666705319287679e-13 0 0)
(9.609595902713572e-14 0 0)
(1.961933112733327e-13 0 0)
(1.330338201808417e-13 0 0)
(1.932172750666365e-13 0 0)
(1.597431199182368e-13 0 0)
(1.472012530471506e-13 0 0)
(1.06299511735808e-13 0 0)
(8.465447529129827e-14 0 0)
(8.520466685893825e-14 0 0)
(7.313796543261609e-14 0 0)
(4.549083915949827e-14 0 0)
(5.061762422144508e-14 0 0)
(7.10872514078466e-14 0 0)
(7.094970351593139e-14 0 0)
(4.330257724280555e-14 0 0)
(1.090254608663036e-13 0 0)
(-7.402577455308401e-15 0 0)
(4.751654447665287e-14 0 0)
(2.487115972738914e-14 0 0)
(2.195764528973814e-14 0 0)
(2.947276192933843e-14 0 0)
(4.287742921327814e-14 0 0)
(3.602504332559061e-14 0 0)
(8.240369160557947e-15 0 0)
(-2.613409946214888e-15 0 0)
(-4.263984649088644e-14 0 0)
(-5.658220098865234e-14 0 0)
(-5.421887811861989e-14 0 0)
(-5.368119090481284e-14 0 0)
(-9.235715723803865e-14 0 0)
(-1.640571219825644e-13 0 0)
(-1.280946004260108e-13 0 0)
(-2.328935897046732e-13 0 0)
(-2.027580970233962e-13 0 0)
(-2.165128862140306e-13 0 0)
(-1.714471950840503e-13 0 0)
(-1.249184945583675e-13 0 0)
(-1.216298495064271e-13 0 0)
(-1.172533256730585e-13 0 0)
(-6.692330158922463e-14 0 0)
(-3.738801789084266e-14 0 0)
(-2.305802842498715e-14 0 0)
(-1.700592118110737e-15 0 0)
(2.015701834114697e-14 0 0)
(5.416886070339264e-14 0 0)
(1.089754434510616e-13 0 0)
(1.176534649949651e-13 0 0)
(1.883530814346901e-13 0 0)
(5.24307555238478e-14 0 0)
(1.066496336424745e-13 0 0)
(1.346968992375113e-13 0 0)
(1.650824789949384e-13 0 0)
(1.300327752665086e-13 0 0)
(1.225926847497746e-13 0 0)
(1.204544402483122e-13 0 0)
(1.043238238338769e-13 0 0)
(1.180661086706837e-13 0 0)
(1.379480312280152e-13 0 0)
(1.730602567255001e-13 0 0)
(5.058011116001663e-14 0 0)
(1.287323224703118e-13 0 0)
(9.88969342804919e-14 0 0)
(6.941166799734286e-14 0 0)
(9.713382039333275e-14 0 0)
(1.195916398354562e-13 0 0)
(1.107385573382316e-13 0 0)
(9.595841113522445e-14 0 0)
(1.303954015269823e-13 0 0)
(6.849885016924471e-14 0 0)
(1.134144890534921e-13 0 0)
(1.322835589522457e-13 0 0)
(1.086378258982039e-13 0 0)
(7.852734192457755e-14 0 0)
(6.566036185445358e-14 0 0)
(7.962772505982595e-14 0 0)
(5.703235772579203e-14 0 0)
(5.105527660478628e-14 0 0)
(7.141236460688711e-14 0 0)
(8.345405732557055e-14 0 0)
(1.150775681101717e-13 0 0)
(8.735541571419033e-14 0 0)
(7.417582679882205e-14 0 0)
(5.883298467438409e-14 0 0)
(1.501772892538396e-13 0 0)
(4.945471931714778e-14 0 0)
(1.164405426754281e-13 0 0)
(1.102133744782096e-13 0 0)
(1.112637401982284e-13 0 0)
(1.036735974357777e-13 0 0)
(8.279132657366266e-14 0 0)
(8.130330847031572e-14 0 0)
(6.828627615447108e-14 0 0)
(8.768052891323415e-14 0 0)
(2.124489712258558e-14 0 0)
(5.451898261005098e-14 0 0)
(7.502612285784041e-15 0 0)
(1.305454537726726e-14 0 0)
(2.81473004255092e-14 0 0)
(2.019453140257538e-14 0 0)
(2.384580271499062e-14 0 0)
(-4.539080432903838e-15 0 0)
(-8.115325622462521e-15 0 0)
(-6.390975232109738e-14 0 0)
(-5.015496313049228e-14 0 0)
(-8.010289050459544e-14 0 0)
(-5.459400873292043e-14 0 0)
(-1.007850917057747e-14 0 0)
(1.360473694489306e-14 0 0)
(4.717892692379343e-14 0 0)
(-1.047864849248433e-14 0 0)
(2.095729698496472e-14 0 0)
(7.002438133400905e-15 0 0)
(7.302542624833799e-14 0 0)
(3.858843585656667e-14 0 0)
(3.464956440652655e-14 0 0)
(2.939773580647914e-14 0 0)
(3.653772183178602e-14 0 0)
(2.797223947217836e-14 0 0)
(1.611811206063279e-14 0 0)
(3.918864483943667e-14 0 0)
(-1.244183204059589e-14 0 0)
(2.018202704876986e-14 0 0)
(-8.665517190084239e-15 0 0)
(-4.335259465804394e-14 0 0)
(-3.987638429895965e-14 0 0)
(-1.975687901922731e-15 0 0)
(2.249533250355289e-14 0 0)
(-1.570546838491577e-14 0 0)
(2.813479607170323e-14 0 0)
(1.744357356445633e-14 0 0)
(-1.106635312153567e-14 0 0)
(-2.68843606907391e-14 0 0)
(2.500870761928865e-15 0 0)
(-2.902260519218761e-14 0 0)
(-2.257035862640947e-14 0 0)
(-2.509623809596167e-14 0 0)
(-4.471556922329127e-14 0 0)
(-1.955680935828583e-14 0 0)
(-1.910665262113956e-14 0 0)
(-4.240226376850984e-14 0 0)
(-6.626057083731391e-14 0 0)
(-1.154026813092198e-13 0 0)
(-5.075517211335205e-14 0 0)
(-1.806879125494015e-13 0 0)
(-1.003224306147881e-13 0 0)
(-1.978688946838362e-13 0 0)
(-1.139146632058773e-13 0 0)
(-1.592304414120322e-13 0 0)
(-1.135895500068261e-13 0 0)
(-1.416118068942444e-13 0 0)
(-1.506524546986103e-13 0 0)
(-1.705468816097771e-13 0 0)
(-1.227302326416717e-13 0 0)
(-1.537160213819794e-13 0 0)
(-1.802377558122293e-13 0 0)
(-2.155375466168789e-13 0 0)
(-2.479863447529009e-13 0 0)
(-2.735202352321977e-13 0 0)
(-2.986664907433843e-13 0 0)
(-3.025928578396488e-13 0 0)
(-2.81985682761317e-13 0 0)
(-3.25925982048412e-13 0 0)
(-2.602906289015911e-13 0 0)
(-3.532980125377514e-13 0 0)
(-3.553112135010925e-13 0 0)
(-3.745804227217459e-13 0 0)
(-3.656398097478493e-13 0 0)
(-3.608381378849845e-13 0 0)
(-3.543733869653585e-13 0 0)
(-3.346540210075537e-13 0 0)
(-3.556863441153776e-13 0 0)
(-3.259634951098617e-13 0 0)
(-3.090701131130179e-13 0 0)
(-3.065192249358496e-13 0 0)
(-2.895007994009487e-13 0 0)
(-2.795473337684517e-13 0 0)
(-2.046087413872238e-13 0 0)
(-1.746233009517096e-13 0 0)
(-1.621814689111116e-13 0 0)
(-1.387983272870609e-13 0 0)
(-1.023106228705236e-13 0 0)
(-9.643357657999314e-14 0 0)
(-1.214297798454748e-13 0 0)
(-1.217673973983345e-13 0 0)
(-9.719634216236988e-14 0 0)
(-9.170693083994398e-14 0 0)
(-1.015228485805169e-13 0 0)
(-1.010101700743133e-13 0 0)
(-8.645510223989383e-14 0 0)
(-1.087378607286836e-13 0 0)
(-1.176909780563901e-13 0 0)
(-1.112762445520428e-13 0 0)
(-8.939362538515281e-14 0 0)
(-1.028733187919589e-13 0 0)
(-1.331713680727319e-13 0 0)
(-1.200543009264033e-13 0 0)
(-8.779306809752628e-14 0 0)
(-6.861138935352779e-14 0 0)
(-8.925607749325479e-14 0 0)
(-7.707683688265898e-14 0 0)
(-5.111779837382971e-14 0 0)
(-5.145541592669472e-14 0 0)
(-4.991738040810856e-14 0 0)
(-3.377425963985184e-14 0 0)
(-5.026750231478069e-14 0 0)
(-1.183161957468747e-13 0 0)
(-1.685836980616524e-13 0 0)
(-2.020203401486479e-13 0 0)
(-1.79237407507457e-13 0 0)
(-1.661828621302022e-13 0 0)
(-1.61906373127302e-13 0 0)
(-1.562919182667577e-13 0 0)
(-1.277819915807779e-13 0 0)
(-1.152026116482734e-13 0 0)
(-1.271567738902962e-13 0 0)
(-1.14289793820169e-13 0 0)
(-8.166593473079456e-14 0 0)
(-5.450647825624998e-14 0 0)
(-6.876144159924637e-14 0 0)
(-8.823072048085741e-14 0 0)
(-7.65141409612272e-14 0 0)
(-6.836130227733669e-14 0 0)
(-6.806119778590544e-14 0 0)
(-9.783406420667456e-14 0 0)
(-1.094381045420176e-13 0 0)
(-1.04711458801981e-13 0 0)
(-1.291949835612678e-13 0 0)
(-1.587177629058292e-13 0 0)
(-1.433374077199775e-13 0 0)
(-1.421870071694892e-13 0 0)
(-1.721849519588299e-13 0 0)
(-1.585051888910793e-13 0 0)
(-1.138271327292012e-13 0 0)
(-7.934012492220747e-14 0 0)
(-6.025848100868554e-14 0 0)
(-6.417234375109914e-14 0 0)
(2.088227086210142e-15 0 0)
(3.861344456418886e-14 0 0)
(5.795767990771297e-14 0 0)
(7.436339210596774e-14 0 0)
(9.539571521378487e-14 0 0)
(9.929707360240163e-14 0 0)
(1.073498774558156e-13 0 0)
(1.379605355818166e-13 0 0)
(1.610935901296759e-13 0 0)
(1.43675025272834e-13 0 0)
(1.224801455654898e-13 0 0)
(1.157402988620844e-13 0 0)
(9.353256649614496e-14 0 0)
(9.774653373000946e-14 0 0)
(9.950964761716931e-14 0 0)
(1.169532211816126e-13 0 0)
(1.53415916890549e-13 0 0)
(1.547538827481863e-13 0 0)
(1.213047363073781e-13 0 0)
(9.842176883572834e-14 0 0)
(1.236430504697724e-13 0 0)
(1.138396370830232e-13 0 0)
(6.399728279777025e-14 0 0)
(5.525673948482422e-14 0 0)
(5.723242738675057e-14 0 0)
(6.659818839017922e-14 0 0)
(8.315395283414762e-14 0 0)
(5.900804562772421e-14 0 0)
(3.159850207697321e-14 0 0)
(-1.810630431636817e-14 0 0)
(-2.243281073450708e-14 0 0)
(-1.290449313155608e-14 0 0)
(-3.351166820988502e-15 0 0)
(-7.397575713786449e-14 0 0)
(-2.207018447402627e-14 0 0)
(4.589097848138829e-15 0 0)
(2.13324275992531e-14 0 0)
(3.068568424887482e-14 0 0)
(2.442100299023839e-14 0 0)
(-1.524280729396148e-14 0 0)
(-4.867944938095276e-14 0 0)
(-3.554987788082288e-14 0 0)
(-1.087753737901113e-13 0 0)
(-9.155687859423459e-14 0 0)
(-1.378855094589568e-13 0 0)
(-1.756361536102972e-13 0 0)
(-2.010450005514885e-13 0 0)
(-2.084850910682382e-13 0 0)
(-1.788622768931817e-13 0 0)
(-2.062092986748531e-13 0 0)
(-2.026830709005606e-13 0 0)
(-2.096980133877721e-13 0 0)
(-1.987692081581209e-13 0 0)
(-2.086351433139443e-13 0 0)
(-2.263288039545982e-13 0 0)
(-2.320933110608389e-13 0 0)
(-2.128616149016144e-13 0 0)
(-1.249810163274053e-13 0 0)
(-1.083252170529668e-13 0 0)
(-3.279892004269955e-14 0 0)
(-1.880654812970335e-14 0 0)
(-1.961933112733118e-14 0 0)
(-2.051964460162719e-14 0 0)
(-3.35741899788976e-14 0 0)
(5.464402614819635e-15 0 0)
(2.974785771314752e-14 0 0)
(7.520118381121705e-14 0 0)
(1.86314871763741e-14 0 0)
(5.45314869638631e-14 0 0)
(4.954224979382417e-14 0 0)
(7.112476446927466e-14 0 0)
(5.090522435907068e-14 0 0)
(3.992640171420505e-14 0 0)
(7.54887839488271e-14 0 0)
(8.25287351436646e-15 0 0)
(3.915113177800369e-14 0 0)
(2.757210015026859e-14 0 0)
(3.232375459793908e-14 0 0)
(6.51476833482608e-15 0 0)
(-1.995694868019492e-14 0 0)
(-7.277533917212253e-15 0 0)
(-1.404238932822962e-14 0 0)
(2.408338543738014e-14 0 0)
(-1.896910472923156e-14 0 0)
(3.428693814604867e-14 0 0)
(1.364225000632555e-14 0 0)
(-5.376872138138183e-16 0 0)
(5.601950506722254e-15 0 0)
(5.351863430526964e-15 0 0)
(-1.939425275875746e-14 0 0)
(-3.508721678986967e-14 0 0)
(5.446896519481776e-14 0 0)
(-2.557140354072672e-14 0 0)
(5.430640859529191e-14 0 0)
(4.824179699761453e-14 0 0)
(5.350612995147655e-14 0 0)
(5.074266775954206e-14 0 0)
(5.747001010912841e-14 0 0)
(4.915461482571706e-14 0 0)
(3.655022618559512e-14 0 0)
(4.851689278142223e-14 0 0)
(2.897258777694824e-14 0 0)
(3.856342714894607e-14 0 0)
(5.290592096860951e-14 0 0)
(5.633211391245459e-14 0 0)
(9.66336462409368e-14 0 0)
(1.272568087207663e-13 0 0)
(1.500772544233736e-13 0 0)
(1.029983623300484e-13 0 0)
(1.273693479050521e-13 0 0)
(1.162904904297129e-13 0 0)
(1.123516189796672e-13 0 0)
(9.422030595568565e-14 0 0)
(1.00722569936689e-13 0 0)
(1.289198877774522e-13 0 0)
(1.425621377837798e-13 0 0)
(1.9804395563715e-13 0 0)
(1.086753389596383e-13 0 0)
(1.837389748789384e-13 0 0)
(1.919543353318856e-13 0 0)
(1.95505571813825e-13 0 0)
(1.642196785820607e-13 0 0)
(1.916542308404517e-13 0 0)
(1.868525589775416e-13 0 0)
(1.641321481054075e-13 0 0)
(2.049713676477242e-13 0 0)
(2.245406813598174e-13 0 0)
(2.217897235217056e-13 0 0)
(2.426344813223716e-13 0 0)
(2.100106222330005e-13 0 0)
(2.084975954220418e-13 0 0)
(2.108984313534946e-13 0 0)
(2.19601461604989e-13 0 0)
(1.704593511331066e-13 0 0)
(1.93942527587613e-13 0 0)
(1.745482748288584e-13 0 0)
(2.100106222330048e-13 0 0)
(1.773242413745757e-13 0 0)
(1.125266799330112e-13 0 0)
(1.317333673846241e-13 0 0)
(1.767615454531452e-13 0 0)
(2.24328107345047e-13 0 0)
(7.914005526125566e-14 0 0)
(1.366600827856204e-13 0 0)
(9.990978693907473e-14 0 0)
(6.982431167305968e-14 0 0)
(3.454952957605304e-14 0 0)
(2.050714024782419e-15 0 0)
(-1.553040743158003e-14 0 0)
(-2.42584463907174e-15 0 0)
(3.303650276508533e-14 0 0)
(4.447798650091112e-14 0 0)
(2.869749199313804e-14 0 0)
(3.189860656840379e-14 0 0)
(5.309348627575905e-14 0 0)
(4.018899314420199e-14 0 0)
(2.589651673977505e-14 0 0)
(3.463706005271121e-15 0 0)
(-2.678432586026415e-14 0 0)
(-3.283643310413074e-14 0 0)
(-4.065165423516246e-14 0 0)
(-3.179857173792884e-14 0 0)
(-5.215565974003781e-14 0 0)
(-5.215565974003562e-14 0 0)
(-3.616259121749786e-14 0 0)
(-2.575896884787139e-14 0 0)
(-3.364921610175781e-14 0 0)
(-3.426192943843191e-14 0 0)
(1.016603964724229e-14 0 0)
(-3.34116333793731e-14 0 0)
(6.577290103873863e-15 0 0)
(-9.340752295805775e-15 0 0)
(1.35922325910858e-14 0 0)
(6.64606404982709e-14 0 0)
(8.28663526965155e-14 0 0)
(4.775412719904121e-14 0 0)
(9.028143450564894e-15 0 0)
(2.768463933455415e-14 0 0)
(-1.100133048172682e-13 0 0)
(-2.627164735406581e-14 0 0)
(9.090665219615003e-15 0 0)
(6.504764851778367e-14 0 0)
(7.893998560029407e-14 0 0)
(7.763953280409611e-14 0 0)
(6.724841478828345e-14 0 0)
(3.018551009648631e-14 0 0)
(1.451755477300156e-14 0 0)
(3.710041775322237e-14 0 0)
(8.693026768466396e-14 0 0)
(1.181786478549709e-13 0 0)
(1.42187007169475e-13 0 0)
(1.262939734774328e-13 0 0)
(8.056555159555078e-14 0 0)
(9.863434285048385e-14 0 0)
(9.59459067814182e-14 0 0)
(1.43212364181883e-13 0 0)
(1.643947395354224e-13 0 0)
(1.805503646574783e-13 0 0)
(1.968435376714463e-13 0 0)
(2.000446522467113e-13 0 0)
(1.352095777437091e-13 0 0)
(8.516715379749224e-14 0 0)
(1.551415177162842e-13 0 0)
(4.966729333191432e-14 0 0)
(9.962218680145118e-14 0 0)
(6.958672895068285e-14 0 0)
(5.897053256628506e-14 0 0)
(4.457802133138908e-14 0 0)
(2.718446518216922e-14 0 0)
(2.009449657209924e-14 0 0)
(1.019104835486059e-14 0 0)
(1.943176582018859e-14 0 0)
(1.120390101344245e-14 0 0)
(-1.177910128868889e-14 0 0)
(-1.583051192301442e-14 0 0)
(3.051062329551219e-15 0 0)
(3.392431188556985e-14 0 0)
(1.808129560874513e-14 0 0)
(3.825081830370516e-14 0 0)
(-3.211118058317539e-14 0 0)
(-5.964576767203248e-15 0 0)
(-2.218272365831501e-14 0 0)
(-9.115673927232805e-15 0 0)
(-5.158045946479381e-14 0 0)
(-4.999240653096686e-14 0 0)
(-1.995694868019599e-14 0 0)
(-4.725395304665568e-14 0 0)
(3.19111109222144e-14 0 0)
(-1.896910472923575e-14 0 0)
(7.713935865170757e-14 0 0)
(6.907405044448086e-14 0 0)
(3.86759663332314e-14 0 0)
(5.982082862535094e-14 0 0)
(6.087119434535006e-14 0 0)
(6.308446496966458e-14 0 0)
(7.426335727548756e-14 0 0)
(6.370968266014725e-14 0 0)
(4.65787179409335e-14 0 0)
(3.611257380225361e-14 0 0)
(5.808272344581247e-14 0 0)
(7.375067876928781e-14 0 0)
(9.385767969520267e-14 0 0)
(8.990630389135653e-14 0 0)
(1.232804242092993e-13 0 0)
(5.174301606431846e-14 0 0)
(5.256830341575316e-14 0 0)
(3.980135817610287e-14 0 0)
(1.948178323542846e-14 0 0)
(4.86919537347688e-14 0 0)
(8.741793748322781e-14 0 0)
(8.390421406272747e-14 0 0)
(6.065862033059768e-14 0 0)
(8.18660043917589e-14 0 0)
(-5.093023306668713e-14 0 0)
(8.477951882940085e-15 0 0)
(2.038209670973867e-15 0 0)
(2.207018447402474e-14 0 0)
(3.755057449036743e-14 0 0)
(7.203758229737323e-14 0 0)
(5.57068962219764e-14 0 0)
(2.44585160516686e-14 0 0)
(7.525120122645079e-14 0 0)
(-7.087467739307249e-14 0 0)
(-1.134144890534688e-14 0 0)
(2.213270624308909e-15 0 0)
(1.655576444397202e-14 0 0)
(-2.650923007643372e-15 0 0)
(6.677324934353384e-15 0 0)
(4.092675001897098e-14 0 0)
(-5.757004493961143e-14 0 0)
(3.92386622546704e-14 0 0)
(-4.075168906563703e-14 0 0)
(2.927269226837794e-14 0 0)
(6.339707381490633e-15 0 0)
(-3.613758250988178e-15 0 0)
(-7.440090516739914e-15 0 0)
(-2.883503988504529e-14 0 0)
(6.952420718163398e-14 0 0)
(-1.645572961349477e-14 0 0)
(6.64231274368271e-14 0 0)
(4.307749887423195e-14 0 0)
(7.592643633217154e-14 0 0)
(6.852385887687373e-14 0 0)
(5.599449635959338e-14 0 0)
(3.388679882414186e-14 0 0)
(1.380480660584646e-14 0 0)
(6.339707381489357e-15 0 0)
(2.560891660215481e-14 0 0)
(8.301640494224169e-14 0 0)
(-3.202365010650526e-14 0 0)
(3.247380684364834e-14 0 0)
(1.618063382968017e-14 0 0)
(-5.514420030054954e-15 0 0)
(2.47586205430889e-15 0 0)
(1.05036572001024e-14 0 0)
(-1.219174496440662e-14 0 0)
(-4.307749887423135e-14 0 0)
(-1.397986755918501e-14 0 0)
(-1.596805981491894e-13 0 0)
(-6.992434650354441e-14 0 0)
(-5.209313797098614e-14 0 0)
(-4.724144869283672e-14 0 0)
(-6.501013545635294e-14 0 0)
(-1.088253912053484e-13 0 0)
(-6.115879448298079e-14 0 0)
(-1.086503302520199e-13 0 0)
(-6.018345488582795e-14 0 0)
(-3.441198168414616e-14 0 0)
(-2.02320444640035e-14 0 0)
(-4.290243792089899e-14 0 0)
(-6.415983939729519e-14 0 0)
(-4.216468104612684e-14 0 0)
(-3.913862742419202e-14 0 0)
(4.001393219086927e-14 0 0)
(-4.311501193565953e-14 0 0)
(1.914416568256919e-14 0 0)
(-2.046962718639045e-14 0 0)
(-4.052661069705384e-14 0 0)
(-2.780968287265116e-14 0 0)
(-2.675931715262007e-15 0 0)
(-5.214315538621574e-15 0 0)
(-3.284893745793862e-14 0 0)
(2.040710541734279e-14 0 0)
(-1.074749209939113e-13 0 0)
(-3.228624153650032e-14 0 0)
(-1.046614413867344e-14 0 0)
(3.093577132506508e-14 0 0)
(6.015844617821035e-14 0 0)
(6.81487282625735e-14 0 0)
(1.008226047671787e-13 0 0)
(7.022445099497399e-14 0 0)
(7.52762099340721e-14 0 0)
(4.876697985762141e-14 0 0)
(6.089620305296548e-14 0 0)
(2.936022274504937e-14 0 0)
(1.94192614663787e-14 0 0)
(2.195764528973685e-14 0 0)
(-2.499620326548521e-14 0 0)
(-1.820633914684669e-14 0 0)
(-1.702967945335769e-13 0 0)
(-1.161779512454077e-13 0 0)
(-1.435749904423609e-13 0 0)
(-1.288573660084061e-13 0 0)
(-1.065495988120016e-13 0 0)
(-1.254311730645626e-13 0 0)
(-1.108510965225134e-13 0 0)
(-1.301953318660451e-13 0 0)
(-9.608345467332328e-14 0 0)
(-2.416341330176145e-13 0 0)
(-1.908914652580327e-13 0 0)
(-1.745982922440965e-13 0 0)
(-1.411991632185277e-13 0 0)
(-1.301828275122291e-13 0 0)
(-1.192665266364076e-13 0 0)
(-9.05190172280319e-14 0 0)
(-1.190789613292634e-13 0 0)
(-7.525120122644116e-14 0 0)
(-3.941372320800564e-14 0 0)
(1.370477177537155e-14 0 0)
(8.156589990032426e-14 0 0)
(6.397227409015e-14 0 0)
(2.214521059688273e-14 0 0)
(3.776314850511571e-15 0 0)
(3.122337146268543e-14 0 0)
(-9.923455183335385e-14 0 0)
(-4.909209305666155e-14 0 0)
(-1.038736670967314e-13 0 0)
(-8.349157038700842e-14 0 0)
(-7.690177592932237e-14 0 0)
(-1.069122250724711e-13 0 0)
(-7.14998950835566e-14 0 0)
(-7.886495947743962e-14 0 0)
(-4.22397071689811e-14 0 0)
(-1.19979274803556e-13 0 0)
(-1.551790307777046e-14 0 0)
(1.945677452781144e-14 0 0)
(6.80111803706618e-14 0 0)
(9.745893359238495e-14 0 0)
(1.383606749037389e-13 0 0)
(1.819133392227407e-13 0 0)
(6.155893380488241e-14 0 0)
(3.447450345319738e-14 0 0)
(-5.251828600031668e-16 0 0)
(-2.993542302029306e-14 0 0)
(-7.515116639596413e-14 0 0)
(-7.95026815217298e-14 0 0)
(-8.254123949747712e-14 0 0)
(-1.412616849875699e-13 0 0)
(-5.696983595674475e-14 0 0)
(-1.992318692490885e-13 0 0)
(-1.310831409865218e-13 0 0)
(-1.042112846495915e-13 0 0)
(-7.638909742312133e-14 0 0)
(-7.220013889689664e-14 0 0)
(-4.607854378854557e-14 0 0)
(-5.789515813864681e-15 0 0)
(2.793472641075213e-14 0 0)
(9.889693428048578e-14 0 0)
(1.064120509201193e-14 0 0)
(4.539080432901772e-14 0 0)
(-1.905663520589968e-14 0 0)
(-2.848491797837176e-14 0 0)
(-4.726645740046064e-14 0 0)
(-6.020846359344583e-14 0 0)
(1.870651329923308e-14 0 0)
(-7.99153251974415e-14 0 0)
(-9.203204403897246e-15 0 0)
(-1.800626948588806e-14 0 0)
(6.06211072691677e-14 0 0)
(-4.556586528234568e-14 0 0)
(3.166102384602675e-14 0 0)
(4.522824772949361e-14 0 0)
(2.849742233218573e-14 0 0)
(2.014451398733949e-14 0 0)
(-8.377917052462593e-15 0 0)
(8.202856099128368e-15 0 0)
(-1.49552071563364e-13 0 0)
(-1.0328596246767e-13 0 0)
(-1.163405078449518e-13 0 0)
(-1.058868680600874e-13 0 0)
(-8.264127432795422e-14 0 0)
(-6.152142074346109e-14 0 0)
(-4.917962353333686e-14 0 0)
(-6.827377180066984e-14 0 0)
(-7.59264363321768e-14 0 0)
(-2.311429801713079e-13 0 0)
(-1.81550712962242e-13 0 0)
(-2.154750248478342e-13 0 0)
(-2.648797267497337e-13 0 0)
(-2.880252856514e-13 0 0)
(-2.663677448530658e-13 0 0)
(-2.523003468172399e-13 0 0)
(-2.314931020779866e-13 0 0)
(-1.566420401734429e-13 0 0)
(-2.607157769311048e-13 0 0)
(-1.931297445899903e-13 0 0)
(-1.707844643321519e-13 0 0)
(-1.225051542731069e-13 0 0)
(-1.032359450524356e-13 0 0)
(-1.497521412243208e-13 0 0)
(-9.276980091376909e-14 0 0)
(-1.453631130371408e-13 0 0)
(-8.417930984653658e-14 0 0)
(-1.367601176160986e-13 0 0)
(-1.477514446147828e-13 0 0)
(-1.159403685230412e-13 0 0)
(-9.413277547901685e-14 0 0)
(-7.49010793197753e-14 0 0)
(-5.708237514103441e-14 0 0)
(-2.888505730030308e-15 0 0)
(-1.675708454030652e-13 0 0)
(-1.035110408362439e-13 0 0)
(-1.587302672596561e-13 0 0)
(-1.841141054932337e-13 0 0)
(-1.744982574136107e-13 0 0)
(-2.314931020779563e-13 0 0)
(-2.895383124623704e-13 0 0)
(-3.175105519345431e-13 0 0)
(-2.161877730149774e-13 0 0)
(-3.322906981375237e-13 0 0)
(-3.027929275005787e-13 0 0)
(-3.193862050059885e-13 0 0)
(-3.469833138638861e-13 0 0)
(-3.745804227217342e-13 0 0)
(-3.942497712643289e-13 0 0)
(-3.563365705134952e-13 0 0)
(-4.854690323056969e-13 0 0)
(-4.692258767069669e-13 0 0)
(-4.787792030175533e-13 0 0)
(-5.328105158290179e-13 0 0)
)
;

boundaryField
{
    inlet
    {
        type            calculated;
        value           uniform (-0.0002077042240832808 0 0);
    }
    outlet
    {
        type            calculated;
        value           uniform (-5.328105158290179e-13 0 0);
    }
    frontAndBack
    {
        type            empty;
    }
}


// ************************************************************************* //
