/*--------------------------------*- C++ -*----------------------------------*\
| =========                 |                                                 |
| \\      /  F ield         | OpenFOAM: The Open Source CFD Toolbox           |
|  \\    /   O peration     | Version:  v2012                                 |
|   \\  /    A nd           | Website:  www.openfoam.com                      |
|    \\/     M anipulation  |                                                 |
\*---------------------------------------------------------------------------*/
FoamFile
{
    version     2.0;
    format      ascii;
    class       volScalarField;
    location    "0.02";
    object      p;
}
// * * * * * * * * * * * * * * * * * * * * * * * * * * * * * * * * * * * * * //

dimensions      [1 -1 -2 0 0 0 0];


internalField   nonuniform List<scalar> 
1000
(
101536.0576496685
101238.3280696217
99535.79419213481
97285.26647672693
95822.36033414108
96086.63738510678
99464.24752766313
103052.6065318906
107568.1744470719
109811.1466446824
111275.8086007691
111013.5827531394
109424.9304885692
107051.6703947434
102791.697788953
97313.77487467795
94397.57682077886
93761.96840305194
93656.76693044293
93958.49416755293
94944.07638309075
96003.74098697898
97295.67327793827
97134.26731494366
100021.2571269232
103694.9399494807
104739.9171450512
104586.5959379529
103622.9059534557
102577.0729128587
101423.4062231455
101047.1409403649
99886.08262063739
100094.6152419038
101757.4565962362
104479.9294273394
106167.8024973605
107895.5468347194
108748.5947490658
110111.1248222238
111412.5287778723
112310.4095124803
111176.3309187018
108631.3834092226
103579.1094634791
98637.96985925861
97447.32725557989
97517.1190357044
97395.37315618288
96118.05342396567
93626.93656100883
90798.18773513014
89269.76797781212
90017.48431227003
93482.63099232531
98424.49948865251
102506.8293459385
105704.9800796313
107408.0819738098
110176.2695014812
112391.0530459505
113796.5238407821
113347.5423256735
110080.3904120606
104946.1681753795
101330.5911994102
98440.25827849438
96207.12499572526
94015.60701804573
92596.5981918879
92216.86324032204
94744.99854444666
99524.59922979935
103211.0451118608
105994.2063851541
106428.7613728733
105793.5029365858
105078.2896008144
102229.2622470716
100679.4254741094
98238.56814212534
97197.27256740765
97753.11783149987
100429.9174963027
101680.5701884484
103300.3769180235
105188.2102209904
107177.478747862
109062.2853847462
110042.1854801244
109804.5509766465
107896.6242135784
103734.4286862696
97773.925238918
93036.74398876347
90463.02999531337
90478.5273723069
92733.04978484398
96636.29770449128
102545.4493492597
104763.7065506161
103519.4180200114
102359.3197813527
100441.4001524174
99017.14948445724
97873.4631037824
97169.36152053924
97485.0462909787
96769.3599661264
98606.84686845908
101487.504604946
102858.1870436809
102178.9399434228
101548.7564872757
100221.910670785
98946.86232884407
98472.8686938321
100855.6146914663
105454.7682685182
113410.8403074608
118778.1491213602
117799.1056769687
111052.96442165
102244.3185672469
96648.48180896962
92685.28021003331
90748.1983279428
89739.77156011046
89936.41401252941
91849.13578360395
97095.00090269874
102402.4083638101
105776.3993491933
107157.0197222125
107023.2097247394
107041.8825748801
107268.8282189088
107327.610010857
106064.697808865
103968.962473061
100241.7290343541
98032.7689154027
96518.34773184134
95683.16498701122
95692.04504144649
96814.50437792922
97949.80174779436
102366.6322795277
105846.1530683912
104896.8382610504
102246.3204063538
102294.603123642
102875.0237065242
105115.0167804899
108690.3682451623
112371.8275956593
112758.925723661
110340.1356295189
105722.3663275223
97641.47976500817
92426.81608912928
89098.75541461677
88333.65715716113
90125.68426999364
94039.37514420516
100622.9784943278
107045.4921611966
109840.4438835308
111595.0156624133
111317.4113809034
108673.6360004895
105106.50997763
98600.59736865338
93870.13112171933
90543.33551171825
88979.95154122521
88925.5216902238
90561.85482358116
94056.42340303262
100107.777067459
107290.0258525538
110805.1336180413
111628.5540004154
110863.4660415516
110678.6015766139
110588.7484201865
109994.7640681549
107148.0487613419
101576.8126669429
93895.58693318824
87902.70264030075
86384.77320792603
89481.3265990231
96074.23629819967
101064.1458146813
103732.4923095086
103881.1288884516
103118.7464382434
102041.0288490752
101007.1010812975
100094.9918981311
99593.65263211692
97708.85372265204
97216.74097331226
97594.04553298355
98523.63853400115
99174.8491238204
101545.1177813571
102015.7946159803
102920.389837763
103218.7527586537
102652.4595100768
101364.5518561981
99950.15396565107
99740.41476630847
98102.17637012253
99728.88587637714
100522.6062013185
99078.08527727543
97378.69725536319
98277.79011718887
98756.28274921914
99893.40885770979
100452.6891515789
100090.3239175492
99068.98903855246
97785.15267604642
96834.07168636078
98137.41542882386
101666.4894053252
109275.7202440436
113524.7025445619
111667.7738519019
106253.1573853475
103139.3504044513
101802.0808609692
101790.546690373
101238.2456122662
98903.15641471269
96574.58711991587
94851.85639564742
94106.6711339847
94012.68766715784
93980.12690983094
93926.78356510581
93963.13221732108
95074.34481762603
97819.87467753107
102553.0900111618
106167.12911344
105006.2622340642
99655.17861655813
96343.30250091996
93814.27080357537
93175.94416346845
93312.45248875661
94019.68266765063
96493.75929508648
100565.1963771377
108156.5051445693
114931.9152480612
116752.9088542526
113473.6951671869
106234.3483782447
97678.02789210135
94978.69659647725
94613.83477632425
94972.09853793874
95361.21717518469
94660.08515266684
93372.11848199113
92687.12514289556
93350.68633660975
95427.38198033065
101685.4838454357
107841.6817249967
110229.8220174699
111230.5749252542
110883.1165022405
109376.1461287515
106166.048303453
100956.9446304648
93571.50588498339
87917.30445262446
85673.25815876729
88406.84463852442
94343.33874134507
101909.6616569506
106760.7931741519
108311.1201802542
107370.6388337799
105553.9446205377
103422.6050320156
100847.014857191
97007.97944785404
94817.72239049316
93954.85511765628
95327.89160793112
97449.39367802115
100324.1719380017
100657.9253348327
100294.9527711667
99008.25666176254
97947.41641006267
98012.46447517702
100711.8039968209
105231.2292373357
110954.0617102299
111130.1686307596
104544.4495961747
97344.202215536
94090.64833406291
92539.0338910703
92082.42432520812
91805.30141699217
91838.84800066602
92444.68898836798
93978.98789515137
99203.19176908249
105117.6394258543
107937.6861674109
108926.9689693451
108117.5832021567
107833.9357446367
107822.0930548908
107666.9029696472
106206.7771992742
101601.3783849988
95630.31738550536
90181.12152298502
88763.18108259706
91517.24862449702
97963.46832911721
101610.2095571572
101024.7944993767
100483.7802918476
99486.46177898692
99549.18504022119
100062.117824734
100675.120142809
101101.6603302156
100753.1895709385
99606.52697058154
95876.39226174609
92872.28240079364
91520.0159681684
93770.97825481099
97010.09640249012
100983.5019765412
102577.3463633507
103636.1071037421
104326.89535846
105184.1721779222
105881.0172291618
105713.260884786
102704.0446845104
97025.47251520096
89023.40372594692
84472.88432340315
85480.38296386731
89931.0756275849
95315.18245114524
99150.21718730683
100520.7881759119
100628.8851268895
100309.7415896861
100242.928616977
100568.9244559207
100705.2958816087
99951.91705839103
98880.05234749516
97733.9120855517
96926.86689403058
96340.60049718745
97186.7195080758
98380.22724751348
97651.48765972099
95959.0722150139
97020.22659676734
96645.50047337404
97154.54281195092
97615.52898635341
97740.42770897064
97763.51200920864
98151.92311261084
99278.1954187126
100985.0514875347
101796.603482141
99995.24848836106
96073.64061188963
91227.0877624112
90718.60354232484
92987.49492109397
96001.56089573803
98680.16833960181
99754.98659734936
99607.84887056034
98707.73161867821
98227.82486835035
100042.214114761
103704.7380339261
110053.2458833632
113201.4813412523
110631.7116290995
102967.2788407736
97322.94554290634
95004.25933196556
94796.39817978139
95499.31704134616
95804.65221840219
94953.13772807401
93570.56988015954
92495.74225086794
92373.31389076053
93814.49771829063
99249.75046505334
104579.4347580808
106941.2144006123
108195.823208979
108332.7361856249
108197.1171554381
107080.886560137
103863.6480011329
97427.34922130569
90610.6511082236
86721.83767894977
85366.23000600451
87344.92769906444
91147.88686226626
97769.00377274719
102486.0414810848
103347.3415727596
103343.8205691488
102125.5587574335
101579.2079950375
101727.0673749398
101867.9840439704
101455.6705682647
99484.70654213234
95252.81446240809
90480.93222195802
87765.63578912825
89205.25071915954
92901.23563441826
97623.42449652281
100302.4845121776
102073.1334828949
102617.033654275
103103.3692828377
101775.5620275322
99553.49966843468
93965.86071880822
88283.80827466583
86551.14395478147
86050.77095359744
87829.50937943936
92004.33347134409
98256.99190167688
101921.769461001
103618.8999008199
103214.6452730222
102346.0453355545
101210.240299052
100223.7121885176
99348.41572242339
98610.25575665002
95828.49472806472
93931.42449752419
92355.04876700051
92640.40926256971
93994.52718026323
97081.10576703282
97729.71516497422
98333.29854695729
97945.89063907244
97076.1085995856
96907.77490603866
98028.3724236914
99041.63455771048
103029.0383998986
106343.3908752888
107175.4175905433
104884.0086585577
101447.3970952532
97542.15397300404
93275.84339785448
89775.8497356666
88610.2048603672
89594.30320566153
91190.7386229275
92384.44680324251
93290.55168839313
95330.07573370865
99581.09621016277
105364.223114128
110751.0172319774
111692.4918642272
105740.3943659877
97290.18874389092
93038.89576993405
90232.91159223103
89420.10068667146
89448.54720029888
90141.24327650911
91528.6257917247
94546.29499946295
100303.2911083302
103801.1547043932
105536.8953088281
105987.0956710987
105762.5676821221
104833.9233212709
101638.9016949974
96472.27321476729
89883.13804665202
85284.29009931306
83496.31056137537
86216.81610621889
91749.98312791866
98712.05219597131
103414.6641289244
105277.9325985276
105252.3836303326
104430.3424647378
103396.7766892274
102526.1748652875
101431.2855813512
100260.1570766233
98397.05414993977
97885.60624061093
97480.95298487126
95737.94264104789
92396.92905101192
89673.27174368802
89253.47255231783
90836.02787570261
94219.05809830845
98397.78004668241
101759.4805787689
103873.8401259981
103902.0022025202
103020.552514396
99671.7987667108
95994.6303315945
91396.42793580031
90461.55129441411
91830.98463711196
94785.83461113335
95788.29270080624
96039.43781373627
95172.38933396641
94191.84562225676
93947.60884494151
94846.34062891309
97042.04439637753
100258.7561795256
102548.0714647642
103551.4065833413
102972.8621067703
101397.7964380729
98179.48159991878
95963.8425120771
94072.02776125535
94584.60496055687
96402.9388147923
99604.22028559163
100720.3245352116
101749.4262153586
102220.8513509578
101979.8378615556
101326.4721424518
100482.285233677
99855.65866096935
98695.0895234272
99087.11701434181
99978.07025754044
98841.3815585343
96251.83483475551
94966.83287337171
94487.17514453703
94409.08364298157
94496.04460630148
94407.45274144885
94081.72219268291
93589.79460472295
93158.7224522403
93492.04662066264
95611.55544501229
99337.49224118631
105039.3038729519
107531.4040305146
104972.1360990254
98444.06642126956
93720.46866716124
91631.861039465
91140.2506781663
91488.36168377439
92212.15079938182
93114.50274209294
93883.11031705326
95734.83401446238
100169.0234857433
103256.5016391977
104117.1738533251
104308.907303275
103318.3026944103
102303.5267266596
101509.7741110438
100773.9099397733
98845.05596768414
95640.64710814282
92116.57551290227
90226.21587956489
92103.87797025741
94954.79163502983
97786.7685984714
98487.1432478452
97406.44064066782
94612.20182777281
92130.57000931787
90685.93744934056
90748.84036563958
92908.88145572317
97263.66908417098
102114.4645550522
105362.3567907829
105550.4153750068
100867.5920000827
94067.09720874882
88893.85747968552
86653.79454367238
87527.8481798978
90692.26478464599
95108.55054357172
99233.06660615755
102309.9283306767
102651.6569238878
100334.3243973965
96989.83831946958
91953.11871105692
90477.03809846347
92759.5160977503
95963.6053556589
99083.59211517715
100968.3919175337
102079.1343551686
101681.9413184732
100194.8526737841
98692.81257946411
96838.14713110635
95807.27339358779
96416.51394296421
99668.46874521159
102541.5648680513
105611.9581819628
105894.3123334882
102964.2887656924
97903.33202574373
92466.65749031403
88343.45608073671
86693.13539603174
87772.35581364861
91313.67127989529
96199.23397155209
101676.9531269768
103205.5372730874
101504.9986457492
99480.56605353653
97428.72391774258
96385.36851221617
95864.67553468009
95161.7642981981
93529.51802718213
91434.32477889161
89951.0565437991
89900.29991858359
91416.40427426358
91873.06450747501
92641.86177851632
94059.99767202359
96719.43838111118
100354.0506992753
104146.8091724991
106449.1044866236
106449.7988575625
101830.5789728097
94218.1679403669
88512.81563731626
86433.5152069053
88379.33074957728
93238.40920129488
99151.97769798066
103919.7170536915
106181.896128555
105999.6895633824
103276.9447413296
99375.25034422864
95386.37398756051
92673.51602613588
91585.41282399511
93292.66398236512
97388.29196575204
103719.6388960423
107064.9319508495
105980.6643016409
100946.6629447946
96762.11411462813
93846.88995503199
92619.25903167695
92353.25241682063
92093.59399432476
91833.38872162772
90624.52450345593
90975.74656222713
93618.44946594718
97756.95758337456
100921.2977627574
102894.9541425356
103207.5259280494
102181.0903248618
98831.76560212711
94036.18845703846
88607.71003166925
85340.99271932936
84408.12303661375
87021.24315655691
91817.64484146677
97183.21790006265
101031.6707909237
102325.7400154546
101352.9170509725
97780.49444807967
92913.80202787479
88919.31151979047
89173.66130205948
91679.45809940532
94790.58327911494
96831.24485597637
97911.248200421
97420.10924868615
96107.87541418403
95034.42295559437
93807.36193643477
94182.43758243059
97162.76145070103
100519.311093493
103678.4847996131
104156.6137984464
102716.4375477034
98475.92580157622
92428.61730084593
86596.29283121141
83665.22223501613
84417.8681028197
88570.73598589549
94878.29143421617
100567.9863033628
103614.1749182162
104036.7594935347
102757.2127570885
100132.2707377082
96585.41046060855
92125.34742488683
88111.75575151781
84883.52543594113
84853.32245341482
87933.91566585316
91037.91356250596
94023.6517460644
94793.56740740481
94845.16873650064
94164.6774308927
93500.33932202954
93866.05509070378
95607.24956422721
97902.68876192541
99847.94291137125
97673.88182868944
92442.84092394343
90292.79578420686
88175.91809237342
87735.59335830141
88331.71546728443
90267.16805910566
93250.3230225827
97251.41974751839
100851.0509953131
103151.9018967861
103717.5125179257
102891.9552713943
99684.70848316383
94218.14056377875
87379.10250077922
82775.56378694196
82662.49958616159
86195.2184417516
91408.93652615255
96448.99541413605
98912.81414710253
99491.2879226393
98528.49510174914
96771.64724479771
95259.94963381173
94453.03130620639
93949.95698220591
94857.53501866544
95894.53843480762
94713.91237407285
92161.86157319235
92274.02215051076
91642.3759616491
92344.18043735427
93072.46894212737
93128.06346161744
92796.45887927614
92554.2040865208
93901.13887524225
96198.90845746016
100721.099832052
102719.617532331
99785.80493082674
93109.60680522195
89451.97225967048
87102.83320193375
86840.13788077002
87767.94967571062
89998.67958752041
93140.91904795342
96890.62149444284
100507.4997692039
103258.4488259568
103924.4513730599
100645.410567456
95372.16526976801
88529.25975864221
85000.92511089111
84794.25084821257
87299.11525275886
91371.21769445935
95493.84665139104
98199.20405144616
99137.87273233139
99017.12073857452
98794.3430464432
97974.02732457613
96822.74169371529
94167.1244625774
90829.29091745468
89344.11040406016
90241.54699885788
90051.0722100057
90684.85702132863
92071.80652915536
94109.92051059358
97097.82702111361
99662.65930392445
101654.8206678328
101786.5591075989
98323.95249192447
92241.38452205023
89568.93840125429
89685.73032684188
91305.60572343222
93275.6493001106
95970.96384906507
97595.58921842885
97575.54264275705
98217.68552455923
96601.63457402794
93263.19171792072
91493.12051815689
90556.84772940254
90192.9333260384
91309.19465054221
93820.05322299333
96749.44102176274
98999.62867695058
100692.9756055617
99032.19959139125
94350.86709736931
91866.46856027177
89523.12718244808
88907.34956765668
89679.77728456298
92032.79428650398
95064.06800526092
98690.87558980651
100695.1336937948
98956.9375451707
94392.48376616891
91971.31802957201
89891.12212768388
89651.63986821381
90308.0095374511
92071.36001108668
94454.05649743858
97937.68462104599
99827.03248679706
98255.3550011027
94775.08022941911
93755.48915708477
92298.30957780432
92696.64751178454
93471.97390104034
93857.5646447585
92547.88748539308
90865.81730211733
89401.43005174678
89390.01573553745
90349.06228966778
93164.16460849397
94474.04158194001
96267.97178368692
97494.92000177241
98092.60988959792
96680.30709063332
94465.9427255686
90086.03145267787
87790.96660248854
87862.26406245906
88166.02024528169
89022.8285181036
90650.81376677213
92984.35515328431
95884.82618290989
98534.96864082204
100406.266636325
100581.0559981922
98964.2760062154
96338.2553961278
91385.22783907606
86670.11221550328
85440.5191378903
85587.69204560402
86405.22812031837
88020.99762052053
91015.66346970826
96113.72701922915
100489.6268961951
103741.2952723835
104888.3108001428
102379.3777660553
97157.38965841256
91665.9308923221
89066.81410251746
87922.80956243067
88859.79326190037
91763.35345461166
96031.49708340337
98998.3587881182
100619.1240410269
98647.66277800671
93733.7992149887
89096.39561834173
87219.01833857769
87261.62505570253
89417.96707657332
92963.54476001463
96267.64368621029
97559.57008159647
96563.71578419948
93674.86497506607
88771.04075951301
84471.48411792824
83295.11172928261
84510.73531526684
87175.81417192382
90282.9077544289
92737.79285455364
94490.34043652225
95938.64932397503
96673.41591612391
96852.34442924976
96097.3582521624
94454.18871407377
91986.2602164735
88895.2106395451
88022.39712496255
88646.52510386538
90597.63826605571
91833.73975171112
93209.52283666267
95092.61679022391
96652.81672516804
97554.08269195784
96833.53224805709
96106.67010828748
93292.87171321323
90086.71287631486
89282.17562481976
90352.89269532301
91881.87694717075
93838.72247327029
96425.46332190812
98208.83364266359
98850.3183608876
98189.94800541639
97145.47896344756
93987.41681267388
91324.45052472755
)
;

boundaryField
{
    inlet
    {
        type            uniformFixedValue;
        uniformValue    sine;
        uniformValueCoeffs
        {
            frequency       constant 3000;
            scale           constant 50;
            level           constant 101325;
        }
        value           uniform 101325;
    }
    outlet
    {
        type            waveTransmissive;
        gamma           1.4;
        fieldInf        101325;
        lInf            2.25;
        value           uniform 91192.14166284552;
    }
    frontAndBack
    {
        type            empty;
    }
}


// ************************************************************************* //
