/*--------------------------------*- C++ -*----------------------------------*\
| =========                 |                                                 |
| \\      /  F ield         | OpenFOAM: The Open Source CFD Toolbox           |
|  \\    /   O peration     | Version:  v2012                                 |
|   \\  /    A nd           | Website:  www.openfoam.com                      |
|    \\/     M anipulation  |                                                 |
\*---------------------------------------------------------------------------*/
FoamFile
{
    version     2.0;
    format      ascii;
    class       volScalarField;
    location    "0.02";
    object      rho;
}
// * * * * * * * * * * * * * * * * * * * * * * * * * * * * * * * * * * * * * //

dimensions      [1 -3 0 0 0 0 0];


internalField   nonuniform List<scalar> 
1000
(
1.178039202317397
1.17555439649079
1.161479093527466
1.142812548987446
1.130676634784454
1.132998029132388
1.16142886785924
1.191388482519471
1.228516713146985
1.246793941201749
1.258703701969411
1.256628732542754
1.243844972687899
1.224561565446255
1.189539828936889
1.143861771682004
1.119314355139887
1.113942112953232
1.113058350917365
1.115620078840287
1.123952089120417
1.132896563317145
1.143764238306509
1.142393762693193
1.166462303755182
1.196845047618488
1.205495561922947
1.204243783240676
1.196280863443365
1.187652300562524
1.17811244184783
1.174989352222415
1.165284460744487
1.166939372437622
1.180685675416322
1.203204241327053
1.217054155992752
1.231096283984759
1.238019359850185
1.249059807579198
1.259551847716521
1.266753765506725
1.257559165878218
1.236891702822603
1.195493411590246
1.154494614031029
1.144543681082819
1.145121472668722
1.144074115350299
1.133324875799709
1.112295878261011
1.088229967273854
1.075135081451846
1.081555950921712
1.111126065382743
1.152783300628961
1.186719804667723
1.212970926974367
1.226851460747163
1.249326889727235
1.267213120752575
1.278502180257527
1.274875053151905
1.248505893892434
1.206662394807144
1.17686376341459
1.15284204665416
1.134143349041563
1.115644919323158
1.103577179112513
1.100322176434852
1.121752875873657
1.161943351502253
1.192581702607484
1.215419259670622
1.218917837704188
1.213695474733108
1.207932630918583
1.184538388947447
1.171624451397811
1.15122272676998
1.142555657107081
1.147285150119979
1.169612094169436
1.179926385692425
1.193270110090291
1.208773141820805
1.22505169053173
1.240414419769986
1.248388530304152
1.246483448964637
1.231027763963613
1.196984789836286
1.147495495483646
1.107536869059355
1.085586567575259
1.085722195040044
1.104945271379407
1.137850535185356
1.187168751953964
1.20548231378249
1.195265153241375
1.185700646617784
1.169820676435447
1.157973582432992
1.148424744249118
1.142527200619415
1.145190719272659
1.139182718688357
1.154540306464257
1.178487102556145
1.189920694003895
1.184378018960543
1.179145697509496
1.168100380097946
1.157416335094587
1.153415139477998
1.173242879264712
1.211180099848283
1.275743912430277
1.318581470610264
1.310766311815183
1.256715567224074
1.184720848597883
1.138104757235279
1.104620868176068
1.088101690720692
1.079454051363573
1.081136270118064
1.097478152771163
1.141871709917176
1.18612684735051
1.213881969109193
1.225152572633002
1.224087539651097
1.224274731907285
1.226163332123014
1.226697418274074
1.216381400897474
1.199133412752958
1.168236038228201
1.149834199179432
1.13711843837328
1.130064399364028
1.130111206173468
1.139526910634072
1.149031943790073
1.185764254060625
1.214426694319723
1.206685026663729
1.184875022104201
1.185297910932782
1.190112114407262
1.208568284941894
1.237744310974808
1.267451048356113
1.270506357949217
1.251021155202221
1.213476434477672
1.146588274836703
1.102601138568384
1.074118338687784
1.067524199672241
1.082906196557744
1.116235137132949
1.171449647581288
1.224456605192182
1.247246289765242
1.261420732427494
1.259156510563468
1.237748316940875
1.208584936848471
1.15462947603967
1.114835312654257
1.086505958380605
1.073109904537849
1.072648902788496
1.086690090615281
1.11644932630598
1.167200336685558
1.226458560577791
1.255050562088829
1.261733617511011
1.255555658457914
1.254065747809465
1.253323249003382
1.248487267435418
1.225329813395172
1.179521489299877
1.115106347474865
1.063798791852909
1.050662581543836
1.077372640198431
1.133495044858178
1.175262078700312
1.19735112097824
1.19857751791088
1.192299601103867
1.183385541699521
1.174791281362435
1.167190230023505
1.163047251075694
1.147364997836819
1.143194822662359
1.146315623486671
1.154144200099502
1.159682557339475
1.179405799810503
1.183278281976231
1.190758430964961
1.193225745170094
1.188552873587902
1.177897572819135
1.166156604469637
1.164447055524545
1.150752268135193
1.164276276499123
1.170869876686892
1.158869507975102
1.144711503936325
1.152232413237684
1.156231998691579
1.165721230285006
1.170380014361678
1.167358772442866
1.158833339977458
1.148107484497176
1.140156979934323
1.151137592963504
1.180571875536444
1.24306483447302
1.277381269686121
1.262342651644698
1.21824524652665
1.192694558030281
1.181662707599601
1.181591641983439
1.177001868719501
1.157527787042311
1.13801074039665
1.12348360894094
1.117174912024783
1.116359815305854
1.116057546631502
1.115590105754221
1.115891267185446
1.125315163892391
1.148479167944893
1.187908283655018
1.217677657525236
1.208139401076612
1.163804412990697
1.136123501610988
1.1147450930837
1.109307315249313
1.110451620679629
1.11643189877277
1.137310396036295
1.171338400201227
1.233784218527979
1.288544649659703
1.303153454865136
1.276871780067973
1.218017370668074
1.147141249245272
1.12450445587341
1.121438307312685
1.124497690932925
1.127804685605357
1.121886181380523
1.110971864576465
1.105116831584157
1.110718923937611
1.128238316898242
1.180506302489747
1.231158576625596
1.250612759632367
1.258718450286717
1.255954355271453
1.243806704320363
1.217637593529737
1.17460988022116
1.112515898611945
1.064078404221735
1.044634325536901
1.068309645067365
1.119037356775517
1.182431182722786
1.222338255432762
1.234964061537741
1.227262618968173
1.212386828272026
1.19490423902151
1.173658919318365
1.141554965935308
1.122978473923798
1.11563463214291
1.127281420703312
1.145186013529369
1.169132726481146
1.171844005656521
1.168788839501913
1.158023108729628
1.149142828771158
1.149712040003532
1.172240436119921
1.209471127553339
1.256104450282753
1.257525026956595
1.203803764816121
1.144080373501536
1.116664811921549
1.103504310842993
1.099647343139185
1.097317706019037
1.097615824768669
1.102780933328048
1.115790582844927
1.159664303610899
1.208675145997181
1.231770037475025
1.239839018337259
1.23326331582102
1.23096003319577
1.230841727335872
1.229525027705472
1.217597147880405
1.179704130122662
1.129765480594789
1.083396129427323
1.071234854757224
1.094785360801672
1.149333034339234
1.179759574334306
1.174914023673081
1.170372143215038
1.162028438206694
1.162513883126842
1.166764368038552
1.171849923521655
1.175373875023087
1.172460211770197
1.162970771007926
1.131753265604802
1.106257475697144
1.09474891223029
1.113957676662537
1.141338384095304
1.174456401296973
1.187618096426238
1.196366318560028
1.202051850265583
1.209062487250706
1.214730527762574
1.213307650107216
1.188539857612318
1.1412594852654
1.073215924934678
1.033855977452873
1.042665913919081
1.081179183213087
1.12698250932311
1.159108317786699
1.170507790541595
1.171414627865566
1.168773547716605
1.168229067441576
1.170940728808019
1.172068954805647
1.165795586198382
1.156848890086035
1.147251725713931
1.140488703502084
1.135629199370682
1.142746354133297
1.152720166917007
1.14661419088993
1.132433245046752
1.141332398110014
1.138137325715056
1.14241791854265
1.146311235974694
1.147360506619143
1.147530052173961
1.150749716908753
1.160138343132061
1.174320571104551
1.181039050285144
1.166080677197386
1.133226981499484
1.092083540464042
1.087783523472818
1.107184884973495
1.132714493212375
1.155128555927539
1.164040779397814
1.162775177144918
1.155234549794481
1.151221310671191
1.166391631404073
1.196776425837486
1.248730507004356
1.274179005909675
1.253415123910302
1.190648900285178
1.143801772012456
1.124313699433519
1.122570395433418
1.128526641031492
1.13112090603879
1.123952898661278
1.112267237148335
1.103141538774435
1.102103168561435
1.11432196460005
1.16002504521711
1.204235994759616
1.223653797077402
1.233936128739748
1.2350890239733
1.233968850927275
1.224859785686286
1.198466621126091
1.144944169189
1.087202713062989
1.053710959152322
1.041950412055186
1.059135205825875
1.091824329128904
1.147820234993252
1.187143963849193
1.194309669435015
1.19429374872396
1.184217411090899
1.17968859236999
1.180916948377794
1.182086147207838
1.178674015431353
1.162324767253563
1.126803548165135
1.086157031334246
1.062789954653633
1.075223925638306
1.106950868863533
1.146859806514813
1.169149147367643
1.183742402485689
1.188209477402405
1.192276145868361
1.181339404914181
1.162835416302562
1.115738007260326
1.067174679679192
1.052203797196653
1.047857610736857
1.063276961560393
1.099103582264705
1.151974870772431
1.182485953644611
1.196481183544633
1.193131463486425
1.185987331290464
1.176626156257611
1.168460534823999
1.161174878691426
1.15504250833207
1.131710200834977
1.115607427492925
1.102152329204467
1.104614141526788
1.116225613280601
1.142262494589608
1.147625249685681
1.152658377319683
1.149397098598885
1.142082270958582
1.140657051192981
1.150076825038913
1.158580710006701
1.191740528012473
1.21902414118687
1.225812214472805
1.206985942859936
1.178594281645558
1.146016207373235
1.109985963836337
1.080084819083339
1.070074219513141
1.078564169087242
1.092258905895563
1.102415268617861
1.110069432439505
1.127289520651376
1.162902243135153
1.210656824769001
1.254576829284332
1.262275100471467
1.213888986105152
1.143834645705597
1.107955756876498
1.084004078669958
1.077040637069021
1.077291900689999
1.083244286610471
1.09513227245889
1.12075643739525
1.169178721297864
1.19817501557163
1.212351276595995
1.215913922102734
1.214023454162162
1.206454981932867
1.180154746534532
1.13698959088863
1.080944444063398
1.041161419872464
1.025553439747
1.049297883078538
1.096948399811014
1.155759828342791
1.194806964209533
1.210159401698965
1.209981422422726
1.203243036224504
1.194741359103511
1.187548135448936
1.178477427306275
1.168744217471386
1.153157931239711
1.148808589929348
1.145364407890277
1.130663725097464
1.102340595871689
1.079082702665777
1.075507375555654
1.089097158722757
1.117900732485416
1.153018488404031
1.180913153066891
1.198304153714572
1.198523769589215
1.191342903271544
1.163662366757218
1.132832982999099
1.093735441173641
1.085812618242916
1.097573997553672
1.122652382999104
1.131077420792513
1.133195753885998
1.125891552221653
1.117613607412802
1.115551899712713
1.123161857490945
1.141666762849116
1.168575229280292
1.187546612945963
1.195785235840345
1.190976644019906
1.177981888800947
1.151166578623414
1.13246970926662
1.116452267567753
1.120816345383712
1.136216239776008
1.163006565758731
1.172242530491195
1.180768290292172
1.184669944184392
1.18267727456503
1.177265021933085
1.170257594032224
1.165071422794774
1.155418342959951
1.158632012448967
1.165986029091639
1.156507286683125
1.134861932868007
1.124067725175782
1.119981099678977
1.119309972240386
1.12004447279858
1.119291340634025
1.11651501919174
1.112310940835207
1.108623856818732
1.111439647078547
1.129363001780623
1.16059326472448
1.207831647320325
1.228292427098082
1.207329285459515
1.153099730906989
1.113381520147948
1.095623396807554
1.091445030133071
1.094452532514044
1.100666812940716
1.10838175813443
1.114931917903794
1.130546278609472
1.167667710278444
1.193314369253834
1.20041039024393
1.201940882399831
1.19373811823909
1.18531984188586
1.178734694747183
1.172621817067479
1.156592526105454
1.129689803711709
1.099760337422984
1.08361462632432
1.099661403558953
1.123899918490623
1.147775437942617
1.153685388692689
1.1446595227363
1.121171958694578
1.100106040826862
1.087755568717398
1.088286520493935
1.106712557590318
1.143517920569393
1.183957772659592
1.210704477404608
1.212227553803513
1.173593619778122
1.116537472873676
1.072348939717264
1.052992940021662
1.060568658431857
1.087834733402672
1.125410289782085
1.160021307601528
1.185528451575123
1.188316286086669
1.169133423838083
1.141170569963625
1.098447112090774
1.085937166113541
1.105513890933
1.132705156919411
1.158830388140914
1.174473953127287
1.183653599629348
1.180345890009712
1.168007887396048
1.155504700938306
1.139984761087822
1.131310028228319
1.13643344524726
1.163705846102134
1.187574411514686
1.212794052769511
1.215080655170342
1.190997820028676
1.148909541135948
1.102994126241019
1.067655464405073
1.053398979398191
1.06273606777659
1.093137946063738
1.134487970001228
1.180313273923812
1.192999586963697
1.178948350994556
1.162131049981481
1.144975748876687
1.13620260029396
1.131815317927339
1.12593526635707
1.112116330865203
1.09421557333894
1.081547941600232
1.081162586601553
1.094171737811751
1.098025357450624
1.104541862235319
1.116557662605956
1.138996616356691
1.169403799147562
1.200789235669801
1.219674702127348
1.219630441491024
1.181561305184679
1.117785573138895
1.069051978071068
1.051070791206335
1.067903068804314
1.109532957557602
1.159355721699303
1.19888645541323
1.217457824892662
1.215997775473376
1.193660971102716
1.161309363090799
1.127828427033039
1.10481348242537
1.095537965493304
1.110089784955044
1.144688684110932
1.197419923581545
1.2248955840944
1.215981305509276
1.174355834677147
1.139391040986121
1.114787139038411
1.104388534725814
1.10215737994942
1.099963753237497
1.097750828718653
1.087399184175502
1.090385061105452
1.112901315311663
1.147890370401406
1.174287250094535
1.190566217463297
1.193152676487945
1.184722653560869
1.156914750258903
1.116533432202503
1.070107599684803
1.041806808477082
1.033687219579084
1.056453004017297
1.097735193155869
1.1431434441327
1.17523463698005
1.185958028689414
1.177929544065268
1.148149349931835
1.106983653999513
1.072821975530426
1.075058299245613
1.096609387069907
1.123043560775575
1.140220441975805
1.149266033975562
1.145140967498694
1.134124444690076
1.125068472985403
1.114658850841828
1.117819280980128
1.142949976962832
1.171023628569635
1.197184556460531
1.201136617885602
1.189267789216319
1.154014513098694
1.102927063880705
1.052756372513122
1.027199918175205
1.033779640278855
1.069854006312217
1.123720533325715
1.171436612928913
1.196682903405337
1.200190098352548
1.189646013261963
1.16790745826277
1.138263932000838
1.100487819481271
1.065978950590897
1.037846065859332
1.037560055545923
1.064397622473704
1.091146670841153
1.116583663822082
1.123083620349149
1.123509395584373
1.117726588178817
1.11205483806002
1.115121320566931
1.12984741511595
1.149137635680011
1.16538053171968
1.147192700394623
1.102938847207797
1.084606519244287
1.066390612429405
1.062578593049649
1.06771942094613
1.084360958587308
1.10982605914191
1.143623654137416
1.173726074973299
1.192787254785135
1.197441995158711
1.190586923800271
1.163954089570542
1.118013154079167
1.059432902277613
1.019285584321888
1.018305251054601
1.049232719003964
1.094195176142466
1.136912369717207
1.157531251298378
1.162358340124111
1.154313373845565
1.139590218224499
1.126881654895206
1.120104509362867
1.115892707490132
1.12352848887788
1.132215880366678
1.122233483224313
1.100589721963686
1.101554305745305
1.09612007874906
1.102104304245026
1.10831833936201
1.108800842084716
1.105986389900131
1.103921642291452
1.115361417061336
1.134767759783205
1.17262263450795
1.189209937115501
1.1648331992737
1.108553859721507
1.077354250806314
1.05709962625461
1.054831384253067
1.062859083381329
1.082057667848861
1.108882036427107
1.140562700357425
1.170782982827595
1.193538688830936
1.199021749446912
1.171922971578613
1.127741576042598
1.069349627121426
1.038769785673562
1.036964127119298
1.058757946733523
1.093814268238328
1.128824388567326
1.151518429422087
1.159320433775293
1.158287636782718
1.156423179110387
1.149601269356601
1.1399218209267
1.117408745288629
1.089043293316089
1.076361830578067
1.084085301211945
1.082445665345495
1.087873599105462
1.099706280967525
1.117009821971341
1.142182115473627
1.163634735415588
1.18019902385787
1.181282184678965
1.152425249798172
1.101032161855849
1.078215054271403
1.079201720753305
1.093069237692824
1.109844381969349
1.132644497151036
1.146320792166325
1.146160974668922
1.151536307105607
1.137960301303961
1.109757284062258
1.094701992830743
1.086675567123525
1.083541761959751
1.093089255285921
1.114465996359707
1.139214930116819
1.158052061495476
1.172148492174756
1.158293671247619
1.118873948417691
1.097796395895543
1.077745661611262
1.072454576759211
1.079094784829009
1.099217694108204
1.124947089958886
1.155417664429109
1.172135846306964
1.157642278675643
1.119221674975018
1.098653315999824
1.080866663511442
1.078823175604914
1.084461978082072
1.09953502572867
1.11978223299976
1.149117280743828
1.164917961314869
1.15179134274254
1.122494079493004
1.113855150207114
1.101450579452131
1.104839840842136
1.11144112545449
1.114741410541913
1.1036631717041
1.089295638011914
1.076687276310828
1.076597534427684
1.084891215237713
1.108934681950652
1.120004475593981
1.13510971431676
1.145419763884111
1.150444938548467
1.138603359766126
1.119895158154623
1.082501768732655
1.06280676453226
1.063436600637452
1.066061938938476
1.073442968424838
1.08740329986646
1.107284686589869
1.131797263506615
1.154011007902465
1.1695832511953
1.171013349860095
1.15754100049483
1.13550653444693
1.09346137656654
1.052886539099725
1.042219048371696
1.043499866056609
1.050607352137779
1.064591309396762
1.090302521444691
1.133510227618811
1.17011051947874
1.19702945419384
1.206493737084936
1.185831016019739
1.142290602085026
1.095812989861815
1.073550669391912
1.063700138486795
1.071790819516947
1.096677967404298
1.132851472675941
1.157725865642262
1.171230086963612
1.154793680739913
1.113373643127462
1.073763561616648
1.057562316646181
1.057922754762259
1.076530773225338
1.106844413684813
1.134791391152465
1.145648678519797
1.137288386896206
1.112896386472563
1.070964902489873
1.033680599128821
1.023397477258861
1.034038589497498
1.057237309345166
1.084026496670906
1.104985024461236
1.119834326934291
1.132024746165853
1.138204880441972
1.139724510878015
1.133400476995597
1.119511923403299
1.098484870477297
1.071986725226955
1.064500256926562
1.069910094131946
1.086664211155498
1.097183027838271
1.108852597088698
1.124768143969176
1.137907121859012
1.145479845732053
1.139438601719823
1.133296000656281
1.109441368422766
1.082118961925198
1.075248071188415
1.084463308716648
1.097536101377695
1.114159409548982
1.135954503267414
1.15090633932178
1.156293662500775
1.150757162865249
1.141717199510934
1.114770756111264
1.092315496384018
)
;

boundaryField
{
    inlet
    {
        type            calculated;
        value           uniform 1.176411716172193;
    }
    outlet
    {
        type            calculated;
        value           uniform 1.091199797645849;
    }
    frontAndBack
    {
        type            empty;
    }
}


// ************************************************************************* //
