/*--------------------------------*- C++ -*----------------------------------*\
| =========                 |                                                 |
| \\      /  F ield         | OpenFOAM: The Open Source CFD Toolbox           |
|  \\    /   O peration     | Version:  v2012                                 |
|   \\  /    A nd           | Website:  www.openfoam.com                      |
|    \\/     M anipulation  |                                                 |
\*---------------------------------------------------------------------------*/
FoamFile
{
    version     2.0;
    format      ascii;
    class       volScalarField;
    location    "0.02";
    object      T;
}
// * * * * * * * * * * * * * * * * * * * * * * * * * * * * * * * * * * * * * //

dimensions      [0 0 0 1 0 0 0];


internalField   nonuniform List<scalar> 
1000
(
300.209573448883
299.9619841207817
298.4914340321782
296.5077543245249
295.1837394135368
295.3913844154952
298.2897762835353
301.2794896664827
304.9767362764855
306.7720063461273
307.9223643130641
307.703982201215
306.4178123390308
304.4926453776613
300.9837402304256
296.3225872725338
293.7465373807006
293.1757715020614
293.079345309412
293.3483901752635
294.2280398776975
295.1629760840743
296.2927314300765
296.1560634833812
298.6658612296453
301.7752516561312
302.6290353995475
302.5001527650518
301.7078396792744
300.8326512438501
299.857856917833
299.5394874538999
298.5637035977795
298.7627200476721
300.1898007270954
302.4527236945136
303.8413716342426
305.2639246363284
305.9568641012951
307.0520128744201
308.0930955588865
308.810309237206
307.9270870399193
305.9057338629975
301.7789680776383
297.5885363416087
296.5524684427572
296.615121299259
296.5160113379688
295.4027465781626
293.1868376577897
290.6166435637431
289.2047065025987
289.895760294704
293.0431503439926
297.3853168450966
300.8628697910843
303.5351849198314
304.9361834166908
307.1679923657741
308.9200260528384
310.0212808644006
309.6766558238079
307.1024970345981
302.9317482488025
299.9013143597859
297.4177748804273
295.4631133280649
293.5201670129103
292.2512007434819
291.9136901415633
294.1867342668435
298.3386124460214
301.4407886264829
303.752595067679
304.1225047339466
303.6080259541311
302.9941649865925
300.6007570488623
299.3065943182003
297.2259012995216
296.3061713500248
296.7722088781222
299.0785310753259
300.1560097991007
301.5276391346104
303.1002170495999
304.7285224558738
306.2469493295454
307.0247741586376
306.8299911183522
305.2839642265496
301.8549284041431
296.7809664685088
292.5905490539114
290.2489467633285
290.2624059534194
292.3194808591366
295.8142209155623
300.862402425015
302.7010976567619
301.662653501626
300.688153322187
299.0593935962646
297.835013016131
296.8427166408209
296.2284623067068
296.4996368994745
295.8751314664376
297.4828652414322
299.951973441323
301.0820270206707
300.4934691024833
299.9653717962924
298.8453455673011
297.7668885943049
297.3684750529546
299.4167810177223
303.2644326315714
309.6385657104222
313.7571044680361
313.0262119899459
307.7918702613496
300.5987269698691
295.7854324981226
292.2547020003963
290.4908850815452
289.5641434454499
289.7471102072606
291.5030976565835
296.1716877182481
300.7066400911721
303.5123046000451
304.6452657525036
304.5295761154889
304.5361379861073
304.7117457407976
304.7459836967097
303.7141816847421
301.995303551604
298.8697312469847
296.9614199617447
295.6433811497832
294.9146333474988
294.9297875773544
295.9237516029659
296.9172586674666
300.6935034943708
303.5762255260881
302.7836763384406
300.5654983299964
300.6001453008454
301.0828759093055
302.9406507594053
305.8610004175822
308.8092016818421
309.1278051160399
307.2082278247744
303.4586432218582
296.6134495557826
291.973569656643
288.9239139983461
288.2122699335308
289.8823141501979
293.4391317180505
299.1834224402353
304.5011718678788
306.7425629839309
308.1405236071116
307.9267133329474
305.8129251454181
302.9119606361983
297.4410388751992
293.2788139447505
290.2607816445968
288.8098127661249
288.7571935638674
290.2709574599386
293.4360227882297
298.7351989445436
304.6985969612089
307.5124069930048
308.1566952333451
307.5505202752827
307.4024612781248
307.3348648648275
306.8681946522397
304.5756990358838
299.9526526675186
293.287042725891
287.8105561291208
286.3768549783067
289.288023995802
295.2237540451091
299.5203743221426
301.7569425902653
301.8801218930744
301.2424767597641
300.3395691067354
299.4712777547335
298.6996326713185
298.2622466348114
296.6171821818128
296.1998214982453
296.5398700207958
297.3338485193265
297.869754050509
299.8884723925145
300.292514561386
301.0521553295933
301.3005852196546
300.8256310268948
299.7385217929377
298.5317828713713
298.3426934550899
296.9345861704871
298.3519649478977
299.0329810297951
297.7879037489038
296.3001670065537
297.0840101986719
297.4977829366171
298.4737287155182
298.9500660924392
298.6425786360745
297.7698575180986
296.6568312433306
295.8199958142916
296.9418175762568
299.9503533580578
306.1920287720926
309.55214109583
308.1162372027077
303.7883410043072
301.2028920634414
300.0731303604683
300.057177635572
299.5928480478921
297.606704031732
295.5837009937306
294.0648243377984
293.402101595375
293.3230936944229
293.3009178850882
293.2572651788344
293.2915764442977
294.2748544235848
296.6661280804663
300.6975039917181
303.6838660640205
302.7346522680414
298.2523372167183
295.3656377323277
293.1280111213085
292.5606476174043
292.6873449554588
293.3259782687091
295.5181782055369
299.0400167325255
305.3355824984426
310.6741761579266
312.0585838639935
309.5365174501851
303.7913891316372
296.5814400365896
294.1907464141375
293.8618723827295
294.1720790471306
294.5112401765664
293.888150312869
292.7373488125042
292.1293563560067
292.7368043032997
294.6023098569925
300.023057666486
305.0960888944893
307.0013139524065
307.793587269325
307.5073855853527
306.2906270401688
303.6907665053427
299.3687971643788
292.9553112700544
287.7827235481149
285.6570682842209
288.238987997768
293.6504293366706
300.1950099639427
304.2176246737162
305.4799503820367
304.7277564449568
303.2475088103578
301.4715641673904
299.2851215392435
295.9883479158658
294.0912280703224
293.3332021334947
294.5449776577856
296.392417807406
298.8861216911453
299.186611765971
298.8869860258812
297.7955275207145
296.8813780128265
296.9314598386309
299.2455222346952
303.0491858459833
307.6673665600689
307.8075865626872
302.4887774725541
296.3586025183916
293.4861515974466
292.088804031167
291.6670028774898
291.4065822467683
291.4338885334415
291.9824177390942
293.367537410885
297.9595706082263
302.9214250287687
305.2161090656119
306.0089316984063
305.3546228163693
305.1233805372487
305.1191954316546
305.0063145942414
303.8173643274264
299.978744690396
294.8297333106755
289.929452725942
288.6105128645348
291.1641876199277
296.880892249181
299.9907196997393
299.4924451502177
299.044605374173
298.2024534677983
298.265858765718
298.7105188883596
299.2362089184781
299.6030551992796
299.3123753037145
298.3204196555496
295.0692213841204
292.4111196081719
291.1826863000305
293.1998470761357
296.050975470871
299.4866800210398
300.8421173947506
301.7247226691353
302.2992471664026
303.0160481104272
303.6002622979821
303.4747183299155
300.9800987531013
296.1183697602922
288.9223044724544
284.5910668801322
285.5520395628279
289.7184119207555
294.5838210126785
297.9433049707665
299.1200743106123
299.2099293803894
298.9349689880747
298.8750911585623
299.1526653657516
299.2699633748913
298.6294984830321
297.7117919764114
296.7225460223236
296.0173524949337
295.4859134260014
296.2245592753313
297.2678304748706
296.6371465334037
295.1463475560466
296.08344320534
295.767844528221
296.2116187776529
296.6062828313773
296.714193563283
296.7404220622122
297.0858177038439
298.0630060490395
299.5259166757444
300.215432708963
298.6859186277681
295.2917579372773
290.9590921250137
290.4810886037168
292.5286339776829
295.2037161935388
297.5524598570516
298.4904240437722
298.3745607600125
297.608263666138
297.1937625383307
298.7465394264077
301.8210713330321
306.9715432956903
309.4465522548508
307.4317267210803
301.2170173611721
296.3660576263068
294.3198526784182
294.1319723135516
294.7490630825415
295.0132708909151
294.2559086955988
293.0178740341627
292.0481684732583
291.9364056353095
293.2400264794406
298.0067087698157
302.4813964943213
304.4041246332943
305.4089773339034
305.5100023452613
305.4045309289138
304.5015904804334
301.8572511109776
296.3879618068008
290.2904222415123
286.6625492344506
285.3665303922683
287.2435389633306
290.7755062583958
296.682067369579
300.6943816885454
301.4021490476761
301.3958981434786
300.3772154883595
299.9172366435076
300.0413787711804
300.1598275037439
299.810335026982
298.1211683662751
294.437820496621
290.1539130453669
287.6345463741489
288.9718124975312
292.3190565166343
296.4883880890211
298.8173134409223
300.34349203006
300.8087241870659
301.2034805798802
300.0770641299955
298.1963096670822
293.3403813118676
288.1439662997508
286.5081174221332
286.0332211864309
287.7120399066015
291.5638279602817
297.0875430976424
300.2167696681261
301.6456643897765
301.31240320305
300.5764837496473
299.6056098755652
298.7586026072726
298.0075711014144
297.3638020860085
294.9330345241924
293.2672014994125
291.8656615604364
292.1149940325757
293.3016912530699
296.0279928272947
296.6132322789847
297.1419574819836
296.8110782305366
296.0594666407652
295.9153649247707
296.8854564530264
297.7525498142098
301.1216080872792
303.852057325613
304.5336047362641
302.671165418372
299.8061671883573
296.45963218387
292.6952543491969
289.5113842664621
288.425612099257
289.3332804639959
290.7964646726958
291.888931241871
292.7193963990268
294.5496097376977
298.2618298484294
303.1350105849488
307.4782813677708
308.2009323166984
303.4072388673924
296.257792555763
292.4866931187599
289.9332597087957
289.179197569344
289.2037233196791
289.8418680602597
291.1081390310481
293.8307584284764
298.8121578903754
301.7490480798448
303.2074187528154
303.6086521366756
303.4372489523578
302.6597726281978
299.9749498538916
295.53573854586
289.62686014718
285.3086607495715
283.5782862518992
286.1917877160776
291.3290398543467
297.4860252058793
301.4729591667761
303.0112493756865
302.9822741484392
302.2994303141527
301.4373654424296
300.7097543962831
299.7882762141566
298.7946994580329
297.2058062462892
296.7803509638063
296.442226400451
294.9270554819711
291.9481442195335
289.449142808873
289.0518228021559
290.5062586743913
293.5617723203293
297.2439423042798
300.137945289048
301.9278024779994
301.9543207235799
301.1973011112987
298.3384919362913
295.1515298913291
291.0589248280149
290.1837776845452
291.4200408201045
294.0777177951982
294.9742347886604
295.1947667763227
294.4275163045236
293.5523823108124
293.3323315241358
294.1319597223436
296.0632914157782
298.8337327457199
300.7743628353293
301.6246277480447
301.1504543394726
299.8153658715193
297.0616203635851
295.1515159639621
293.48393188766
293.9341063267414
295.5243457615796
298.3043297349387
299.2703046678176
300.145108947206
300.5426468011882
300.3392201350931
299.7869093811847
299.0694271755477
298.5273420360699
297.5228124971235
297.8760953362175
298.6588486899119
297.6832627519541
295.4132509832793
294.2682860325186
293.8503111082345
293.783494697374
293.8612668088751
293.7833098401722
293.4976799592242
293.0665612964611
292.6869017734243
292.9899782791676
294.8769398344704
298.1241304197567
302.9070724392712
304.9281546590774
302.8393344509465
297.362813637131
293.1935597894096
291.3058408820572
290.8521875226049
291.1607996509792
291.8073746410175
292.6118717912747
293.2939497193943
294.9481165733504
298.7983209208908
301.3883911213362
302.104092616599
302.2750293280508
301.4617281939867
300.6208057275592
299.9547737324799
299.3326719801569
297.6723893697427
294.8813325104013
291.7451969694546
290.0159398926479
291.7312261858069
294.2749054276289
296.7475565448639
297.3419131128929
296.3980429122719
293.9266100044905
291.6978258113784
290.383954256375
290.4436042487499
292.4060655289487
296.2590711363113
300.4104492978796
303.1177101255071
303.2772119185289
299.3628444428712
293.4461544559476
288.7351180821632
286.6329471550927
287.4560451979213
290.3830814103717
294.3558455695466
297.9575739377331
300.5867153719165
300.8831713550146
298.9161896378076
296.032679281225
291.575678899811
290.2001691229398
292.2525127506045
295.0894355831903
297.81450832734
299.4373931481715
300.3836836062815
300.0533780353457
298.7883217481059
297.493713302371
295.8771377149638
294.9720233279327
295.5094692289506
298.3173780888214
300.748238896287
303.3122983015016
303.5508904281584
301.1200270510229
296.8080120353837
291.9953548539065
288.2088028694349
286.6525439476973
287.6711557830073
290.9543249250208
295.3491342579075
300.0469494669215
301.3191191320958
299.8863054578728
298.1584529296119
296.383969009817
295.4740307511179
295.0169866445501
294.3832166534809
292.9290624387921
291.0518431765601
289.6839789773115
289.6237119694114
291.0064570499675
291.4337312283859
292.1386899205756
293.4187014321591
295.770813302069
298.9058329198981
302.0947417339539
303.9918775067922
304.0048924545164
300.1828914578526
293.5892426039572
288.3841040535392
286.4271567197605
288.2589878808164
292.6972428672694
297.8850136878899
301.9144401896547
303.7809490015701
303.6237894829714
301.3605300060842
298.0535449666962
294.5827325937845
292.1666617423806
291.1808827220512
292.7206573077277
296.3352688675019
301.7022156024001
304.4473230621309
303.5734055527757
299.4030638917197
295.7988843347902
293.2188718812656
292.1079630763368
291.8586471555666
291.6184726545941
291.3807254170105
290.2824109449545
290.6094408090185
293.0007767386048
296.6273880967454
299.3453142800441
301.026345441128
301.2862631962822
300.4123779825102
297.5494687336208
293.3507949577329
288.408494759774
285.3214894678707
284.4193108272613
286.9056390272266
291.3349207819672
296.1109915454338
299.4311207491324
300.5242749302872
299.6959827280921
296.6318826878154
292.3499387138431
288.6904475911907
288.9139856398421
291.1950993978324
293.9900126870521
295.7948959052994
296.7399362155755
296.3150047760943
295.1632263796033
294.2157857704352
293.1291019037404
293.4690549224835
296.0987742288294
298.9839179530923
301.6417968439694
302.0358042232783
300.8321694636182
297.2232544740626
291.8929770158671
286.5071105682686
283.6964989408783
284.4267172946489
288.3564827707816
294.0847619816097
299.0232407607554
301.5810646250256
301.9261717097759
300.855908904079
298.6273748303063
295.5510717391798
291.5801010143557
287.90500162155
284.8750724737274
284.8522089056736
287.7507737940552
290.6050435285993
293.2984908551683
293.9887811276409
294.0373420351594
293.4380476652244
292.8538693308185
293.1908618814535
294.7372394948437
296.7471482814672
298.4250989758369
296.5555502760837
291.9347768017153
289.9645283096204
288.003430224925
287.5932831491947
288.1532392230836
289.9478736650002
292.6573328457137
296.194373278463
299.2799751262722
301.2161361477942
301.6904693984214
301.0123368260922
298.3023508942109
293.5293947653114
287.2751807334509
282.8591609424459
282.744739559446
286.1378653958836
290.9764518896795
295.4844971950603
297.6348740789927
298.1322791564309
297.3049263505678
295.7763220938759
294.4394664795755
293.7117616788582
293.2500734545752
294.0706822326973
295.0044822043461
293.9642635759434
291.6686618267677
291.7679087567817
291.2072549766141
291.8440316008131
292.4965166828024
292.5438741786794
292.244000721122
292.0262463534352
293.2373093195214
295.2753134587388
299.1755995023253
300.8561180757015
298.3795181287205
292.5510610984053
289.1980593374544
286.9989750155726
286.7486915878566
287.6234213356258
289.7008131513908
292.5628339801055
295.8874603506829
299.0102331364075
301.3374291362623
301.8941259717731
299.1292568562664
294.5615350428363
288.3573953013525
285.0154002109132
284.8174923229452
287.1951772249355
290.9576711515309
294.6544384114481
297.0305080456651
297.851703621668
297.7541725558714
297.5632360282291
296.8436132540054
295.84640237727
293.5291427234906
290.4990806717672
289.1156651765835
289.939282051061
289.7655598004174
290.3489893921982
291.6177416345341
293.4555976524813
296.0998167549489
298.3182192290018
300.0106769095531
300.1240251674492
297.173819740043
291.8030260052605
289.3450246734038
289.4574309829657
290.9469127547897
292.7319840767431
295.1278680389542
296.5432234162363
296.5236527649196
297.0817980577311
295.6795896955128
292.7158594107285
291.1095915190666
290.2587878818481
289.9284544673523
290.9530206537198
293.2194914555069
295.8058645348274
297.7621317833841
299.2130459230219
297.7979646695546
293.7167521186726
291.4735864150505
289.3229898778401
288.7504967808212
289.4669004476316
291.623743782577
294.3393195884187
297.5102840340406
299.2226869657897
297.7390858005585
293.7550119655555
291.5786513711436
289.6734307056859
289.4489335436735
290.0520395332806
291.6617473322149
293.7994815791454
296.8584805172974
298.4810770359619
297.1299313558428
294.0858203910602
293.1783998603344
291.8721886600622
292.2326150695038
292.9266837672647
293.2642539776666
292.0747022072553
290.548579239702
289.2137045114126
289.2008840818083
290.0690818719714
292.6219575011231
293.8033342197591
295.3982818838905
296.4703719275248
296.98494575204
295.7532621847374
293.8068245722402
289.863027686674
287.7130124310368
287.7761313973686
288.0598847844439
288.8593282102972
290.3655199507423
292.4923913502007
295.083705984974
297.4023628272276
299.0154730380061
299.1701975338622
297.7872179628407
295.5106403399806
291.0961991843801
286.7158942086081
285.541249415379
285.6820154703797
286.459723813434
287.9833327332084
290.7589596393218
295.341147955513
299.1288721002992
301.8636456012635
302.8070643561271
300.7140112362608
296.2533143147484
291.363732698872
288.9730583510174
287.9030893356419
288.7747716783966
291.4433439544257
295.2600637550388
297.8422074261172
299.2280451936156
297.5407030600879
293.2373374678044
289.0117212345439
287.2560671517155
287.2984754947045
289.3092546720962
292.5432495561557
295.4801377433703
296.6076873826194
295.7381474336618
293.1786406701906
288.708823256603
284.6346335976527
283.4909220127327
284.668306200808
287.202036297725
290.0879064108134
292.3239152281118
293.8986702218522
295.1900147126871
295.835715721906
295.9880877489129
295.3194434294143
293.870831726759
291.6707418653676
288.8370757005701
288.0125447371923
288.5880971844289
290.3925670613634
291.5326316127455
292.786096869194
294.4745551619353
295.8500744555429
296.6347189032912
296.0048515239472
295.3752875107884
292.8923909955208
289.9677620090318
289.2145086282163
290.1958395744388
291.5916123156966
293.358541397187
295.6615028983365
297.2176215438845
297.7651796407885
297.1989882515283
296.3657646296326
293.6622551237192
291.2077684681262
)
;

boundaryField
{
    inlet
    {
        type            fixedValue;
        value           uniform 300;
    }
    outlet
    {
        type            inletOutlet;
        inletValue      uniform 300;
        value           uniform 291.0831874540623;
    }
    frontAndBack
    {
        type            empty;
    }
}


// ************************************************************************* //
