/*--------------------------------*- C++ -*----------------------------------*\
| =========                 |                                                 |
| \\      /  F ield         | OpenFOAM: The Open Source CFD Toolbox           |
|  \\    /   O peration     | Version:  v2012                                 |
|   \\  /    A nd           | Website:  www.openfoam.com                      |
|    \\/     M anipulation  |                                                 |
\*---------------------------------------------------------------------------*/
FoamFile
{
    version     2.0;
    format      ascii;
    class       volVectorField;
    location    "0.02";
    object      UMean;
}
// * * * * * * * * * * * * * * * * * * * * * * * * * * * * * * * * * * * * * //

dimensions      [0 1 -1 0 0 0 0];


internalField   nonuniform List<vector> 
1000
(
(0.212375911963547 0 0)
(0.2336800872538905 0 0)
(0.2111319524227998 0 0)
(0.222540273720282 0 0)
(0.2262193836668361 0 0)
(0.2341197198665816 0 0)
(0.2319425926511096 0 0)
(0.2270370236662933 0 0)
(0.2291753511811536 0 0)
(0.2215512523496525 0 0)
(0.2158639377819867 0 0)
(0.2006084002295015 0 0)
(0.1997372209885337 0 0)
(0.186070508558202 0 0)
(0.1875128603511934 0 0)
(0.1889524281163049 0 0)
(0.1954105205927018 0 0)
(0.1946579202452513 0 0)
(0.2052739226085687 0 0)
(0.2157633265568236 0 0)
(0.219563125475164 0 0)
(0.2188462227923068 0 0)
(0.2241572723629744 0 0)
(0.2318246514822482 0 0)
(0.2398437414576091 0 0)
(0.2292161417132492 0 0)
(0.2262334221484956 0 0)
(0.2198091067094741 0 0)
(0.2251887871369861 0 0)
(0.224870766780973 0 0)
(0.2146587793371042 0 0)
(0.2156801419443415 0 0)
(0.2219412277848655 0 0)
(0.2233546180893158 0 0)
(0.2235998410822205 0 0)
(0.2201772581363488 0 0)
(0.2088658998123984 0 0)
(0.2089945440316125 0 0)
(0.2047310341920043 0 0)
(0.1963946691438522 0 0)
(0.1908411961972389 0 0)
(0.1782028002684624 0 0)
(0.1702793384607154 0 0)
(0.1676075427821058 0 0)
(0.1597644044516781 0 0)
(0.1560797789133367 0 0)
(0.1581455411846763 0 0)
(0.1694941131308179 0 0)
(0.1719289311382151 0 0)
(0.1708745304345428 0 0)
(0.176595365006205 0 0)
(0.1857936560424671 0 0)
(0.1990989389220924 0 0)
(0.2081624081436775 0 0)
(0.2128319102139365 0 0)
(0.217454133105472 0 0)
(0.2248427254516582 0 0)
(0.2204423855370163 0 0)
(0.2178859780466376 0 0)
(0.2027743587321223 0 0)
(0.1940233139287545 0 0)
(0.1899531484093672 0 0)
(0.1871318940310034 0 0)
(0.1672872154028047 0 0)
(0.1610128685872108 0 0)
(0.1632771984709153 0 0)
(0.1650496670517091 0 0)
(0.1732172870321281 0 0)
(0.1711111664605804 0 0)
(0.1740186325516523 0 0)
(0.1893965379794165 0 0)
(0.1966950586711256 0 0)
(0.2027572892925005 0 0)
(0.1968244840033382 0 0)
(0.192290064620595 0 0)
(0.1966767862281348 0 0)
(0.184544974693221 0 0)
(0.1865290527806908 0 0)
(0.1776428012995867 0 0)
(0.1824739589709369 0 0)
(0.1876825549394185 0 0)
(0.1872600029120075 0 0)
(0.1893482501399402 0 0)
(0.1840880066794661 0 0)
(0.1900932721698615 0 0)
(0.1932412194194275 0 0)
(0.1949710396200267 0 0)
(0.1844069279839875 0 0)
(0.1763557824778809 0 0)
(0.1714687087956599 0 0)
(0.1725328168558498 0 0)
(0.1543863792383066 0 0)
(0.1473877876722543 0 0)
(0.1534195154957827 0 0)
(0.1611724108274253 0 0)
(0.1776701768879088 0 0)
(0.1770043919504452 0 0)
(0.1822679247783957 0 0)
(0.1917918639057848 0 0)
(0.1966013741645931 0 0)
(0.1941879695460938 0 0)
(0.1854037531511214 0 0)
(0.1905003560826248 0 0)
(0.1881251752660157 0 0)
(0.1930349989486351 0 0)
(0.1886089174846994 0 0)
(0.1881277607825078 0 0)
(0.1993040696514937 0 0)
(0.2064290794339577 0 0)
(0.2123537086155243 0 0)
(0.2070481568756454 0 0)
(0.2008617735738276 0 0)
(0.2022528583338127 0 0)
(0.2078690740155192 0 0)
(0.2039389151115082 0 0)
(0.2013373487836633 0 0)
(0.2029772668150069 0 0)
(0.2121275684360381 0 0)
(0.2148219157360401 0 0)
(0.1993742332706596 0 0)
(0.1861178527597017 0 0)
(0.1707114081694918 0 0)
(0.1641608496803544 0 0)
(0.1658850428306429 0 0)
(0.1539042500925542 0 0)
(0.1639981840426831 0 0)
(0.1723367877714079 0 0)
(0.1948566230385856 0 0)
(0.1939080905084473 0 0)
(0.2009896955276045 0 0)
(0.2046482298233857 0 0)
(0.2135188543112923 0 0)
(0.2139350673138499 0 0)
(0.209138074122884 0 0)
(0.1973070007299517 0 0)
(0.1906189659183541 0 0)
(0.1897982481740919 0 0)
(0.191525201761891 0 0)
(0.1767911849698173 0 0)
(0.1693748853881408 0 0)
(0.1746818540743256 0 0)
(0.1794663861021546 0 0)
(0.1909844181586143 0 0)
(0.1782485684369049 0 0)
(0.1820191394037055 0 0)
(0.1956797587356214 0 0)
(0.2040923753789009 0 0)
(0.1951336722527382 0 0)
(0.2012672715713691 0 0)
(0.1892797385016109 0 0)
(0.1882993376057731 0 0)
(0.1978673724582448 0 0)
(0.1792222961070479 0 0)
(0.1805513104301917 0 0)
(0.1818887374553652 0 0)
(0.1811012785775444 0 0)
(0.1648366409919214 0 0)
(0.1546029940208893 0 0)
(0.1424777401166109 0 0)
(0.1490793312776859 0 0)
(0.162040233405303 0 0)
(0.1648811254667507 0 0)
(0.1655236466877239 0 0)
(0.1847362318563866 0 0)
(0.1967306364976676 0 0)
(0.2054903516704426 0 0)
(0.1970635605834286 0 0)
(0.185724279203216 0 0)
(0.1754695818039355 0 0)
(0.1753227373511663 0 0)
(0.165842358318975 0 0)
(0.158132372914471 0 0)
(0.1536283561781662 0 0)
(0.1650963759958568 0 0)
(0.1774001317713287 0 0)
(0.1808064477823298 0 0)
(0.1872465037513976 0 0)
(0.1983297621555993 0 0)
(0.2163972463132585 0 0)
(0.2207762983173293 0 0)
(0.2139792784950655 0 0)
(0.1996490418581673 0 0)
(0.1967326049979174 0 0)
(0.1935719127028337 0 0)
(0.1830309661937939 0 0)
(0.16532324104701 0 0)
(0.1569331178947817 0 0)
(0.1593057223209981 0 0)
(0.1649215860871208 0 0)
(0.1608440245446708 0 0)
(0.1633490455247806 0 0)
(0.177051884633532 0 0)
(0.19053178594042 0 0)
(0.204894591249123 0 0)
(0.2022290386733839 0 0)
(0.2002163254002961 0 0)
(0.1989306160239759 0 0)
(0.1959571654018775 0 0)
(0.2032856939244754 0 0)
(0.1940029359646572 0 0)
(0.1878655524617392 0 0)
(0.2008060072970413 0 0)
(0.2081389996359825 0 0)
(0.2072889794249134 0 0)
(0.2046618872995478 0 0)
(0.2099752982995456 0 0)
(0.209713034403841 0 0)
(0.2197313047403983 0 0)
(0.2084576310296705 0 0)
(0.2043900283678191 0 0)
(0.2162136391997325 0 0)
(0.2068212265379771 0 0)
(0.2113466084485547 0 0)
(0.2068620153439068 0 0)
(0.205506739073588 0 0)
(0.2133227075644774 0 0)
(0.218262712759741 0 0)
(0.215506736130292 0 0)
(0.2126223397871698 0 0)
(0.2120881304504353 0 0)
(0.2248806605899039 0 0)
(0.2280701659290715 0 0)
(0.2254911172970875 0 0)
(0.2179198825396546 0 0)
(0.2242474095017312 0 0)
(0.2329896227375481 0 0)
(0.2380578428621546 0 0)
(0.233130406249864 0 0)
(0.2358939377442802 0 0)
(0.2428623141477302 0 0)
(0.2376807576734115 0 0)
(0.2265470517599222 0 0)
(0.2158622889894679 0 0)
(0.20552196446736 0 0)
(0.2083323203029528 0 0)
(0.2069998986889378 0 0)
(0.199416987631449 0 0)
(0.1984035833811145 0 0)
(0.2033878508156355 0 0)
(0.2115455872656025 0 0)
(0.2136591650363758 0 0)
(0.2152442435975938 0 0)
(0.2184722793657298 0 0)
(0.2275889868714627 0 0)
(0.240759993175217 0 0)
(0.2459991729436782 0 0)
(0.2486476042913751 0 0)
(0.2505739068024613 0 0)
(0.261672622020576 0 0)
(0.2559984218188818 0 0)
(0.245507193519692 0 0)
(0.2411745552128367 0 0)
(0.2443569542701602 0 0)
(0.2595364334313996 0 0)
(0.2623458019717742 0 0)
(0.2661876835213986 0 0)
(0.2699085111347145 0 0)
(0.2800724243780783 0 0)
(0.2827683960607939 0 0)
(0.2839563273794968 0 0)
(0.2687248507108738 0 0)
(0.252780539032335 0 0)
(0.2547492191768851 0 0)
(0.2360543258231118 0 0)
(0.2346097095526763 0 0)
(0.2356772117499001 0 0)
(0.2493083207999536 0 0)
(0.2518924521537452 0 0)
(0.2672992913629966 0 0)
(0.2581868410917372 0 0)
(0.2621784919492549 0 0)
(0.2777062890983674 0 0)
(0.2871643834117011 0 0)
(0.2953635577731988 0 0)
(0.2881220847503576 0 0)
(0.2913749064624568 0 0)
(0.2848760116879373 0 0)
(0.2736819401821226 0 0)
(0.2672277373345532 0 0)
(0.2536492854096266 0 0)
(0.2491458646149531 0 0)
(0.2536931981274766 0 0)
(0.2543208220779096 0 0)
(0.2612134488323183 0 0)
(0.2692166380961834 0 0)
(0.2958155326915634 0 0)
(0.2937440127541053 0 0)
(0.306061274352126 0 0)
(0.2957588514195961 0 0)
(0.2888641366439044 0 0)
(0.2873967720806233 0 0)
(0.2837946179507979 0 0)
(0.2768903648623325 0 0)
(0.2727556496228141 0 0)
(0.2807849023293351 0 0)
(0.287698350262083 0 0)
(0.2939354862224651 0 0)
(0.2898791058678492 0 0)
(0.2936038520506418 0 0)
(0.3029255090940834 0 0)
(0.3067008166412254 0 0)
(0.3030005805359444 0 0)
(0.3041611807610842 0 0)
(0.3031961356008389 0 0)
(0.3065246426486181 0 0)
(0.3161745908613265 0 0)
(0.3136463747980912 0 0)
(0.2991378863917993 0 0)
(0.2967507105631313 0 0)
(0.2959080035701791 0 0)
(0.2898777616324793 0 0)
(0.2891629056477253 0 0)
(0.303843830933208 0 0)
(0.3108977012232971 0 0)
(0.3247219717519699 0 0)
(0.3325338307275654 0 0)
(0.3318942413523089 0 0)
(0.3379472023645415 0 0)
(0.3517571087575769 0 0)
(0.3488494518027415 0 0)
(0.3456365264733217 0 0)
(0.3347017544410529 0 0)
(0.3260257288652245 0 0)
(0.3250461931117927 0 0)
(0.3234113143520935 0 0)
(0.309544909185882 0 0)
(0.3054116678436176 0 0)
(0.3024411612939552 0 0)
(0.314231659477019 0 0)
(0.3143927191184474 0 0)
(0.3228915632702344 0 0)
(0.3338579780942238 0 0)
(0.339359704824785 0 0)
(0.3444980274959679 0 0)
(0.3420791419178931 0 0)
(0.3416728706531228 0 0)
(0.3388958852822091 0 0)
(0.3442038038277978 0 0)
(0.3490443940419657 0 0)
(0.3443824314051142 0 0)
(0.3423907750745911 0 0)
(0.3498156630747389 0 0)
(0.3505304152606647 0 0)
(0.3556509822473844 0 0)
(0.358826393069545 0 0)
(0.3628626235864706 0 0)
(0.3748841794002457 0 0)
(0.381962916972486 0 0)
(0.3794377785702865 0 0)
(0.377303463245989 0 0)
(0.3764888070905744 0 0)
(0.3837054088389802 0 0)
(0.3733767488722139 0 0)
(0.3688680930580235 0 0)
(0.364494892547018 0 0)
(0.361736818279578 0 0)
(0.3645331905402168 0 0)
(0.382537313595209 0 0)
(0.3829386173704503 0 0)
(0.3953368801887469 0 0)
(0.4165508913068504 0 0)
(0.425900551186276 0 0)
(0.4249408472161942 0 0)
(0.4208089354868527 0 0)
(0.4274075032743749 0 0)
(0.4326753682535285 0 0)
(0.4322498750587381 0 0)
(0.4296421016092247 0 0)
(0.4306188413551081 0 0)
(0.4288579741818287 0 0)
(0.4312061041582347 0 0)
(0.4361306698290258 0 0)
(0.4412925530542636 0 0)
(0.4424782439840637 0 0)
(0.4476980909714905 0 0)
(0.4573480505327062 0 0)
(0.4526638335629752 0 0)
(0.4515391046268218 0 0)
(0.4587684709404981 0 0)
(0.4637750974332308 0 0)
(0.4804828020053952 0 0)
(0.4668007174493161 0 0)
(0.4739549046752615 0 0)
(0.4798979571239588 0 0)
(0.4880609181856453 0 0)
(0.4817097184006875 0 0)
(0.4879818693225755 0 0)
(0.4817986400640689 0 0)
(0.4870021309423301 0 0)
(0.4907989146680026 0 0)
(0.4957527319326185 0 0)
(0.5047571837052131 0 0)
(0.5146012362449033 0 0)
(0.5208071951307323 0 0)
(0.5194026683369474 0 0)
(0.5262457709199314 0 0)
(0.5236746336574243 0 0)
(0.5279914073332043 0 0)
(0.5374751727202567 0 0)
(0.5310434780874727 0 0)
(0.5372640634428054 0 0)
(0.525310328784799 0 0)
(0.5159793423728056 0 0)
(0.5161487617264156 0 0)
(0.5032112397949217 0 0)
(0.5056540497167737 0 0)
(0.5068243992338741 0 0)
(0.5248118757021786 0 0)
(0.5175978022524786 0 0)
(0.5253930162798497 0 0)
(0.5335195763066791 0 0)
(0.5398207767275953 0 0)
(0.5483796134519975 0 0)
(0.5555516347742642 0 0)
(0.5668235890452317 0 0)
(0.5628705917009516 0 0)
(0.5646724780507497 0 0)
(0.5597192530757706 0 0)
(0.560153931904951 0 0)
(0.5480704591870655 0 0)
(0.5478094100970468 0 0)
(0.533377971974944 0 0)
(0.5351119671597937 0 0)
(0.5314143244043932 0 0)
(0.5404712826537218 0 0)
(0.5475476943173928 0 0)
(0.5702006239206692 0 0)
(0.5834130163812604 0 0)
(0.5924159313279312 0 0)
(0.5903262703249142 0 0)
(0.6003220688278251 0 0)
(0.593223229115472 0 0)
(0.5963724738467985 0 0)
(0.5911792443726271 0 0)
(0.5930115724991265 0 0)
(0.5908755109678078 0 0)
(0.5907042242869088 0 0)
(0.593254857717736 0 0)
(0.5861794731715609 0 0)
(0.5969099046386139 0 0)
(0.5974737734321901 0 0)
(0.6201629630457524 0 0)
(0.6207419944256795 0 0)
(0.6320506232192095 0 0)
(0.6349813655680298 0 0)
(0.6406377674015309 0 0)
(0.6449919102591242 0 0)
(0.6368814137016979 0 0)
(0.6345209766216369 0 0)
(0.6403435994739158 0 0)
(0.6375388643662995 0 0)
(0.6415609742539756 0 0)
(0.6455096000501311 0 0)
(0.6690673939180999 0 0)
(0.6800018937370123 0 0)
(0.6844490656894953 0 0)
(0.7040046924877372 0 0)
(0.7060612854306506 0 0)
(0.7042031449770418 0 0)
(0.7083782781050455 0 0)
(0.7012288529090606 0 0)
(0.7000049567739561 0 0)
(0.6946373859581024 0 0)
(0.7068253346050787 0 0)
(0.7016474309864461 0 0)
(0.7032551007793648 0 0)
(0.7082302337380306 0 0)
(0.7101359733189019 0 0)
(0.7201115461203197 0 0)
(0.731704088651274 0 0)
(0.735393226326712 0 0)
(0.7383285506152214 0 0)
(0.7403777442605092 0 0)
(0.7433733484585455 0 0)
(0.7515944546630877 0 0)
(0.749843477303772 0 0)
(0.7581771391653417 0 0)
(0.76407824526436 0 0)
(0.7590168900701333 0 0)
(0.7660675783169949 0 0)
(0.7626747403833277 0 0)
(0.7533790779691617 0 0)
(0.7499775152918954 0 0)
(0.7509672118585671 0 0)
(0.7428443419302713 0 0)
(0.7545100195966458 0 0)
(0.7613775730148483 0 0)
(0.7768392762046107 0 0)
(0.7844561964298309 0 0)
(0.7922453684477121 0 0)
(0.7983427013556638 0 0)
(0.8107806399528505 0 0)
(0.8199711236650363 0 0)
(0.8221756399031276 0 0)
(0.8241725166976147 0 0)
(0.81262164808182 0 0)
(0.7990615623655322 0 0)
(0.791118104349065 0 0)
(0.7984840626488924 0 0)
(0.806109755852592 0 0)
(0.8130098765943466 0 0)
(0.8200065482943807 0 0)
(0.8282104645986743 0 0)
(0.8377087825931937 0 0)
(0.8546766277745086 0 0)
(0.863415052386879 0 0)
(0.8628277866885148 0 0)
(0.8635383564896791 0 0)
(0.8530504767148472 0 0)
(0.8519893674167373 0 0)
(0.8449606555208568 0 0)
(0.8495906386897196 0 0)
(0.8429867967964393 0 0)
(0.8471483940009559 0 0)
(0.8560883534316157 0 0)
(0.8616351093783243 0 0)
(0.8826502348176046 0 0)
(0.9013284629984082 0 0)
(0.9070141889343893 0 0)
(0.9110703897178632 0 0)
(0.913036486426826 0 0)
(0.9090567147660462 0 0)
(0.909711004938722 0 0)
(0.9003365613846552 0 0)
(0.8987349337435021 0 0)
(0.9028517938156635 0 0)
(0.898198070336459 0 0)
(0.9046165772534384 0 0)
(0.9000008352324933 0 0)
(0.9059942715026786 0 0)
(0.9064424278345437 0 0)
(0.9169351606860227 0 0)
(0.9163662201580081 0 0)
(0.9277762109537813 0 0)
(0.9380974936628264 0 0)
(0.9508870377585442 0 0)
(0.9542880020514444 0 0)
(0.9602242150365945 0 0)
(0.9593398712373021 0 0)
(0.957260076009957 0 0)
(0.9630569110876245 0 0)
(0.9534933685294539 0 0)
(0.9534472492719502 0 0)
(0.9616131365178648 0 0)
(0.9647681249298293 0 0)
(0.9750796464062917 0 0)
(0.9856780728463556 0 0)
(0.9883829743999727 0 0)
(0.9941992842764911 0 0)
(1.003997943865037 0 0)
(1.003396807633127 0 0)
(1.011306432670277 0 0)
(1.020074575550872 0 0)
(1.02197826857426 0 0)
(1.033483256339178 0 0)
(1.027945937194712 0 0)
(1.027820294497714 0 0)
(1.033437965374384 0 0)
(1.032281053443227 0 0)
(1.022099887037166 0 0)
(1.021667867079987 0 0)
(1.029850865093762 0 0)
(1.037042826512001 0 0)
(1.049067133884039 0 0)
(1.046376622460092 0 0)
(1.041197019480913 0 0)
(1.051586282286437 0 0)
(1.048462614943176 0 0)
(1.053373058456701 0 0)
(1.051531955322975 0 0)
(1.048747537579362 0 0)
(1.050785914443195 0 0)
(1.050283925866271 0 0)
(1.049850624797335 0 0)
(1.055280273216344 0 0)
(1.061678207298167 0 0)
(1.064481146591468 0 0)
(1.059169787056341 0 0)
(1.066706711137471 0 0)
(1.064518226925704 0 0)
(1.078250084692089 0 0)
(1.089249459069762 0 0)
(1.093458201797024 0 0)
(1.099274515259244 0 0)
(1.099851998830353 0 0)
(1.109685501372487 0 0)
(1.116237255556614 0 0)
(1.125932677353525 0 0)
(1.127549628830553 0 0)
(1.134048521827311 0 0)
(1.126157937375943 0 0)
(1.120544851785162 0 0)
(1.111149285895925 0 0)
(1.12342887498295 0 0)
(1.132728794246927 0 0)
(1.140690365947248 0 0)
(1.147669147072687 0 0)
(1.155739327200159 0 0)
(1.169064567380798 0 0)
(1.175327485523019 0 0)
(1.175589383530087 0 0)
(1.18759283588236 0 0)
(1.174460862226593 0 0)
(1.178621052922442 0 0)
(1.180873539894656 0 0)
(1.172110796078837 0 0)
(1.176908626604759 0 0)
(1.167358403170419 0 0)
(1.169696636900579 0 0)
(1.173111947343209 0 0)
(1.183572313356142 0 0)
(1.186609000315139 0 0)
(1.197094372986406 0 0)
(1.200741931553203 0 0)
(1.207341365021666 0 0)
(1.215130849009626 0 0)
(1.213770765331728 0 0)
(1.223084231497472 0 0)
(1.22748681144911 0 0)
(1.228351516009534 0 0)
(1.235971993152791 0 0)
(1.249595875320897 0 0)
(1.259896351953006 0 0)
(1.267104051622706 0 0)
(1.265990933423474 0 0)
(1.260049903992719 0 0)
(1.257834157560121 0 0)
(1.255017226031214 0 0)
(1.260834172385879 0 0)
(1.271695006790436 0 0)
(1.280256884912059 0 0)
(1.293903804917434 0 0)
(1.301510530765404 0 0)
(1.313874393515755 0 0)
(1.318548588706515 0 0)
(1.314797543443888 0 0)
(1.323417007071328 0 0)
(1.309700993623555 0 0)
(1.321412467453603 0 0)
(1.32324389285807 0 0)
(1.331586350149855 0 0)
(1.339054936228074 0 0)
(1.348918381337663 0 0)
(1.348910333782599 0 0)
(1.351636150243976 0 0)
(1.348121577927686 0 0)
(1.349719870152499 0 0)
(1.346689864095105 0 0)
(1.346992666873307 0 0)
(1.366140624688746 0 0)
(1.357843844442667 0 0)
(1.368037861164466 0 0)
(1.363541982047061 0 0)
(1.36691367702051 0 0)
(1.360627083609319 0 0)
(1.366282801029939 0 0)
(1.353395333231649 0 0)
(1.358250632026587 0 0)
(1.35884340993549 0 0)
(1.379306901303941 0 0)
(1.384186823597501 0 0)
(1.395463199469579 0 0)
(1.411928622425702 0 0)
(1.415290116106453 0 0)
(1.419237693339672 0 0)
(1.419102169311687 0 0)
(1.417018358283888 0 0)
(1.408928044458204 0 0)
(1.416711330580578 0 0)
(1.421541204812468 0 0)
(1.430779097191009 0 0)
(1.435742028109058 0 0)
(1.438056709070356 0 0)
(1.44094214205331 0 0)
(1.458148241402795 0 0)
(1.463286363220841 0 0)
(1.477684866201186 0 0)
(1.482334487836434 0 0)
(1.49168906351234 0 0)
(1.498274724596192 0 0)
(1.502424247138689 0 0)
(1.508607531936586 0 0)
(1.50729496436249 0 0)
(1.496424295650501 0 0)
(1.494975913079345 0 0)
(1.493306286881655 0 0)
(1.499341903282629 0 0)
(1.506723974212613 0 0)
(1.517225155850567 0 0)
(1.52586680313416 0 0)
(1.541506041033282 0 0)
(1.54479299598657 0 0)
(1.543412961044891 0 0)
(1.53796644997824 0 0)
(1.536888510492004 0 0)
(1.532803306479489 0 0)
(1.528085642712623 0 0)
(1.535229177699916 0 0)
(1.544265920177267 0 0)
(1.548505591683623 0 0)
(1.561452539845352 0 0)
(1.563108050780444 0 0)
(1.564446769882049 0 0)
(1.554277258912964 0 0)
(1.561680811904733 0 0)
(1.553794883724947 0 0)
(1.548367161066398 0 0)
(1.56032722352558 0 0)
(1.562663511388185 0 0)
(1.57721944916484 0 0)
(1.585580590367997 0 0)
(1.591598539416218 0 0)
(1.597184258929472 0 0)
(1.608378666864512 0 0)
(1.618737616987296 0 0)
(1.624886924509118 0 0)
(1.620552108091142 0 0)
(1.620831079053247 0 0)
(1.622373934516408 0 0)
(1.621918398304151 0 0)
(1.616811520326517 0 0)
(1.623657357751942 0 0)
(1.632524150805746 0 0)
(1.650526667345942 0 0)
(1.662314529849677 0 0)
(1.679126947813004 0 0)
(1.685538907812582 0 0)
(1.690217301445038 0 0)
(1.696077016218398 0 0)
(1.698267392060846 0 0)
(1.695961778014911 0 0)
(1.694262859345996 0 0)
(1.698012596045842 0 0)
(1.704944102998443 0 0)
(1.725320755887583 0 0)
(1.730180574251141 0 0)
(1.737577696616773 0 0)
(1.738499568219413 0 0)
(1.744409154281017 0 0)
(1.748402359460839 0 0)
(1.754831564763519 0 0)
(1.755444426979228 0 0)
(1.762003578718673 0 0)
(1.769592950054145 0 0)
(1.779524208777472 0 0)
(1.779575382747016 0 0)
(1.774040306795525 0 0)
(1.766594231954305 0 0)
(1.769698756931271 0 0)
(1.77575125186551 0 0)
(1.7844723261627 0 0)
(1.780378525767606 0 0)
(1.802535850571565 0 0)
(1.815560757797547 0 0)
(1.834100621701243 0 0)
(1.839545389877104 0 0)
(1.846184626821461 0 0)
(1.839103538420337 0 0)
(1.844024465339223 0 0)
(1.835461239797192 0 0)
(1.837774029564349 0 0)
(1.837285874448137 0 0)
(1.843172554737849 0 0)
(1.862642694653172 0 0)
(1.869611102209531 0 0)
(1.884350671853926 0 0)
(1.898257146837135 0 0)
(1.902930167128867 0 0)
(1.915759394600235 0 0)
(1.924691064104232 0 0)
(1.931255641620581 0 0)
(1.931603416261238 0 0)
(1.940556360094471 0 0)
(1.942591437217126 0 0)
(1.956366416226704 0 0)
(1.958440703947818 0 0)
(1.959469327600823 0 0)
(1.959989158789222 0 0)
(1.964574133086196 0 0)
(1.973380910203187 0 0)
(1.987701898105292 0 0)
(1.996840492973829 0 0)
(2.013536575876554 0 0)
(2.02309060049344 0 0)
(2.032949652526959 0 0)
(2.035799776938218 0 0)
(2.03843525831281 0 0)
(2.038287300946993 0 0)
(2.034972947645712 0 0)
(2.035084085193468 0 0)
(2.031227522037808 0 0)
(2.03957041148281 0 0)
(2.048233641195313 0 0)
(2.059527327182632 0 0)
(2.079749753319529 0 0)
(2.093229043917482 0 0)
(2.108656734798519 0 0)
(2.113234558022748 0 0)
(2.115653809836089 0 0)
(2.115903765748341 0 0)
(2.115913742035224 0 0)
(2.127798315777159 0 0)
(2.126670524512493 0 0)
(2.131804197768286 0 0)
(2.142228621708964 0 0)
(2.146017960594995 0 0)
(2.154314245589549 0 0)
(2.158928120735238 0 0)
(2.159741746514737 0 0)
(2.16739607605455 0 0)
(2.179202241106745 0 0)
(2.193509555834956 0 0)
(2.197915911576243 0 0)
(2.200416904143168 0 0)
(2.205037513525813 0 0)
(2.220968095095503 0 0)
(2.228214956949329 0 0)
(2.241575775668575 0 0)
(2.234790555803769 0 0)
(2.232286911468322 0 0)
(2.234780232479119 0 0)
(2.237393378945059 0 0)
(2.249729561102066 0 0)
(2.26144228994012 0 0)
(2.270122703523832 0 0)
(2.285501242321604 0 0)
(2.298008691273277 0 0)
(2.308345570239036 0 0)
(2.314383225380849 0 0)
(2.312096250195617 0 0)
(2.310148431310165 0 0)
(2.316846912122432 0 0)
(2.312892422935925 0 0)
(2.311967036074679 0 0)
(2.318212498772888 0 0)
(2.33485319937876 0 0)
(2.351763345323564 0 0)
(2.370255052679906 0 0)
(2.371657222503002 0 0)
(2.384974048024747 0 0)
(2.381797074526717 0 0)
(2.39071550293546 0 0)
(2.39218465995371 0 0)
(2.392265763426312 0 0)
(2.395467595840675 0 0)
(2.400250515904616 0 0)
(2.404684706846964 0 0)
(2.411789943004921 0 0)
(2.419829280509568 0 0)
(2.434724719098907 0 0)
(2.437531503071816 0 0)
(2.458070120820112 0 0)
(2.461506178090861 0 0)
(2.468857426083102 0 0)
(2.479577511266164 0 0)
(2.477429297532951 0 0)
(2.475929264343521 0 0)
(2.483403253739256 0 0)
(2.48144464944495 0 0)
(2.485567807152269 0 0)
(2.495072084254196 0 0)
(2.503817314985076 0 0)
(2.511741406252999 0 0)
(2.528026306222031 0 0)
(2.526994295792381 0 0)
(2.538944386765354 0 0)
(2.533179247506207 0 0)
(2.539099123874552 0 0)
(2.541850828352138 0 0)
(2.55111822368852 0 0)
(2.55694403445225 0 0)
(2.565268206847342 0 0)
(2.573312093295019 0 0)
(2.581451865604017 0 0)
(2.597723805376966 0 0)
(2.601617238233831 0 0)
(2.604398297343467 0 0)
(2.601572297574885 0 0)
(2.602752489656822 0 0)
(2.610759756325524 0 0)
(2.619026592308161 0 0)
(2.626677393687647 0 0)
(2.636985156955618 0 0)
(2.642046799850418 0 0)
(2.661827150745417 0 0)
(2.669048095947412 0 0)
(2.673082404714131 0 0)
(2.669134184099913 0 0)
(2.667159742507142 0 0)
(2.675300872671885 0 0)
(2.687310845587449 0 0)
(2.692308186453097 0 0)
(2.706584873116165 0 0)
(2.708917079494948 0 0)
(2.722654062228488 0 0)
(2.733759586838016 0 0)
(2.739486603405595 0 0)
(2.737299908202888 0 0)
(2.741223411273649 0 0)
(2.739546080165609 0 0)
(2.751064032505242 0 0)
(2.762708699879085 0 0)
(2.763655707105267 0 0)
(2.772927891670099 0 0)
(2.776869013659257 0 0)
(2.793376284703806 0 0)
(2.802110982403404 0 0)
(2.805687361086891 0 0)
(2.81990807940012 0 0)
(2.822657180462175 0 0)
(2.837587081390581 0 0)
(2.846975199794602 0 0)
(2.850796739806406 0 0)
(2.851756236698845 0 0)
(2.85459132853566 0 0)
(2.859389168185671 0 0)
(2.866899794541362 0 0)
(2.873348038981062 0 0)
(2.886879989793772 0 0)
(2.892061818371003 0 0)
(2.908247564696306 0 0)
(2.920094267077751 0 0)
(2.932495363831957 0 0)
(2.940570894877871 0 0)
(2.944809919139812 0 0)
(2.949392232753706 0 0)
(2.953941932434141 0 0)
(2.954910812972322 0 0)
(2.95486824220194 0 0)
(2.957924254975631 0 0)
(2.961012023917135 0 0)
(2.980429062627164 0 0)
(2.992743538499714 0 0)
(3.00497933890697 0 0)
(3.021412065997665 0 0)
(3.033696850107973 0 0)
(3.042509438496754 0 0)
(3.055943107512292 0 0)
(3.054937154714394 0 0)
(3.054882844978877 0 0)
(3.053592218786009 0 0)
(3.048409823912378 0 0)
(3.050109174861801 0 0)
(3.058964539601903 0 0)
(3.067545560359636 0 0)
(3.079738803988124 0 0)
(3.091496710296795 0 0)
(3.102041846031384 0 0)
(3.112372456838239 0 0)
(3.114732933489277 0 0)
(3.11642960229877 0 0)
(3.114932812922524 0 0)
(3.120207874839248 0 0)
(3.130950598909462 0 0)
(3.144807309127008 0 0)
(3.156897986030669 0 0)
(3.166090208320477 0 0)
(3.178856062559399 0 0)
(3.185432155624845 0 0)
(3.186314057822268 0 0)
(3.194389206301391 0 0)
(3.196901655507163 0 0)
(3.204868460797355 0 0)
(3.222227239008284 0 0)
(3.236033400326901 0 0)
(3.254161308927116 0 0)
(3.270144583979532 0 0)
(3.276371801202018 0 0)
(3.288728824909317 0 0)
(3.297895493424269 0 0)
(3.303412070019247 0 0)
(3.305199335595883 0 0)
(3.312516491286461 0 0)
(3.314134713475176 0 0)
(3.325776537645943 0 0)
(3.329431712244541 0 0)
(3.342504968179373 0 0)
(3.350020394909609 0 0)
(3.363477047249057 0 0)
(3.374680769210898 0 0)
(3.383726025961677 0 0)
(3.393753196235288 0 0)
(3.400137264711947 0 0)
(3.40454739788107 0 0)
(3.408337775072995 0 0)
(3.419238643621744 0 0)
(3.416526760367122 0 0)
(3.427072751822172 0 0)
(3.433154335475143 0 0)
(3.442599136399759 0 0)
(3.458192310250478 0 0)
(3.464893876356175 0 0)
(3.470611421232131 0 0)
(3.476941852135413 0 0)
(3.486089778306101 0 0)
(3.485215181602251 0 0)
(3.490922505004232 0 0)
(3.492018417574719 0 0)
(3.484756246458637 0 0)
(3.527891640404224 0 0)
)
;

boundaryField
{
    inlet
    {
        type            calculated;
        value           uniform (0.212375911963547 0 0);
    }
    outlet
    {
        type            calculated;
        value           uniform (3.527891640404224 0 0);
    }
    frontAndBack
    {
        type            empty;
    }
}


// ************************************************************************* //
