/*--------------------------------*- C++ -*----------------------------------*\
| =========                 |                                                 |
| \\      /  F ield         | OpenFOAM: The Open Source CFD Toolbox           |
|  \\    /   O peration     | Version:  v2012                                 |
|   \\  /    A nd           | Website:  www.openfoam.com                      |
|    \\/     M anipulation  |                                                 |
\*---------------------------------------------------------------------------*/
FoamFile
{
    version     2.0;
    format      ascii;
    class       volScalarField;
    location    "0.01";
    object      p;
}
// * * * * * * * * * * * * * * * * * * * * * * * * * * * * * * * * * * * * * //

dimensions      [1 -1 -2 0 0 0 0];


internalField   nonuniform List<scalar> 
1000
(
101310.9456745006
101313.5881390753
101306.8423685125
101301.5359128789
101295.6921458166
101290.4518174935
101285.9445870717
101282.089763209
101278.7815189842
101276.5532464997
101275.9293721909
101275.9500381973
101276.324693752
101277.3492924678
101279.3311727283
101282.3355637554
101286.2514691603
101290.904491247
101296.1480323266
101301.8791747517
101308.0136912514
101314.4612103571
101321.1152078387
101327.8535683225
101334.5434677644
101341.050233833
101347.2547096445
101353.0820656981
101358.5252668208
101363.6047538598
101368.1701620346
101371.5664848094
101373.0193999313
101373.1815147775
101373.1232679187
101372.8533702882
101372.114298559
101370.6593078706
101368.2832835479
101364.891786255
101360.5260175565
101355.3392759916
101349.5346849268
101343.3027791111
101336.7918715348
101330.114807805
101323.3716481006
101316.6661862121
101310.1051126837
101303.7777523021
101297.7270889021
101291.9502873924
101286.4992912036
101281.7463262753
101278.5836152715
101277.5064850914
101277.4334035354
101277.4778356261
101277.7344112614
101278.3761157149
101279.6246448232
101281.6732829493
101284.6583517337
101288.6226986928
101293.5036293554
101299.1479755022
101305.3511589043
101311.9044136331
101318.6294282009
101325.3888670515
101332.0802384181
101338.6315736218
101345.0065603827
101351.2035209554
101357.217196076
101362.9205050394
101367.8246894349
101370.9814892611
101372.0178516651
101372.0928703571
101372.037750378
101371.8323851903
101371.2871143038
101370.2261432962
101368.4640485945
101365.8493702657
101362.291552866
101357.7847372908
101352.4138225433
101346.340018237
101339.7709157073
101332.9237652383
101325.9903571509
101319.1118588976
101312.3698493553
101305.792763967
101299.3751725818
101293.1287875146
101287.2257360884
101282.2672479367
101279.2676809801
101278.3949483975
101278.3506238009
101278.387425162
101278.5948137671
101279.0996899288
101280.0777824243
101281.6948628414
101284.0965596061
101287.3827314528
101291.5877302417
101296.6672658478
101302.4992032362
101308.9020530781
101315.6666435686
101322.5907330105
101329.509032525
101336.3153952005
101342.9706512177
101349.482303676
101355.8378162914
101361.8612181101
101366.9726080712
101370.1760074132
101371.2006172508
101371.278799247
101371.2364069387
101371.0785728846
101370.6521198129
101369.8132896058
101368.4020303485
101366.2716508272
101363.3060450112
101359.4404937917
101354.676810666
101349.0896054771
101342.8214042789
101336.0641899867
101329.0271843412
101321.8985659334
101314.8151788431
101307.8516202427
101301.0361155189
101294.4132210651
101288.2029274469
101283.0635855613
101280.0137483876
101279.1356621702
101279.0860431459
101279.1134473455
101279.2775098023
101279.6849874611
101280.4833773163
101281.8170376532
101283.8228742375
101286.6123381245
101290.2553847703
101294.7652025186
101300.0894070525
101306.1125580606
101312.6705344224
101319.5739421464
101326.6380307978
101333.7145695108
101340.7130173412
101347.5915847569
101354.2975182742
101360.6261417226
101365.9822471834
101369.3675347409
101370.4939020768
101370.5941670349
101370.5635957014
101370.4453239214
101370.1087915441
101369.43104372
101368.2706114361
101366.4914183451
101363.9739414609
101360.6310443096
101356.4218698958
101351.362440163
101345.5306488
101339.0613812619
101332.1280951257
101324.9137100983
101317.580523001
101310.2502627747
101303.0074106367
101295.9537108338
101289.3650342322
101283.946844769
101280.7313342564
101279.7788959221
101279.7136594987
101279.7342052975
101279.8649801314
101280.1970949261
101280.858748749
101281.9783122117
101283.68297142
101286.084822668
101289.2683893963
101293.2772845536
101298.1040096728
101303.6865379585
101309.9127436866
101316.6325325424
101323.6787146642
101330.8949066831
101338.159248464
101345.3842263391
101352.4691872967
101359.1710932499
101364.8737839588
101368.5578870356
101369.8616430375
101370.0007149409
101369.9791000964
101369.889862712
101369.6213332671
101369.0669007068
101368.1003645916
101366.5960200403
101364.4364415267
101361.5251123156
101357.7980188039
101353.2341540932
101347.8635086747
101341.7686872785
101335.0761279236
101327.9377543932
101320.5088475651
101312.9294870137
101305.3223823384
101297.8387034721
101290.806903618
101284.9836194016
101281.4603682266
101280.3604936378
101280.2693129778
101280.2826762053
101280.3851420535
101280.6559960711
101281.209453449
101282.1602286004
101283.6253305914
101285.7132099592
101288.5141619066
101292.0890509402
101296.4595597629
101301.6026159787
101307.4497766395
101313.892287246
101320.7941960003
101328.0132775226
101335.4209338474
101342.9044955528
101350.3296857309
101357.425694127
101363.5621642819
101367.6780042651
101369.2612322308
101369.4667285241
101369.4530750595
101369.3884650432
101369.1752671684
101368.7198643323
101367.9083484811
101366.6253174547
101364.7585006004
101362.2086259316
101358.8988297006
101354.7842274359
101349.8605109534
101344.168365693
101337.7904813129
101330.8413679766
101323.4530976093
101315.7613594755
101307.9032819705
101300.0581597658
101292.58577473
101286.2719352872
101282.2832926444
101280.9156912682
101280.7713619473
101280.779310226
101280.8583260597
101281.0780489108
101281.5411941216
101282.3520852342
101283.6192644906
101285.4465146667
101287.9252213605
101291.1252712158
101295.0868079352
101299.8143606216
101305.2736792714
101311.3924666152
101318.0679279897
101325.1813423892
101332.6126418911
101340.2422260492
101347.9211540121
101355.3718494172
101361.9758485604
101366.6438577102
101368.6466147701
101368.9736122503
101368.9684913343
101368.9253022318
101368.7585667477
101368.3864178865
101367.7042180966
101366.6053394609
101364.9833139297
101362.7395453548
101359.7907350744
101356.0770950813
101351.5704027476
101346.2793779447
101340.2500674048
101333.5613082075
101326.3167565451
101318.6358766253
101310.6534302773
101302.5553011912
101294.7019212861
101287.8655366582
101283.270922128
101281.4871783459
101281.2426030989
101281.2440360659
101281.3018679818
101281.4764701294
101281.8614017531
101282.5526448078
101283.6514222903
101285.2566421765
101287.4587573699
101290.3323301105
101293.9292312359
101298.2731355518
101303.3553195678
101309.1331294649
101315.5339097134
101322.4644351741
101329.8204197753
101337.4871555183
101345.3163559854
101353.0433154198
101360.0917740875
101365.3866873374
101367.9622482112
101368.4991500148
101368.5121873607
101368.4854979524
101368.3584857173
101368.057824951
101367.486730622
101366.5457238673
101365.1336350373
101363.1538757409
101360.5202790559
101357.1639932262
101353.040497918
101348.1349406838
101342.4644013574
101336.0771047002
101329.0489002644
101321.4781799137
101313.4870907681
101305.2522830243
101297.1102528021
101289.7783955456
101284.4886909083
101282.1244356774
101281.6980388572
101281.6902538718
101281.7282368485
101281.8626479026
101282.1779206895
101282.7635658936
101283.7150693527
101285.1268570281
101287.0874580457
101289.6735478917
101292.9444137412
101296.9369240283
101301.6610248979
101307.0972327232
101313.1982898999
101319.894634717
101327.0998958499
101334.7108141207
101342.5899227429
101350.4986420736
101357.9255206404
101363.8602816758
101367.1439663875
101368.0200160151
101368.0746370025
101368.0593219549
101367.9663889226
101367.728451941
101367.2548865853
101366.4522759594
101365.2239497249
101363.4757412796
101361.1205320435
101358.0840315076
101354.3108625829
101349.7693599091
101344.4544739822
101338.3893378679
101331.6251020722
101324.238704692
101316.3347767574
101308.0712114419
101299.7461469458
101291.9940492746
101285.9885764505
101282.8871203878
101282.1548674856
101282.1195643061
101282.1441557508
101282.2425606335
101282.4962377686
101282.9876931309
101283.8079563351
101285.0476999922
101286.7934936315
101289.1229381623
101292.1000754677
101295.77080547
101300.1585634939
101305.2616007064
101311.0531506634
101317.4839085329
101324.4847791098
101331.9667687011
101339.8084550874
101347.8033652826
101355.5159088514
101362.0443403538
101366.1280775799
101367.5045350746
101367.6492197973
101367.6421469781
101367.5786195557
101367.3958340957
101367.0087099619
101366.3286916574
101365.2631961374
101363.7205745939
101361.613929246
101358.8659450957
101355.413938757
101351.2140630066
101346.2446452797
101340.5091470648
101334.0377994347
101326.8872112179
101319.1430708659
101310.9411549086
101302.5362382648
101294.4671442645
101287.7931779759
101283.8434784227
101282.6427793487
101282.5385194863
101282.5538957309
101282.6223345143
101282.8214714211
101283.228188929
101283.9297615383
101285.0138468906
101286.5654569819
101288.6625727027
101291.3723794898
101294.7471755046
101298.8201771535
101303.6027683312
101309.0841595266
101315.2322111316
101321.9938588871
101329.2943432846
101337.0288561975
101345.0233666701
101352.9185747449
101359.9458504414
101364.8527687312
101366.9037165009
101367.2313040889
101367.2360507804
101367.1932808027
101367.0567864976
101366.7444182558
101366.1731422321
101365.2535908312
101363.8964201522
101362.0152889643
101359.5309351436
101356.3753146456
101352.4956555357
101347.8582292032
101342.4515162358
101336.2882605148
101329.4068376855
101321.8753100728
101313.8075967189
101305.4148032855
101297.1389599316
101289.8929403721
101285.0539298797
101283.2056987137
101282.95573943
101282.9591841403
101283.004631632
101283.1548507542
101283.4852530956
101284.0793402481
101285.0222078914
101286.3972887428
101288.282620047
101290.7473047487
101293.8478831052
101297.6249054722
101302.1003299603
101307.2760405365
101313.1333127795
101319.6329566232
101326.7148447926
101334.2910003856
101342.2158788748
101350.1982272373
101357.6075141383
101363.288280735
101366.1538164283
101366.8007601374
101366.8278176963
101366.8051250786
101366.7077902718
101366.4626475498
101365.9896923632
101365.2026667227
101364.014050924
101362.3381598002
101360.0948430486
101357.2129659016
101353.6335851788
101349.3135953492
101344.2296825123
101338.3809682984
101331.7903279487
101324.5084587431
101316.6280747964
101308.3228583365
101299.9495556767
101292.2627446766
101286.5682457427
101283.9008876298
101283.3720849875
101283.3568984247
101283.3805629161
101283.4934670843
101283.760915369
101284.2643435154
101285.084752513
101286.3018467217
101287.9908964176
101290.2207702488
101293.0514227585
101296.5312749302
101300.694981312
101305.5610212903
101311.1283916096
101317.373582299
101324.2482940329
101331.675139519
101339.5235501571
101347.5465513836
101355.2385382049
101361.5365417175
101365.2424947033
101366.2680209458
101366.3187476746
101366.2200564349
101365.9844892161
101365.7232551873
101365.3384634946
101364.7574512625
101363.8957455374
101362.658638805
101360.9418501092
101358.6383342993
101355.6449994681
101351.8691045353
101347.2374009742
101341.7063322532
101335.2666925528
101327.947851996
101319.8159183459
101311.0236375864
101301.8916314496
101293.031042815
101285.7627819587
101281.4981611196
101279.4403418715
101277.8569269532
101276.7415976167
101275.8461783146
101275.0667078516
101274.4434421172
101274.1373889532
101274.2259867624
101274.7601904854
101275.9591262587
101277.9762960064
101280.8803031754
101284.7052709219
101289.4878461091
101295.2547656392
101301.9853604841
101309.6082263224
101318.0395599829
101327.1429111997
101336.644104163
101346.0834121831
101354.4664720065
101360.4306796078
101364.1586364938
101367.2696244427
101369.6263998856
101371.5373464815
101373.2221723595
101374.7283059571
101375.9870832265
101376.8986468986
101377.194655581
101376.7422455648
101375.5578758919
101373.3891395768
101370.056946052
101365.4686013012
101359.6149430822
101352.5446433012
101344.3416104055
101335.0988845482
101325.0277664735
101314.5560314154
101304.3230249175
101295.5261955811
101289.2563283738
101284.9721865441
101281.5491246075
101279.1569467431
101277.488829984
101276.2925867623
101275.4255999269
101274.8285335847
101274.648299496
101274.9855863351
101275.8322862485
101277.3443931898
101279.6507324415
101282.8808974051
101287.1272199662
101292.4192049128
101298.7334119592
101306.0072051861
101314.1446822254
101322.9975056535
101332.2471469304
101341.3925011252
101349.8708849872
101356.7748140375
101361.4085689744
101364.9144066299
101367.7935401681
101370.0318044745
101371.8084733859
101373.2578733821
101374.4303314111
101375.3148230456
101375.7166420133
101375.5039460343
101374.6578848821
101372.9632940357
101370.1917124008
101366.1933702358
101360.9150519903
101354.3595411151
101346.571943396
101337.662977769
101327.8679752724
101317.6225174722
101307.4665831249
101298.1595460396
101290.8420070741
101285.7997477104
101281.8659480922
101278.9088945515
101276.8622646255
101275.494653737
101274.6281674442
101274.1387578822
101274.0462104915
101274.3809134016
101275.1511622086
101276.4727098695
101278.4549317515
101281.2371675038
101284.9663133267
101289.7489859865
101295.6100339634
101302.4925373147
101310.2871119308
101318.8448572487
101327.8965319215
101336.9712440706
101345.5486941464
101353.0429189071
101358.6934928643
101362.5015213689
101365.7731330175
101368.348063846
101370.3376985207
101371.8814011509
101373.0642736425
101373.9100865878
101374.3348651282
101374.2571562868
101373.6339970528
101372.2977946854
101370.0167102666
101366.6030724684
101361.9280100956
101355.9257393694
101348.6198840892
101340.1422819898
101330.7009461024
101320.6483344294
101310.4931784214
101300.8342130112
101292.6636415416
101286.691996686
101282.3490649909
101278.8461412392
101276.3656667224
101274.7103452946
101273.693303355
101273.182886074
101273.1266434623
101273.4851535486
101274.2430693974
101275.4617907147
101277.2282846839
101279.6801363839
101282.9779458847
101287.2553324158
101292.5860886387
101298.9778201471
101306.3626799792
101314.5877149155
101323.4113038206
101332.4290802601
101341.1321586816
101349.0498208636
101355.48935653
101359.9870687983
101363.4687827505
101366.3462440894
101368.562125678
101370.2523901855
101371.5268318716
101372.4155566785
101372.8874989283
101372.9219358253
101372.4905741345
101371.446175131
101369.5517474461
101366.6130593071
101362.4863712911
101357.0848639745
101350.3834321997
101342.4362989769
101333.391377584
101323.5579598889
101313.4387823947
101303.5603141648
101294.6876904789
101287.7906926859
101282.8402850693
101278.8727482091
101275.9112788839
101273.9049513607
101272.6651344915
101272.0353046939
101271.944749277
101272.3153312589
101273.0673170018
101274.241953275
101275.8868050952
101278.1043815517
101281.041468705
101284.8574808827
101289.6804925923
101295.5622244536
101302.4627058423
101310.2657085799
101318.7911020519
101327.713087317
101336.5253473557
101344.7528165739
101351.8482731689
101357.1877085613
101360.9501538477
101364.1477659809
101366.6263280213
101368.4902445147
101369.8711665982
101370.8203898496
101371.3466174507
101371.4684055879
101371.1895817917
101370.3909204711
101368.840694823
101366.3557179188
101362.7818597291
101357.9830698938
101351.8641350323
101344.4283188553
101335.8198229348
101326.3039423991
101316.2957696456
101306.2851016978
101296.8904509072
101289.1090505563
101283.3852522383
101278.9686124973
101275.5129905745
101273.1244627205
101271.6146811677
101270.7647145384
101270.5510370437
101270.904897294
101271.6308853854
101272.7793784503
101274.3515023417
101276.4120658853
101279.0878923084
101282.5369876741
101286.897085951
101292.2506370378
101298.6206352126
101305.9584449165
101314.1179712576
101322.8339839971
101331.6668074354
101340.1308291764
101347.7792051277
101353.9254906556
101358.2829668265
101361.7623964925
101364.5368832375
101366.5949688965
101368.0967306282
101369.1335499171
101369.718339101
101369.9027048196
101369.7513388265
101369.1729123567
101367.9485191873
101365.8890258891
101362.8187367423
101358.574635239
101353.0384879053
101346.1819412333
101338.0939919654
101328.9531938219
101319.098398041
101309.0270044232
101299.2723172637
101290.7055007859
101284.1175948584
101279.2050593848
101275.2699916849
101272.4347294068
101270.571889477
101269.4492733698
101269.0692154963
101269.3561350778
101270.0409376459
101271.1589370671
101272.6851232897
101274.6562484455
101277.1529034825
101280.3007648059
101284.2454001062
101289.1161749131
101294.9826019001
101301.8246000542
101309.5353341887
101317.9387894633
101326.6949314513
101335.3003056734
101343.3278076082
101350.1911126349
101355.3305130542
101359.1398058679
101362.3044796833
101364.6413493014
101366.3067995888
101367.4363627923
101368.053500891
101368.2383894656
101368.1301956956
101367.6834566154
101366.7208991749
101365.0629691797
101362.5140405287
101358.8807310176
101354.0016049904
101347.7775215865
101340.210907846
101331.4389704462
101321.7737472672
101311.6989920482
101301.6827807331
101292.4627885275
101285.021227527
101279.4530760905
101275.082156272
101271.7736361072
101269.5364648125
101268.1436583768
101267.5391021802
101267.6388160462
101268.2349397346
101269.3044762708
101270.7979276282
101272.7218269955
101275.1158228209
101278.0699465314
101281.7086010498
101286.1568045115
101291.5047916825
101297.7973678232
101305.0174226648
101313.0471349656
101321.6148101982
101330.2589134893
101338.5405129463
101345.9929051056
101351.9117224195
101356.206190231
101359.734074256
101362.4270082944
101364.3427604841
101365.6558015118
101366.3869972107
101366.5853036477
101366.4419039051
101366.0074641515
101365.1793783111
101363.8188028238
101361.7362424
101358.7192646009
101354.5577290955
101349.0695055831
101342.1558890498
101333.885964234
101324.4966849813
101314.4264432603
101304.1447899988
101294.3494599274
101286.0832708
101279.7106790631
101274.858244689
101271.1015580331
101268.5029722545
101266.874836659
101266.0493974796
101265.9297683709
101266.3904920124
101267.3125590564
101268.6912890311
101270.5306123074
101272.8628776027
101275.7359076235
101279.2098818272
101283.3641480398
101288.2850696813
101294.0511617209
101300.6698281813
101308.2606847089
101316.0337148432
101327.3999103606
)
;

boundaryField
{
    inlet
    {
        type            uniformFixedValue;
        uniformValue    sine;
        uniformValueCoeffs
        {
            frequency       constant 3000;
            scale           constant 50;
            level           constant 101325;
        }
        value           uniform 101323.6440830864;
    }
    outlet
    {
        type            waveTransmissive;
        gamma           1.4;
        fieldInf        101325;
        lInf            2.25;
        value           uniform 101329.4020799602;
    }
    frontAndBack
    {
        type            empty;
    }
}


// ************************************************************************* //
