/*--------------------------------*- C++ -*----------------------------------*\
| =========                 |                                                 |
| \\      /  F ield         | OpenFOAM: The Open Source CFD Toolbox           |
|  \\    /   O peration     | Version:  v2012                                 |
|   \\  /    A nd           | Website:  www.openfoam.com                      |
|    \\/     M anipulation  |                                                 |
\*---------------------------------------------------------------------------*/
FoamFile
{
    version     2.0;
    format      ascii;
    class       volScalarField;
    location    "0.01";
    object      pMean;
}
// * * * * * * * * * * * * * * * * * * * * * * * * * * * * * * * * * * * * * //

dimensions      [1 -1 -2 0 0 0 0];


internalField   nonuniform List<scalar> 
1000
(
101325.0341884301
101325.0037026286
101325.0178185355
101325.0311925654
101325.0498116426
101325.0722942993
101325.0969782553
101325.126710341
101325.1583480787
101325.1928244446
101325.2282077513
101325.2635435639
101325.2987613706
101325.3334749402
101325.3671941889
101325.3991879515
101325.4287418758
101325.4553038397
101325.4782924019
101325.4974355094
101325.5122837194
101325.5226707782
101325.5283108612
101325.5291811954
101325.5251732872
101325.5164380198
101325.5030719009
101325.4853913994
101325.4635971617
101325.4380166146
101325.408861563
101325.3767074046
101325.3426182536
101325.3079778158
101325.273304877
101325.2387625097
101325.2045447223
101325.1710793259
101325.1389227261
101325.1087802068
101325.081353721
101325.0573086171
101325.0371648499
101325.0213180502
101325.0100283999
101325.0034737649
101325.0017394263
101325.004853967
101325.0127498636
101325.0253013301
101325.0423194675
101325.0636215022
101325.0890050519
101325.1181667552
101325.1503564467
101325.1842142799
101325.2184609456
101325.2527022395
101325.2868234924
101325.3206721367
101325.3538489468
101325.3859218411
101325.4162177595
101325.4441101646
101325.4688488153
101325.4898871844
101325.5066708388
101325.5189266554
101325.5263815624
101325.5290284753
101325.5267987328
101325.5198291639
101325.5081603323
101325.4919903835
101325.4713757666
101325.4465379856
101325.4177292878
101325.3858621454
101325.352328811
101325.3184643812
101325.2845726954
101325.2507876258
101325.2172435208
101325.1842513251
101325.1522173476
101325.1217126565
101325.0933535848
101325.0678398568
101325.0458111272
101325.0278579465
101325.0144072448
101325.0057688969
101325.0020694109
101325.0033512829
101325.0095305106
101325.0205243026
101325.0361917467
101325.0564534105
101325.0811343522
101325.1098635482
101325.1416439627
101325.1749345835
101325.2085182122
101325.2421071597
101325.2755834604
101325.3088620064
101325.3415954654
101325.3734798641
101325.4039295522
101325.4324331662
101325.4582632602
101325.4808507433
101325.4995230898
101325.513874374
101325.5234711633
101325.528200656
101325.5279095514
101325.5227201832
101325.5126351309
101325.4978445873
101325.478364747
101325.4544237889
101325.426306879
101325.3950354073
101325.362085112
101325.3288109491
101325.2954963498
101325.2622798869
101325.2292356906
101325.1966399379
101325.16479493
101325.1341954633
101325.1053509927
101325.0789227936
101325.0555154687
101325.035796661
101325.0202742914
101325.0094239156
101325.0034932222
101325.0026725354
101325.0069430291
101325.0162947706
101325.0305917481
101325.0497744295
101325.0736154687
101325.1017053408
101325.1329233371
101325.1656847143
101325.1987328953
101325.2317985217
101325.264765102
101325.2975810759
101325.3299449882
101325.3616225507
101325.3920982267
101325.4209480961
101325.4474937316
101325.4712127054
101325.4913999226
101325.5076011597
101325.5192648232
101325.5261562172
101325.5279909736
101325.5247852877
101325.5164667895
101325.5031928237
101325.4849665187
101325.4620457364
101325.4347400742
101325.4041318757
101325.371727212
101325.3389550318
101325.3061255669
101325.2733845062
101325.2407652246
101325.2085149291
101325.176868178
101325.1462612598
101325.1171226534
101325.0900622913
101325.0656305266
101325.044504292
101325.0272122833
101325.014331574
101325.006210197
101325.0031882911
101325.005360773
101325.0128344229
101325.0255307372
101325.0434251092
101325.0662692155
101325.093608707
101325.124239821
101325.1565113461
101325.1890955398
101325.2217143127
101325.2542410564
101325.2866610328
101325.3186953717
101325.3501681678
101325.3806161433
101325.4096818983
101325.4367430276
101325.4613205203
101325.482726455
101325.5004867785
101325.5139918619
101325.5229221483
101325.5268745021
101325.5257589649
101325.5193877086
101325.5078511495
101325.4910998726
101325.4693852847
101325.4430260516
101325.4131285268
101325.3812487009
101325.3489142087
101325.3165065414
101325.2841784401
101325.2519351334
101325.2200012614
101325.1885543377
101325.1579923637
101325.1286706603
101325.101153964
101325.0759359017
101325.0536758531
101325.0349006254
101325.0202328617
101325.0100905801
101325.0049266489
101325.0049490993
101325.0103918391
101325.0212661897
101325.0376248872
101325.0592406218
101325.0856651294
101325.1156450495
101325.147446303
101325.1796231877
101325.2118446314
101325.2439859617
101325.2760498679
101325.3077858148
101325.3390568579
101325.3694438485
101325.3986443492
101325.426084878
101325.451333654
101325.4737290676
101325.4928024035
101325.507920013
101325.5187059807
101325.5246743561
101325.5256330553
101325.5212932384
101325.5116500572
101325.4965830609
101325.4762939381
101325.451065943
101325.4219869533
101325.390646482
101325.3587163535
101325.3266886372
101325.2947336181
101325.2628329593
101325.2311926433
101325.1999495822
101325.1694622982
101325.1400335142
101325.1121808951
101325.086348506
101325.0631663141
101325.0431442487
101325.026922748
101325.014960707
101325.0077896021
101325.0057096052
101325.0090692043
101325.0179789783
101325.032588205
101325.0527328643
101325.078019784
101325.1072126093
101325.1385152316
101325.17031534
101325.2021772113
101325.2339706372
101325.2657084238
101325.2971700619
101325.3282427751
101325.3585517866
101325.3878327693
101325.4155613517
101325.4413440157
101325.4645537274
101325.48473688
101325.5012564939
101325.5137037166
101325.521538467
101325.5244898228
101325.5221823193
101325.5145165606
101325.501293568
101325.4826348719
101325.4587572543
101325.4306606129
101325.3999296369
101325.3683918681
101325.3367150753
101325.3051031574
101325.2735215695
101325.2421581974
101325.2111160957
101325.1807241189
101325.1512365428
101325.1231347719
101325.0968137362
101325.07287488
101325.0517998503
101325.0342323524
101325.0206492261
101325.0116329436
101325.0075537978
101325.0088506742
101325.0157288648
101325.0284327379
101325.0468866587
101325.0707966421
101325.0990184909
101325.1297523285
101325.1611820314
101325.1927092608
101325.2241750604
101325.2556075221
101325.2868056448
101325.3176837183
101325.3478982199
101325.3772214543
101325.405168277
101325.4313822914
101325.4552707988
101325.4763996052
101325.4941407483
101325.5080683612
101325.5176113249
101325.5224390126
101325.5221107096
101325.5164426381
101325.5051611962
101325.4882988216
101325.4659797715
101325.4390640868
101325.4090604381
101325.3779303428
101325.3465880544
101325.3152973053
101325.2840231328
101325.2529238075
101325.2220890998
101325.191804464
101325.162302338
101325.1340125741
101325.1073050422
101325.0827343083
101325.0607682101
101325.0420287349
101325.0270079725
101325.0163088266
101325.0103578925
101325.0096558626
101325.0144926702
101325.0251946685
101325.0417865603
101325.0640953384
101325.0911371426
101325.1211828698
101325.1522273505
101325.1834314351
101325.2145851462
101325.2457206217
101325.2766644396
101325.3073430227
101325.3374522962
101325.3667833146
101325.3948981382
101325.4214602179
101325.4459218204
101325.4678590074
101325.4866703509
101325.501914357
101325.5130135663
101325.5195876206
101325.521155943
101325.5174596438
101325.5081653804
101325.4932144388
101325.4726312627
101325.4471018955
101325.4179843881
101325.3873155727
101325.3562996811
101325.3253203772
101325.2943428848
101325.2635074066
101325.2328815797
101325.2027237264
101325.173235506
101325.1448137838
101325.1177938577
101325.0926984455
101325.0699685098
101325.0502090625
101325.033908881
101325.0216838816
101325.0139923613
101325.0113825924
101325.0142078287
101325.0228664128
101325.0374766904
101325.0579948357
101325.08363679
101325.1128310387
101325.1434439312
101325.1743319356
101325.205182783
101325.2360290978
101325.2667186086
101325.2971949975
101325.327182367
101325.3564958848
101325.3847316085
101325.4115791137
101325.436524242
101325.4591619038
101325.4789127072
101325.4953339963
101325.507846665
101325.5160405819
101325.5194061221
101325.5176276017
101325.5103227707
101325.4973505281
101325.4786405581
101325.454688901
101325.4266491061
101325.3965314275
101325.3658504338
101325.335171203
101325.3044872627
101325.2739120802
101325.2435031002
101325.2134841264
101325.184040433
101325.1555280497
101325.128262841
101325.102725623
101325.0793428467
101325.0586873775
101325.0412503152
101325.0276381008
101325.0183389277
101325.0139214373
101325.0147968047
101325.0214115749
101325.0339755844
101325.0525601505
101325.0765985285
101325.1047425305
101325.1348372033
101325.1654041846
101325.1959589481
101325.2265183465
101325.2569515985
101325.2872183837
101325.3170675119
101325.3463388903
101325.3746552412
101325.401735284
101325.4270887521
101325.4503376247
101325.4709157272
101325.4883954661
101325.5021907281
101325.5118860818
101325.5169398582
101325.5170096856
101325.5116577156
101325.5006924752
101325.4839387451
101325.4617361165
101325.4349758264
101325.40555567
101325.3752274217
101325.3448463392
101325.3144462561
101325.2841353002
101325.2539479754
101325.2240875721
101325.1947136065
101325.166154023
101325.1386973619
101325.11279417
101325.0888478876
101325.06740678
101325.0489521466
101325.034081893
101325.0232971217
101325.0171805445
101325.0161818324
101325.0207872445
101325.0312813934
101325.0478388374
101325.0700986947
101325.0969790428
101325.1264246002
101325.156648206
101325.1869113102
101325.2171808844
101325.2473596995
101325.2774028131
101325.3071044204
101325.3363032719
101325.3646709311
101325.3919277415
101325.4176317595
101325.4414049996
101325.4627219086
101325.4811461611
101325.4961167371
101325.5071938162
101325.513838931
101325.5156671834
101325.5122222639
101325.5032481596
101325.488503007
101325.4681638271
101325.44288285
101325.4143323825
101325.3844237881
101325.3543378771
101325.3242236326
101325.2941825514
101325.2642235787
101325.2345403446
101325.2052563008
101325.176688184
101325.1490835428
101325.1228822527
101325.0984465878
101325.0763200207
101325.0569500147
101325.0409427156
101325.0287817948
101325.021078584
101325.0182873771
101325.0209460389
101325.0293767111
101325.0438630578
101325.0642029835
101325.0896128358
101325.1182261331
101325.1480598144
101325.1780257002
101325.2080131476
101325.2379204304
101325.2677405314
101325.2972694098
101325.3263880435
101325.3547739469
101325.3821841093
101325.4081820377
101325.4324188287
101325.4543766681
101325.4736328439
101325.4896375595
101325.5019572079
101325.510055883
101325.5135539446
101325.5119695062
101325.5050065411
101325.4923825228
101325.4740681104
101325.4505086005
101325.4231645589
101325.3938050499
101325.363974416
101325.3339807794
101325.3039296457
101325.2739218197
101325.2441074755
101325.2147030315
101325.1859500128
101325.1582309007
101325.1319685435
101325.1075146842
101325.0854139404
101325.0661003913
101325.0501086167
101325.0375892424
101325.0293008747
101325.0255853364
101325.0267549808
101325.0331830623
101325.0450273571
101325.0625627876
101325.0846439826
101325.1098449649
101325.135804975
101325.1616255571
101325.1868741174
101325.2114838596
101325.234895752
101325.2573470538
101325.2785445638
101325.2984793579
101325.3168451446
101325.333313917
101325.3477549992
101325.3597965158
101325.3692738165
101325.3758184768
101325.3790679049
101325.3787400549
101325.3747939415
101325.3665362805
101325.3545982588
101325.3366550711
101325.3155415203
101325.2898637465
101325.2615281759
101325.2323633248
101325.2034435852
101325.1752752242
101325.1485414233
101325.1232191921
101325.0996580987
101325.0779432745
101325.0578737963
101325.0403506127
101325.0249930078
101325.0118505275
101325.0011695915
101324.993215608
101324.988185523
101324.986326855
101324.9876769186
101324.9926859887
101325.0015029452
101325.0145269063
101325.0314304131
101325.0541606265
101325.0793048716
101325.1069936231
101325.1353651839
101325.1635365472
101325.191065821
101325.2174932182
101325.2425324089
101325.2659488804
101325.2878490167
101325.308177375
101325.3270779794
101325.343452226
101325.3577771137
101325.3699764436
101325.3796170135
101325.3864714332
101325.3902799641
101325.3903840594
101325.3868223627
101325.3792277141
101325.367421169
101325.3509952775
101325.3307983551
101325.3064502284
101325.2787735993
101325.2494630243
101325.2199813159
101325.1908713673
101325.1626973612
101325.1360644682
101325.1108875884
101325.0879799436
101325.0664291155
101325.0479857924
101325.0316296978
101325.0172374174
101325.0056505655
101324.9964293812
101324.9901016342
101324.9867736721
101324.9866091889
101324.9898177425
101324.9966989684
101325.007607532
101325.0221787044
101325.0427960489
101325.0661194356
101325.0919222209
101325.1190310348
101325.1463148251
101325.1732345134
101325.1992382834
101325.2241888886
101325.2474255331
101325.269418537
101325.2891543483
101325.3080968446
101325.3245596375
101325.3383042427
101325.3503926629
101325.3599123375
101325.3668127257
101325.3707826661
101325.3714625403
101325.3683751071
101325.3612081501
101325.350081762
101325.3342209494
101325.315409728
101325.2925126689
101325.2656528791
101325.2365836513
101325.2067650043
101325.1770315107
101325.1478796029
101325.1198828007
101325.0933948607
101325.0688738968
101325.0462217473
101325.026293189
101325.0089396925
101324.9932527425
101324.9805072322
101324.9702439136
101324.9626731181
101324.9579936869
101324.9565353399
101324.9581411004
101324.9630613741
101324.9718485742
101324.9841031829
101325.0018376256
101325.0241765174
101325.0477473198
101325.07349866
101325.0996801355
101325.1257730474
101325.151200868
101325.1755884414
101325.198637794
101325.2202754673
101325.2400380228
101325.2586732143
101325.2752993786
101325.2885122777
101325.3001890065
101325.3095692799
101325.3162800022
101325.32021865
101325.3210794216
101325.3184803058
101325.3117148832
101325.3008510801
101325.2858548729
101325.2670705969
101325.2464825726
101325.2200847788
101325.1914653502
101325.1613563511
101325.1311072697
101325.1011166819
101325.0718871215
101325.0440461902
101325.0178301572
101324.9940303273
101324.9722102962
101324.9536334054
101324.9366553162
101324.9223202175
101324.9109352363
101324.9021472849
101324.8961353635
101324.8932019038
101324.8934758748
101324.8968288146
101324.9031131986
101324.9136223585
101324.9270893138
101324.9494549782
101324.9704895822
101324.9946303188
101325.0195280333
101325.0446266835
101325.0692636849
101325.0930051142
101325.1154125022
101325.1365275197
101325.1564298376
101325.1740756459
101325.1907929073
101325.2043621292
101325.2150603384
101325.2242431776
101325.2307135586
101325.2343996891
101325.2351297271
101325.2326973175
101325.2265639806
101325.2154576341
101325.2013829363
101325.1811675428
101325.164113891
101325.1376070389
101325.1095341646
101325.079321274
101325.0485914651
101325.0179260307
101324.9877199251
101324.9583437548
101324.9305811458
101324.9051120302
101324.8816584371
101324.8615167097
101324.8435253395
101324.8270410495
101324.8143611074
101324.804266964
101324.796985757
101324.7926211484
101324.7913961214
101324.7936363085
101324.7977391289
101324.8061860223
101324.8160937437
101324.8371258487
101324.8563878126
101324.8784376121
101324.9018593701
101324.9257347963
101324.9494335177
101324.9723905839
101324.9940319432
101325.0142694753
101325.0336010347
101325.0508278645
101325.0676416804
101325.0814645671
101325.0908400648
101325.0998019329
101325.1059069523
101325.109384789
101325.1098276902
101325.1071195265
101325.1014486872
101325.0906093592
101325.0760891858
101325.0571918359
101325.0380685589
101325.0150502891
101324.9865571029
101324.956399363
101324.925231306
101324.8939666761
101324.8629495927
101324.8324708641
101324.8029321911
101324.7755897545
101324.7508847869
101324.7287880174
101324.7093783984
101324.6909940682
101324.6765301831
101324.6650725001
101324.6564814129
101324.6507860851
101324.648032429
101324.6487638591
101324.6520296369
101324.6572584424
101324.6667687279
101324.6801456577
101324.702860038
101324.7212576741
101324.7430870432
101324.7655119381
101324.7881196194
101324.8102762379
101324.831285578
101324.8504569359
101324.8686410856
101324.8861464804
101324.9014298701
101324.9153591257
101324.9253842242
101324.9329649278
101324.938927777
101324.9420701603
101324.9423159488
101324.9393594947
101324.9332949452
101324.9235400115
101324.9078533989
101324.8905650076
101324.8660857636
101324.8510417642
101324.8199799049
101324.7903150077
101324.7585353147
101324.7267413753
101324.6950397614
101324.663773913
101324.6328408109
101324.6032814263
101324.5771794103
101324.5527701612
101324.5320108836
101324.5128429772
101324.4952022399
101324.4822715607
101324.4720664414
101324.4650163601
101324.4609267376
101324.4599189022
101324.4624581417
101324.4653357772
101324.4735754321
101324.4809477534
101324.5058422742
101324.520688426
101324.5407308405
101324.5612222349
101324.5824636961
101324.6035217041
101324.6238941078
101324.6423647973
101324.6589932543
101324.6758089397
101324.6898417977
101324.7048420199
101324.7154505549
101324.7202766308
101324.7264340077
101324.7290807279
101324.7290965043
101324.725993587
101324.7195872646
101324.7101807492
101324.6942478267
101324.6763678907
101324.6532597685
101324.6343355707
101324.6082796709
101324.5771291026
101324.5450954497
101324.5125298379
101324.4799862013
101324.4479231456
101324.4162291072
101324.3849629034
101324.3563790484
101324.3303435685
101324.3079489056
101324.2873227009
101324.2669201786
101324.2520382463
101324.2399359448
101324.2311172854
101324.2255888004
101324.223143668
101324.2247905675
101324.2259991318
101324.2311826869
101324.2399685966
101324.2517192258
101324.2774067135
101324.2897816214
101324.3092270389
101324.3286812178
101324.3483870803
101324.3675020166
101324.3855015801
101324.4016168052
101324.4166181083
101324.4305125639
101324.4428010366
101324.4541440013
101324.4601985883
101324.4640612623
101324.4668855149
101324.4662571863
101324.4626550607
101324.4560973144
101324.4480195234
101324.4306180273
101324.4071745736
101324.3778419914
101324.3562897888
)
;

boundaryField
{
    inlet
    {
        type            calculated;
        value           uniform 101325.0000000001;
    }
    outlet
    {
        type            calculated;
        value           uniform 101324.3550683685;
    }
    frontAndBack
    {
        type            empty;
    }
}


// ************************************************************************* //
