/*--------------------------------*- C++ -*----------------------------------*\
| =========                 |                                                 |
| \\      /  F ield         | OpenFOAM: The Open Source CFD Toolbox           |
|  \\    /   O peration     | Version:  v2012                                 |
|   \\  /    A nd           | Website:  www.openfoam.com                      |
|    \\/     M anipulation  |                                                 |
\*---------------------------------------------------------------------------*/
FoamFile
{
    version     2.0;
    format      ascii;
    class       volScalarField;
    location    "0.01";
    object      rho;
}
// * * * * * * * * * * * * * * * * * * * * * * * * * * * * * * * * * * * * * //

dimensions      [1 -3 0 0 0 0 0];


internalField   nonuniform List<scalar> 
1000
(
1.176299368536906
1.176323176068074
1.176269664739133
1.17622621594779
1.176175568255045
1.176129524599923
1.176090613865088
1.176057901272988
1.176029922253352
1.176010819333414
1.176005101275051
1.176004648434591
1.176007129217383
1.176015397191943
1.176031825550503
1.176056811533323
1.176089412379215
1.176128176661919
1.17617187498405
1.176219632351769
1.176270725099119
1.176324381417293
1.17637970307138
1.176435671096996
1.176491184800961
1.176545133094403
1.176596536903067
1.176644787208061
1.176689838190523
1.176731870762776
1.176769648375551
1.176797749495963
1.176809757749095
1.176811082356219
1.176810595228275
1.176808373484696
1.176802276754996
1.176790243852097
1.176770571546502
1.176742475956362
1.176706296159604
1.176663301677286
1.176615176688347
1.176563501996935
1.176509508942703
1.17645413508999
1.176398211972826
1.176342601784077
1.176288190241696
1.176235718505944
1.176185543005718
1.176137639878436
1.176092439189011
1.176053027031943
1.176026802155805
1.176017872181746
1.176017267863033
1.176017637553617
1.176019765419602
1.176025085893959
1.176035438641071
1.17605242668544
1.176077180435946
1.176110055153637
1.176150530738745
1.176197336709857
1.176248776252768
1.176303117895811
1.176358882813659
1.176414932075973
1.176470415782299
1.176524737210031
1.176577595346756
1.176628976383373
1.176678836826774
1.176726123166602
1.176766783331234
1.176792955791154
1.176801548011789
1.176802169947675
1.176801712959531
1.176800010350994
1.17679548966548
1.176786693383662
1.176772084145661
1.176750406125855
1.176720908373547
1.176683542077629
1.176639010859838
1.176588651048392
1.176534183596941
1.176477409651444
1.176419919376326
1.176362883291976
1.176306977890178
1.176252439030463
1.176199221759007
1.176147423274984
1.176098471070837
1.176057351226129
1.176032476094451
1.176025238561606
1.176024870971089
1.176025176151626
1.176026896008049
1.176031082918757
1.176039194177385
1.176052604478171
1.176072521422292
1.17609977298216
1.176134643821885
1.176176766392134
1.176225127587377
1.176278222143274
1.176334315329952
1.176391730000303
1.176449095538613
1.176505531818309
1.176560714118217
1.176614704720602
1.176667399753416
1.176717340313683
1.176759718652971
1.176786277620483
1.176794772475616
1.176795420661207
1.176795069187404
1.176793760607615
1.176790224960134
1.176783270361216
1.176771569817929
1.176753907070122
1.176729319377483
1.176697269975358
1.176657773655587
1.176611448731575
1.176559476629783
1.176503448900119
1.176445100132368
1.176385990556023
1.176327254852283
1.176269511624458
1.176212994989443
1.176158074509287
1.176106574605675
1.176063955083852
1.176038663124396
1.176031381211713
1.176030969717514
1.176031196968817
1.176032557520676
1.176035936702867
1.176042557687329
1.176053617600029
1.176070251729884
1.17609338422156
1.176123595040843
1.176160993334839
1.176205144433881
1.176255090765087
1.176309471112804
1.176366714774508
1.17642528966137
1.176483966611133
1.176541994896155
1.176599028063993
1.176654628785924
1.176707100169764
1.176751507573569
1.176779574621929
1.176788913148083
1.176789744418347
1.17678949094635
1.176788510364133
1.176785720224191
1.176780101120156
1.176770480134845
1.176755729033203
1.176734856777081
1.176707140783619
1.176672242107945
1.176630293336262
1.176581940014279
1.176528300235398
1.176470811970527
1.176410991742264
1.176350185181942
1.176289401632168
1.176229341646882
1.176170848993983
1.17611621149346
1.1760712796742
1.176044613863172
1.176036715365033
1.17603617435507
1.176036344727292
1.176037429220508
1.176040183415111
1.176045670447019
1.176054954863872
1.176069091365574
1.176089009473672
1.176115409999707
1.176148654434746
1.176188680365317
1.176234973164436
1.17628660276309
1.176342324286351
1.176400751177779
1.176460586585175
1.176520820010332
1.17658072581845
1.17663946949409
1.176695036064814
1.176742317172049
1.176772861747856
1.176783670994837
1.176784824007264
1.17678464479034
1.176783904922954
1.176781678577951
1.176777081853327
1.176769068425208
1.176756596059012
1.176738691128388
1.17671455331149
1.176683651710876
1.176645811940459
1.176601282393742
1.176550747682646
1.176495255876346
1.17643606641733
1.176374466668902
1.176311618042071
1.176248538007085
1.176186480131409
1.1761281682462
1.176079877238286
1.176050659448226
1.176041538290815
1.176040782127456
1.176040892933576
1.176041742659884
1.176043988819318
1.176048578580568
1.176056463245914
1.176068613128358
1.176085927533972
1.176109155165729
1.176138800611574
1.176175043482107
1.176217692206915
1.176266178958085
1.176319601638907
1.176376832670589
1.176436692524634
1.17649811475279
1.176560165063626
1.176621730091287
1.176680564551927
1.176731442352208
1.176765566527408
1.176778692865903
1.176780396596327
1.176780283387015
1.176779747700369
1.17677798009777
1.176774204409226
1.176767476227811
1.176756838745516
1.176741361090057
1.176720220120129
1.176692778429634
1.176658663696815
1.176617839968878
1.176570644306718
1.176517762031204
1.176460142324092
1.176398880035941
1.176335100087432
1.176269939422477
1.176204884746998
1.176142919617962
1.17609056078916
1.17605748367972
1.176046142315775
1.176044945398795
1.176045011301712
1.176045666559259
1.176047488690978
1.176051329499245
1.176058054117977
1.176068562652649
1.176083715713515
1.176104271066612
1.176130808145772
1.176163659683844
1.176202863026434
1.176248133906462
1.17629887254004
1.176354226266086
1.176413210403823
1.176474829167244
1.176538090721329
1.176601760042289
1.176663535677046
1.176718290067438
1.176756992387574
1.176773597032839
1.176776308119028
1.176776265654215
1.176775907567157
1.176774525177155
1.176771439733794
1.17676578369252
1.176756672996888
1.176743224894607
1.176724621865952
1.176700173178464
1.176669382974856
1.17663201705476
1.176588147467116
1.176538155718137
1.176482695187086
1.17642262506576
1.176358935672202
1.176292744245944
1.176225592043704
1.176160467921745
1.176103776075699
1.176065673889345
1.1760508815426
1.17604885330179
1.176048865176995
1.176049344760491
1.176050792710797
1.176053984900703
1.176059717289916
1.176068829291168
1.176082141098535
1.176100402759215
1.176124232502697
1.176154060338077
1.176190082406166
1.176232226140564
1.176280137581611
1.176333213980041
1.176390682038664
1.176451676783998
1.176515246885447
1.17658016267491
1.176644229333881
1.176702669127825
1.176746569284097
1.176767923049323
1.176772374434379
1.176772482519749
1.176772261233196
1.176771208183938
1.176768715438461
1.176763980557672
1.17675617876078
1.176744471232231
1.176728057112421
1.176706221908479
1.176678394641052
1.176644206011974
1.176603532652578
1.176556515910523
1.176503555342699
1.176445279555873
1.176382504095505
1.176316241535969
1.176247956487634
1.176180439221792
1.176119638956683
1.176075772724735
1.176056166332246
1.176052630273025
1.176052565707707
1.176052880689786
1.176053995340172
1.176056609856614
1.17606146653442
1.176069357212257
1.176081064922971
1.176097323772578
1.176118769532998
1.176145893737384
1.176179001961371
1.176218176480342
1.176263255487544
1.176313846843702
1.176369373458341
1.17642911887529
1.176492226648332
1.176557556760712
1.176623130937256
1.176684708673095
1.176733914063523
1.176761138918402
1.176768402155445
1.176768855008437
1.176768728028514
1.176767957527141
1.176765984816669
1.176762058536215
1.176755404166842
1.176745220202531
1.176730725873403
1.176711198812645
1.176686022969603
1.176654739057015
1.176617084332854
1.176573016684656
1.17652272763326
1.176466640985158
1.176405394371265
1.176339855078558
1.176271332115443
1.176202297581373
1.176138012861565
1.176088211194394
1.176062491396826
1.176056418925411
1.17605612615796
1.176056330088367
1.176057146144743
1.176059249855452
1.176063325427776
1.176070127748062
1.176080408728933
1.176094886235646
1.176114203728911
1.176138892190314
1.176169332112592
1.176205717653545
1.176248034090347
1.176296059213823
1.176349383905587
1.17640743494714
1.176469474148097
1.176534494480512
1.176600783810895
1.176664730510297
1.176718858367508
1.17675271654804
1.176764128644596
1.176765328209244
1.176765269567177
1.176764742865832
1.17676322741024
1.176760017803561
1.176754379834173
1.176745545888075
1.176732756078752
1.176715289883165
1.176692506192648
1.176663885165138
1.176629063081144
1.176587860024749
1.176540304428566
1.176486646650223
1.176427355746603
1.176363141907163
1.176295130697895
1.176225434556543
1.17615852161908
1.176103176652734
1.176070422654842
1.176060465449383
1.17605960083596
1.176059728347934
1.176060295900381
1.176061947315572
1.176065320166969
1.176071138202261
1.176080128335865
1.176092995524618
1.176110386392252
1.176132858005029
1.176160843933579
1.176194619467188
1.176234278805792
1.176279732241764
1.176330713001067
1.176386780789816
1.176447315427629
1.176511447612289
1.176577734148558
1.176643195860639
1.176701460061652
1.176742143405642
1.176759147693514
1.176761863692893
1.17676190304666
1.176761548444587
1.176760416783976
1.176757826969611
1.176753090570871
1.176745466636325
1.176734214396062
1.176718617952199
1.176698020067725
1.176671856474497
1.176639689479362
1.176601239229704
1.176556409966049
1.176505307063852
1.176448248398149
1.176385797991855
1.176318900135021
1.1762493050867
1.176180678214177
1.176120589796559
1.176080461116495
1.176065134071904
1.176063061198218
1.176063089764728
1.176063466654525
1.176064712400898
1.176067452379991
1.176072379052936
1.176080198091702
1.17609160136284
1.176107235967311
1.176127674886425
1.176153386886277
1.176184708093163
1.176221820413515
1.176264739250304
1.176313309083224
1.176367204667811
1.176425927145405
1.176488746752367
1.176554456448632
1.176620641182433
1.176682073126687
1.176729172709274
1.176752930773882
1.176758294537593
1.176758518869931
1.176758330728128
1.176757523735157
1.176755491279997
1.176751570048911
1.176745044874699
1.176735190117128
1.176721295326568
1.176702695914971
1.176678802005791
1.176649124759703
1.176613306600218
1.176571153997277
1.176522659395271
1.176468012155392
1.176407632310924
1.176342288301634
1.176273420018583
1.176203985527889
1.176140242254802
1.176093019474324
1.176070899626939
1.176066514356803
1.176066388417769
1.176066584664931
1.176067520963562
1.17606973887256
1.176073913722463
1.176080717231251
1.176090810351981
1.176104817248202
1.176123308970694
1.176146782615584
1.176175639596768
1.176210167126731
1.176250518242864
1.176296684386082
1.176348470336322
1.176405475303609
1.176467057310468
1.176532133455434
1.176598655756493
1.176662432068579
1.176714649496094
1.176745375541288
1.176753878125966
1.176754298699072
1.176753480459775
1.176751527392214
1.176749361521447
1.176746171240806
1.176741354102941
1.176734209737216
1.176723952906617
1.176709718980757
1.17669062038039
1.176665802259163
1.176634495533155
1.176596092665504
1.176550232229676
1.176496837545889
1.176436151736707
1.176368722516237
1.176295816021528
1.176220090574017
1.176146613950172
1.176086340410591
1.176050974619475
1.176033909299136
1.176020778098014
1.176011528678129
1.176004102949822
1.175997638771405
1.175992469994222
1.175989931875434
1.175990666622437
1.17599509680622
1.176005039631555
1.176021768031297
1.176045850811609
1.176077570768756
1.176117231557656
1.176165054575904
1.176220868030858
1.176284079365523
1.176353993198539
1.176429477625007
1.176508258857226
1.176586524869203
1.176656031285598
1.17670548131182
1.176736389852175
1.176762182836236
1.176781722545996
1.176797565853859
1.176811534364848
1.176824021321698
1.176834457471968
1.176842014952886
1.176844469059621
1.176840718272425
1.176830899030786
1.176812918637385
1.176785292134046
1.176747250728633
1.176698718052436
1.17664009713693
1.176572083098522
1.176495446734849
1.176411939446134
1.176325107807134
1.176240253226394
1.17616730585284
1.176115312122189
1.176079784744469
1.176051397787277
1.176031559641752
1.176017726001531
1.176007805554235
1.176000615609744
1.175995664110338
1.175994169415983
1.175996966549281
1.176003988262514
1.176016528185023
1.17603565458618
1.176062442040259
1.176097656027578
1.176141540919114
1.176193901946628
1.176254219256314
1.176321697117141
1.176395105026901
1.176471801394878
1.176547631056154
1.176617928716322
1.176675170726114
1.176713589600551
1.176742656466933
1.176766527119685
1.176785084247537
1.176799814271272
1.176811830915279
1.176821551459259
1.176828884525732
1.176832215884881
1.176830452479018
1.176823438020561
1.176809388604987
1.17678641000482
1.176753260283549
1.176709497885375
1.17665514541376
1.176590576268057
1.176516707803625
1.176435490631499
1.176350536002099
1.176266321253346
1.176189143597985
1.176128462252771
1.176086648128892
1.176054025746295
1.176029503129667
1.176012530469265
1.176001188847098
1.175994003038309
1.175989944333708
1.175989176826769
1.175991952532601
1.175998340241627
1.176009299874188
1.176025738425549
1.176048811337318
1.176079736640616
1.176119398231143
1.176168001811993
1.176225074931896
1.17628971005277
1.176360671979975
1.176435727752971
1.176510972613045
1.176582092539231
1.176644229503526
1.176691079329441
1.176722651886016
1.176749776708596
1.176771125198807
1.176787620952706
1.17680041948786
1.176810226410806
1.176817238828306
1.176820760551608
1.176820116280911
1.176814949818958
1.176803871680657
1.176784959667274
1.176756657663601
1.17671789692632
1.176668131618468
1.176607557052626
1.176537265691119
1.176458981616332
1.176375626756355
1.176291419186336
1.176211323829177
1.176143569048139
1.17609404796414
1.176058032779462
1.176028983314932
1.176008412768321
1.175994685128243
1.175986250731059
1.175982017795722
1.175981551362821
1.175984524506483
1.175990809951678
1.176000916869833
1.176015566438221
1.176035899575938
1.176063248004356
1.176098719604182
1.176142926017196
1.176195929914017
1.176257168202726
1.176325372052416
1.176398537468347
1.176473311193072
1.176545473679806
1.17661112226084
1.176664514023342
1.176701805081798
1.176730672046973
1.176754528927638
1.176772900554589
1.176786914270572
1.176797480417616
1.176804848636271
1.176808761395364
1.176809046895647
1.176805470564344
1.176796811671777
1.176781105322025
1.176756741045601
1.176722526885282
1.176677742667782
1.176622179755446
1.176556287121195
1.176481290508906
1.176399753831189
1.176315845302785
1.176233930408286
1.176160354309892
1.176103159799005
1.176062107013582
1.176029204567987
1.176004645116595
1.175988006537263
1.175977724625231
1.175972501374512
1.175971750379288
1.175974823645199
1.175981059928453
1.175990801276527
1.17600444211072
1.176022832484073
1.176047189595886
1.176078835296492
1.176118831435585
1.176167606565297
1.176224828788593
1.176289533813141
1.17636022748818
1.176434207913866
1.176507276659743
1.176575494831693
1.176634325641764
1.176678595924104
1.176709790671797
1.176736302078543
1.176756851675906
1.176772305191176
1.176783754199361
1.176791624029399
1.176795986867739
1.17679699657781
1.176794684893043
1.176788063333028
1.176775210665722
1.176754608022984
1.176724977351896
1.176685190372882
1.176634457235233
1.176572804429886
1.176501426927061
1.17642252379192
1.176339536389681
1.176256525920608
1.176178621449361
1.176114093195313
1.176066626955043
1.176030000166451
1.176001342691841
1.175981534465986
1.175969013675827
1.175961964777179
1.175960192705839
1.175963127301479
1.175969147997294
1.175978672571545
1.17599171032557
1.176008798671433
1.176030989280163
1.176059592364483
1.176095749935504
1.176140145440028
1.176192969178176
1.176253817384683
1.176321478112618
1.176393751613657
1.176466991878978
1.176537172369257
1.17660058838336
1.17665154893243
1.176687677430667
1.176716525586361
1.17673952881669
1.176756592258799
1.176769043192065
1.176777639303841
1.176782487682864
1.176784016214575
1.176782761249316
1.17677796559554
1.176767814322971
1.176750739283826
1.176725283665617
1.176690095666908
1.176644194638554
1.176587344987617
1.176520283996776
1.176444491482926
1.176362776517881
1.176279263161506
1.176198373693928
1.176127332667581
1.176072700749667
1.176031961597324
1.175999328073926
1.17597581501599
1.175960366233958
1.17595105618264
1.175947904283467
1.175950283741226
1.175955962901881
1.175965234626242
1.175977891470518
1.175994238175393
1.176014943021694
1.176041048146914
1.176073760578725
1.176114152887232
1.176162801189375
1.176219538546115
1.176283478576523
1.176353161279316
1.176425766734379
1.176497120262469
1.17656368064526
1.176620586851807
1.176663198807949
1.176694782126731
1.176721020570415
1.176740395503202
1.176754203631897
1.176763568715331
1.176768685315837
1.176770218183709
1.176769321140706
1.176765617264991
1.176757636801997
1.176743891040963
1.176722757966431
1.176692634072036
1.176652180585285
1.176600575066078
1.176537837046859
1.176465103486557
1.176384961034685
1.176301420451765
1.176218362929939
1.176141905831507
1.176080194989682
1.176034018957536
1.175997770911121
1.175970333051034
1.175951779837701
1.175940229007033
1.175935215279539
1.175936042202192
1.175940985939972
1.17594985578313
1.175962241210686
1.175978196354947
1.175998049961771
1.176022548582015
1.17605272376162
1.176089612074384
1.176133961549289
1.176186143387639
1.176246015276965
1.176312599744077
1.1763836434469
1.176455319128334
1.17652398731178
1.176585778619801
1.176634853426135
1.176670459728448
1.176699709824587
1.176722037076782
1.176737920577423
1.176748806938821
1.176754869189546
1.176756513247086
1.176755324102737
1.176751721717701
1.176744855392929
1.17673357403581
1.176716306771163
1.17669129272737
1.176656790098599
1.176611289134914
1.176553971240706
1.176485408097243
1.176407562238948
1.176324065882098
1.176238809358201
1.176157574064514
1.176089001343193
1.17603610912826
1.175995807304971
1.175964602220479
1.175943039583074
1.175929557952673
1.175922759514991
1.175921842629979
1.175925840034489
1.175933800956575
1.175945651249337
1.175961487037861
1.175981725638107
1.176006926933047
1.176037569133406
1.17607382462215
1.176115285617503
1.176161076439466
1.176210223520403
1.176264479993125
1.176321022477095
1.176418177452851
)
;

boundaryField
{
    inlet
    {
        type            calculated;
        value           uniform 1.176395973595895;
    }
    outlet
    {
        type            calculated;
        value           uniform 1.176439920137107;
    }
    frontAndBack
    {
        type            empty;
    }
}


// ************************************************************************* //
