/*--------------------------------*- C++ -*----------------------------------*\
| =========                 |                                                 |
| \\      /  F ield         | OpenFOAM: The Open Source CFD Toolbox           |
|  \\    /   O peration     | Version:  v2012                                 |
|   \\  /    A nd           | Website:  www.openfoam.com                      |
|    \\/     M anipulation  |                                                 |
\*---------------------------------------------------------------------------*/
FoamFile
{
    version     2.0;
    format      ascii;
    class       volScalarField;
    location    "0.01";
    object      T;
}
// * * * * * * * * * * * * * * * * * * * * * * * * * * * * * * * * * * * * * //

dimensions      [0 0 0 1 0 0 0];


internalField   nonuniform List<scalar> 
1000
(
299.9870372202349
299.9887901195477
299.9824622435407
299.977829667998
299.9734415915976
299.9696659602318
299.9662418845199
299.9631689039408
299.9605072216082
299.9587800782186
299.9583907729451
299.958567485459
299.9590443744225
299.9599701360552
299.961649687576
299.9641748296504
299.9674571844506
299.9713503356151
299.9757335817442
299.9805252044371
299.9856602542886
299.9910678837824
299.9966616830765
300.0023398997477
300.0079899569625
300.0134964992612
300.018756480581
300.0237037474485
300.0283292362399
300.0326473984012
300.0365285184545
300.0394162838826
300.0406549518607
300.0407970508656
300.0407488524029
300.040516475923
300.039883418688
300.0386448764571
300.0366279658408
300.0337529402037
300.0300551779468
300.0256646092013
300.0207529369536
300.0154809959523
300.0099737835976
300.0043262471344
299.998622552228
299.9929501325849
299.9873990329376
299.9820447745518
299.9769237955844
299.9720338459897
299.9674191267497
299.9633949762336
299.9607169028255
299.9598044219828
299.9597421117617
299.9597794142842
299.9599965878035
299.9605400976599
299.9615973077202
299.9633317697949
299.9658588392227
299.9692147000432
299.9733461978958
299.9781236186507
299.9833737605996
299.9889199068484
299.9946111420317
300.0003312484141
300.0059935073751
300.0115370361857
300.0169311260992
300.022174371987
300.0272623352075
300.0320875146679
300.0362364535902
300.0389070282794
300.0397837581859
300.0398472275779
300.039800598754
300.0396268615605
300.0391655752417
300.0382680273775
300.036777344589
300.0345653701776
300.0315554529201
300.0277425750779
300.023198489816
300.0180595140157
300.0125012236009
300.0067073947309
300.0008402919481
299.9950193705184
299.9893136784708
299.9837472988195
299.9783156550555
299.9730286786681
299.968032086254
299.9638348477091
299.9612957132132
299.9605569353519
299.9605194160353
299.9605505719414
299.9607261316261
299.961153516118
299.9619814784066
299.9633503346815
299.9653833376809
299.9681649800036
299.9717242862488
299.9760237000307
299.9809597707398
299.9863788201503
299.9921037631146
299.9979634093356
300.0038178705776
300.0095773296642
300.0152086575452
300.0207182202425
300.026095427517
300.0311914218495
300.0355156507675
300.0382256385062
300.0390924176449
300.0391585578288
300.0391226976524
300.0389891787759
300.0386284178809
300.0379187986928
300.0367249150912
300.0349226534567
300.0324137599533
300.029143436046
300.0251131538904
300.02038596378
300.015082378918
300.0093647731043
300.0034101331423
299.9973776707455
299.9913831848495
299.9854898154703
299.9797214665683
299.9741158686687
299.9688592548831
299.9645089543956
299.9619272793042
299.9611839728302
299.9611419714225
299.9611651719773
299.9613040547343
299.9616489890337
299.9623248299998
299.9634537702202
299.9651516848083
299.9675128888439
299.9705965564128
299.9744137946805
299.9789201965581
299.9840179820193
299.9895681789181
299.9954104468879
300.0013884031446
300.0073765972592
300.0132984173957
300.0191185150509
300.0247922717193
300.0301465462205
300.0346778400715
300.037541718865
300.0384945863845
300.0385794088616
300.0385535493909
300.0384534990362
300.0381688071377
300.0375954569365
300.0366137649508
300.0351086021882
300.0329788322422
300.030150702516
300.0265895967399
300.0223090055465
300.0173747588748
300.0119009097264
300.0060341629548
299.9999292542978
299.993723496003
299.9875198944563
299.9813899518073
299.9754197956864
299.9698429583902
299.9652566549228
299.9625347536976
299.9617285123136
299.9616732914978
299.9616906868887
299.9618013919959
299.9620825308986
299.9626426235285
299.9635903306746
299.965033303627
299.9670664102634
299.9697611652662
299.9731544391146
299.9772398259432
299.9819647580762
299.9872342653954
299.9929212539108
299.9988841813817
300.004990675406
300.0111376014946
300.0172509068315
300.0232454363859
300.0289155889679
300.033740139728
300.0368568314177
300.0379597695199
300.0380774220095
300.0380591396299
300.0379836517208
300.0377564875595
300.0372874570173
300.0364697948775
300.0351971492488
300.0333701636977
300.0309071581592
300.0277539354922
300.0238926680961
300.0193486625986
300.0141917362958
300.0085287989864
300.0024883397347
299.996201709921
299.9897874212626
299.983349308743
299.9770153175276
299.9710634778804
299.9661343188714
299.9631519360781
299.962220893483
299.962143711225
299.9621550268233
299.9622417681752
299.9624710490142
299.9629395522525
299.9637443797588
299.9649845705675
299.9667519111562
299.9691228088208
299.9721487453977
299.9758480237131
299.9802010536905
299.9851498383539
299.9906022651507
299.9964432151279
300.0025522783013
300.00882059782
300.0151528159227
300.0214353125209
300.0274389775711
300.0326305670905
300.0361125278288
300.0374518968005
300.0376257422985
300.0376141945909
300.0375595403626
300.0373791843393
300.0369939288135
300.0363074084977
300.0352219894449
300.0336426800808
300.0314854755741
300.0286853155617
300.0252041802396
300.0210383652977
300.0162222242986
300.010825647623
300.0049454556123
299.9986933424088
299.9921840824376
299.985533690564
299.978893894727
299.9725692245926
299.9672248891027
299.9638485832469
299.9626909146563
299.9625687418164
299.9625754729503
299.9626423632669
299.9628283606572
299.9632204133518
299.963906828274
299.9649794792018
299.9665262047889
299.9686243405764
299.9713330122651
299.9746861566848
299.9786875532224
299.9833081495461
299.9884866879357
299.9941361036724
300.0001558647373
300.0064443153482
300.0129002140688
300.0193975149502
300.0257013657184
300.0312885663997
300.035237692979
300.0369319806074
300.0372086124521
300.0372042823527
300.0371677487665
300.0370266976478
300.036711871349
300.0361347477203
300.0352051171297
300.0338328997486
300.0319346671265
300.0294399213984
300.0262980417863
300.0224850990088
300.0180084071164
300.0129068540759
300.0072470709649
300.0011166955879
299.9946167552228
299.987861241435
299.9810074366391
299.9743603977306
299.9685738304883
299.9646846164316
299.9631746917063
299.9629676606421
299.9629688757469
299.9630178330024
299.9631656348265
299.9634914786257
299.964076610763
299.9650067106938
299.9663654931396
299.9682295081759
299.9706618448325
299.9737063730736
299.9773830845451
299.9816845379423
299.9865745669905
299.9919916121303
299.997856710385
300.0040815486977
300.0105690097654
300.0171935835928
300.0237312876272
300.0296946042284
300.0341741402409
300.0363530204024
300.0368072262507
300.0368182569178
300.0367956804632
300.0366882332435
300.03643388276
300.0359507502513
300.0351546751551
300.0339600621329
300.032285184826
300.0300571239613
300.0272175972071
300.0237288939806
300.0195783911068
300.0147804717616
300.0093758646686
300.0034286726597
299.9970220798358
299.9902593861144
299.9832900392106
299.9763988125955
299.9701929539816
299.9657154150867
299.9637141036268
299.9633531617827
299.9633465731904
299.9633787272128
299.9634925066262
299.9637593834097
299.9642551264375
299.9650605597541
299.9662556060392
299.9679151900813
299.9701041942175
299.9728727716785
299.9762520878857
299.9802505094376
299.9848514847125
299.9900149501493
299.995681965606
300.0017793705249
300.0082197238249
300.0148866553677
300.0215782685441
300.0278618502473
300.0328827685078
300.0356607315163
300.0364018497863
300.0364480586234
300.0364351036594
300.0363564856972
300.0361551969947
300.035754570588
300.0350755750069
300.0340364228795
300.0325574394169
300.0305649043798
300.0279959396608
300.0248036559345
300.0209612118497
300.0164642725304
300.0113323386262
300.0056086120707
299.9993581163038
299.9926693168248
299.9856757706734
299.9786297634062
299.9720683162778
299.9669849740299
299.96435965203
299.9637398062787
299.9637099230705
299.9637307404008
299.9638140400816
299.9640287756524
299.964444786715
299.9651391259609
299.9661885404219
299.9676662986339
299.9696380699548
299.9721580370617
299.9752650155361
299.9789787950646
299.9832978392277
299.9881994298244
299.9936417698943
299.9995663149914
300.0058976879031
300.0125330831572
300.0192977532306
300.0258231425192
300.0313464008489
300.0348012349819
300.0359656920801
300.0360880924791
300.0360821095622
300.0360283673348
300.0358737347957
300.0355462348507
300.0349709492565
300.0340695496795
300.0327644935375
300.0309822507388
300.0286573890259
300.0257368434011
300.0221834722205
300.0179788819838
300.0131259332087
300.0076501282606
300.0015992856655
299.995045833986
299.9881046008748
299.9809911518169
299.9741615238098
299.9685124214738
299.9651691111309
299.964152733753
299.9640644789951
299.9640774951248
299.9641354281277
299.9643039951835
299.964648275667
299.9652421441801
299.9661597968309
299.9674731857623
299.9692483050095
299.9715420022014
299.9743985135615
299.9778459129773
299.9818937844586
299.9865329358132
299.9917360990153
299.9974582950138
300.0036361874501
300.0101810211406
300.0169454853926
300.023625549723
300.0295709461822
300.0337222411389
300.0354573150998
300.0357344476896
300.0357384634467
300.0357022809743
300.0355868092262
300.0353225505713
300.03483925835
300.0340613254152
300.0329131608609
300.0313217081918
300.0292198917548
300.0265501162581
300.0232676950365
300.0193440401342
300.0147693417756
300.0095543090222
300.0037313322483
299.9973579209517
299.9905303971644
299.983427352433
299.9764228712091
299.9702896665676
299.9661936291264
299.9646291327012
299.9644175450119
299.9644204609097
299.9644589315498
299.9645860897115
299.9648657696792
299.9653686527032
299.9661667671716
299.967330730052
299.9689265856035
299.9710128080172
299.9736372285521
299.9768341336475
299.9806220622892
299.9850025530282
299.9899596944516
299.9954602499203
300.0014532636009
300.0078642174677
300.0145698943898
300.021323819478
300.0275925284801
300.0323985744251
300.0348227988717
300.0353701020628
300.0353929921642
300.0353737944244
300.0352914504446
300.0350840628544
300.0346839479196
300.0340181298999
300.0330125625439
300.0315947466454
300.029696858418
300.0272586920638
300.0242303449806
300.0205753013767
300.0162737776733
300.0113249611687
300.0057481287348
299.9995860947923
299.9929172316594
299.985888447679
299.9788016229413
299.97229544313
299.9674753364052
299.9652174807414
299.9647698566867
299.9647570012859
299.9647770326228
299.964872603771
299.9650989935146
299.9655251345874
299.9662195899815
299.9672498220247
299.9686795349927
299.9705670079271
299.9729629662704
299.9759083633163
299.9794324895342
299.9835509340069
299.9882627865081
299.9935480811588
299.9993658694395
300.0056505892056
300.0122916866306
300.0190801369121
300.0255881443898
300.0309164647621
300.0340517080968
300.0349192891803
300.0349622028574
300.034878710851
300.0346794231656
300.0344584213048
300.0341328899526
300.0336413556078
300.032912351899
300.0318657510753
300.0304133211674
300.0284644837171
300.0259319934451
300.0227373474816
300.0188185172003
300.0141385769828
300.0086896479627
300.0024964785327
299.9956148982547
299.9881740605971
299.9804452278897
299.9729456299983
299.9667934167772
299.9631834789885
299.9614415308646
299.9601011518297
299.9591570036391
299.9583990082447
299.9577391627797
299.9572115468462
299.9569524613538
299.9570274629395
299.9574796857707
299.9584946214878
299.9602021975658
299.9626604572251
299.9658982388095
299.9699464987669
299.9748277852173
299.9805245023525
299.9869761027689
299.9941115453664
300.0018152422334
300.0098550865139
300.0178420303434
300.0249347903583
300.0299807402165
300.0331346320289
300.0357665005674
300.0377602736358
300.0393768621643
300.0408021432319
300.0420762451226
300.0431410874363
300.0439122043518
300.0441626056671
300.0437799027186
300.0427780110999
300.040943391382
300.0381245009796
300.0342428521849
300.0292905903292
300.0233087626157
300.0163682119996
300.0085475020444
300.0000252724271
299.9911634009765
299.9825029256493
299.9750574183248
299.9697504101455
299.9661240503558
299.9632264833697
299.9612015011655
299.9597894170745
299.9587767701555
299.9580428408933
299.9575374050833
299.9573848314668
299.9576703574573
299.9583871155848
299.9596671494561
299.9616194925354
299.9643538105355
299.9679482045853
299.9724275708284
299.9777719709067
299.9839282784196
299.990815207927
299.9983071053369
300.0061343219165
300.0138727896676
300.0210464456898
300.0268876151561
300.0308079095286
300.0337738703606
300.0362095809929
300.0381030898014
300.0396060805039
300.0408322010886
300.041824033729
300.0425722582848
300.0429121705992
300.0427322461332
300.0420165355238
300.0405830087544
300.0382383693074
300.0348558600681
300.0303903717752
300.0248441387623
300.0182551761367
300.0107169998644
300.0024285749815
299.9937583720336
299.9851633148427
299.9772861438244
299.9710924499131
299.9668244090146
299.9634945253361
299.9609913764595
299.9592588706973
299.9581011512811
299.957367641395
299.956953338189
299.9568749945097
299.9571583352223
299.9578103790549
299.9589291070276
299.960607093787
299.9629622655867
299.9661189253762
299.9701672546466
299.9751281954283
299.980953460447
299.9875503515661
299.9947927336831
300.0024526546633
300.0101315840458
300.0173892868256
300.0237300706197
300.0285107355775
300.0317324098554
300.0345001958909
300.0366785442972
300.0383617146645
300.039667624164
300.0406682771628
300.0413837895757
300.0417431278357
300.0416773927754
300.041150239188
300.0400198825188
300.0380901770154
300.0352023165505
300.0312472049412
300.0261690802955
300.0199877883986
300.0128147141197
300.0048257037496
299.9963188686515
299.9877246520492
299.9795497888638
299.9726341872648
299.9675795129993
299.963903325915
299.9609381031701
299.9588383381383
299.9574370587819
299.9565760940974
299.9561440044819
299.9560963946004
299.956399892029
299.9570415001617
299.9580731896599
299.9595685704365
299.9616440911765
299.9644356662814
299.9680563482009
299.9725685221064
299.9779785259311
299.9842288182545
299.991189826532
299.9986569589412
300.0062879509018
300.013652184646
300.0203514364112
300.025799743924
300.0296049826428
300.032550566594
300.0349848887367
300.0368594828199
300.0382893953936
300.0393675240787
300.0401193460497
300.0405185867269
300.040547720563
300.0401828134199
300.0392993014714
300.0376966847149
300.0352106168774
300.031719437544
300.0271496056715
300.0214797571992
300.0147556172093
300.0071021735906
299.9987809884021
299.9902173939566
299.9818569223222
299.9743472307692
299.9685093597642
299.9643189823343
299.9609604725504
299.9584535346386
299.9567551114206
299.9557055526965
299.9551723715101
299.9550957138459
299.9554094335775
299.9560460278644
299.9570404071467
299.958432828135
299.9603100520018
299.9627963087714
299.9660264997043
299.9701089726904
299.9750874186092
299.9809278979614
299.9875319207459
299.994746924027
300.0022971019277
300.00975396428
300.0167155674801
300.0227190018289
300.0272364741688
300.030419621046
300.0331248355143
300.0352216837881
300.0367985218499
300.0379667434848
300.0387697546249
300.0392149247681
300.0393179550526
300.0390820851385
300.0384064512429
300.0370950089581
300.0349927635948
300.0319692779296
300.0279093782888
300.0227324020624
300.0164409670576
300.0091569193958
300.0011045821806
299.9926350913905
299.9841628996519
299.9762115113696
299.9696251333027
299.964780134284
299.9610414695626
299.9581162207995
299.9560942454179
299.9548161427934
299.9540966005516
299.9539157129107
299.9542152815062
299.9548298763894
299.9558021355976
299.9571330038639
299.9588773320182
299.9611424584456
299.9640621030166
299.9677528041321
299.9722842793446
299.9776758972911
299.9838863817664
299.9907919683557
299.9981680889327
300.0056426063783
300.0128046053359
300.0192760637768
300.0244763148446
300.0281629541109
300.0311066432208
300.033453880185
300.0351950068988
300.0364654724169
300.0373425981711
300.0378373159821
300.0379932868188
300.0378652400303
300.0373759120172
300.0363401057991
300.0345978026804
300.0320003317676
300.0284097197521
300.0237258439949
300.0179245867551
300.0110810926107
300.0033462811652
299.9950067438001
299.9864833232052
299.9782273599088
299.9709762890184
299.9653998975008
299.9612414739821
299.9579103664145
299.955510206722
299.9539332137928
299.9529828511053
299.9526611089214
299.952904010685
299.9534837469603
299.9544302036719
299.9557221996703
299.9573908365713
299.9595043201263
299.9621690110231
299.965508091737
299.9696310077091
299.9745965162084
299.9803875189147
299.9869134813251
299.994025328618
300.0014352120538
300.0087170682605
300.0155095359303
300.0213166120458
300.0256648993364
300.0288877246303
300.0315651090691
300.0335421147334
300.0349510767332
300.0359066735238
300.0364287643533
300.0365851808597
300.0364936571442
300.0361157297311
300.0353014230776
300.0338988270125
300.0317424188384
300.0286685500811
300.0245405660547
300.0192744757487
300.0128721840924
300.0054496154826
299.9972706477586
299.9887445382871
299.9802673823339
299.9724635713712
299.9661646549087
299.9614512763875
299.95775121367
299.9549504153167
299.953056521345
299.9518774178452
299.9513656182127
299.9514500405082
299.9519547152668
299.9528601612768
299.9541244642252
299.9557531443524
299.9577797511504
299.9602804771192
299.9633605984007
299.967125894217
299.9716526791806
299.9769787925625
299.9830896494448
299.9898854200051
299.997136067115
300.0044509570287
300.0114586749441
300.0177643856483
300.0227722484117
300.0264056291671
300.0293903466418
300.0316686114083
300.0332893402941
300.0344001650836
300.0350187582203
300.0351865441612
300.0350652885016
300.0346978801184
300.0339975098622
300.0328466899567
300.0310850190261
300.028532610192
300.0250114425409
300.0203671577619
300.0145160250638
300.0075164424273
299.9995691045576
299.9910454078431
299.9823433729734
299.9740546821916
299.9670638879956
299.9616811011513
299.957588879732
299.9544215613187
299.9522247841253
299.9508411226149
299.9501302960546
299.950009830149
299.9503548499949
299.9510553620664
299.9521164016493
299.9535250699845
299.9552707068937
299.9573521099914
299.9598254932727
299.9628818228971
299.9668807720046
299.9722780382854
299.9793436215636
299.9879843415334
299.9965806796872
300.0054578431209
)
;

boundaryField
{
    inlet
    {
        type            fixedValue;
        value           uniform 300;
    }
    outlet
    {
        type            inletOutlet;
        inletValue      uniform 300;
        value           uniform 300.0058410343992;
    }
    frontAndBack
    {
        type            empty;
    }
}


// ************************************************************************* //
