/*--------------------------------*- C++ -*----------------------------------*\
| =========                 |                                                 |
| \\      /  F ield         | OpenFOAM: The Open Source CFD Toolbox           |
|  \\    /   O peration     | Version:  v2012                                 |
|   \\  /    A nd           | Website:  www.openfoam.com                      |
|    \\/     M anipulation  |                                                 |
\*---------------------------------------------------------------------------*/
FoamFile
{
    version     2.0;
    format      ascii;
    class       volVectorField;
    location    "0.01";
    object      U;
}
// * * * * * * * * * * * * * * * * * * * * * * * * * * * * * * * * * * * * * //

dimensions      [0 1 -1 0 0 0 0];


internalField   nonuniform List<vector> 
1000
(
(-0.002764039647996716 0 0)
(-0.03442357710372081 0 0)
(-0.04261460156614853 0 0)
(-0.05780319141321588 0 0)
(-0.07169477568217396 0 0)
(-0.08460339056861577 0 0)
(-0.09561574114673392 0 0)
(-0.1050325374155923 0 0)
(-0.1131332500177004 0 0)
(-0.1186385692680931 0 0)
(-0.1201684010647227 0 0)
(-0.1200318905693443 0 0)
(-0.1191838046653201 0 0)
(-0.1166564958394393 0 0)
(-0.1118069022166781 0 0)
(-0.1044502088300444 0 0)
(-0.09486173481375756 0 0)
(-0.08346791243465247 0 0)
(-0.07062949432965482 0 0)
(-0.05659920795733839 0 0)
(-0.04158123244075492 0 0)
(-0.02579563658731966 0 0)
(-0.00950636048270535 0 0)
(0.006984895404838466 0 0)
(0.02335698455508394 0 0)
(0.03928552643507291 0 0)
(0.05447448238872892 0 0)
(0.06873164344472769 0 0)
(0.08204362586867564 0 0)
(0.09447596903995945 0 0)
(0.1056604792777228 0 0)
(0.1139707673879443 0 0)
(0.1175093096306256 0 0)
(0.117898741781159 0 0)
(0.117785301528982 0 0)
(0.1171050657654216 0 0)
(0.1153032035210254 0 0)
(0.1117421652265044 0 0)
(0.1059277521449171 0 0)
(0.09762891906243577 0 0)
(0.08694726164815415 0 0)
(0.07425543203431705 0 0)
(0.06004876319463377 0 0)
(0.04479625011088213 0 0)
(0.0288636894805811 0 0)
(0.01252349207807191 0 0)
(-0.003985067399858089 0 0)
(-0.02040376545953899 0 0)
(-0.03646156600906494 0 0)
(-0.05194325967539239 0 0)
(-0.06675986003617766 0 0)
(-0.08091794315885141 0 0)
(-0.09426466453657729 0 0)
(-0.1058814533223069 0 0)
(-0.1136189852026605 0 0)
(-0.116282182246936 0 0)
(-0.1164783320346947 0 0)
(-0.1163243991920165 0 0)
(-0.1157233571764848 0 0)
(-0.1141438129817189 0 0)
(-0.1110876500485192 0 0)
(-0.1060719983265538 0 0)
(-0.09876307395495838 0 0)
(-0.08905472991976612 0 0)
(-0.07710334931413979 0 0)
(-0.06328611308490496 0 0)
(-0.04810068088305749 0 0)
(-0.03205485266108575 0 0)
(-0.01558958983712864 0 0)
(0.0009525444127488121 0 0)
(0.01732557932031673 0 0)
(0.03336445381890835 0 0)
(0.04897598796832775 0 0)
(0.06413779727739792 0 0)
(0.07883844914306573 0 0)
(0.09279557712907724 0 0)
(0.1048187889859769 0 0)
(0.1125491620820632 0 0)
(0.1150575680142435 0 0)
(0.1152233348993998 0 0)
(0.1151369988350886 0 0)
(0.1146048357497553 0 0)
(0.1132795684166128 0 0)
(0.1106823294418441 0 0)
(0.1063701188857236 0 0)
(0.09997183502369597 0 0)
(0.09126742180365598 0 0)
(0.0802399486786259 0 0)
(0.06709474245892312 0 0)
(0.05222910782892208 0 0)
(0.0361545967287913 0 0)
(0.01939904707656669 0 0)
(0.002425300864702804 0 0)
(-0.01441730032676537 0 0)
(-0.03091808975139026 0 0)
(-0.04701000806105047 0 0)
(-0.06272396133248913 0 0)
(-0.07803234272901208 0 0)
(-0.09248701193659054 0 0)
(-0.1046074748398831 0 0)
(-0.1119431991244345 0 0)
(-0.1141034534128028 0 0)
(-0.1142336215827872 0 0)
(-0.1140980635096035 0 0)
(-0.1136159933868083 0 0)
(-0.1123721445035482 0 0)
(-0.10997814060517 0 0)
(-0.1060190779051672 0 0)
(-0.1001385822791371 0 0)
(-0.0920909482523774 0 0)
(-0.08179450840406849 0 0)
(-0.06935958582181902 0 0)
(-0.05508245164753656 0 0)
(-0.03940481660384305 0 0)
(-0.0228428473162854 0 0)
(-0.005896836051366579 0 0)
(0.01103314961942344 0 0)
(0.02769620727262299 0 0)
(0.04399206404629605 0 0)
(0.05992419221383599 0 0)
(0.07546460745086848 0 0)
(0.09020632715356164 0 0)
(0.1027323137289747 0 0)
(0.1105735878630384 0 0)
(0.1130591594112866 0 0)
(0.1132364847886061 0 0)
(0.1131727379427103 0 0)
(0.1127613902456795 0 0)
(0.1117256137805477 0 0)
(0.1096720452302078 0 0)
(0.1062184770598598 0 0)
(0.1010052957993397 0 0)
(0.0937496953136942 0 0)
(0.0842913120596227 0 0)
(0.07263269979106997 0 0)
(0.05895863715901492 0 0)
(0.0436204434437228 0 0)
(0.0270845767050527 0 0)
(0.009858140200586387 0 0)
(-0.007594741871374116 0 0)
(-0.0249309495888876 0 0)
(-0.04197111565079278 0 0)
(-0.05865959097921724 0 0)
(-0.07488597809922891 0 0)
(-0.09009072587885637 0 0)
(-0.1026581887308907 0 0)
(-0.1101214178708321 0 0)
(-0.1122910652904505 0 0)
(-0.1124257818883566 0 0)
(-0.1123241441382157 0 0)
(-0.1119431796740207 0 0)
(-0.1109391057415291 0 0)
(-0.1089851067133638 0 0)
(-0.1057199522947115 0 0)
(-0.1008085521983167 0 0)
(-0.09397728325051462 0 0)
(-0.0850570108069322 0 0)
(-0.07401661454379554 0 0)
(-0.06098179641878955 0 0)
(-0.04623360139625593 0 0)
(-0.03017788355478686 0 0)
(-0.01328199300432678 0 0)
(0.004006620418024702 0 0)
(0.02133164333762925 0 0)
(0.03846580234743667 0 0)
(0.05529518253180993 0 0)
(0.07169613205921788 0 0)
(0.08718723146665257 0 0)
(0.100308997287338 0 0)
(0.1085913121954044 0 0)
(0.111328828076285 0 0)
(0.1115654833987448 0 0)
(0.1115250503938564 0 0)
(0.1112120979245344 0 0)
(0.1103961889737963 0 0)
(0.1087366489852721 0 0)
(0.1058969200528135 0 0)
(0.1015431467893518 0 0)
(0.09538394831029712 0 0)
(0.08720439320727776 0 0)
(0.07690306268101231 0 0)
(0.06452108777505 0 0)
(0.05025095228520583 0 0)
(0.03441964261852917 0 0)
(0.01744778419489593 0 0)
(-0.0002135827899372821 0 0)
(-0.01816095960587842 0 0)
(-0.03610006724308543 0 0)
(-0.0538347134476289 0 0)
(-0.07111308018074182 0 0)
(-0.08724288491923519 0 0)
(-0.1004962927659804 0 0)
(-0.1083681019656994 0 0)
(-0.110715677311557 0 0)
(-0.1108850857803582 0 0)
(-0.11080632191889 0 0)
(-0.1105041529713889 0 0)
(-0.10968522321767 0 0)
(-0.1080660249219043 0 0)
(-0.1053250240551033 0 0)
(-0.1011510145288633 0 0)
(-0.09526900787690167 0 0)
(-0.08747389001346209 0 0)
(-0.07765961126598833 0 0)
(-0.06584229330887059 0 0)
(-0.05217289870787126 0 0)
(-0.0369296400841498 0 0)
(-0.02048249177081251 0 0)
(-0.003236195540826622 0 0)
(0.01443087303630592 0 0)
(0.03221438978402306 0 0)
(0.04989167892771626 0 0)
(0.0672233299748515 0 0)
(0.08362938697233037 0 0)
(0.0975955308362698 0 0)
(0.1066062690153437 0 0)
(0.1097820127130822 0 0)
(0.1101172946632932 0 0)
(0.1100930537686332 0 0)
(0.109853224999554 0 0)
(0.1092034783227858 0 0)
(0.1078455439679741 0 0)
(0.1054803134096854 0 0)
(0.1017991893485663 0 0)
(0.09651566462264656 0 0)
(0.08939197872462971 0 0)
(0.08027051934181843 0 0)
(0.06910176110629337 0 0)
(0.05596031113883398 0 0)
(0.04104516940837025 0 0)
(0.02466288761594047 0 0)
(0.007188940615627279 0 0)
(-0.01099198388273342 0 0)
(-0.02954185364293701 0 0)
(-0.0481687623293209 0 0)
(-0.06649754478322718 0 0)
(-0.08370998603460049 0 0)
(-0.09795728537731459 0 0)
(-0.1065862895633596 0 0)
(-0.1092927674366066 0 0)
(-0.1095213017588956 0 0)
(-0.1094640720322085 0 0)
(-0.1092304812166987 0 0)
(-0.1085614903666035 0 0)
(-0.1072073974917535 0 0)
(-0.1048795850121481 0 0)
(-0.1012920411272659 0 0)
(-0.09617897013946572 0 0)
(-0.08932085686961458 0 0)
(-0.08056892502418775 0 0)
(-0.06986812701066157 0 0)
(-0.05727476003271205 0 0)
(-0.042959762333406 0 0)
(-0.02719073290426123 0 0)
(-0.01029618129464417 0 0)
(0.007378202589657499 0 0)
(0.02551126532353799 0 0)
(0.04382161558016829 0 0)
(0.0619887999004451 0 0)
(0.0793606772379126 0 0)
(0.09438506898495591 0 0)
(0.1044500251733702 0 0)
(0.1083129591874555 0 0)
(0.108813354517861 0 0)
(0.1088054088727368 0 0)
(0.108626118447084 0 0)
(0.1081121399905916 0 0)
(0.1069962683294577 0 0)
(0.1050104759491576 0 0)
(0.1018709751244357 0 0)
(0.09730366053027534 0 0)
(0.09106429394079649 0 0)
(0.08296427323888372 0 0)
(0.07289532730692901 0 0)
(0.06084746261027791 0 0)
(0.04691753223655087 0 0)
(0.03130615633215528 0 0)
(0.01429678510540069 0 0)
(-0.003784633128112648 0 0)
(-0.02261070938703873 0 0)
(-0.04185136041539909 0 0)
(-0.06106212126438003 0 0)
(-0.07935251224162751 0 0)
(-0.0948043023194553 0 0)
(-0.1045743718179317 0 0)
(-0.1079325503634315 0 0)
(-0.108288774122521 0 0)
(-0.108249888822738 0 0)
(-0.1080714517845863 0 0)
(-0.1075280738965481 0 0)
(-0.1063951865248192 0 0)
(-0.1044098099032609 0 0)
(-0.1013067964596789 0 0)
(-0.09683204396836999 0 0)
(-0.09076311746166338 0 0)
(-0.08292870008322235 0 0)
(-0.07322882200599565 0 0)
(-0.06165286257931219 0 0)
(-0.04828768110258896 0 0)
(-0.03331050354210299 0 0)
(-0.01696898502575845 0 0)
(0.0004468588032686168 0 0)
(0.01863667461472378 0 0)
(0.03730489786583714 0 0)
(0.05609593803732854 0 0)
(0.07433673940526457 0 0)
(0.09050203678892745 0 0)
(0.101916833272685 0 0)
(0.1068091386707661 0 0)
(0.107608693447278 0 0)
(0.1076201384569292 0 0)
(0.1074920767526482 0 0)
(0.107092795980715 0 0)
(0.1061801996934901 0 0)
(0.1045110021345944 0 0)
(0.1018221850905869 0 0)
(0.09785369196368304 0 0)
(0.09236321675412669 0 0)
(0.08514681704547622 0 0)
(0.07605940205213779 0 0)
(0.06503187831155928 0 0)
(0.05208336619851256 0 0)
(0.03732580751684552 0 0)
(0.02095481967003613 0 0)
(0.003225140437961039 0 0)
(-0.01557524400560972 0 0)
(-0.03511953541403381 0 0)
(-0.05494707754327019 0 0)
(-0.07416976785877367 0 0)
(-0.09090383047752829 0 0)
(-0.1021584940934559 0 0)
(-0.1065325373398292 0 0)
(-0.1071325262504875 0 0)
(-0.1071130774335481 0 0)
(-0.1069852916121077 0 0)
(-0.1065524700948808 0 0)
(-0.1056112300101728 0 0)
(-0.1039187109854026 0 0)
(-0.1012279742264771 0 0)
(-0.09729704551986683 0 0)
(-0.09190547331045207 0 0)
(-0.08487014142676769 0 0)
(-0.07606275835258947 0 0)
(-0.06542634608675692 0 0)
(-0.05298468131133487 0 0)
(-0.03884147706927937 0 0)
(-0.02317131847427525 0 0)
(-0.006203441136159309 0 0)
(0.01180112609827961 0 0)
(0.03056145244941896 0 0)
(0.04972297675756338 0 0)
(0.06863973218124966 0 0)
(0.08588971907346153 0 0)
(0.09883743477665155 0 0)
(0.1051337960801677 0 0)
(0.1064554740476 0 0)
(0.1065003292436505 0 0)
(0.1064151085173288 0 0)
(0.1061142172850118 0 0)
(0.1053759893962148 0 0)
(0.1039788592878511 0 0)
(0.1016763761815178 0 0)
(0.09822141964530623 0 0)
(0.09337687923029556 0 0)
(0.08693208939994417 0 0)
(0.07871936864863521 0 0)
(0.06862931344579486 0 0)
(0.05662399877607914 0 0)
(0.04274528079844367 0 0)
(0.0271130315331637 0 0)
(0.009912521908004322 0 0)
(-0.008618888003842296 0 0)
(-0.02818293198906683 0 0)
(-0.0483426143034992 0 0)
(-0.06827249116555398 0 0)
(-0.08622241622378006 0 0)
(-0.09917860964161411 0 0)
(-0.1049719844152872 0 0)
(-0.1060124580952179 0 0)
(-0.1060234494687469 0 0)
(-0.1059409281241104 0 0)
(-0.1056069272941544 0 0)
(-0.1048362968714268 0 0)
(-0.1034021943180502 0 0)
(-0.101072074059912 0 0)
(-0.09761499525209172 0 0)
(-0.09281478304588825 0 0)
(-0.08648299869233711 0 0)
(-0.07847379497892869 0 0)
(-0.06869812419599033 0 0)
(-0.05713312556831745 0 0)
(-0.04382524403794708 0 0)
(-0.02888817397221684 0 0)
(-0.01249430261309458 0 0)
(0.005140913930575453 0 0)
(0.02376657672816977 0 0)
(0.04305235527528901 0 0)
(0.06241255131797652 0 0)
(0.08058582371640741 0 0)
(0.09510051979943861 0 0)
(0.1031344603442189 0 0)
(0.1052868854149153 0 0)
(0.10542607751192 0 0)
(0.105372232732963 0 0)
(0.1051551523778832 0 0)
(0.1045698892871316 0 0)
(0.1034115013659963 0 0)
(0.1014477565329353 0 0)
(0.09844243902578526 0 0)
(0.09416431579388496 0 0)
(0.08840078538127684 0 0)
(0.08097091965358148 0 0)
(0.07173821282369519 0 0)
(0.06062351967742747 0 0)
(0.04761540463349483 0 0)
(0.03277258721003464 0 0)
(0.01621860280124488 0 0)
(-0.001862293754106003 0 0)
(-0.02121284683770818 0 0)
(-0.0414408274664174 0 0)
(-0.06181744482904685 0 0)
(-0.08079802205283655 0 0)
(-0.09550906497102744 0 0)
(-0.103104838138738 0 0)
(-0.104890291827978 0 0)
(-0.104971798325528 0 0)
(-0.1049247695195856 0 0)
(-0.1046758891185474 0 0)
(-0.1040571020007391 0 0)
(-0.1028533076801229 0 0)
(-0.1008446473299608 0 0)
(-0.09780899678301307 0 0)
(-0.09353463591445255 0 0)
(-0.08783095995023993 0 0)
(-0.08054106071287732 0 0)
(-0.07155360577210339 0 0)
(-0.06081172923168206 0 0)
(-0.04831856562806902 0 0)
(-0.03413917877687513 0 0)
(-0.01839642509378066 0 0)
(-0.001261031163057803 0 0)
(0.0170515781256757 0 0)
(0.03624652405526634 0 0)
(0.05581486028242633 0 0)
(0.07468613906436147 0 0)
(0.0906581312334046 0 0)
(0.1006532737873283 0 0)
(0.1040255513853348 0 0)
(0.1043803109794865 0 0)
(0.104353642995541 0 0)
(0.1042060081446961 0 0)
(0.1037559214470861 0 0)
(0.1028091533437222 0 0)
(0.1011453985833643 0 0)
(0.09853836235620499 0 0)
(0.0947632587950465 0 0)
(0.08960819399774739 0 0)
(0.08288445407153087 0 0)
(0.07443741393539555 0 0)
(0.06415868598316408 0 0)
(0.05199664614057943 0 0)
(0.03796117111098515 0 0)
(0.02212375153993171 0 0)
(0.004619740454801495 0 0)
(-0.01433851721222464 0 0)
(-0.03441386111531844 0 0)
(-0.05498614517130914 0 0)
(-0.07474454482086619 0 0)
(-0.09109200395123211 0 0)
(-0.1007616016529583 0 0)
(-0.1036938475356288 0 0)
(-0.1039459435718643 0 0)
(-0.1039234531540093 0 0)
(-0.1037450388801682 0 0)
(-0.1032610634791842 0 0)
(-0.1022643988930552 0 0)
(-0.1005463412827998 0 0)
(-0.09789196696713243 0 0)
(-0.09409317889303886 0 0)
(-0.08895814300319049 0 0)
(-0.08232258134294358 0 0)
(-0.07405992994640812 0 0)
(-0.06408889856390636 0 0)
(-0.05237969005956724 0 0)
(-0.03895881072554681 0 0)
(-0.02390837856850539 0 0)
(-0.007359271479906071 0 0)
(0.01051005445723228 0 0)
(0.02944491691145908 0 0)
(0.04901227758804389 0 0)
(0.06832816518463568 0 0)
(0.08552097076198986 0 0)
(0.0975336833372486 0 0)
(0.1025584650850651 0 0)
(0.1033598600600187 0 0)
(0.103353925620011 0 0)
(0.1032659287330598 0 0)
(0.102925532783922 0 0)
(0.1021627058311196 0 0)
(0.100764655300161 0 0)
(0.09851462887993757 0 0)
(0.0951936266684755 0 0)
(0.09059058940407633 0 0)
(0.08451149645559275 0 0)
(0.07678945694219064 0 0)
(0.06729517865761629 0 0)
(0.05594636561120035 0 0)
(0.04271467249623235 0 0)
(0.02763041321949632 0 0)
(0.01078704920714741 0 0)
(-0.00764823049856608 0 0)
(-0.0273964523770723 0 0)
(-0.0479423275290586 0 0)
(-0.06820461161747046 0 0)
(-0.08594643345504388 0 0)
(-0.09779393540800514 0 0)
(-0.1023186049258778 0 0)
(-0.102930647653013 0 0)
(-0.1029248574414874 0 0)
(-0.1028110919583533 0 0)
(-0.1024442700126758 0 0)
(-0.1016349667514799 0 0)
(-0.1001802685462675 0 0)
(-0.09787164138373705 0 0)
(-0.09450473500703206 0 0)
(-0.089888326069923 0 0)
(-0.08385347100579595 0 0)
(-0.07626208991358155 0 0)
(-0.06701475779753992 0 0)
(-0.05605745592748423 0 0)
(-0.043386121853564 0 0)
(-0.02904749843456862 0 0)
(-0.01313732924976138 0 0)
(0.004198055983821208 0 0)
(0.02274260348812785 0 0)
(0.04213810954454707 0 0)
(0.06167198713706377 0 0)
(0.07980383773473203 0 0)
(0.09370671013774368 0 0)
(0.1007189540647892 0 0)
(0.1022994446496932 0 0)
(0.1023644708469134 0 0)
(0.1023129182083028 0 0)
(0.1020722472102988 0 0)
(0.1014731586934678 0 0)
(0.1003159892030273 0 0)
(0.09838995955782073 0 0)
(0.09548099563386866 0 0)
(0.09138025890593209 0 0)
(0.08589129154642573 0 0)
(0.07883888954440152 0 0)
(0.07007926238055956 0 0)
(0.05950856236069069 0 0)
(0.0470688284940815 0 0)
(0.03275447901950192 0 0)
(0.01662116535779356 0 0)
(-0.00120322594612016 0 0)
(-0.02049188467431802 0 0)
(-0.04082632365638118 0 0)
(-0.06133357872613245 0 0)
(-0.08015406856438327 0 0)
(-0.09408649550973539 0 0)
(-0.1006088552130768 0 0)
(-0.1019001510466444 0 0)
(-0.1019346053630112 0 0)
(-0.1018597319945483 0 0)
(-0.1015967129391636 0 0)
(-0.1009588449710725 0 0)
(-0.09975573218959533 0 0)
(-0.0977789989961155 0 0)
(-0.09482114938985613 0 0)
(-0.0906839903361373 0 0)
(-0.08518987270080314 0 0)
(-0.07819160601734666 0 0)
(-0.06958109552109665 0 0)
(-0.05929671138143373 0 0)
(-0.04732674050826011 0 0)
(-0.03370618628259242 0 0)
(-0.01851036340798005 0 0)
(-0.001855406755886582 0 0)
(0.01609046285052917 0 0)
(0.03505294355775794 0 0)
(0.05449756159129022 0 0)
(0.07325558006372609 0 0)
(0.08876821287185351 0 0)
(0.09814738476651517 0 0)
(0.1011450497959274 0 0)
(0.1017479029484656 0 0)
(0.1020897883666424 0 0)
(0.1021384295097147 0 0)
(0.1017951267821658 0 0)
(0.100849701538589 0 0)
(0.09901599082872591 0 0)
(0.0960642455836369 0 0)
(0.09181406354619973 0 0)
(0.08612903723643062 0 0)
(0.07891198738850429 0 0)
(0.07010512031412233 0 0)
(0.05969110990352025 0 0)
(0.04768806883507546 0 0)
(0.03413873617605262 0 0)
(0.0191109979874113 0 0)
(0.002727696842734855 0 0)
(-0.01484724508069342 0 0)
(-0.03331834400946159 0 0)
(-0.05201173769941705 0 0)
(-0.06956083553236306 0 0)
(-0.08283244197508764 0 0)
(-0.08844567738135549 0 0)
(-0.08897806486684558 0 0)
(-0.08764903349173932 0 0)
(-0.0851361871197001 0 0)
(-0.08201498700975388 0 0)
(-0.0785822130656721 0 0)
(-0.07477708302366044 0 0)
(-0.07022566792700673 0 0)
(-0.06497432131833579 0 0)
(-0.05921738077106616 0 0)
(-0.05256039712274038 0 0)
(-0.04484527438961104 0 0)
(-0.03606062081557942 0 0)
(-0.02624976643692071 0 0)
(-0.01546511751476508 0 0)
(-0.003753438506718635 0 0)
(0.008863759866353387 0 0)
(0.0223930008054325 0 0)
(0.03685394520693146 0 0)
(0.05211043475904726 0 0)
(0.06765385983188614 0 0)
(0.08253151075020437 0 0)
(0.09443162993236436 0 0)
(0.1000321751271613 0 0)
(0.1005782017871513 0 0)
(0.09864462864733566 0 0)
(0.09472634849489764 0 0)
(0.08952985392779511 0 0)
(0.08365444950914851 0 0)
(0.07741030277762247 0 0)
(0.07091986007793215 0 0)
(0.06415373764173157 0 0)
(0.05625709929543575 0 0)
(0.04830136474402176 0 0)
(0.03999976112695991 0 0)
(0.03110878197040006 0 0)
(0.02136688604830496 0 0)
(0.01073991870356142 0 0)
(-0.0006669771025187317 0 0)
(-0.01278840053424367 0 0)
(-0.02568736442398869 0 0)
(-0.03949390691638312 0 0)
(-0.05407667264423755 0 0)
(-0.06883113326839951 0 0)
(-0.08261917893169321 0 0)
(-0.09290172380414316 0 0)
(-0.09730081720130963 0 0)
(-0.09769907458698082 0 0)
(-0.09606899303248889 0 0)
(-0.09261365544323713 0 0)
(-0.08800458283023001 0 0)
(-0.08282023136606635 0 0)
(-0.07749157738072195 0 0)
(-0.07213212228871534 0 0)
(-0.06589350428212899 0 0)
(-0.05953670044656235 0 0)
(-0.05264109219559347 0 0)
(-0.04508841109966454 0 0)
(-0.03672947295048748 0 0)
(-0.02741510873311226 0 0)
(-0.01703280167539077 0 0)
(-0.005569580942501164 0 0)
(0.006893264353842368 0 0)
(0.02025439940011665 0 0)
(0.03446211258760319 0 0)
(0.04941476504728982 0 0)
(0.06458026297732408 0 0)
(0.07891674752615083 0 0)
(0.09111416164365964 0 0)
(0.09915769642252521 0 0)
(0.101833468635857 0 0)
(0.1012676776037773 0 0)
(0.09877350939481837 0 0)
(0.0944903487624205 0 0)
(0.08890774018226755 0 0)
(0.08248147728580887 0 0)
(0.07550106018958203 0 0)
(0.06818276328177551 0 0)
(0.06026825075580832 0 0)
(0.05188333289738418 0 0)
(0.04352634250825265 0 0)
(0.03485520479097839 0 0)
(0.02560525648195763 0 0)
(0.01557289116820693 0 0)
(0.004666897123153114 0 0)
(-0.007121078400830198 0 0)
(-0.01972911739054394 0 0)
(-0.03310053321395044 0 0)
(-0.04713370914631074 0 0)
(-0.06130457202209108 0 0)
(-0.07472758823354655 0 0)
(-0.0858700103993769 0 0)
(-0.09235409424901132 0 0)
(-0.09417909928518599 0 0)
(-0.0935836980554933 0 0)
(-0.09125248322117144 0 0)
(-0.08738625594327923 0 0)
(-0.082519788710744 0 0)
(-0.07716523867961582 0 0)
(-0.07156897609937515 0 0)
(-0.06509312718387973 0 0)
(-0.05864075772659087 0 0)
(-0.05173945365965658 0 0)
(-0.04434456179246963 0 0)
(-0.03632390430076193 0 0)
(-0.02748860103695766 0 0)
(-0.01767350089455858 0 0)
(-0.006799996951257371 0 0)
(0.005132421480503225 0 0)
(0.01807034442333907 0 0)
(0.03188714024283325 0 0)
(0.04638228246010957 0 0)
(0.06114152153325253 0 0)
(0.07529398973507197 0 0)
(0.08781064917910363 0 0)
(0.0973606533584868 0 0)
(0.1021305830114358 0 0)
(0.1028892066390472 0 0)
(0.1015558993235805 0 0)
(0.09838420614649863 0 0)
(0.09358633435510556 0 0)
(0.08753591604996849 0 0)
(0.08054158409113139 0 0)
(0.07291245820784709 0 0)
(0.06477193353237938 0 0)
(0.05594172832588212 0 0)
(0.04738886839768184 0 0)
(0.03865569714272274 0 0)
(0.02952632356973884 0 0)
(0.01978471643248885 0 0)
(0.009338045078421335 0 0)
(-0.001851306011819386 0 0)
(-0.01382964755753746 0 0)
(-0.02661296178461816 0 0)
(-0.04009382747830263 0 0)
(-0.0538057319442228 0 0)
(-0.06697720817074063 0 0)
(-0.07862123284033103 0 0)
(-0.08678601298280161 0 0)
(-0.09008478132216402 0 0)
(-0.09035657125971969 0 0)
(-0.08896109598095232 0 0)
(-0.08587277043204861 0 0)
(-0.08153860232795987 0 0)
(-0.07646546172619584 0 0)
(-0.07090917045824206 0 0)
(-0.06433948215056205 0 0)
(-0.05780329908745895 0 0)
(-0.05081590139094405 0 0)
(-0.0433979220818894 0 0)
(-0.03548456553239 0 0)
(-0.02693409302470228 0 0)
(-0.01757044969854987 0 0)
(-0.007231265253372034 0 0)
(0.004161994546153035 0 0)
(0.01656450462874247 0 0)
(0.02983622805333943 0 0)
(0.04379492064928296 0 0)
(0.05814529037236314 0 0)
(0.07218578081575613 0 0)
(0.08492601460657033 0 0)
(0.09538868883184076 0 0)
(0.1021238799779386 0 0)
(0.1044018342958428 0 0)
(0.1039834975879213 0 0)
(0.1018369799583851 0 0)
(0.09791459663113854 0 0)
(0.09250111837747294 0 0)
(0.08589413751809234 0 0)
(0.07836173183063654 0 0)
(0.07014087054722078 0 0)
(0.06095268648064765 0 0)
(0.05205109532287661 0 0)
(0.04299306561397406 0 0)
(0.03370168225917639 0 0)
(0.02405164017141641 0 0)
(0.01393625430547351 0 0)
(0.003218110856946343 0 0)
(-0.00823286597855198 0 0)
(-0.02041320440965744 0 0)
(-0.03319381934629805 0 0)
(-0.04630977570926625 0 0)
(-0.05916511349997618 0 0)
(-0.07099343312214421 0 0)
(-0.08034686965003927 0 0)
(-0.08531311949943059 0 0)
(-0.08654753828346672 0 0)
(-0.08584118812942891 0 0)
(-0.08352847656299474 0 0)
(-0.07981150576121951 0 0)
(-0.07516526713311916 0 0)
(-0.0698525556122106 0 0)
(-0.06331691597135998 0 0)
(-0.05678506362078909 0 0)
(-0.04974027525468517 0 0)
(-0.04227887904683433 0 0)
(-0.03439449828006397 0 0)
(-0.02597953499807509 0 0)
(-0.01686470602536004 0 0)
(-0.006899927202343901 0 0)
(0.003987485044499877 0 0)
(0.01580386225774306 0 0)
(0.02850307204262382 0 0)
(0.04193403093638157 0 0)
(0.05581601210611753 0 0)
(0.06962468246569005 0 0)
(0.08248196262582473 0 0)
(0.09354144379929609 0 0)
(0.1016903501940678 0 0)
(0.1055516063789448 0 0)
(0.1061165855854731 0 0)
(0.1049055728548889 0 0)
(0.1019416400558073 0 0)
(0.09733905586579501 0 0)
(0.09135194996980982 0 0)
(0.08416205314937875 0 0)
(0.07594261755870592 0 0)
(0.06670034266044854 0 0)
(0.05741400433405636 0 0)
(0.04800382071655402 0 0)
(0.03840149933939305 0 0)
(0.02855463135470628 0 0)
(0.01841350476937572 0 0)
(0.007903178003631228 0 0)
(-0.003056140542597716 0 0)
(-0.01452208205103669 0 0)
(-0.0265175783001333 0 0)
(-0.03896148020741341 0 0)
(-0.05138631977082522 0 0)
(-0.06312810834588388 0 0)
(-0.07321659525364248 0 0)
(-0.07973457027858698 0 0)
(-0.08206129844819884 0 0)
(-0.08200947011835774 0 0)
(-0.08043596521995949 0 0)
(-0.07734284966971615 0 0)
(-0.07312999737528381 0 0)
(-0.0681559724462968 0 0)
(-0.06183978215523091 0 0)
(-0.05542749679433965 0 0)
(-0.04844933992194041 0 0)
(-0.04102743936004014 0 0)
(-0.03314545704739306 0 0)
(-0.02476767879783169 0 0)
(-0.01579349582122013 0 0)
(-0.00610159790512789 0 0)
(0.004413287891674354 0 0)
(0.01579981845641981 0 0)
(0.02800852654554887 0 0)
(0.04088745093786533 0 0)
(0.05423057406530513 0 0)
(0.06770748992111261 0 0)
(0.08057694665803347 0 0)
(0.09197479883272811 0 0)
(0.1010899203734575 0 0)
(0.1065618039810353 0 0)
(0.1082132466048934 0 0)
(0.1077001014768146 0 0)
(0.1055754045347438 0 0)
(0.1017633338870888 0 0)
(0.09650814844391599 0 0)
(0.08993855733708044 0 0)
(0.08206900640684124 0 0)
(0.07301893870746282 0 0)
(0.06351362516607023 0 0)
(0.05373217002900212 0 0)
(0.0436673282596504 0 0)
(0.03341402483383522 0 0)
(0.02304582325469422 0 0)
(0.01256134630771176 0 0)
(0.001881361529293123 0 0)
(-0.009122180238366443 0 0)
(-0.0205156109725677 0 0)
(-0.0322404837934911 0 0)
(-0.04400314753824563 0 0)
(-0.05534277211788804 0 0)
(-0.06567395515869728 0 0)
(-0.07337641137917812 0 0)
(-0.07696403880455975 0 0)
(-0.07766847264729909 0 0)
(-0.07680717442375978 0 0)
(-0.07439833683975566 0 0)
(-0.0706291639468299 0 0)
(-0.06599288055641986 0 0)
(-0.06009673662677724 0 0)
(-0.05377640315384409 0 0)
(-0.04690857112594481 0 0)
(-0.03960413158356311 0 0)
(-0.03180813921197968 0 0)
(-0.02352110540011788 0 0)
(-0.01466726089419178 0 0)
(-0.005135839380314886 0 0)
(0.005155536633447597 0 0)
(0.0162108950235086 0 0)
(0.02797762942175013 0 0)
(0.04038304587673595 0 0)
(0.05328242827102863 0 0)
(0.06639116320185168 0 0)
(0.07913530485138974 0 0)
(0.09069548143819367 0 0)
(0.1004091956590652 0 0)
(0.1072234726896925 0 0)
(0.1100540946593784 0 0)
(0.1102303173316842 0 0)
(0.1088703860322622 0 0)
(0.1058114660372124 0 0)
(0.1012886666910935 0 0)
(0.09545168471790716 0 0)
(0.08817698770898735 0 0)
(0.07951894464366523 0 0)
(0.07017780086046728 0 0)
(0.06028394624505633 0 0)
(0.04989806734192639 0 0)
(0.03920180481644169 0 0)
(0.02836562871060212 0 0)
(0.01749905735455432 0 0)
(0.006637782938697864 0 0)
(-0.004234246990840543 0 0)
(-0.01512390943612794 0 0)
(-0.02603954968939672 0 0)
(-0.03697241393775282 0 0)
(-0.04767317785409879 0 0)
(-0.0577767054191867 0 0)
(-0.06614703359908687 0 0)
(-0.07105129527000408 0 0)
(-0.07268720417296655 0 0)
(-0.07248607487310847 0 0)
(-0.07075753637099608 0 0)
(-0.06750033310132629 0 0)
(-0.06327567874349044 0 0)
(-0.0580278651244687 0 0)
(-0.05169177876301578 0 0)
(-0.04500440611175769 0 0)
(-0.03782142575983395 0 0)
(-0.03015482165521167 0 0)
(-0.02201025401326292 0 0)
(-0.01330533291686076 0 0)
(-0.003955274230938007 0 0)
(0.00610340410761325 0 0)
(0.01689905202287622 0 0)
(0.0284122849928306 0 0)
(0.04053890598228425 0 0)
(0.05306657028362354 0 0)
(0.0657454948678154 0 0)
(0.07824618902703376 0 0)
(0.08987011760817845 0 0)
(0.09994920030981423 0 0)
(0.1077710792478913 0 0)
(0.1120059839535935 0 0)
(0.1130127305415812 0 0)
(0.1122194180501166 0 0)
(0.1097922498404845 0 0)
(0.1058125369129808 0 0)
(0.100595549388108 0 0)
(0.094071584510848 0 0)
(0.08598681304192286 0 0)
(0.0771453620332424 0 0)
(0.06750026142847806 0 0)
(0.05708557962080725 0 0)
(0.04608001125900809 0 0)
(0.03471744851046493 0 0)
(0.02322574298905621 0 0)
(0.0117987438089825 0 0)
(0.0006037192604957511 0 0)
(-0.01024066533340358 0 0)
(-0.02071323250415262 0 0)
(-0.03090473230018767 0 0)
(-0.04068037289444376 0 0)
(-0.04996253415057446 0 0)
(-0.05831224591321789 0 0)
(-0.06410320924935009 0 0)
(-0.06672798961121333 0 0)
(-0.06732148417442883 0 0)
(-0.06642840823528341 0 0)
(-0.063910263861651 0 0)
(-0.06021263953681828 0 0)
(-0.05559702556405119 0 0)
(-0.04931558229419445 0 0)
(-0.04287753725797217 0 0)
(-0.03573078001430165 0 0)
(-0.02805378550418582 0 0)
(-0.01996016449840067 0 0)
(-0.01145267734338799 0 0)
(-0.002443600077254283 0 0)
(0.00721079306614359 0 0)
(0.01763483123095779 0 0)
(0.02886352647908636 0 0)
(0.04082335932402399 0 0)
(0.05322581104255398 0 0)
(0.06606102206772742 0 0)
(0.07741786144719609 0 0)
(0.09452785793692259 0 0)
)
;

boundaryField
{
    inlet
    {
        type            zeroGradient;
    }
    outlet
    {
        type            pressureInletOutletVelocity;
        value           uniform (0.09452785793692259 0 0);
    }
    frontAndBack
    {
        type            empty;
    }
}


// ************************************************************************* //
