/*--------------------------------*- C++ -*----------------------------------*\
| =========                 |                                                 |
| \\      /  F ield         | OpenFOAM: The Open Source CFD Toolbox           |
|  \\    /   O peration     | Version:  v2012                                 |
|   \\  /    A nd           | Website:  www.openfoam.com                      |
|    \\/     M anipulation  |                                                 |
\*---------------------------------------------------------------------------*/
FoamFile
{
    version     2.0;
    format      ascii;
    class       volVectorField;
    location    "0.01";
    object      UMean;
}
// * * * * * * * * * * * * * * * * * * * * * * * * * * * * * * * * * * * * * //

dimensions      [0 1 -1 0 0 0 0];


internalField   nonuniform List<vector> 
1000
(
(-3.152407600017896e-05 0 0)
(4.955393945891688e-06 0 0)
(2.581487967528275e-05 0 0)
(6.545612895632871e-05 0 0)
(0.0001119239037896585 0 0)
(0.0001631366110310809 0 0)
(0.0002272834085221737 0 0)
(0.0002963197349383971 0 0)
(0.0003758182136823509 0 0)
(0.0004595137194231951 0 0)
(0.0005464095170891477 0 0)
(0.0006329343942772037 0 0)
(0.0007190649279496626 0 0)
(0.0008040346799140422 0 0)
(0.000886560476808754 0 0)
(0.0009649192355198032 0 0)
(0.001037276505992731 0 0)
(0.001102251192324956 0 0)
(0.00115859459597546 0 0)
(0.001205369824057102 0 0)
(0.001241820743435218 0 0)
(0.001267154794136911 0 0)
(0.001281069323606257 0 0)
(0.001283102396755579 0 0)
(0.001273390154303959 0 0)
(0.001251915604718234 0 0)
(0.001219298800080081 0 0)
(0.001175940911801084 0 0)
(0.001122685021432537 0 0)
(0.001059997087893664 0 0)
(0.0009887256066894242 0 0)
(0.0009099701530637526 0 0)
(0.0008266171917362474 0 0)
(0.0007417724808722417 0 0)
(0.0006569786736597098 0 0)
(0.0005724113427009065 0 0)
(0.000488696654358943 0 0)
(0.000406782146853079 0 0)
(0.0003281044760790196 0 0)
(0.0002543221386921088 0 0)
(0.0001872160835392233 0 0)
(0.000128358678370134 0 0)
(7.907070403543059e-05 0 0)
(4.027710464076512e-05 0 0)
(1.265572672874312e-05 0 0)
(-3.393653930458713e-06 0 0)
(-7.626337812386843e-06 0 0)
(-1.056901472557815e-08 0 0)
(1.932546485483734e-05 0 0)
(5.00466305034739e-05 0 0)
(9.17215462002875e-05 0 0)
(0.0001438632248099743 0 0)
(0.0002060084046005684 0 0)
(0.0002773945187109851 0 0)
(0.0003562229106515135 0 0)
(0.000439110838343854 0 0)
(0.0005229580593780049 0 0)
(0.0006067646054451474 0 0)
(0.0006903614090689934 0 0)
(0.0007731614886469626 0 0)
(0.0008544644894249968 0 0)
(0.0009329098314721984 0 0)
(0.001007161576967494 0 0)
(0.001075369736894301 0 0)
(0.001136013854643445 0 0)
(0.001187439815622314 0 0)
(0.001228608815211931 0 0)
(0.001258528473450311 0 0)
(0.001276866529309865 0 0)
(0.001283261536753154 0 0)
(0.001277891264782397 0 0)
(0.001260747501843178 0 0)
(0.001232274823667055 0 0)
(0.001192621261548531 0 0)
(0.001142254818812645 0 0)
(0.001081373432874203 0 0)
(0.00101096142133782 0 0)
(0.0009328946007046861 0 0)
(0.0008509248123240641 0 0)
(0.0007679569808840076 0 0)
(0.0006850814308293197 0 0)
(0.0006023710264846879 0 0)
(0.000520301310577443 0 0)
(0.0004395445164961186 0 0)
(0.0003611718687713093 0 0)
(0.0002864949256079313 0 0)
(0.000217117654956702 0 0)
(0.0001546555538137966 0 0)
(0.0001007656784153439 0 0)
(5.680743728673185e-05 0 0)
(2.390700658306478e-05 0 0)
(2.745300941710902e-06 0 0)
(-6.280235808320048e-06 0 0)
(-3.171577199284472e-06 0 0)
(1.198673280084619e-05 0 0)
(3.886933658675037e-05 0 0)
(7.726037929472187e-05 0 0)
(0.0001268363502116877 0 0)
(0.0001872772423392268 0 0)
(0.0002575895995448688 0 0)
(0.0003354290691904873 0 0)
(0.0004169132829624271 0 0)
(0.0004991604149161232 0 0)
(0.0005813383736278237 0 0)
(0.0006633885655057633 0 0)
(0.0007447625858166688 0 0)
(0.0008250067976532916 0 0)
(0.0009029672517831395 0 0)
(0.0009776166160157722 0 0)
(0.00104730072392696 0 0)
(0.001110637289803769 0 0)
(0.001165837992428252 0 0)
(0.001211649604410923 0 0)
(0.001246678536429234 0 0)
(0.001270281999405001 0 0)
(0.001281754246456592 0 0)
(0.001281148797655305 0 0)
(0.001268342070034981 0 0)
(0.001243766313866385 0 0)
(0.001207468669381585 0 0)
(0.001159896131855125 0 0)
(0.001101196068802564 0 0)
(0.001032489678112342 0 0)
(0.0009558674696455708 0 0)
(0.0008753370362294498 0 0)
(0.0007937957592954175 0 0)
(0.0007123591413921786 0 0)
(0.0006310079493346862 0 0)
(0.0005501935227203701 0 0)
(0.0004703763812706114 0 0)
(0.000392493840432652 0 0)
(0.0003175599414821286 0 0)
(0.0002470202514278663 0 0)
(0.000182292852578447 0 0)
(0.0001250593780513374 0 0)
(7.674841523019175e-05 0 0)
(3.881022986131852e-05 0 0)
(1.220468890628634e-05 0 0)
(-2.255730889406025e-06 0 0)
(-4.316750689197352e-06 0 0)
(6.191082648227928e-06 0 0)
(2.903159186398319e-05 0 0)
(6.409237510479629e-05 0 0)
(0.0001109961255251324 0 0)
(0.0001694155386161011 0 0)
(0.0002381282924623383 0 0)
(0.0003146242136803611 0 0)
(0.0003947782737976417 0 0)
(0.0004757405393597778 0 0)
(0.0005566260295261352 0 0)
(0.0006374292328637041 0 0)
(0.0007176699152935969 0 0)
(0.0007970138481334212 0 0)
(0.000874458998905448 0 0)
(0.0009491841219719869 0 0)
(0.001019701229121413 0 0)
(0.001084807154248344 0 0)
(0.001142759547237301 0 0)
(0.001192296751715783 0 0)
(0.001231843379698743 0 0)
(0.001260512719787773 0 0)
(0.001277273401842747 0 0)
(0.001281874380974791 0 0)
(0.001273920400339146 0 0)
(0.001253673964674323 0 0)
(0.001221077969378646 0 0)
(0.001176584910887848 0 0)
(0.001120367221218943 0 0)
(0.001053664657306663 0 0)
(0.0009786457220590545 0 0)
(0.0008994654356764525 0 0)
(0.0008191387997243988 0 0)
(0.0007389059383906406 0 0)
(0.0006587001795887334 0 0)
(0.0005789414816795077 0 0)
(0.0004999555301013908 0 0)
(0.0004225710703281798 0 0)
(0.0003476058006829165 0 0)
(0.0002763611583984448 0 0)
(0.0002100698591164938 0 0)
(0.0001503487164583878 0 0)
(9.857251477125101e-05 0 0)
(5.632590318470859e-05 0 0)
(2.472908144809686e-05 0 0)
(4.927395892279512e-06 0 0)
(-2.539870815736901e-06 0 0)
(2.848318460385511e-06 0 0)
(2.107864923846153e-05 0 0)
(5.223082015290852e-05 0 0)
(9.597009796308239e-05 0 0)
(0.0001519597802559508 0 0)
(0.0002188253883755434 0 0)
(0.0002938950870930434 0 0)
(0.000372833129280975 0 0)
(0.0004526797743031758 0 0)
(0.0005324510309147722 0 0)
(0.0006121954792784131 0 0)
(0.0006914507799521191 0 0)
(0.0007699995135593293 0 0)
(0.0008469356974622267 0 0)
(0.0009215973345908463 0 0)
(0.0009926408737252106 0 0)
(0.001059010066563125 0 0)
(0.001119063723344188 0 0)
(0.001171585859507812 0 0)
(0.001214947727521293 0 0)
(0.00124812929123111 0 0)
(0.001269872932568676 0 0)
(0.001279669395715582 0 0)
(0.001276817682108817 0 0)
(0.001261351086754669 0 0)
(0.001232995452834149 0 0)
(0.00119211883522688 0 0)
(0.001138850855924662 0 0)
(0.001074466336992873 0 0)
(0.001001183970585328 0 0)
(0.0009232872150404842 0 0)
(0.0008440317140202792 0 0)
(0.0007648367726061612 0 0)
(0.0006856302198206182 0 0)
(0.0006068055776552348 0 0)
(0.0005285784146570251 0 0)
(0.0004516991227287175 0 0)
(0.0003768275407354396 0 0)
(0.0003051500335827801 0 0)
(0.000237729400457627 0 0)
(0.000176094172141437 0 0)
(0.0001215354721051552 0 0)
(7.566645981043924e-05 0 0)
(3.96887807401524e-05 0 0)
(1.494866826417121e-05 0 0)
(2.229157858571342e-06 0 0)
(2.366130814866058e-06 0 0)
(1.561297277987106e-05 0 0)
(4.23163191901127e-05 0 0)
(8.228379323389065e-05 0 0)
(0.0001352779639001329 0 0)
(0.0001998939584952413 0 0)
(0.0002733769966959982 0 0)
(0.0003511552479709022 0 0)
(0.000430009871286173 0 0)
(0.000508807951633138 0 0)
(0.0005876070694581789 0 0)
(0.000665990998031715 0 0)
(0.0007438105987711655 0 0)
(0.0008202495000962621 0 0)
(0.0008947659935505634 0 0)
(0.000966135570173961 0 0)
(0.001033436958871185 0 0)
(0.001095131858739523 0 0)
(0.00115007820127913 0 0)
(0.001196654114664306 0 0)
(0.001233783592847659 0 0)
(0.001260070006643475 0 0)
(0.001274800198907639 0 0)
(0.001277029424868944 0 0)
(0.001266531088458463 0 0)
(0.001242810998326644 0 0)
(0.001206056411208446 0 0)
(0.001156275348292594 0 0)
(0.00109466370890727 0 0)
(0.001023378477745992 0 0)
(0.0009468043953709525 0 0)
(0.0008685353643467209 0 0)
(0.0007902766365512885 0 0)
(0.0007119748766821191 0 0)
(0.0006339963053616492 0 0)
(0.000556480494488318 0 0)
(0.0004801061049497999 0 0)
(0.0004054121713639163 0 0)
(0.0003334774398531374 0 0)
(0.0002652302640674639 0 0)
(0.0002020960723909485 0 0)
(0.0001452766453635369 0 0)
(9.636093565700772e-05 0 0)
(5.657588386159811e-05 0 0)
(2.738733953397037e-05 0 0)
(9.748904016987303e-06 0 0)
(4.747423229495642e-06 0 0)
(1.288707452697688e-05 0 0)
(3.478813078149265e-05 0 0)
(7.046530563424688e-05 0 0)
(0.0001198652389913735 0 0)
(0.0001816914095074112 0 0)
(0.0002532490662263786 0 0)
(0.000329803329803754 0 0)
(0.0004077376291324676 0 0)
(0.0004856578313984807 0 0)
(0.0005635985147681256 0 0)
(0.0006411919341847899 0 0)
(0.0007183317072820352 0 0)
(0.0007942924316517983 0 0)
(0.0008686116878856995 0 0)
(0.0009401834049777469 0 0)
(0.001008186452663997 0 0)
(0.001071190916802073 0 0)
(0.00112812942727894 0 0)
(0.001177424105889221 0 0)
(0.001217984251648912 0 0)
(0.001248339592005012 0 0)
(0.001267635885189537 0 0)
(0.001274746471725711 0 0)
(0.001269218347806012 0 0)
(0.001250343000496347 0 0)
(0.00121809346897194 0 0)
(0.001172313034517068 0 0)
(0.001113996204712753 0 0)
(0.001045122807837036 0 0)
(0.000970031216781988 0 0)
(0.0008927285620221672 0 0)
(0.0008153282806578307 0 0)
(0.0007378626843592801 0 0)
(0.0006606694805528781 0 0)
(0.0005838251503810304 0 0)
(0.0005079500937425826 0 0)
(0.0004334809036217189 0 0)
(0.0003614111916065364 0 0)
(0.0002925454481310158 0 0)
(0.0002282240167516499 0 0)
(0.000169545243416546 0 0)
(0.0001180595845422579 0 0)
(7.497528026356727e-05 0 0)
(4.182256488637518e-05 0 0)
(1.966599608882128e-05 0 0)
(9.773157483121617e-06 0 0)
(1.286224611245583e-05 0 0)
(2.979085683633804e-05 0 0)
(6.080119545290907e-05 0 0)
(0.0001060661967530114 0 0)
(0.0001645165281913049 0 0)
(0.0002337011492360761 0 0)
(0.0003088554364005022 0 0)
(0.0003858904562930207 0 0)
(0.0004629870729826192 0 0)
(0.0005401266752700689 0 0)
(0.0006169720691568694 0 0)
(0.0006934669842113459 0 0)
(0.0007689506034059538 0 0)
(0.0008430386747357269 0 0)
(0.0009147142831480014 0 0)
(0.000983250406357805 0 0)
(0.001047312994003981 0 0)
(0.001105910800008545 0 0)
(0.001157524396036612 0 0)
(0.001201070752663103 0 0)
(0.001235054880350552 0 0)
(0.001258527609427455 0 0)
(0.001270237771309665 0 0)
(0.001269547103246944 0 0)
(0.001255567683412006 0 0)
(0.001228062445320624 0 0)
(0.001186687705808009 0 0)
(0.001132175176898244 0 0)
(0.001066200663316853 0 0)
(0.0009928760005842 0 0)
(0.0009165862487362066 0 0)
(0.0008399912313657915 0 0)
(0.0007633230858314631 0 0)
(0.0006868690107188398 0 0)
(0.0006106856252645882 0 0)
(0.0005353018762973476 0 0)
(0.0004611120260931882 0 0)
(0.0003889900267971917 0 0)
(0.0003196803431274248 0 0)
(0.0002543979582054697 0 0)
(0.0001941867294754754 0 0)
(0.0001405085344728307 0 0)
(9.456642472862265e-05 0 0)
(5.788590335996952e-05 0 0)
(3.161892581342095e-05 0 0)
(1.713789795440314e-05 0 0)
(1.533992839453484e-05 0 0)
(2.726543278792979e-05 0 0)
(5.337986152455986e-05 0 0)
(9.408346818589993e-05 0 0)
(0.0001486161345634086 0 0)
(0.0002149070106254377 0 0)
(0.0002883791496001515 0 0)
(0.0003644689162051137 0 0)
(0.0004407799783667362 0 0)
(0.0005171453150048493 0 0)
(0.000593275413408116 0 0)
(0.0006691344988806636 0 0)
(0.0007441437840169675 0 0)
(0.0008179589000118591 0 0)
(0.0008896697542480572 0 0)
(0.0009586002878291812 0 0)
(0.001023532061531275 0 0)
(0.001083516240756666 0 0)
(0.001137125798161726 0 0)
(0.001183275537817062 0 0)
(0.001220498380148809 0 0)
(0.001247765496127248 0 0)
(0.001263766080301006 0 0)
(0.001267702660141738 0 0)
(0.001258562573893431 0 0)
(0.001235908878121534 0 0)
(0.00119922455730135 0 0)
(0.001148948200969844 0 0)
(0.001086374580962098 0 0)
(0.001015209096042004 0 0)
(0.000940058782254255 0 0)
(0.0008642551381882239 0 0)
(0.0007883510177214008 0 0)
(0.0007126226319411889 0 0)
(0.0006370848201887406 0 0)
(0.0005622122600583936 0 0)
(0.0004883321455018474 0 0)
(0.0004162447951565571 0 0)
(0.0003466115077055011 0 0)
(0.0002805650548641906 0 0)
(0.0002190695106858893 0 0)
(0.0001635224454920435 0 0)
(0.0001150841324649384 0 0)
(7.527200605666807e-05 0 0)
(4.527106892897296e-05 0 0)
(2.652925926061128e-05 0 0)
(2.006313579086147e-05 0 0)
(2.706190291242313e-05 0 0)
(4.817654079912297e-05 0 0)
(8.402590107228433e-05 0 0)
(0.0001341792408863073 0 0)
(0.0001970364424125991 0 0)
(0.0002684282365501489 0 0)
(0.0003434560330335234 0 0)
(0.0004190006854167153 0 0)
(0.0004946169294112758 0 0)
(0.0005700441188184121 0 0)
(0.0006452762579865673 0 0)
(0.0007197945766145331 0 0)
(0.0007933066025146328 0 0)
(0.0008649795184009206 0 0)
(0.0009342004390498699 0 0)
(0.0009998370300794196 0 0)
(0.001060998655659597 0 0)
(0.001116330216973015 0 0)
(0.001164772031114394 0 0)
(0.001204885314280098 0 0)
(0.001235604415948583 0 0)
(0.001255579412398342 0 0)
(0.001263904375808442 0 0)
(0.001259469672945488 0 0)
(0.001241673412480899 0 0)
(0.001209845977390264 0 0)
(0.00116413641995575 0 0)
(0.001105439549701526 0 0)
(0.001036894878482233 0 0)
(0.0009631135892160295 0 0)
(0.000888108342289595 0 0)
(0.0008129542517074284 0 0)
(0.0007379315589958836 0 0)
(0.0006630428197109673 0 0)
(0.000588687996187559 0 0)
(0.0005151608986242944 0 0)
(0.0004431687824293116 0 0)
(0.0003733275322286977 0 0)
(0.0003066663485264088 0 0)
(0.0002441044697394964 0 0)
(0.0001869448506364079 0 0)
(0.0001363286399855062 0 0)
(9.371898610337083e-05 0 0)
(6.033816293904297e-05 0 0)
(3.764691475054088e-05 0 0)
(2.677024564865757e-05 0 0)
(2.898158678628797e-05 0 0)
(4.510674788486198e-05 0 0)
(7.593430549879727e-05 0 0)
(0.0001213654753746188 0 0)
(0.0001802836702123522 0 0)
(0.0002491146545853336 0 0)
(0.000322864337607668 0 0)
(0.0003976329073382704 0 0)
(0.0004725141163426872 0 0)
(0.0005472456486906498 0 0)
(0.0006218461263332544 0 0)
(0.0006958532541981235 0 0)
(0.000769026014808812 0 0)
(0.0008405950583201884 0 0)
(0.0009100151845107107 0 0)
(0.000976217719856248 0 0)
(0.001038383722662596 0 0)
(0.001095206057610165 0 0)
(0.001145679882059228 0 0)
(0.001188376508699987 0 0)
(0.001222244348705618 0 0)
(0.001245885428500623 0 0)
(0.001258353365288117 0 0)
(0.00125843044703703 0 0)
(0.001245426819742223 0 0)
(0.001218498750437244 0 0)
(0.001177590385006101 0 0)
(0.001123157398355807 0 0)
(0.001057758219468264 0 0)
(0.0009856700369267337 0 0)
(0.0009115441417492161 0 0)
(0.0008371034624106391 0 0)
(0.0007627852117705215 0 0)
(0.0006885383269408718 0 0)
(0.0006147277226422242 0 0)
(0.0005415881178945542 0 0)
(0.0004697657307444919 0 0)
(0.0003998104924897279 0 0)
(0.000332678311806675 0 0)
(0.0002692243075451089 0 0)
(0.0002106811707595273 0 0)
(0.0001581470675811996 0 0)
(0.0001130417752168302 0 0)
(7.658872079584359e-05 0 0)
(5.025383892523495e-05 0 0)
(3.522537197980689e-05 0 0)
(3.284185508494811e-05 0 0)
(4.405815870400147e-05 0 0)
(6.980812857743155e-05 0 0)
(0.000110284204266235 0 0)
(0.0001648381950167604 0 0)
(0.0002305882446463294 0 0)
(0.0003027373308436624 0 0)
(0.0003766741973729135 0 0)
(0.0004508250717492002 0 0)
(0.0005248715931623379 0 0)
(0.0005988200038161078 0 0)
(0.0006723093285644873 0 0)
(0.0007450908397455404 0 0)
(0.0008165116492631606 0 0)
(0.0008860281788549702 0 0)
(0.0009526921832010462 0 0)
(0.001015688495556586 0 0)
(0.001073821286018886 0 0)
(0.001126077876163952 0 0)
(0.001171112225869293 0 0)
(0.001207833540172797 0 0)
(0.00123487886925605 0 0)
(0.00125122073620597 0 0)
(0.001255622982361912 0 0)
(0.001247268907420477 0 0)
(0.001225229482892713 0 0)
(0.001189219784648435 0 0)
(0.001139363206925389 0 0)
(0.001077572630785401 0 0)
(0.001007622464196449 0 0)
(0.0009345101307350023 0 0)
(0.0008607995911775911 0 0)
(0.0007871840142137643 0 0)
(0.0007135865362086448 0 0)
(0.0006403485479109697 0 0)
(0.0005676267618070282 0 0)
(0.0004960414043156329 0 0)
(0.0004260468279982107 0 0)
(0.0003585712617696241 0 0)
(0.0002943675196231947 0 0)
(0.0002346473437520492 0 0)
(0.0001804142165193873 0 0)
(0.0001330901471690243 0 0)
(9.383365696982307e-05 0 0)
(6.41540389684981e-05 0 0)
(4.522173448163557e-05 0 0)
(3.847137454986528e-05 0 0)
(4.490111732526517e-05 0 0)
(6.561815501045565e-05 0 0)
(0.0001010001456773437 0 0)
(0.0001508653043997862 0 0)
(0.0002129942278774794 0 0)
(0.000283122665351451 0 0)
(0.0003560955417691347 0 0)
(0.0004295475310047987 0 0)
(0.0005029011123311843 0 0)
(0.0005762251751203868 0 0)
(0.0006491493052053808 0 0)
(0.0007215196190935905 0 0)
(0.0007926884197449778 0 0)
(0.0008622148455260195 0 0)
(0.0009291794042288576 0 0)
(0.0009928646225244825 0 0)
(0.001052116445860603 0 0)
(0.00110599888388656 0 0)
(0.001153180396539585 0 0)
(0.00119260395004252 0 0)
(0.00122288667430646 0 0)
(0.001242926917482789 0 0)
(0.001251458954135012 0 0)
(0.001247506094857882 0 0)
(0.001230104980524451 0 0)
(0.001198848131069775 0 0)
(0.001153513252749233 0 0)
(0.001095469221176259 0 0)
(0.001028131442688331 0 0)
(0.0009561378457200388 0 0)
(0.0008834127812816344 0 0)
(0.0008108088815801011 0 0)
(0.000738447356091237 0 0)
(0.0006664644548022509 0 0)
(0.0005949951232073762 0 0)
(0.0005243789384687918 0 0)
(0.0004548630313464774 0 0)
(0.0003871993300210932 0 0)
(0.0003220935482467931 0 0)
(0.0002603188567034864 0 0)
(0.0002030333549062429 0 0)
(0.0001516072737490027 0 0)
(0.0001076091856417376 0 0)
(7.205520101095243e-05 0 0)
(4.752873227907655e-05 0 0)
(3.491624894787273e-05 0 0)
(3.584386435855229e-05 0 0)
(5.159408746268813e-05 0 0)
(8.273596391817132e-05 0 0)
(0.0001302897233415479 0 0)
(0.0001925703962615908 0 0)
(0.0002655202851272221 0 0)
(0.0003439095566121487 0 0)
(0.0004256108512243028 0 0)
(0.0005095672939898129 0 0)
(0.000595911655129101 0 0)
(0.0006834999837148377 0 0)
(0.000772416865481125 0 0)
(0.0008623000742243754 0 0)
(0.0009525654904314056 0 0)
(0.001041797884014042 0 0)
(0.00112948746339499 0 0)
(0.001214664068029682 0 0)
(0.001295412614408434 0 0)
(0.001370435054410803 0 0)
(0.001437957460550702 0 0)
(0.001496064506270746 0 0)
(0.001543334459957002 0 0)
(0.001578333160702666 0 0)
(0.001598703120968023 0 0)
(0.001605155761102389 0 0)
(0.001593704111116668 0 0)
(0.001565451365935463 0 0)
(0.001521762151147868 0 0)
(0.001464753073939622 0 0)
(0.001399129689582185 0 0)
(0.0013271315634392 0 0)
(0.001250095866222679 0 0)
(0.001169549793367099 0 0)
(0.001085632496184128 0 0)
(0.0009987003567709764 0 0)
(0.0009094791244607351 0 0)
(0.0008180455922329086 0 0)
(0.0007270802280385046 0 0)
(0.0006343475347927027 0 0)
(0.0005438826138638273 0 0)
(0.0004558805090571439 0 0)
(0.0003729688967539032 0 0)
(0.0002969205145885933 0 0)
(0.000230120029768331 0 0)
(0.0001743410838574793 0 0)
(0.0001324513713079543 0 0)
(0.000105662913745404 0 0)
(9.615396632875138e-05 0 0)
(0.0001033621450814213 0 0)
(0.0001301295883034114 0 0)
(0.0001743631308723985 0 0)
(0.0002314883144753983 0 0)
(0.000298382672337606 0 0)
(0.0003719281652336709 0 0)
(0.0004506323331185351 0 0)
(0.0005331231015202362 0 0)
(0.000618509780165039 0 0)
(0.0007058164591456291 0 0)
(0.0007944404249497749 0 0)
(0.0008842642277075213 0 0)
(0.0009732497611483887 0 0)
(0.001058987529285936 0 0)
(0.001145209769449646 0 0)
(0.001227706690171229 0 0)
(0.001305496810299548 0 0)
(0.001376828539656982 0 0)
(0.001439915308889203 0 0)
(0.001492421270365499 0 0)
(0.00153352171106747 0 0)
(0.001560976923327583 0 0)
(0.001573424766464626 0 0)
(0.001570012369360316 0 0)
(0.001549783126662315 0 0)
(0.001514329148804868 0 0)
(0.001464774564855906 0 0)
(0.001404870677830371 0 0)
(0.001337453938165108 0 0)
(0.001264241399176317 0 0)
(0.001186175760972419 0 0)
(0.001105131678356179 0 0)
(0.001020832570858837 0 0)
(0.0009349788214181643 0 0)
(0.0008452713839158616 0 0)
(0.0007590965279664757 0 0)
(0.0006658205863599199 0 0)
(0.0005778453025482021 0 0)
(0.0004910858649591398 0 0)
(0.0004084637307338367 0 0)
(0.0003318180554998608 0 0)
(0.0002635120063600823 0 0)
(0.000205248858287048 0 0)
(0.0001598457056560751 0 0)
(0.0001290112123775979 0 0)
(0.0001147049415817112 0 0)
(0.0001169148929424871 0 0)
(0.0001374799229930988 0 0)
(0.0001766782694271763 0 0)
(0.0002302169515371904 0 0)
(0.0002946259264443816 0 0)
(0.0003672414350896754 0 0)
(0.0004458137776211096 0 0)
(0.0005287520934867991 0 0)
(0.0006152544441500233 0 0)
(0.0007040561359790479 0 0)
(0.0007949100028637613 0 0)
(0.0008845713143099635 0 0)
(0.0009782675632509044 0 0)
(0.001061075378448962 0 0)
(0.00114922636304122 0 0)
(0.001233430893617826 0 0)
(0.001313786279338673 0 0)
(0.0013885693663979 0 0)
(0.001455971192222545 0 0)
(0.001514130407551032 0 0)
(0.001560870947993396 0 0)
(0.001595016153326027 0 0)
(0.001614561511143289 0 0)
(0.001617935299701243 0 0)
(0.001605172413072498 0 0)
(0.001578008515372743 0 0)
(0.001535912753713969 0 0)
(0.001481582765812335 0 0)
(0.001418899740968891 0 0)
(0.001349616054258729 0 0)
(0.00127488616620598 0 0)
(0.001196149729121031 0 0)
(0.001114641492815395 0 0)
(0.001031428995509904 0 0)
(0.000945133461147225 0 0)
(0.0008613113401556304 0 0)
(0.0007693066526242178 0 0)
(0.0006827372193669044 0 0)
(0.0005975407144508306 0 0)
(0.0005157773203178615 0 0)
(0.0004389213361298422 0 0)
(0.0003694140875526996 0 0)
(0.0003094955185587355 0 0)
(0.0002608384680018568 0 0)
(0.0002263328946559718 0 0)
(0.000207578960653715 0 0)
(0.0002044149046694189 0 0)
(0.0002190188726818401 0 0)
(0.0002532031469012727 0 0)
(0.0003032472155016605 0 0)
(0.0003649675351376391 0 0)
(0.00043620570138171 0 0)
(0.0005144126540562458 0 0)
(0.0005978717803313292 0 0)
(0.0006848748965513785 0 0)
(0.0007750836480980832 0 0)
(0.0008681919911334906 0 0)
(0.0009601231827786069 0 0)
(0.00105582327386516 0 0)
(0.001139811260180065 0 0)
(0.001228181495447933 0 0)
(0.001314538644077411 0 0)
(0.001397410023817858 0 0)
(0.001475265353740557 0 0)
(0.001546662671856999 0 0)
(0.00160997193288209 0 0)
(0.001662782911878261 0 0)
(0.001703669181556821 0 0)
(0.001730608159475396 0 0)
(0.001741393904690197 0 0)
(0.001736684136277044 0 0)
(0.001716809750008521 0 0)
(0.001682769120171598 0 0)
(0.001634733262603238 0 0)
(0.001576964870553907 0 0)
(0.001512170306204479 0 0)
(0.001441362964172839 0 0)
(0.001365694785345637 0 0)
(0.001286819252010531 0 0)
(0.001206665581947744 0 0)
(0.001124428179200539 0 0)
(0.001041185757444571 0 0)
(0.0009552143536645241 0 0)
(0.0008668845848757283 0 0)
(0.0007843084410138656 0 0)
(0.000703416596441447 0 0)
(0.0006270694080371241 0 0)
(0.0005570122925291213 0 0)
(0.0004956790858078833 0 0)
(0.0004450696464384769 0 0)
(0.0004072931835357982 0 0)
(0.0003842427841974669 0 0)
(0.000376964710841562 0 0)
(0.0003856144099135583 0 0)
(0.0004136367045822391 0 0)
(0.0004604848323912054 0 0)
(0.0005192238475912345 0 0)
(0.0005888790399076303 0 0)
(0.0006665021134298711 0 0)
(0.0007503530149854406 0 0)
(0.0008384458679132233 0 0)
(0.0009293031640360651 0 0)
(0.001024392364852138 0 0)
(0.001120351992211672 0 0)
(0.001214426144646867 0 0)
(0.001309184121654633 0 0)
(0.001391536218217057 0 0)
(0.001481875487421531 0 0)
(0.001566821547217389 0 0)
(0.001647864589123753 0 0)
(0.001722940092220354 0 0)
(0.001790928073742941 0 0)
(0.00184972966460171 0 0)
(0.001897517589109378 0 0)
(0.001931736101358514 0 0)
(0.001951340609634504 0 0)
(0.001952427909173832 0 0)
(0.001940566292641919 0 0)
(0.001916226384562752 0 0)
(0.001874952562985422 0 0)
(0.001822947316217564 0 0)
(0.001762700246339638 0 0)
(0.001696242928990256 0 0)
(0.001624509774412766 0 0)
(0.001548171517131617 0 0)
(0.001470663991641298 0 0)
(0.001392936326807694 0 0)
(0.001310956545512657 0 0)
(0.00123332745114741 0 0)
(0.001140550641195747 0 0)
(0.001061728680767459 0 0)
(0.0009820578817354752 0 0)
(0.0009065466267442154 0 0)
(0.0008362413549421108 0 0)
(0.0007737608723967785 0 0)
(0.0007213196402636391 0 0)
(0.000681262778115268 0 0)
(0.0006544633222910025 0 0)
(0.0006437965690053714 0 0)
(0.0006453396425496704 0 0)
(0.0006681663655912844 0 0)
(0.0007118396262588598 0 0)
(0.0007674904580278779 0 0)
(0.0008353565860055175 0 0)
(0.0009121558182861541 0 0)
(0.0009962029150810913 0 0)
(0.001085453755148419 0 0)
(0.001177709912398735 0 0)
(0.001273299842897769 0 0)
(0.001373829784397051 0 0)
(0.001469282097017319 0 0)
(0.001572685657252747 0 0)
(0.001649199929471087 0 0)
(0.001744493825026103 0 0)
(0.001831924618248429 0 0)
(0.00191635155192418 0 0)
(0.001995064944541157 0 0)
(0.00206729364072325 0 0)
(0.002131415775825349 0 0)
(0.002186374136835304 0 0)
(0.002228270895438959 0 0)
(0.002256098792949439 0 0)
(0.002265385316096413 0 0)
(0.00226199832320052 0 0)
(0.002244956810673308 0 0)
(0.002212534170010565 0 0)
(0.002166661618733557 0 0)
(0.002111602500257763 0 0)
(0.002049495729711806 0 0)
(0.001981942915088176 0 0)
(0.001909541225999108 0 0)
(0.001833381971122004 0 0)
(0.001760153198664104 0 0)
(0.001682035612971378 0 0)
(0.001606664759951815 0 0)
(0.001517941688860834 0 0)
(0.001438438615768994 0 0)
(0.001361523533932675 0 0)
(0.001287215013054005 0 0)
(0.001217157619527554 0 0)
(0.001153759125240851 0 0)
(0.001099517044860055 0 0)
(0.001057309089264794 0 0)
(0.001028349988074116 0 0)
(0.001013158494847671 0 0)
(0.001012020848987933 0 0)
(0.001028142481962964 0 0)
(0.001064699347532802 0 0)
(0.001119562730952419 0 0)
(0.001184586695647477 0 0)
(0.001260424237188923 0 0)
(0.001344150485168317 0 0)
(0.001434145271058732 0 0)
(0.001528355640513977 0 0)
(0.00162433016063006 0 0)
(0.001727657662914041 0 0)
(0.001828497082889953 0 0)
(0.001928399198368919 0 0)
(0.002021834364665781 0 0)
(0.002107310986840022 0 0)
(0.002200829112420976 0 0)
(0.002288058139266624 0 0)
(0.002370509706134425 0 0)
(0.002446755070607132 0 0)
(0.00251552227749456 0 0)
(0.00257624096616688 0 0)
(0.002626843282506094 0 0)
(0.002662127420962954 0 0)
(0.002682602930376676 0 0)
(0.002682685353008974 0 0)
(0.002673231405172913 0 0)
(0.002653562317377759 0 0)
(0.002613713378064243 0 0)
(0.002564699059205777 0 0)
(0.00250726645237155 0 0)
(0.002443803579750649 0 0)
(0.002375554507234348 0 0)
(0.002302242966160205 0 0)
(0.002231105945352794 0 0)
(0.002158739486869714 0 0)
(0.002082307067215401 0 0)
(0.002009334769952808 0 0)
(0.001917832000287153 0 0)
(0.001847937629549549 0 0)
(0.001774699838592112 0 0)
(0.001706030174314134 0 0)
(0.001642356826173631 0 0)
(0.001586315666189185 0 0)
(0.001541190309860669 0 0)
(0.001510345681178631 0 0)
(0.001491883636682801 0 0)
(0.001489010846764344 0 0)
(0.001495127215323487 0 0)
(0.001526813663820918 0 0)
(0.001581622776459992 0 0)
(0.001643440317070886 0 0)
(0.001718277229444405 0 0)
(0.001801651008727288 0 0)
(0.00189203271500345 0 0)
(0.001987665246834593 0 0)
(0.002085321645999161 0 0)
(0.002190419715515729 0 0)
(0.002296466666457352 0 0)
(0.002396403822109533 0 0)
(0.002507668220826109 0 0)
(0.002575399810921212 0 0)
(0.002681000628142982 0 0)
(0.002770319532364443 0 0)
(0.002857369143026884 0 0)
(0.0029376722710002 0 0)
(0.003010999604135353 0 0)
(0.003076247433973263 0 0)
(0.003133770648983396 0 0)
(0.003178961009849468 0 0)
(0.003207937568623441 0 0)
(0.003217289083197508 0 0)
(0.003215971429059221 0 0)
(0.00320323392931258 0 0)
(0.003173105377187206 0 0)
(0.003130196495610864 0 0)
(0.003078430948020339 0 0)
(0.003019683131579828 0 0)
(0.002955408470612824 0 0)
(0.002885661002207568 0 0)
(0.002817086097421866 0 0)
(0.002749232653214761 0 0)
(0.002676143158105527 0 0)
(0.002607882834154167 0 0)
(0.002516040479743311 0 0)
(0.002448846353333528 0 0)
(0.002378627282575756 0 0)
(0.002311927223940775 0 0)
(0.002249068361421466 0 0)
(0.002192870022252016 0 0)
(0.002144940871756938 0 0)
(0.00211016743139418 0 0)
(0.002090462881594819 0 0)
(0.002082470727696083 0 0)
(0.002090543921115812 0 0)
(0.002111789936483094 0 0)
(0.002157804748198566 0 0)
(0.002223737301807244 0 0)
(0.002294863935200707 0 0)
(0.002378485166069148 0 0)
(0.002469713647486195 0 0)
(0.002566507882442276 0 0)
(0.002665567662478281 0 0)
(0.002771190817204912 0 0)
(0.002882496094261958 0 0)
(0.002988381487250561 0 0)
(0.003092677555021824 0 0)
(0.00318643494404108 0 0)
(0.003273906970183047 0 0)
(0.003375239541158028 0 0)
(0.003464901537790756 0 0)
(0.003548906622884844 0 0)
(0.003627357950364393 0 0)
(0.00369854765891712 0 0)
(0.003761179791678588 0 0)
(0.003811771058850791 0 0)
(0.003854114535367546 0 0)
(0.003922238024561134 0 0)
(0.003876888328402396 0 0)
)
;

boundaryField
{
    inlet
    {
        type            calculated;
        value           uniform (-3.152407600017896e-05 0 0);
    }
    outlet
    {
        type            calculated;
        value           uniform (0.003876888328402396 0 0);
    }
    frontAndBack
    {
        type            empty;
    }
}


// ************************************************************************* //
