/*--------------------------------*- C++ -*----------------------------------*\
| =========                 |                                                 |
| \\      /  F ield         | OpenFOAM: The Open Source CFD Toolbox           |
|  \\    /   O peration     | Version:  v2012                                 |
|   \\  /    A nd           | Website:  www.openfoam.com                      |
|    \\/     M anipulation  |                                                 |
\*---------------------------------------------------------------------------*/
FoamFile
{
    version     2.0;
    format      ascii;
    class       volScalarField;
    location    "0.01";
    object      p;
}
// * * * * * * * * * * * * * * * * * * * * * * * * * * * * * * * * * * * * * //

dimensions      [1 -1 -2 0 0 0 0];


internalField   nonuniform List<scalar> 
1000
(
101310.9447081562
101313.5872691224
101306.8414201098
101301.53487577
101295.6911977572
101290.4511094791
101285.9441160372
101282.0892783428
101278.7810440928
101276.5529326802
101275.9293982143
101275.9500706633
101276.324817154
101277.3495344587
101279.3315572864
101282.3360613217
101286.2520471458
101290.9051601003
101296.1488384
101301.8801344077
101308.0147300713
101314.462200614
101321.1160851888
101327.8543826058
101334.5443013082
101341.0511218632
101347.2556700445
101353.0830409475
101358.5260493607
101363.6049855104
101368.1698720232
101371.5662305637
101373.0196611593
101373.182104949
101373.123470755
101372.8537037349
101372.1144343963
101370.6592125695
101368.2828717114
101364.8911179236
101360.5252356982
101355.3384914744
101349.5339199662
101343.3020043878
101336.7910369542
101330.1138263447
101323.3704425286
101316.6648289671
101310.1038523857
101303.7767960188
101297.7264166308
101291.9497148544
101286.4985580331
101281.745552486
101278.5834990907
101277.5068908243
101277.4337282244
101277.4786978175
101277.7348417163
101278.3764396346
101279.6247968853
101281.6733940231
101284.6585294841
101288.6230133312
101293.5041026614
101299.1485962062
101305.3519145228
101311.9052942336
101318.6303897037
101325.3898339424
101332.0811888851
101338.6325892218
101345.0077304949
101351.2048447384
101357.2187128727
101362.9224293271
101367.8268273575
101370.9824588859
101372.0170894585
101372.0916676875
101372.0368337677
101371.8314451355
101371.2862873526
101370.2253379254
101368.4632770234
101365.8486669521
101362.2909364958
101357.7841874927
101352.4132883977
101346.3394279217
101339.7702065275
101332.9229376278
101325.9894792013
101319.1109983384
101312.3690507148
101305.7921217232
101299.3748439146
101293.1288598629
101287.2261134516
101282.2675644172
101279.2672967604
101278.3939524819
101278.3496315069
101278.3862123062
101278.5939132053
101279.0989383292
101280.0773022716
101281.6947531657
101284.0969332825
101287.3835993901
101291.5889594605
101296.6686463659
101302.5005580183
101308.903294583
101315.667753827
101322.5917192776
101329.5099072378
101336.3161631576
101342.9712573807
101349.4825725128
101355.8375261076
101361.8604227587
101366.9719684446
101370.1762795821
101371.2015044217
101371.2797545471
101371.2373735117
101371.0794716011
101370.6528426963
101369.8137132947
101368.402105596
101366.2714114923
101363.305560022
101359.4398092034
101354.6759388072
101349.0885643381
101342.8202569486
101336.0630316075
101329.0260813135
101321.8975148657
101314.8141417316
101307.8505924949
101301.035110631
101294.4121556587
101288.2016368956
101283.0622732444
101280.0132445387
101279.1360051161
101279.0864768535
101279.1138493995
101279.277838329
101279.6852309126
101280.4836479782
101281.8174568947
101283.8234731154
101286.6130429117
101290.2560958251
101294.7658731456
101300.0900539981
101306.1132303357
101312.6712891192
101319.5748108853
101326.6389528418
101333.7153766777
101340.7135863229
101347.5920309216
101354.2980854099
101360.6267896251
101365.9826045355
101369.3675954312
101370.4940847917
101370.5944636959
101370.5636899751
101370.4454748071
101370.1089259934
101369.4312734157
101368.2708996144
101366.4916072714
101363.973844242
101360.6305773671
101356.4210911321
101351.3614797677
101345.5296132207
101339.0603113325
101332.1269854144
101324.9125363428
101317.5792466246
101310.2488509384
101303.005909092
101295.9523010344
101289.3639531729
101283.9462259045
101280.7312143616
101279.779162482
101279.714020968
101279.7346003427
101279.8654464389
101280.1977065382
101280.8595061132
101281.9791385529
101283.6837478756
101286.0854647189
101289.2688928549
101293.2777126984
101298.1044410546
101303.6870191976
101309.9132842073
101316.6331468024
101323.6794736026
101330.8959363772
101338.1606469449
101345.3859480901
101352.4709997462
101359.172672953
101364.8748788403
101368.5583582569
101369.8615609038
101370.0004506106
101369.9788451256
101369.889489393
101369.6207798098
101369.0661034045
101368.0993765254
101366.5949725321
101364.4354731584
101361.5242945047
101357.7973308361
101353.2335234342
101347.8628850794
101341.7680820312
101335.075585463
101327.9373104634
101320.5085395942
101312.9293690652
101305.32245139
101297.838762404
101290.8066164386
101284.9830147527
101281.4598331309
101280.360023594
101280.2688283848
101280.2821314237
101280.3845952839
101280.6553330277
101281.2087154889
101282.1595522899
101283.6248947258
101285.7131270319
101288.514435688
101292.0896089062
101296.4603178346
101301.603523084
101307.4508133512
101313.893430636
101320.7953845596
101328.014397155
101335.4218222252
101342.9049773512
101350.3296900352
101357.4254501175
101363.562176866
101367.6784636579
101369.2618061038
101369.467301278
101369.4536321438
101369.3890753629
101369.1758804782
101368.7203989508
101367.9086748592
101366.6253597437
101364.7582747767
101362.2082108333
101358.8983091888
101354.7836447859
101349.8598465754
101344.167556458
101337.7894899003
101330.8402360211
101323.4518949279
101315.7600830197
101307.9018846626
101300.0567317504
101292.5846007479
101286.2712288675
101282.282981642
101280.9156342985
101280.7714287238
101280.7795147202
101280.858491684
101281.0783456468
101281.541564789
101282.3524649852
101283.6195860109
101285.4467927526
101287.9255531359
101291.1257607325
101295.0874874201
101299.8151813832
101305.2745605444
101311.3933381549
101318.0687379449
101325.1820481727
101332.6131998184
101340.2426026129
101347.921401356
101355.3721856081
101361.9764824732
101366.6445485251
101368.64698115
101368.9738291697
101368.9686868176
101368.9255895944
101368.7589279248
101368.3868455426
101367.7045759833
101366.6054745609
101364.9831255285
101362.7390321664
101359.7899951697
101356.0762744629
101351.5696045611
101346.2786031934
101340.2492472494
101333.5603748898
101326.3156564177
101318.6345527679
101310.6518831258
101302.5536851301
101294.7004931782
101287.8644917476
101283.2704156404
101281.4872646198
101281.2429713121
101281.2445470501
101281.3023013236
101281.4770176825
101281.8620229858
101282.5533089508
101283.6520395243
101285.2571448294
101287.4591518424
101290.3326969916
101293.9296763954
101298.2737352596
101303.3560892402
101309.1340226446
101315.534845332
101322.4653351091
101329.8212242648
101337.4878211519
101345.3168966338
101353.0438847
101360.0925854765
101365.3876044486
101367.962780881
101368.499370104
101368.5123784618
101368.4857152672
101368.3587451978
101368.0580620404
101367.4867903258
101366.5454795193
101365.1330130436
101363.1528704201
101360.5190258666
101357.1627666882
101353.0395112306
101348.134181283
101342.4637774806
101336.0766534658
101329.0486282832
101321.4777905872
101313.4862192671
101305.2509583025
101297.1086582201
101289.7764123015
101284.4867716095
101282.1239796762
101281.6991242847
101281.6924307726
101281.729063641
101281.863525939
101282.178290088
101282.763554143
101283.7147275446
101285.1263185007
101287.0869157382
101289.6731943784
101292.9443832276
101296.9372902423
101301.661796017
101307.0983116304
101313.1994945394
101319.8958136202
101327.1009640515
101334.711600583
101342.5900824788
101350.4979337706
101357.9242859888
101363.859589004
101367.144697083
101368.0215856138
101368.0762929386
101368.0611282385
101367.9678313985
101367.729488504
101367.2552900231
101366.4520500392
101365.2231958817
101363.474625103
101361.1193273439
101358.0830559946
101354.3102231127
101349.7688745397
101344.4539800642
101338.3888900494
101331.6246538509
101324.2378856608
101316.3334172799
101308.0697985886
101299.7451138348
101291.9930043368
101285.9872284571
101282.8862885138
101282.1553081509
101282.1206048736
101282.1439111722
101282.2431839568
101282.4965731144
101282.9879350345
101283.8080344999
101285.0476338859
101286.7933568576
101289.1229317689
101292.1004026542
101295.7714593958
101300.159383069
101305.2625390704
101311.0542700795
101317.4851115375
101324.4859378218
101331.9682799052
101339.8111841737
101347.8076353806
101355.5207975878
101362.0479689194
101366.1285538986
101367.5023244641
101367.6463159561
101367.6380258276
101367.575540223
101367.3927630942
101367.0063403253
101366.327147502
101365.262593671
101363.7208516722
101361.6148333385
101358.8670915822
101355.4149515686
101351.2146600166
101346.2446366383
101340.5084841262
101334.0366936898
101326.886109479
101319.1424257162
101310.9412777086
101302.5373251512
101294.469014579
101287.7946687069
101283.8430370372
101282.6406415286
101282.5359538838
101282.5517381373
101282.6200867556
101282.8196403184
101283.2268574462
101283.9291362961
101285.0140348494
101286.5664256935
101288.6641269085
101291.3742238055
101294.7490101404
101298.8217596721
101303.6039466136
101309.0849124902
101315.2326569052
101321.9941739336
101329.2946769534
101337.0293746564
101345.0243188436
101352.9200729108
101359.9473881716
101364.8533080434
101366.9030838847
101367.230488505
101367.2354346677
101367.1924840611
101367.056313986
101366.7442847532
101366.1734068037
101365.2541688173
101363.8971105649
101362.015794687
101359.5310031507
101356.3748822393
101352.4948012806
101347.8570112768
101342.4499898465
101336.2866149528
101329.4052673725
101321.8737124644
101313.8057344499
101305.4129087321
101297.1377549881
101289.8927480757
101285.054177363
101283.2056937964
101282.9554819055
101282.9598551992
101283.0047362023
101283.1556122127
101283.4863177535
101284.0806661412
101285.0236003586
101286.3985177584
101288.2834553644
101290.747643356
101293.8478055026
101297.6245685367
101302.0998660122
101307.2756168452
101313.1331431696
101319.6330498785
101326.7148066786
101334.2902997467
101342.2142469791
101350.1956782993
101357.6045927084
101363.2868936891
101366.1557888209
101366.8049023712
101366.832436529
101366.8090077638
101366.7115216148
101366.4655243723
101365.9915813355
101365.2033282052
101364.0135051328
101362.3367423186
101360.0929286015
101357.2107404419
101353.6313053615
101349.3117935604
101344.2286580053
101338.3803082948
101331.7895636411
101324.5079138735
101316.6280568038
101308.3223537235
101299.9473043928
101292.2599956798
101286.5672972219
101283.9011316491
101283.3738695707
101283.359060842
101283.3858609285
101283.4960975917
101283.7604665527
101284.2586724544
101285.0736525496
101286.2873512811
101287.9774622474
101290.2143172922
101293.057666376
101296.5536918297
101300.73272136
101305.6075510849
101311.1720106376
101317.3999604507
101324.2442675503
101331.6316055256
101339.440127822
101347.4333136739
101355.1059736669
101361.4466599499
101365.1944921302
101366.3150786069
101366.4112031921
101366.3718655124
101366.2891442962
101366.0976682111
101365.7243462335
101365.0844022454
101364.0884297919
101362.6454985916
101360.6670963425
101358.0710112323
101354.7859743388
101350.7574475959
101345.9529041509
101340.3647338174
101334.0118763496
101326.9411613544
101319.2339837964
101311.036811365
101302.6316294993
101294.6557387311
101288.2776637835
101284.7152611286
101283.7078949448
101283.6167347431
101283.6279243087
101283.6753025561
101283.8295215308
101284.1653355633
101284.7726383238
101285.7484074534
101287.1891146853
101289.1823562977
101291.8007509198
101295.0985618912
101299.1097408366
101303.8467873889
101309.3006490986
101315.4413199563
101322.2186698942
101329.5581232126
101337.3448748078
101345.3880295369
101353.287403179
101360.1419343286
101364.6939640248
101366.6793980008
101367.0320135661
101367.0150694691
101366.9344916325
101366.7576733625
101366.4309692096
101365.8907869177
101365.0473177562
101363.7893893126
101362.0079732209
101359.610999622
101356.525823205
101352.6981551214
101348.0929168274
101342.6965276084
101336.5184856783
101329.5932223289
101321.9925380029
101313.8541596597
101305.4223833871
101297.1819749032
101290.1381964496
101285.6115462038
101283.748925919
101283.4073212181
101283.4328506404
101283.5113450707
101283.7136345684
101284.0770398439
101284.659133353
101285.5436748905
101286.8309417053
101288.6175180758
101290.9864478548
101294.003833401
101297.7155842641
101302.1450192078
101307.2933223096
101313.1412932058
101319.6508235498
101326.7605212126
101334.3638938699
101342.2794367147
101350.1945319955
101357.4644278776
101362.9071831751
101365.7322696399
101366.5145835131
101366.5640929433
101366.4869404377
101366.3272599737
101366.0255946423
101365.5315834955
101364.7743334962
101363.6589108805
101362.0830082619
101359.9489241641
101357.1688294518
101353.670360124
101349.4030400159
101344.3416576043
101338.4868859892
101331.8657145126
101324.5382338051
101316.6233975432
101308.3332679056
101300.0386301305
101292.4949714264
101287.0083624062
101284.3338069175
101283.617210467
101283.5873526021
101283.665102232
101283.8478413374
101284.1891617122
101284.7313136022
101285.5429016243
101286.7124596771
101288.3303974171
101290.4802847797
101293.2358239285
101296.6561192244
101300.779968439
101305.6226900693
101311.1757772323
101317.4082371855
101324.2652931567
101331.6532342473
101339.4155705113
101347.3037440949
101354.8366868702
101361.0192118604
101364.7259318854
101366.1180785132
101366.2850039154
101366.2228202671
101366.0829837085
101365.8077613109
101365.3545059624
101364.6666971769
101363.6625641504
101362.2465445131
101360.3238403449
101357.8050929345
101354.6098867673
101350.6736220849
101345.9545762357
101340.4382649582
101334.1395150448
101327.1063095304
101319.4378125391
101311.3140565652
101303.0326402219
101295.1696019479
101288.8596069406
101285.260846711
101284.0073404134
101283.8508628431
101283.9226303029
101284.0759566927
101284.3875657336
101284.8868345121
101285.6289424599
101286.6926176781
101288.1637053939
101290.1234038414
101292.6461997354
101295.7970766001
101299.6254541224
101304.1597898369
101309.4048145777
101315.3405812967
101321.9220828907
101329.0720832053
101336.6587974104
101344.4690655753
101352.1317105795
101358.8839255087
101363.5150945569
101365.6006788785
101366.0497871275
101366.0334590447
101365.9037984246
101365.6536476143
101365.2393981317
101364.612323964
101363.7025484719
101362.4222329107
101360.6811127882
101358.3912612163
101355.4686139762
101351.8396635789
101347.4505970427
101342.2734391199
101336.3094474589
101329.5922119279
101322.1979230178
101314.2733119424
101306.070319612
101298.037688737
101291.0776334307
101286.5025903089
101284.59592424
101284.1935041873
101284.2191520604
101284.353457506
101284.6316528845
101285.0879104165
101285.7661053192
101286.7343405549
101288.0723769093
101289.8588748269
101292.1689131383
101295.0715338401
101298.6233046578
101302.8618641454
101307.8023130721
101313.4355636956
101319.7281563311
101326.6187743316
101333.9991031497
101341.6878459767
101349.393004911
101356.5345981631
101362.0073485304
101364.89357766
101365.8027960405
101365.8661674975
101365.7567512704
101365.5412415516
101365.1584183196
101364.5784810768
101363.7470926602
101362.5859388672
101361.0082435719
101358.9265100263
101356.25452903
101352.9130386964
101348.8387664196
101343.9923340565
101338.3632760192
101331.9724019092
101324.876432863
101317.1912672283
101309.1278708517
101301.0398040454
101293.6231145491
101288.1191753795
101285.400274667
101284.6011648627
101284.5264519546
101284.6434161065
101284.8778436157
101285.2999860923
101285.9297880107
101286.8216189104
101288.0464877505
101289.6785135719
101291.792261437
101294.4613850686
101297.7508913497
101301.7078406107
101306.3561493338
101311.6950383449
101317.6989612105
101324.317230157
101331.4628721791
101338.9878089473
101346.6516287902
101354.0084165655
101360.1633272657
101363.9730394111
101365.4396521702
101365.7056749223
101365.6499123931
101365.4658163291
101365.1162344836
101364.5745156943
101363.8000950617
101362.7298979996
101361.2884671308
101359.3942442558
101356.9595178571
101353.8960472165
101350.1277308742
101345.6027962067
101340.3000328625
101334.2307971482
101327.4406766684
101320.0217791078
101312.1442256954
101304.0958590525
101296.4149521741
101290.1416752557
101286.451218203
101285.1407607441
101284.8986263965
101284.9326780974
101285.1266013032
101285.5056151707
101286.0942479944
101286.9312213637
101288.0723247289
101289.5794171397
101291.5194035892
101293.966520216
101296.9959977963
101300.6705603688
101305.0288062088
101310.0802710412
101315.8050519565
101322.1561927497
101329.0581688337
101336.3868190033
101343.9427289986
101351.387691889
101358.0266728565
101362.7321079158
101364.9094845997
101365.4934215965
101365.5537709337
101365.4239174105
101365.1328651887
101364.6292339697
101363.8927031809
101362.8802755701
101361.5343388456
101359.7871916673
101357.5595485055
101354.7616708109
101351.3031676778
101347.1088829411
101342.1348602534
101336.3788183817
101329.881335424
101322.7250368849
101315.0562619464
101307.1167986594
101299.3169459958
101292.4845781952
101287.8584945075
101285.8625773001
101285.3690832552
101285.2882992852
101285.4034155001
101285.7023653394
101286.2323379406
101287.0229097816
101288.1125055299
101289.5416939811
101291.3553290616
101293.6123615871
101296.3888590207
101299.7665772154
101303.812761202
101308.5621110079
101314.0085553894
101320.1071577241
101326.7820354228
101333.9196975584
101341.3446705793
101348.787063104
101355.7209723598
101361.1449303636
101364.1769048396
101365.1862049592
101365.3539312439
101365.3494839647
101365.1641413305
101364.7550342267
101364.0807195901
101363.1052599689
101361.7963125575
101360.1217328239
101358.0365687026
101355.469652996
101352.3243597637
101348.4959029717
101343.8971192261
101338.4836364053
101332.2751675744
101325.357457968
101317.8796459624
101310.0682052055
101302.2481446848
101295.0443151131
101289.6111548048
101286.7756863909
101285.909058618
101285.7747195439
101285.7915148078
101285.9732795082
101286.3692232407
101287.0370693921
101288.0395342419
101289.424394893
101291.2132657663
101293.4125030891
101296.0363740914
101299.1269808529
101302.7674361742
101307.0802853937
101312.1817895198
101318.0912632862
101324.6486799164
101331.6685574966
101338.7253527883
101346.8410933245
)
;

boundaryField
{
    inlet
    {
        type            uniformFixedValue;
        uniformValue    sine;
        uniformValueCoeffs
        {
            frequency       constant 3000;
            scale           constant 50;
            level           constant 101325;
        }
        value           uniform 101323.6421297957;
    }
    outlet
    {
        type            pressureOutletNSCBC;
        pInf            101325;
        gamma           1.4;
        etaAc           1;
        fieldInf        1;
        lInf            2.25;
        value           uniform 101350.5449268146;
    }
    frontAndBack
    {
        type            empty;
    }
}


// ************************************************************************* //
