/*--------------------------------*- C++ -*----------------------------------*\
| =========                 |                                                 |
| \\      /  F ield         | OpenFOAM: The Open Source CFD Toolbox           |
|  \\    /   O peration     | Version:  v2012                                 |
|   \\  /    A nd           | Website:  www.openfoam.com                      |
|    \\/     M anipulation  |                                                 |
\*---------------------------------------------------------------------------*/
FoamFile
{
    version     2.0;
    format      ascii;
    class       volScalarField;
    location    "0.01";
    object      pMean;
}
// * * * * * * * * * * * * * * * * * * * * * * * * * * * * * * * * * * * * * //

dimensions      [1 -1 -2 0 0 0 0];


internalField   nonuniform List<scalar> 
1000
(
101325.0342065268
101325.0037127223
101325.0178149925
101325.0311998269
101325.0498061505
101325.0722953386
101325.0969808162
101325.1267103585
101325.1583478879
101325.1928241643
101325.2282071997
101325.2635433977
101325.2987604028
101325.3334794139
101325.3671926998
101325.3991882196
101325.4287430492
101325.4553017457
101325.4782928751
101325.4974369577
101325.5122819881
101325.5226723071
101325.5283112994
101325.5291820186
101325.5251720817
101325.5164400096
101325.5030694273
101325.4853927331
101325.4635947368
101325.4380181332
101325.4088604543
101325.376708297
101325.3426190583
101325.3079809768
101325.2733071966
101325.2387618201
101325.2045436956
101325.171079924
101325.138925351
101325.1087807773
101325.0813531536
101325.0573070785
101325.037161451
101325.0213193864
101325.0100297301
101325.0034749616
101325.0017390475
101325.0048532707
101325.0127483007
101325.0253018836
101325.042320697
101325.0636239272
101325.0890074122
101325.1181674944
101325.1503570623
101325.1842129009
101325.2184589898
101325.2527012649
101325.2868227523
101325.3206727615
101325.3538494798
101325.385923076
101325.4162143389
101325.4441082085
101325.4688462914
101325.4898867826
101325.5066700703
101325.5189264401
101325.5263853088
101325.5290304511
101325.526797888
101325.5198270738
101325.5081586471
101325.4919891403
101325.4713744427
101325.4465364498
101325.417729294
101325.3858595483
101325.3523265671
101325.3184617542
101325.2845693188
101325.2507856291
101325.2172419563
101325.1842511173
101325.1522199
101325.1217143128
101325.0933553762
101325.0678413757
101325.0458103294
101325.0278576189
101325.0144057022
101325.0057686228
101325.0020694332
101325.0033527966
101325.0095326626
101325.0205245301
101325.036191858
101325.0564524935
101325.0811300607
101325.10985913
101325.1416372231
101325.1749308361
101325.208514615
101325.2421055716
101325.2755827065
101325.3088634952
101325.3415975783
101325.373481112
101325.4039310687
101325.432434471
101325.4582623123
101325.4808510597
101325.4995223383
101325.5138749851
101325.5234708335
101325.5282006371
101325.5279070105
101325.522719472
101325.5126329968
101325.4978445168
101325.4783654482
101325.4544260384
101325.4263108095
101325.3950393752
101325.3620907122
101325.3288145755
101325.2954990897
101325.2622816439
101325.22923527
101325.19664007
101325.1647921439
101325.1341940198
101325.1053474276
101325.0789217082
101325.0555139133
101325.0357967038
101325.0202744426
101325.0094241242
101325.0034942337
101325.0026735417
101325.0069450427
101325.0162955715
101325.0305927216
101325.0497750242
101325.0736152183
101325.1017064145
101325.1329226203
101325.1656863659
101325.198730509
101325.2317983482
101325.2647625943
101325.2975809428
101325.3299440639
101325.3616222438
101325.3920983391
101325.4209478769
101325.447494893
101325.4712129408
101325.4914030178
101325.5076025267
101325.5192651771
101325.5261558467
101325.5279868374
101325.5247841008
101325.5164641623
101325.5031931179
101325.4849666175
101325.4620467141
101325.4347416759
101325.404133742
101325.3717303938
101325.3389576166
101325.3061271564
101325.2733858665
101325.2407650351
101325.2085155289
101325.1768663021
101325.1462605809
101325.1171215505
101325.0900616741
101325.0656305795
101325.0445045506
101325.0272135946
101325.0143329197
101325.0062108563
101325.0031894201
101325.0053602011
101325.0128360529
101325.0255297242
101325.043427001
101325.066267439
101325.0936102674
101325.124239377
101325.1565134683
101325.1890964891
101325.2217164501
101325.2542420002
101325.2866623089
101325.3186958058
101325.3501692183
101325.3806162276
101325.4096817648
101325.4367416834
101325.4613195506
101325.482724184
101325.5004854813
101325.5139897353
101325.5229225957
101325.526873834
101325.5257597282
101325.5193866979
101325.5078504627
101325.4910969519
101325.4693829278
101325.4430221429
101325.4131251173
101325.3812449268
101325.3489110522
101325.3165036583
101325.2841759785
101325.2519331298
101325.2199995815
101325.1885548387
101325.157992934
101325.1286719858
101325.1011551169
101325.0759369345
101325.053677145
101325.0349010588
101325.0202338013
101325.0100901135
101325.0049266809
101325.0049474647
101325.0103909471
101325.0212631362
101325.0376218984
101325.059235307
101325.085661283
101325.1156401862
101325.1474429692
101325.17961958
101325.2118421837
101325.2439837357
101325.2760483668
101325.3077849535
101325.3390570852
101325.3694444528
101325.3986462791
101325.42608658
101325.4513361214
101325.4737299478
101325.4928040736
101325.5079199711
101325.5187067017
101325.5246731196
101325.5256331533
101325.5212920973
101325.5116505149
101325.4965830599
101325.4762955528
101325.4510678498
101325.4219897198
101325.3906486914
101325.3587191491
101325.3266901937
101325.2947356612
101325.2628333124
101325.2311939126
101325.1999489759
101325.1694631843
101325.1400323656
101325.1121810241
101325.0863470247
101325.0631662598
101325.0431428351
101325.0269227052
101325.014959897
101325.007789598
101325.0057094415
101325.0090696121
101325.0179794232
101325.0325890853
101325.0527334397
101325.0780207417
101325.1072128642
101325.1385161755
101325.17031527
101325.2021779952
101325.2339703053
101325.2657084352
101325.2971690127
101325.3282420149
101325.3585505641
101325.3878317714
101325.4155602375
101325.441342832
101325.4645526486
101325.4847359614
101325.5012555562
101325.5137028825
101325.5215374485
101325.5244892371
101325.5221815946
101325.5145167751
101325.501293925
101325.4826362987
101325.4587587901
101325.4306622063
101325.399931507
101325.3683927786
101325.3367169401
101325.3051033393
101325.2735232735
101325.2421574845
101325.2111175465
101325.1807227218
101325.1512377085
101325.1231334026
101325.0968149313
101325.0728738397
101325.051800547
101325.0342318534
101325.0206494977
101325.011632652
101325.0075536078
101325.0088507471
101325.0157286297
101325.0284335812
101325.046886712
101325.0707983651
101325.0990188992
101325.1297545236
101325.1611822629
101325.1927109953
101325.2241745734
101325.2556085624
101325.2868043881
101325.3176837784
101325.3478959503
101325.3772209638
101325.4051655295
101325.4313820132
101325.4552676918
101325.4763995174
101325.4941372435
101325.5080683506
101325.5176073354
101325.522439118
101325.5221063922
101325.5164431566
101325.5051573567
101325.4883003248
101325.465976614
101325.4390658016
101325.4090570424
101325.3779315798
101325.3465845518
101325.3152982036
101325.2840197501
101325.2529243595
101325.2220859669
101325.1918047762
101325.1622997463
101325.1340132375
101325.1073037581
101325.0827357106
101325.0607682181
101325.0420305199
101325.0270083568
101325.016309944
101325.0103578216
101325.0096559206
101325.0144920463
101325.0251937236
101325.0417859584
101325.0640951801
101325.0911387735
101325.1211842134
101325.1522290138
101325.1834311815
101325.2145855513
101325.2457181285
101325.2766638029
101325.3073399917
101325.3374516241
101325.3667810084
101325.3948982668
101325.4214592173
101325.4459229752
101325.4678590363
101325.4866718462
101325.5019146666
101325.5130147713
101325.5195879222
101325.5211569048
101325.5174602798
101325.5081671074
101325.4932167084
101325.4726355377
101325.4471071997
101325.417990712
101325.3873206526
101325.3563039941
101325.3253226629
101325.2943449052
101325.2635074336
101325.2328822129
101325.2027228859
101325.1732362998
101325.1448135838
101325.1177958012
101325.0926991926
101325.0699712501
101325.0502100785
101325.0339114306
101325.021684261
101325.013994305
101325.0113826159
101325.0142094394
101325.0228661895
101325.0374782858
101325.0579953445
101325.0836390365
101325.1128317556
101325.1434458865
101325.1743326922
101325.2051851218
101325.2360286316
101325.2667207502
101325.2971941654
101325.3271841956
101325.3564953357
101325.3847337115
101325.4115792487
101325.4365266671
101325.4591625157
101325.478915066
101325.4953344826
101325.507848491
101325.5160410408
101325.5194076484
101325.5176278155
101325.5103228464
101325.4973486965
101325.478636735
101325.4546818651
101325.4266402475
101325.3965234591
101325.3658447821
101325.3351683136
101325.3044855833
101325.2739143238
101325.2435054929
101325.2134896153
101325.1840450242
101325.1555342185
101325.128266978
101325.1027302285
101325.0793449764
101325.0586898018
101325.0412508204
101325.0276394249
101325.0183391082
101325.0139226772
101325.0147970623
101325.0214121466
101325.03397406
101325.0525573505
101325.07659312
101325.1047368849
101325.1348317564
101325.1654007712
101325.1959567764
101325.2265185243
101325.2569525452
101325.2872212957
101325.317070613
101325.3463429303
101325.3746585649
101325.4017384596
101325.4270905746
101325.4503389086
101325.470915788
101325.4883954641
101325.5021901099
101325.5118861422
101325.5169397718
101325.5170108024
101325.5116586034
101325.5006944792
101325.4839397411
101325.461737835
101325.4349760562
101325.4055573704
101325.3752282308
101325.3448492898
101325.3144481024
101325.2841392698
101325.2539502752
101325.2240917733
101325.194715156
101325.1661573501
101325.138697478
101325.1127964775
101325.0888470158
101325.0674089178
101325.0489513783
101325.0340847565
101325.0232969327
101325.0171842424
101325.0161823426
101325.0207919072
101325.0312824424
101325.0478440215
101325.0700997688
101325.0969839432
101325.1264245737
101325.15665214
101325.186910664
101325.217185142
101325.2473580337
101325.2774062147
101325.3071012701
101325.3363048865
101325.3646661788
101325.3919280295
101325.4176265146
101325.4414051855
101325.4627177464
101325.4811475859
101325.4961146264
101325.5071967093
101325.5138388473
101325.5156714832
101325.5122245247
101325.503254708
101325.4885096406
101325.4681756676
101325.442895681
101325.4143465877
101325.3844350515
101325.3543466741
101325.3242299273
101325.2941849876
101325.2642252555
101325.2345382393
101325.2052554476
101325.1766844707
101325.1490829096
101325.1228795481
101325.0984481104
101325.076319476
101325.0569536662
101325.0409440238
101325.0287870936
101325.0210808523
101325.0182922441
101325.0209473152
101325.0293796798
101325.0438617223
101325.064202591
101325.0896094322
101325.1182252357
101325.148059754
101325.1780299958
101325.2080182763
101325.2379326255
101325.267749825
101325.2972801436
101325.3263892324
101325.354767951
101325.382165094
101325.408157407
101325.4323927363
101325.4543590061
101325.4736378792
101325.4896711593
101325.5020245467
101325.5101481379
101325.5136474502
101325.5120387923
101325.5050292073
101325.4923126224
101325.4739383891
101325.4503176591
101325.4228649609
101325.393474299
101325.3636865429
101325.3338202337
101325.3040097948
101325.2742437908
101325.2447125405
101325.2155252186
101325.1869832985
101325.1593052954
101325.1329294962
101325.1081577553
101325.0855263679
101325.0654456613
101325.0484916822
101325.0350818197
101325.0258957466
101325.0213675623
101325.0220375592
101325.028328224
101325.040608407
101325.0588267759
101325.0823913591
101325.1098014527
101325.1390619166
101325.1686713042
101325.1983561075
101325.2279227486
101325.2573813396
101325.2864870813
101325.3152768501
101325.3433042627
101325.3704271923
101325.3962192145
101325.4204784223
101325.4425940488
101325.4623371426
101325.4791797694
101325.492603198
101325.5021637837
101325.5074425681
101325.5079435564
101325.5032239662
101325.4930159129
101325.4772426454
101325.4560603772
101325.4306159348
101325.4027783167
101325.3739100569
101325.344935201
101325.3160121457
101325.2871552642
101325.2583729106
101325.2300186618
101325.2022586316
101325.1752359852
101325.1493224172
101325.1249084173
101325.1023546536
101325.0820896373
101325.0647313868
101325.0505458381
101325.040292059
101325.034345452
101325.0334253122
101325.0377214702
101325.0478663426
101325.0638155838
101325.0853547881
101325.1110130179
101325.1392522794
101325.168218397
101325.1973509067
101325.2264799011
101325.2554839039
101325.2842181365
101325.3125930537
101325.3404377451
101325.367435128
101325.393276818
101325.4176693815
101325.4401861403
101325.4603958615
101325.477927919
101325.492255655
101325.5028729206
101325.5093724394
101325.5113648268
101325.5082494836
101325.4998224171
101325.4858880132
101325.4665452707
101325.4424672918
101325.4153528011
101325.3868707389
101325.3579069015
101325.329116497
101325.3002880396
101325.2716088577
101325.2431173727
101325.2152856241
101325.188080098
101325.1619092216
101325.1370211676
101325.1140024563
101325.0929198349
101325.0746493035
101325.0594432203
101325.0478171201
101325.04041452
101325.0376698062
101325.0401465283
101325.0481537128
101325.0619466086
101325.0814112226
101325.1055911311
101325.1327697198
101325.1613421255
101325.1900636748
101325.2189260252
101325.247678373
101325.2762308973
101325.3044447366
101325.3321951473
101325.3592204565
101325.385191889
101325.4098150297
101325.4327723731
101325.4535062361
101325.4717798046
101325.4871109953
101325.4988444411
101325.5066838017
101325.5101151809
101325.5088017073
101325.5021863069
101325.4902443358
101325.4728561482
101325.4505354605
101325.42441473
101325.3965462378
101325.36796777
101325.3392836332
101325.3107289268
101325.282247634
101325.25384224
101325.2259876274
101325.1987766909
101325.1724522446
101325.1473062794
101325.1238449574
101325.1022708897
101325.083225673
101325.0671002448
101325.0543467639
101325.0455509226
101325.0412750614
101325.0419657154
101325.0480197252
101325.059764486
101325.0771869772
101325.099748707
101325.1258642942
101325.1538515766
101325.1824028414
101325.2108482905
101325.2395226868
101325.2679123411
101325.2959811839
101325.3237068904
101325.3508164932
101325.3769458415
101325.4018426377
101325.4251856581
101325.4465192861
101325.4655328756
101325.481650665
101325.4945880473
101325.5036934085
101325.5086269995
101325.5089362929
101325.5042222953
101325.49421448
101325.4788393447
101325.4583524321
101325.4336285958
101325.4064219536
101325.3783218373
101325.3499275448
101325.3215815152
101325.2933776496
101325.265126044
101325.2373721985
101325.2101437601
101325.1837263116
101325.1583963033
101325.1345478052
101325.1126069063
101325.0927936506
101325.0758417683
101325.0622090203
101325.0521245129
101325.0464204932
101325.045421592
101325.0496980599
101325.059417585
101325.0748831598
101325.095634425
101325.1206670144
101325.1478542242
101325.1761171868
101325.2044523914
101325.2327165369
101325.2610995526
101325.28903793
101325.3167678494
101325.3438940367
101325.3701884656
101325.395361345
101325.4190594704
101325.4409908498
101325.4605502451
101325.477621571
101325.4915729351
101325.5019102637
101325.5082610067
101325.5102380039
101325.5072876605
101325.499192911
101325.4858207445
101325.4672384826
101325.4441175114
101325.4178177759
101325.3901795053
101325.3622721313
101325.3340790734
101325.3062378228
101325.2782804543
101325.2505045193
101325.2233793594
101325.1969389377
101325.1714620574
101325.1473253169
101325.1249817361
101325.1046260158
101325.0870047299
101325.0723423096
101325.0612350338
101325.0541323508
101325.0516723129
101325.0540904873
101325.0619912301
101325.0754477999
101325.0943797227
101325.1179867374
101325.1445302165
101325.1722512182
101325.2004403248
101325.2285419545
101325.2566536876
101325.2847052407
101325.3121163445
101325.3394600614
101325.3659005752
101325.3913360966
101325.4153982559
101325.4378430611
101325.4580515948
101325.4759647016
101325.4907487514
101325.5023754296
101325.5100509695
101325.5135749468
101325.5123515201
101325.5061886747
101325.4947134663
101325.4781281722
101325.4566750389
101325.4316548121
101325.4045163446
101325.3769740901
101325.3493359092
101325.3214898089
101325.294127409
101325.2663692163
101325.239451924
101325.2129742132
101325.1873688017
101325.1630110975
101325.1402577641
101325.1195511184
101325.1010526218
101325.0856691987
101325.0736166817
101325.0651954802
101325.0612551464
101325.0621871405
101325.0681506067
101325.0797009489
101325.0967466798
101325.1187748306
101325.144470339
101325.1717071645
101325.1996381988
101325.2276827139
101325.2554376151
101325.2835296114
101325.310969373
101325.3380394476
101325.3647649914
101325.3904616513
101325.4149035383
101325.4377946617
101325.4587535192
101325.4771654623
101325.493118031
101325.5056857899
101325.5146796282
101325.51967136
101325.5202461874
101325.5157814367
101325.5063410228
101325.4916590259
101325.4720609223
101325.4483596835
101325.4221933767
101325.3948041833
101325.3675225131
101325.3402351772
101325.3127857089
101325.2859576763
101325.2584585257
101325.2323425686
101325.2067100497
101325.1821022293
101325.1590382896
101325.1378614693
101325.1188122258
101325.102661326
101325.0895604855
101325.0803291832
101325.0747660831
101325.0741729899
101325.0785050447
101325.0881460814
101325.1032841374
101325.1236339896
101325.1481089583
101325.1750489097
101325.2025261008
101325.2303825369
101325.258285399
101325.2856704618
101325.3137539885
101325.3402653096
101325.3673058023
101325.393224765
101325.417918565
101325.4413271477
101325.4628977593
101325.4821251517
101325.4986886856
101325.5124478792
101325.5226401767
101325.5288938317
101325.5310609041
101325.5286293754
101325.5209587713
101325.5083139061
101325.4905903582
101325.4684461827
101325.4432149085
101325.4165579379
101325.3893000472
101325.3622925341
101325.3354446705
101325.3083580947
101325.28234434
101325.2550152642
101325.2298361072
101325.2052299104
101325.1817652858
101325.1602301959
101325.1405724632
101325.1235786482
101325.1098196491
101325.0994251137
101325.093046295
101325.0906618371
101325.0935189012
101325.101095122
101325.1145511004
101325.1330225991
101325.1561532473
101325.1822724633
101325.2097188719
101325.2373090622
101325.2650003273
101325.2927444183
101325.3197657488
101325.3478228034
101325.3732634766
101325.3999975286
101325.4251277667
101325.4486352176
101325.4713015273
101325.4908863246
101325.5085735835
101325.5231296738
101325.5343720489
101325.5421062611
101325.5453137054
101325.5448383196
101325.5390591774
101325.5302944881
)
;

boundaryField
{
    inlet
    {
        type            calculated;
        value           uniform 101324.9999999997;
    }
    outlet
    {
        type            calculated;
        value           uniform 101325.5202752113;
    }
    frontAndBack
    {
        type            empty;
    }
}


// ************************************************************************* //
