/*--------------------------------*- C++ -*----------------------------------*\
| =========                 |                                                 |
| \\      /  F ield         | OpenFOAM: The Open Source CFD Toolbox           |
|  \\    /   O peration     | Version:  v2012                                 |
|   \\  /    A nd           | Website:  www.openfoam.com                      |
|    \\/     M anipulation  |                                                 |
\*---------------------------------------------------------------------------*/
FoamFile
{
    version     2.0;
    format      ascii;
    class       volScalarField;
    location    "0.01";
    object      rho;
}
// * * * * * * * * * * * * * * * * * * * * * * * * * * * * * * * * * * * * * //

dimensions      [1 -3 0 0 0 0 0];


internalField   nonuniform List<scalar> 
1000
(
1.176299359400896
1.176323168462465
1.176269657539866
1.176226208545415
1.176175561087566
1.176129518695722
1.17609060957852
1.17605789672849
1.176029917715165
1.176010816527765
1.176005101657887
1.176004648980513
1.176007130723782
1.176015399710624
1.176031829122885
1.176056815917965
1.176089417358576
1.176128182302885
1.176171881560976
1.176219639914402
1.176270733107294
1.176324389041111
1.176379709973799
1.176435677694032
1.176491191634857
1.176545140354801
1.176596544758855
1.176644795266729
1.176689844776762
1.176731872845815
1.176769646142372
1.17679774762665
1.176809760143086
1.176811087375619
1.176810596966317
1.176808376250164
1.176802277855896
1.176790243028369
1.176770568108045
1.176742470406744
1.176706289672128
1.176663295148029
1.176615170282244
1.176563495472358
1.176509501912094
1.176454126872232
1.176398201956379
1.17634259057307
1.176288179883929
1.176235710696435
1.176185537533686
1.17613763515874
1.176092433070965
1.176053020575753
1.17602680116684
1.176017875542449
1.176017270579509
1.176017644715694
1.17601976896776
1.176025088539707
1.176035439864722
1.176052427585883
1.176077181913055
1.17611005778638
1.176150534695099
1.176197341882313
1.176248782529864
1.176303125195727
1.17635889077723
1.17641494008431
1.176470423658862
1.176524745631255
1.17657760505107
1.17662898736069
1.176678849401787
1.176726139118125
1.176766801053611
1.176792963828489
1.176801541692911
1.176802159978761
1.176801705363328
1.176800002560099
1.176795482810489
1.176786686706098
1.176772077747775
1.176750400293942
1.176720903262713
1.176683537518906
1.176639006430906
1.176588646153648
1.176534177716498
1.176477402788879
1.176419912096258
1.176362876156041
1.176306971267596
1.176252433704644
1.17619921903341
1.176147423874869
1.176098474200252
1.176057353850744
1.176032472908178
1.176025230302499
1.17602486274198
1.176025166093377
1.176026888539684
1.176031076685855
1.176039190195707
1.176052603568921
1.17607252452146
1.176099780180107
1.176134654015722
1.176176777840437
1.176225138821996
1.176278232438254
1.176334324536298
1.176391738178226
1.176449102791319
1.176505538185689
1.176560719144025
1.176614706949544
1.176667397347499
1.176717333719523
1.176759713350014
1.176786279877091
1.176794779831025
1.176795428581399
1.176795077200984
1.176793768058553
1.176790230953303
1.176783273873907
1.176771570441857
1.176753905085982
1.176729315356685
1.176697264299645
1.176657766427062
1.176611440099286
1.176559467116731
1.176503439295137
1.176445090986042
1.176385981840292
1.176327246252097
1.17626950310181
1.176212986656312
1.176158065674292
1.176106563903604
1.176063944201245
1.176038658946326
1.176031384056053
1.176030973314496
1.176031200303189
1.176032560245138
1.176035938721696
1.176042559931753
1.176053621076584
1.176070256696104
1.176093390065987
1.176123600937138
1.17616099889582
1.176205149798556
1.176255096340013
1.176309477371415
1.176366721978809
1.176425297307438
1.17648397330428
1.176541999614072
1.17659903176351
1.176654633488492
1.176707105541942
1.176751510536606
1.176779575125111
1.176788914662681
1.176789746877446
1.176789491727361
1.176788511614499
1.176785721338441
1.176780103024253
1.176770482523979
1.176755730599632
1.176734855971292
1.176707136912618
1.176672235651679
1.176630285373985
1.176581931428405
1.176528291364372
1.176470802769252
1.176410982009573
1.176350174598006
1.176289389924721
1.176229329195304
1.176170837302938
1.176116202528258
1.17607127454162
1.1760446128683
1.176036717574908
1.176036177351999
1.17603634800272
1.176037433087093
1.176040188486964
1.176045676727867
1.176054961717018
1.176069097805281
1.176089014798973
1.176115414175766
1.176148657986164
1.176188683943324
1.176234977155491
1.176286607245254
1.17634232937949
1.176400757470153
1.176460595122256
1.176520831605007
1.176580740093353
1.176639484520948
1.176695049162013
1.176742326249812
1.176772865655201
1.176783670314697
1.17678482181675
1.176784642677465
1.176783901828722
1.176781673989826
1.176777075243072
1.176769060232943
1.176756587373604
1.176738683098949
1.176714546530304
1.176683646006319
1.17664580671117
1.176601277223104
1.176550742664263
1.176495251378803
1.176436062737016
1.176374464115978
1.176311617064746
1.176248538580461
1.17618648062084
1.176128165865002
1.17607987222377
1.176050655010172
1.176041534392164
1.17604077810817
1.176040888415179
1.176041738125049
1.176043983320365
1.176048572460562
1.176056457637426
1.1760686095141
1.176085926846768
1.176109157436741
1.176138805239246
1.176175049769057
1.17621769972949
1.176266187555066
1.176319611120078
1.176376842525861
1.176436701807951
1.176498122118295
1.176560169057831
1.176621730126488
1.176680562528553
1.176731442456568
1.176765570336437
1.176778697624159
1.17678040134533
1.17678028800608
1.17677975276072
1.176777985182826
1.176774208841794
1.176767478933783
1.176756839095983
1.176741359217459
1.176720216678126
1.176692774113552
1.176658658865471
1.176617834459853
1.176570637596581
1.176517753810501
1.176460132938026
1.1763988700634
1.176335089503107
1.176269927835924
1.17620487290564
1.176142909882989
1.176090554931366
1.176057481100934
1.176046141843578
1.176044945952761
1.176045012997705
1.176045667932853
1.176047491151838
1.176051332573169
1.176058057267155
1.176068565318831
1.1760837180194
1.176104273817636
1.176130812204808
1.176163665318124
1.176202869832158
1.176248141213879
1.176298879766672
1.176354232982006
1.176413216255937
1.176474833793365
1.176538093843662
1.176601762093208
1.176663538464591
1.176718295323352
1.176756998115169
1.176773600070496
1.176776309917483
1.176776267274921
1.176775909949601
1.176774528171608
1.176771443279452
1.176765786659732
1.176756674116958
1.176743223332483
1.176724617610942
1.176700167043649
1.176669376170738
1.176632010436531
1.176588141043097
1.176538148917546
1.176482687448076
1.176422615943452
1.176358924694545
1.176292731416465
1.17622557864253
1.176160456078907
1.176103767410392
1.176065669688987
1.176050882257922
1.176048856355195
1.176048869414386
1.176049348353993
1.176050797251427
1.176053990052334
1.176059722797369
1.176068834409571
1.176082145266696
1.176100406030229
1.176124235544889
1.176154064029398
1.176190087379069
1.176232232522837
1.176280144987941
1.176333221738118
1.176390689500644
1.176451683454327
1.176515252404198
1.176580167157142
1.176644234053335
1.176702675854489
1.176746576887215
1.176767927465083
1.176772376258623
1.176772484103719
1.176772263034589
1.176771210334982
1.176768717403862
1.176763981052346
1.176756176734529
1.176744466074889
1.176728048776875
1.176706211517785
1.176678384471218
1.176644197830632
1.176603526355557
1.176556510737
1.176503551600476
1.176445277299829
1.176382500866348
1.176316234308468
1.176247945501719
1.176180425997845
1.176119622509502
1.176075756807614
1.176056162550169
1.176052639273759
1.176052583759922
1.17605288754581
1.176054002621001
1.176056612919409
1.176061466436337
1.176069354377007
1.176081060456323
1.176097319274551
1.176118766600571
1.176145893483468
1.176179004997321
1.176218182873904
1.176263264433307
1.176313856831949
1.176369383233054
1.176429127731954
1.176492233168785
1.176557558084585
1.176623125063954
1.176684698435869
1.176733908319937
1.176761144975805
1.176768415168052
1.176768868736843
1.176768743003426
1.176767969485783
1.176765993409981
1.176762061880406
1.176755402293128
1.176745213951875
1.17673071661866
1.17671118882393
1.176686014881041
1.176654733754574
1.176617080308044
1.176573012588901
1.176522723919661
1.176466637268132
1.176405387579431
1.176339843805138
1.176271320399138
1.176202289013777
1.176138004195709
1.176088200015228
1.176062484497664
1.176056422579238
1.176056134786742
1.176056328059613
1.1760571513134
1.17605925263596
1.176063327433397
1.176070128395839
1.176080408180316
1.176094885101024
1.176114203675533
1.176138894903229
1.176169337535019
1.176205724449576
1.17624804187135
1.176296068496052
1.176349393880796
1.176407444554909
1.176469486678459
1.176534517108754
1.176600819215752
1.176664771043704
1.176718888452202
1.176752720497461
1.176764110316995
1.176765304134173
1.176765235399582
1.176764717335873
1.176763201949351
1.176759998157594
1.176754367032169
1.176745540893529
1.176732758376484
1.176715297379528
1.176692515698819
1.176663893563127
1.176629068031767
1.176587859953812
1.176540298932569
1.176486637482573
1.176427346612026
1.176363136558463
1.176295131717092
1.176225443570365
1.176158537129741
1.176103189015861
1.176070418995373
1.17606044772163
1.176059579560676
1.176059710456236
1.176060277260985
1.17606193213148
1.176065309126194
1.176071133018271
1.176080129895641
1.176093003559022
1.176110399281978
1.176132873300463
1.176160859148615
1.176194632591389
1.176234288577753
1.176279738486741
1.176330716698704
1.176386783403424
1.176447318195619
1.176511451912448
1.176577742044751
1.176643208283636
1.176701472812477
1.176742147878491
1.176759142449995
1.176761856932423
1.176761897940002
1.176761541840373
1.176760412867934
1.17675782586427
1.176753092765943
1.176745471429917
1.176734220121813
1.176718622146727
1.176698020633166
1.176671852890957
1.176639682398148
1.176601229133083
1.17655639731167
1.176505293421122
1.176448235379101
1.176385784746197
1.176318884694463
1.176249289378067
1.176180668223786
1.176120588203533
1.176080463170425
1.176065134032701
1.176063059064178
1.176063095331303
1.176063467523285
1.176064718717133
1.1760674612106
1.1760723900499
1.176080209640712
1.176091611556322
1.176107242895888
1.176127677695883
1.176153386244236
1.176184705300598
1.176221816567741
1.176264735738407
1.176313307678274
1.176367205442575
1.176425926830868
1.176488740944408
1.176554442919306
1.176620620049927
1.176682048906197
1.176729161210658
1.176752947128176
1.176758328881842
1.176758557165658
1.176758362920536
1.176757554672804
1.176755515132919
1.176751585711693
1.176745050360487
1.176735185593484
1.176721283575727
1.176702680043701
1.176678783555761
1.176649105858812
1.176613291662594
1.176571145504229
1.176522653924405
1.176468005819593
1.176407627794571
1.176342288154088
1.176273415835868
1.176203966860908
1.176140219460117
1.176093011610241
1.176070901652287
1.176066529157838
1.17606640635221
1.176066628602445
1.176067542779838
1.176069735152479
1.176073866695205
1.176080625183235
1.176090690146315
1.176104705843944
1.176123255460193
1.176146834393469
1.176175825491856
1.17621048008612
1.176250904085578
1.17629704608618
1.176348689067755
1.176405441918554
1.176466696340457
1.176531441757369
1.176597716864777
1.176661332955971
1.176713904283769
1.176744977556811
1.176754268279052
1.176755065241917
1.176754739097904
1.176754053264777
1.176752465753643
1.176749370571001
1.176744064838372
1.176735807278014
1.176723843962213
1.176707440986271
1.176685916649113
1.176658679934719
1.176625278494214
1.176585442424732
1.176539108364775
1.176486433049348
1.176427804440633
1.176363897110383
1.176295925255977
1.176226226937877
1.176160086924285
1.17610719574623
1.176077653577353
1.176069299674759
1.176068543699271
1.176068636494103
1.176069029396344
1.17607030831192
1.176073093165549
1.1760781294254
1.176086221296074
1.176098168769848
1.176114698211023
1.176136411743661
1.176163759235926
1.176197022074056
1.176236303709248
1.176281528835463
1.176332448365282
1.176388646325963
1.176449504049146
1.176514069329565
1.176580759138256
1.176646255326279
1.176703087242985
1.176740828204086
1.176757289323269
1.176760212829604
1.176760072348977
1.176759404287578
1.176757938305654
1.17675522963296
1.176750751028006
1.176743757883811
1.176733328455242
1.176718558750105
1.176698685345052
1.176673105823485
1.176641369914744
1.176603186571484
1.176558442938814
1.176507217472649
1.176449795329924
1.176386771513037
1.176319287714761
1.176249369418019
1.176181036396178
1.176122625119057
1.176085086810155
1.176069640457497
1.176066807586785
1.176067019300216
1.176067670244652
1.176069347801153
1.176072361463508
1.17607718866737
1.176084524008061
1.176095199043658
1.176110014685316
1.176129659525793
1.176154681628287
1.176185461560535
1.176222192510177
1.176264884072942
1.176313376776772
1.176367354339554
1.176426307405279
1.176489352677776
1.176554984954131
1.176620612062979
1.176680888305653
1.176726014563912
1.176749437287878
1.176755923401329
1.176756333882346
1.176755694220135
1.176754370323564
1.176751869239622
1.176747773428488
1.176741495114304
1.176732247190138
1.176719181396232
1.176701487632087
1.176678437610506
1.176649431219362
1.176614049768334
1.176572083987818
1.17652353917709
1.176468638797985
1.176407880759117
1.176342251071648
1.176273507889735
1.176204725726713
1.176142169584329
1.176096670823019
1.176074491312967
1.176068548705009
1.176068301101887
1.176068945871186
1.176070461298884
1.176073291811657
1.176077787782425
1.176084518129977
1.17609421703173
1.176107634202354
1.176125462610051
1.17614831335785
1.176176676452785
1.17621087346263
1.176251031209245
1.1762970789073
1.1763487592862
1.176405617845537
1.176466877261207
1.176531239717882
1.176596644134333
1.176659101829584
1.176710361880458
1.176741094331439
1.176752636551001
1.176754020521596
1.176753504965546
1.176752345593635
1.176750063743556
1.176746305831184
1.176740603244921
1.176732278015038
1.176720537811485
1.17670459661859
1.176683713483862
1.176657221560364
1.176624585080419
1.176585457899815
1.1765397196627
1.176487492999307
1.176429175430882
1.176365588865668
1.176298225830234
1.176229553876216
1.176164349771518
1.176112023240101
1.176082179615444
1.176071784529963
1.176070486892444
1.176071082052376
1.176072353566372
1.176074937686888
1.176079078031698
1.176085232189456
1.176094053023847
1.176106252404247
1.176122503641123
1.176143424357778
1.176169553332984
1.176201300237714
1.176238900869129
1.176282394231183
1.176331614658807
1.176386188667247
1.176445475533502
1.176508382267073
1.176573141240286
1.176636674818868
1.176692658602136
1.176731055842241
1.176748347364006
1.176752070896849
1.176751935526411
1.176750860524753
1.17674878654216
1.176745352022846
1.176740152980617
1.176732610063008
1.176721994981871
1.17670755931741
1.176688574002138
1.176664341955825
1.176634253577878
1.176597862504749
1.176554936545724
1.17650548584216
1.176449788583891
1.176388476183448
1.176322765006263
1.17625474393766
1.176188134032857
1.176130417179568
1.176092477660433
1.176076666088553
1.176073328895761
1.176073541594
1.176074655372395
1.176076962399915
1.17608074605817
1.176086370193198
1.17609439955957
1.176105495575046
1.176120310513519
1.176139466921024
1.176163537247831
1.176192990459185
1.176228138505512
1.176269106401265
1.176315818545445
1.176367997215734
1.176425133693094
1.176486329581953
1.176550081411979
1.176613967978317
1.176673180575755
1.176718555637398
1.176742485355424
1.176750023643606
1.176750549057546
1.176749641900566
1.176747855126858
1.176744681160649
1.176739872926397
1.176732979911235
1.176723352799289
1.176710272100695
1.176693012326309
1.176670858628132
1.176643153715556
1.176609372816494
1.176569189219082
1.176522515883992
1.176469525048752
1.176410686696154
1.176346961512511
1.176280098565718
1.176213029527932
1.176151526460675
1.176105884123142
1.176083336938285
1.176076710083221
1.176076090507881
1.176077060476038
1.176079004545723
1.176082505293906
1.176087728112855
1.176095123870889
1.176105281412858
1.176118815358984
1.176136344005589
1.176158478060961
1.176185756490225
1.176218569392753
1.176257114905013
1.176301386339597
1.176351171604592
1.176406050121293
1.17646530044856
1.176527694525871
1.176591238815491
1.176652236081934
1.176703267292189
1.176734853721381
1.176747013362847
1.176749218946393
1.176748756628451
1.176747230306548
1.176744331945986
1.176739840580376
1.176733419883453
1.176724546893765
1.17671259597124
1.176696890873861
1.176676704313124
1.17665130457341
1.176620060538514
1.176582542753577
1.176538575111814
1.176488251486104
1.176431949553623
1.176370432727351
1.176305111358167
1.17623837209558
1.176174678513126
1.176122656648224
1.17609205270703
1.176081185371891
1.176079177402342
1.176079459791938
1.176081067967125
1.176084211057478
1.176089092467397
1.176096033300621
1.176105496192464
1.176117994099295
1.176134081803942
1.176154374858437
1.176179497028455
1.176209968324513
1.176246108649204
1.176287996865002
1.176335467688659
1.176388131490313
1.176445361756605
1.176506128725723
1.176568778751703
1.176630507560189
1.176685552618081
1.176724565681453
1.176742618285986
1.176747459683712
1.176747960040873
1.176746883438299
1.1767444703453
1.176740294764092
1.176734188212597
1.176725794191516
1.176714635018018
1.176700149345304
1.176681679758329
1.176658482141881
1.176629806927348
1.176595030806166
1.176553789098342
1.176506062616764
1.176452187509273
1.17639284856208
1.176329258905943
1.176263423247454
1.176198743843361
1.176142086057117
1.176103723413119
1.176087171757902
1.17608307931935
1.176082409398215
1.176083364039746
1.176085843175845
1.176090238128993
1.176096794163946
1.176105829914585
1.176117681784922
1.176132721700712
1.176151438469607
1.176174462813632
1.176202472587887
1.176236025269443
1.176275408409843
1.176320571431558
1.176371141454095
1.176426488991355
1.176485672743862
1.176547237543681
1.176608945490581
1.176666436244945
1.176711406864309
1.176736545004599
1.176744913077044
1.176746303686938
1.176746266812672
1.176744730141677
1.176741338248484
1.176735747530289
1.176727660025559
1.176716807566128
1.176702923612669
1.176685635414163
1.176664352830498
1.176638274589023
1.176606531705865
1.176568401267682
1.176523515130167
1.176472036487392
1.176414676031074
1.176352670131331
1.176287896590989
1.176223050570406
1.176163313836247
1.176118259928716
1.176094747400739
1.176087561449178
1.17608644762538
1.176086585684889
1.176088089200608
1.176091367691227
1.176096903652786
1.176105218794944
1.176116703263623
1.176131524301185
1.176149733990883
1.176171483874364
1.176197181684755
1.176227537978575
1.17626347864722
1.176305754437865
1.176354250113017
1.176407507729043
1.176464727496916
1.176524391144334
1.176596223099644
)
;

boundaryField
{
    inlet
    {
        type            calculated;
        value           uniform 1.176395950917642;
    }
    outlet
    {
        type            calculated;
        value           uniform 1.176628752024782;
    }
    frontAndBack
    {
        type            empty;
    }
}


// ************************************************************************* //
