/*--------------------------------*- C++ -*----------------------------------*\
| =========                 |                                                 |
| \\      /  F ield         | OpenFOAM: The Open Source CFD Toolbox           |
|  \\    /   O peration     | Version:  v2012                                 |
|   \\  /    A nd           | Website:  www.openfoam.com                      |
|    \\/     M anipulation  |                                                 |
\*---------------------------------------------------------------------------*/
FoamFile
{
    version     2.0;
    format      ascii;
    class       volScalarField;
    location    "0.01";
    object      T;
}
// * * * * * * * * * * * * * * * * * * * * * * * * * * * * * * * * * * * * * //

dimensions      [0 0 0 1 0 0 0];


internalField   nonuniform List<scalar> 
1000
(
299.9870366887594
299.9887894832243
299.9824612712189
299.9778284847313
299.9734406120519
299.9696653693169
299.9662415828196
299.9631686270431
299.9605069726263
299.9587798643768
299.9583907523727
299.9585674423706
299.9590443556826
299.9599702103497
299.9616499153508
299.9641751849307
299.9674576261908
299.9713508776856
299.9757342914224
299.9805261174638
299.98566128803
299.9910688716657
299.9966625205457
300.0023406282969
300.0079906820677
300.0134972768486
300.0187573205208
300.0237045795471
300.028329873276
300.0326475529639
300.0365282294438
300.0394160079714
300.0406551146605
300.040797517884
300.040749009618
300.0405167577618
300.03988354005
300.038644804404
300.0366276235495
300.0337523769692
300.0300545177643
300.0256639517534
300.0207523059418
300.0154803661924
300.0099731056074
300.0043254369489
299.9986215371054
299.9929489729095
299.9873979426225
299.9820439344965
299.97692320036
299.9720333541924
299.9674185158451
299.9633943312347
299.9607168109766
299.9598047664726
299.9597423805381
299.959780141102
299.9599969576998
299.9605403821942
299.9615974459788
299.9633318690927
299.9658589889047
299.9692149603677
299.9733465905018
299.9781241375607
299.9833743972495
299.9889206526695
299.994611958081
300.0003320689229
300.0059943127846
300.0115378954587
300.0169321155291
300.022175491634
300.0272636187215
300.0320891433283
300.0362382629624
300.0389078489605
300.0397831132897
300.0398462096259
300.0397998225249
300.039626065577
300.0391648753961
300.0382673461581
300.0367766920873
300.0345647753829
300.0315549315919
300.0277421099997
300.0231980379426
300.0180590146003
300.0125006235957
300.0067066944866
300.0008395490619
299.9950186422945
299.9893130026027
299.9837467552885
299.9783153769093
299.9730287399241
299.968032405669
299.9638351155862
299.9612953879579
299.9605560922989
299.9605185760566
299.9605495452615
299.9607253692997
299.9611528798626
299.9619810719063
299.9633502417705
299.9653836539057
299.9681657145874
299.9717253266143
299.9760248684303
299.9809609173301
299.9863798708478
299.9921047027219
299.9979642439991
300.0038186108209
300.0095779795416
300.0152091704795
300.0207184477192
300.026095181996
300.0311907489418
300.035515109622
300.0382258687254
300.0390931681415
300.0391593659754
300.0391235153544
300.0389899390904
300.0386290294441
300.0379191571307
300.0367249787332
300.0349224509402
300.0324133495886
300.029142856798
300.0251124161917
300.0203850828501
300.0150814081306
300.0093637929561
300.0034091998141
299.9973767813598
299.9913823072323
299.9854889457193
299.9797206160938
299.9741149668933
299.9688581624558
299.9645078434743
299.9619268527144
299.961184263059
299.961142338492
299.9611655122795
299.9613043328329
299.9616491951421
299.962325059154
299.963454125148
299.9651521917927
299.9675134854759
299.9705971583467
299.9744143623734
299.978920744147
299.9840185509451
299.9895688174871
299.9954111818917
300.0013891832418
300.0073772801729
300.0132988987838
300.0191188924976
300.0247927514644
300.0301470942612
300.0346781423219
300.037541770205
300.0384947410203
300.0385796599433
300.0385536292947
300.038453626833
300.038168920991
300.0375956513216
300.0366140087719
300.0351087620026
300.0329787499307
300.03015030736
300.0265889377218
300.0223081928215
300.017373882524
300.0119000043162
300.0060332238921
299.9999282610372
299.993722415872
299.9875186996337
299.9813886809964
299.9754186024719
299.9698420434037
299.9652561311781
299.9625346523587
299.9617287381337
299.9616735976653
299.9616910214639
299.9618017868477
299.9620830486808
299.962643264612
299.9635910300651
299.9650339607088
299.9670669535067
299.9697615911577
299.973154801258
299.9772401908662
299.9819651652667
299.9872347228412
299.9929217738394
299.9988848237996
300.0049915469563
300.0111387850649
300.0172523638386
300.0232469699973
300.0289169255087
300.0337410659541
300.0368572299279
300.0379596998289
300.0380771981393
300.0380589236668
300.0379833356777
300.0377560192247
300.037286782507
300.0364689590805
300.035196263228
300.0333693446469
300.0309064664547
300.0277533535818
300.0238921346078
300.0193481350253
300.0141912241709
300.0085283398817
300.0024879639035
299.9962014491018
299.9897873212574
299.983349366987
299.9770153672195
299.9710632347268
299.9661338071223
299.9631514832655
299.9622204957469
299.9621433011672
299.9621545658086
299.962241305466
299.9624704878474
299.9629389276165
299.9637438072493
299.9649842015367
299.9667518408343
299.9691230404064
299.9721492175104
299.9758486651946
299.9802018213212
299.9851507156956
299.990603232797
299.9964442210177
300.0025532258705
300.0088213496937
300.0151532237406
300.0214353162871
300.0274387711957
300.0326305777303
300.0361129164002
300.0374523821874
300.0376262267308
300.0376146657734
300.0375600566015
300.0373797031312
300.0369943810558
300.036307684604
300.0352220252583
300.0336424891126
300.0314851245026
300.0286848753127
300.0252036874082
300.0210378032962
300.0162215396957
300.010824808814
300.0049444977983
299.9986923246489
299.9921830021432
299.9855325078909
299.9788926859744
299.9725682307902
299.9672242910421
299.9638483199051
299.9626908663682
299.962568798293
299.9625756460186
299.9626425034455
299.9628286118289
299.9632207271151
299.963907149742
299.9649797513978
299.9665264402382
299.9686246214875
299.9713334267032
299.9746867319124
299.9786882480086
299.9833088955151
299.988487425622
299.9941367891849
300.0001564620347
300.0064447874719
300.012900532684
300.0193977242005
300.0257016501205
300.0312891026649
300.0352382773701
300.0369322905418
300.0372087959577
300.0372044477306
300.0371679918769
300.0370270031981
300.036712233131
300.0361350504814
300.0352052314306
300.0338327403875
300.0319342330067
300.029439295474
300.0262973475653
300.0224844237483
300.0180077516599
300.0129061601711
300.0072462812675
300.0011157646862
299.9946156349278
299.9878599320917
299.9810060688919
299.9743591889906
299.9685729460495
299.9646841877313
299.9631747647725
299.9629679723715
299.9629693083318
299.9630181998648
299.9631660983709
299.9634920045407
299.9640771730031
299.9650072332281
299.9663659186834
299.9682298421445
299.9706621554369
299.9737067499195
299.9773835921792
299.9816851894028
299.9865753229505
299.9919924039783
299.9978574720124
300.0040822295408
300.0105695731024
300.017194041171
300.0237317694234
300.0296952908398
300.0341749162623
300.0363534711668
300.0368074125646
300.0368184186923
300.0367958643915
300.0366884528277
300.036434083403
300.0359508008422
300.0351544685381
300.0339595360385
300.0322843344304
300.0300560638469
300.0272165596184
300.0237280593027
300.0195777487263
300.0147799440504
300.0093754830418
300.0034284427189
299.9970217505896
299.9902586487858
299.9832889182508
299.9763974631496
299.97019127546
299.9657137906261
299.9637137177567
299.9633540807426
299.9633484160723
299.9633794272082
299.9634932500377
299.963759696251
299.9642551166535
299.9650602705956
299.9662551503801
299.9679147312425
299.9701038952033
299.9728727460752
299.976252398078
299.9802511623187
299.9848523980551
299.9900159698486
299.9956829634622
300.0017802746351
300.0082203894688
300.0148867906709
300.0215776694041
300.027860805836
300.0328821826748
300.0356613498548
300.0364031778204
300.0364494596996
300.036436631928
300.0363577061908
300.0361560740867
300.0357549120596
300.0350753840415
300.034035785282
300.0325564952648
300.0305638853104
300.0279951144632
300.0248031150239
300.0209608013041
300.0164638547374
300.0113319598254
300.0056082329148
299.9993574233377
299.9926681664503
299.9856745750619
299.9786288891372
299.9720674319502
299.9669838331345
299.9643589479989
299.9637401794401
299.9637108040344
299.9637305334929
299.9638145678431
299.964029059639
299.9644449915983
299.9651391922361
299.9661884845693
299.9676661829583
299.9696380646346
299.9721583140861
299.9752655691001
299.978979488806
299.9832986334735
299.9882003772575
299.9936427880161
299.9995672955743
300.0058989667029
300.0125353923808
300.0193013661558
300.0258272786269
300.031349470612
300.0348016378655
300.0359638218639
300.0360856358013
300.0360786230529
300.0360257621684
300.0358711366717
300.0355442300615
300.034969642803
300.0340690398774
300.0327647278236
300.0309830154856
300.0286583588507
300.025737700141
300.0221839771709
300.0179788744905
300.0131253720722
300.0076491923913
300.0015983531285
299.9950452877879
299.9881047045699
299.9809920714889
299.9741631066456
299.9685136830917
299.9651687372846
299.9641509238821
299.9640623070055
299.9640756685052
299.9641335251787
299.9643024449255
299.9646471483281
299.965241614659
299.9661599556604
299.9674740054629
299.9692496202843
299.9715435630047
299.9744000661294
299.9778472521063
299.9818947814078
299.9865335727593
299.9917364759557
299.997458561302
300.0036364694768
300.0101814595084
300.0169462907016
300.0236268169255
300.0295722467837
300.0337226970284
300.035456779549
300.0357337573501
300.0357379418523
300.0357016065657
300.0355864091058
300.0353224372434
300.0348394817844
300.0340618139942
300.0329137445543
300.0313221356388
300.0292199488854
300.0265497500126
300.023266971864
300.0193430092339
300.0147680498345
300.0095529161839
300.003730003019
299.9973565685532
299.9905288207052
299.9834257485555
299.9764218509252
299.9702895033835
299.9661938382069
299.9646291281369
299.9644173266196
299.9644210285495
299.964459019666
299.9645867338744
299.9648666704958
299.9653697746487
299.9661679454661
299.9673317699824
299.9689272922762
299.971013094246
299.9736371624887
299.9768338480887
299.9806216692403
299.9850021940645
299.9899595505318
299.995460328459
300.001453230966
300.0078636242186
300.014568513208
300.0213216624845
300.027590056469
300.0323974006287
300.0348244671505
300.0353736059769
300.0353968992617
300.035377078751
300.0352946067417
300.0350864962416
300.0346855455992
300.0340186891341
300.0330121004228
300.0315935470542
300.0296952383586
300.027256808838
300.0242284157134
300.0205737765019
300.0162729104144
300.0113244022959
300.0057474815675
299.9995856332834
299.9929172160118
299.9858880201813
299.9787997170534
299.9722931158449
299.9674745330601
299.9652176868564
299.9647713668605
299.9647588312692
299.9647815168219
299.9648748299717
299.9650986131201
299.9655203336754
299.9662101936763
299.967237551646
299.9686681630811
299.9705615453906
299.9729682505426
299.975927336587
299.9794644314265
299.9835903139798
299.988299701475
299.9935704038827
299.9993624615304
300.0056137504874
300.0122210985448
300.0189843258664
300.0254759867548
300.0308404233091
300.0340110976726
300.034959098894
300.0350404185447
300.0350071390343
300.0349371575281
300.0347751705816
300.03445934336
300.0339179544171
300.0330753627287
300.0318546340422
300.0301808735008
300.0279845078995
300.0252052109799
300.0217967986261
300.0177316959669
300.0130033969712
300.0076278497261
300.0016445956668
299.9951224260803
299.9881852111402
299.9810715414299
299.9743208042582
299.9689221659305
299.9659067050676
299.965053987158
299.9649768212155
299.9649862926018
299.9650263969771
299.9651569399737
299.9654411991104
299.9659552659704
299.9667812261628
299.9680007327482
299.9696879194746
299.9719042334299
299.9746955745186
299.9780906388819
299.982099954401
299.9867157980833
299.9919127061783
299.997648180885
300.0038590387558
300.0104480622138
300.0172536693632
300.0239372394481
300.0297364715304
300.0335875255291
300.0352671796508
300.0355654857328
300.0355511510064
300.0354829830992
300.035333397244
300.0350570096174
300.0346000207804
300.0338864508535
300.0328222430401
300.0313151485364
300.0292872570789
300.0266770811131
300.0234386506181
300.0195422348816
300.0149762787173
300.0097487428116
300.0038886769289
299.9974567498242
299.99056942772
299.9834333918014
299.9764589019005
299.9704968824687
299.9666652556608
299.9650885866642
299.9647994231168
299.9648210328995
299.9648874765976
299.9650587108219
299.9653663260755
299.9658590545995
299.9666077941129
299.9676974206959
299.9692096790204
299.9712148446812
299.9737688435144
299.9769104984055
299.9806594996269
299.9850167923828
299.9899660610478
299.9954749827059
300.0014915289011
300.0079255114875
300.0146232858281
300.0213203057021
300.0274710830613
300.0320757728653
300.0344657852838
300.0351276112031
300.0351694948051
300.0351042242308
300.0349691365078
300.0347139313636
300.0342960024327
300.0336553723569
300.0327117231187
300.0313784941811
300.0295730147523
300.0272209566427
300.0242610634847
300.0206505831454
300.016368124962
300.0114141865271
300.0058115230095
299.9996108946056
299.9929128770294
299.9858968617946
299.9788766182817
299.9724916097891
299.9678474806296
299.9655835404501
299.9649769533849
299.9649516783267
299.9650174910685
299.9651721760263
299.9654610971197
299.9659200164086
299.9666070032491
299.9675969941894
299.9689665092183
299.97078627243
299.9731186469116
299.9760136292814
299.9795040167461
299.9836027223383
299.9883024842881
299.9935770035267
299.9993798500706
300.0056316493504
300.0121999168992
300.01887429473
300.0252477525517
300.0304783907369
300.0336142940412
300.0347920353454
300.0349332508519
300.0348806433495
300.0347623427514
300.0345295078707
300.0341460580927
300.0335641750779
300.032714677205
300.0315167117126
300.0298900669372
300.0277591248077
300.0250558227094
300.0217254657064
300.0177326998996
300.0130652034986
300.007735443951
300.0017839374055
299.9952945106415
299.9884194402642
299.9814105361572
299.9747553389302
299.9694143460281
299.9663681213327
299.965307053411
299.9651745967848
299.9652353455435
299.9653651324077
299.9656289029284
299.9660515225539
299.9666796965207
299.9675800616116
299.9688252755368
299.9704840571847
299.9726194372505
299.9752863933339
299.9785267185517
299.9823644520569
299.9868035405536
299.9918270364232
299.9973967790085
300.0034473341075
300.009867116729
300.0164757082913
300.0229590333473
300.0286717513828
300.0325897912336
300.0343541836943
300.0347341227844
300.0347203082713
300.0346106155143
300.0343989902306
300.0340485389434
300.0335180373821
300.0327483666837
300.0316652093662
300.0301921911374
300.0282549085989
300.0257822169474
300.0227118907624
300.0189983533215
300.0146178743527
300.0095714451187
300.0038874057522
299.9976301419759
299.990923742099
299.9839813595176
299.9771827652536
299.9712916497032
299.9674190849917
299.9658051407127
299.9654644993365
299.9654862085039
299.9655998935562
299.9658353790433
299.9662215899648
299.9667956629996
299.9676152414527
299.9687478338083
299.9702600126707
299.9722153127496
299.9746721507618
299.9776783748396
299.9812658001474
299.9854471552043
299.9902146871497
299.9955400105289
300.0013711634626
300.0076164181235
300.0141223075371
300.0206417319652
300.0266839957295
300.0313140931096
300.0337558461742
300.0345250353101
300.0345786454857
300.0344860790856
300.0343037589886
300.0339798936281
300.0334892697876
300.0327859152036
300.0318035710487
300.0304688159008
300.0287076129624
300.0264470066448
300.0236199082478
300.0201727437085
300.0160721412162
300.0113091784783
300.0059013857821
299.9998966755893
299.9933930407205
299.986568945924
299.9797235806432
299.9734460889032
299.9687873291723
299.9664858692746
299.9658094402915
299.9657461961377
299.9658452022154
299.9660436380904
299.9664009703701
299.966934079376
299.9676889837268
299.9687257846267
299.970107212158
299.9718963686396
299.9741555777962
299.9769398351473
299.9802889352124
299.9842230726446
299.9887415307116
299.9938226242777
299.999423388176
300.0054701533394
300.0118375550716
300.0183221276968
300.0245465788196
300.0297538873807
300.0329769413277
300.0342176858589
300.0344427373212
300.0343955613351
300.0342398158763
300.033944071411
300.0334857797453
300.0328306200963
300.0319252269387
300.0307057559193
300.0291031966823
300.027043326264
300.0244514644128
300.0212631888471
300.0174346469266
300.0129478305344
300.007812275448
300.0020664757638
299.995788291383
299.9891216138747
299.9823099957728
299.9758090073046
299.9704991434187
299.9673753288939
299.966266062123
299.966061100402
299.9660899229863
299.9662540722552
299.9665748963944
299.9670731561997
299.9677816250118
299.9687475217996
299.9700232002912
299.9716652810734
299.9737365840928
299.9763007628922
299.9794108746632
299.9830995451206
299.9873747914564
299.9922197075635
299.9975944879973
300.0034351520989
300.0096365704811
300.0160299577184
300.0223291324535
300.0279460823382
300.0319269779162
300.0337690364465
300.0342630413098
300.0343140951787
300.0342042388853
300.0339580095733
300.0335319394983
300.0329088348004
300.0320523156853
300.0309136357689
300.0294355096239
300.0275508460259
300.0251837022757
300.0222575726015
300.0187088266496
300.0145002164221
300.0096297421993
300.0041316609523
299.998075808403
299.9915859460549
299.9848666380983
299.9782651161678
299.972482134204
299.9685664065806
299.9668769301428
299.9664592000113
299.9663908174687
299.9664882587791
299.9667413098114
299.9671899143877
299.9678591050316
299.9687814021775
299.9699911388812
299.9715262721212
299.9734366866369
299.975786748683
299.9786456298381
299.9820702077185
299.9860898017996
299.990699214115
299.9958603484704
300.0015089203093
300.0075488270439
300.0138315345272
300.0201286503739
300.0259952295565
300.0305840760706
300.03314914617
300.0340030085856
300.034144903684
300.0341411418625
300.0339843446841
300.0336382437353
300.033067774798
300.0322425292868
300.0311351375968
300.0297183959547
300.027954263731
300.0257825197619
300.023121398939
300.0198822202622
300.0159911912304
300.0114106980946
300.0061573305963
300.0003035482067
299.9939754623333
299.9873646363023
299.9807460421023
299.9746485253831
299.9700493916239
299.9676489716822
299.9669151958929
299.9668014253201
299.966815953205
299.9669707859506
299.9673072109106
299.9678731140679
299.9687211623867
299.9698933292131
299.971410951118
299.973279541975
299.975502670153
299.9781009846961
299.9811393333314
299.9847443883847
299.9890688393749
299.9941991160387
300.000033028932
300.0062252188361
300.0119029142294
300.0176120662408
)
;

boundaryField
{
    inlet
    {
        type            fixedValue;
        value           uniform 300;
    }
    outlet
    {
        type            temperatureOutletNSCBC;
        pInf            101325;
        gamma           1.4;
        etaAc           1;
        fieldInf        1;
        lInf            2.25;
        value           uniform 300.0202819940014;
    }
    frontAndBack
    {
        type            empty;
    }
}


// ************************************************************************* //
