/*--------------------------------*- C++ -*----------------------------------*\
| =========                 |                                                 |
| \\      /  F ield         | OpenFOAM: The Open Source CFD Toolbox           |
|  \\    /   O peration     | Version:  v2012                                 |
|   \\  /    A nd           | Website:  www.openfoam.com                      |
|    \\/     M anipulation  |                                                 |
\*---------------------------------------------------------------------------*/
FoamFile
{
    version     2.0;
    format      ascii;
    class       volVectorField;
    location    "0.01";
    object      U;
}
// * * * * * * * * * * * * * * * * * * * * * * * * * * * * * * * * * * * * * //

dimensions      [0 1 -1 0 0 0 0];


internalField   nonuniform List<vector> 
1000
(
(-0.002766229471550873 0 0)
(-0.03442584744247953 0 0)
(-0.04261698274670279 0 0)
(-0.05780563533079264 0 0)
(-0.07169703802255954 0 0)
(-0.08460511549752397 0 0)
(-0.09561695371500382 0 0)
(-0.1050337483347504 0 0)
(-0.1131343291453029 0 0)
(-0.1186393087748702 0 0)
(-0.1201684232914464 0 0)
(-0.1200317257419524 0 0)
(-0.1191835220988316 0 0)
(-0.116655895679309 0 0)
(-0.1118059646620049 0 0)
(-0.1044490310331517 0 0)
(-0.09486035528838987 0 0)
(-0.08346625598197464 0 0)
(-0.07062749016282327 0 0)
(-0.05659688651469123 0 0)
(-0.04157871696585174 0 0)
(-0.02579312478781369 0 0)
(-0.009504091930749189 0 0)
(0.006986822580218543 0 0)
(0.02335881958859789 0 0)
(0.03928770795777836 0 0)
(0.05447711818164779 0 0)
(0.06873410537654583 0 0)
(0.08204513448648383 0 0)
(0.09447627017703887 0 0)
(0.1056602655973346 0 0)
(0.1139707133366758 0 0)
(0.1175096123782873 0 0)
(0.1178993147667574 0 0)
(0.11778660433346 0 0)
(0.1171056483441687 0 0)
(0.1153035633392441 0 0)
(0.1117418867363508 0 0)
(0.1059267763488847 0 0)
(0.09762733474180153 0 0)
(0.08694531252261201 0 0)
(0.07425343546160204 0 0)
(0.06004692462758767 0 0)
(0.04479446351722741 0 0)
(0.0288616135097583 0 0)
(0.01252091781730646 0 0)
(-0.003988003451653088 0 0)
(-0.02040681004646983 0 0)
(-0.03646458686907271 0 0)
(-0.0519460195243654 0 0)
(-0.06676175986038198 0 0)
(-0.08091877545881697 0 0)
(-0.09426584720441354 0 0)
(-0.1058839675705934 0 0)
(-0.1136203801311735 0 0)
(-0.116280759217688 0 0)
(-0.1164760808123318 0 0)
(-0.1163234882351476 0 0)
(-0.1157219281867472 0 0)
(-0.1141430950779673 0 0)
(-0.1110872898985459 0 0)
(-0.1060717154421113 0 0)
(-0.09876260670308729 0 0)
(-0.08905397574945532 0 0)
(-0.07710223747248529 0 0)
(-0.06328457872201655 0 0)
(-0.04809876466472911 0 0)
(-0.03205270631333579 0 0)
(-0.01558732945996496 0 0)
(0.0009549121001999894 0 0)
(0.01732804815377168 0 0)
(0.03336697333136775 0 0)
(0.04897864691061773 0 0)
(0.06414092762010905 0 0)
(0.07884242035687482 0 0)
(0.09280049868619727 0 0)
(0.1048237246349665 0 0)
(0.1125511926277967 0 0)
(0.115055930270398 0 0)
(0.1152209197694098 0 0)
(0.1151342360414103 0 0)
(0.1146026457158659 0 0)
(0.1132775212388811 0 0)
(0.1106804220829669 0 0)
(0.1063682472258716 0 0)
(0.09997007681360044 0 0)
(0.09126590253619844 0 0)
(0.08023863943105031 0 0)
(0.06709342871501385 0 0)
(0.05222759380243491 0 0)
(0.03615286051223159 0 0)
(0.01939713402962169 0 0)
(0.002423181388357371 0 0)
(-0.01441957312953392 0 0)
(-0.03092013192922001 0 0)
(-0.0470113439832705 0 0)
(-0.06272456903967785 0 0)
(-0.07803247886332201 0 0)
(-0.09248648318632309 0 0)
(-0.1046064078145688 0 0)
(-0.1119435064379737 0 0)
(-0.1141059864504475 0 0)
(-0.1142369318579007 0 0)
(-0.1141003900356112 0 0)
(-0.1136183880341573 0 0)
(-0.1123739480211392 0 0)
(-0.1099793248485192 0 0)
(-0.1060193455786208 0 0)
(-0.100137665208079 0 0)
(-0.09208882267962795 0 0)
(-0.08179150073151464 0 0)
(-0.06935620491065163 0 0)
(-0.05507912937798273 0 0)
(-0.03940177546506908 0 0)
(-0.02284013620445379 0 0)
(-0.005894426536029488 0 0)
(0.0110352976919261 0 0)
(0.02769809228150474 0 0)
(0.04399353499061019 0 0)
(0.05992483774667166 0 0)
(0.07546391236644973 0 0)
(0.09020440007750015 0 0)
(0.1027307354512954 0 0)
(0.1105742298715435 0 0)
(0.1130613413977167 0 0)
(0.113238856875606 0 0)
(0.1131750634007424 0 0)
(0.112763601628841 0 0)
(0.1117273875749752 0 0)
(0.109673082974673 0 0)
(0.1062186555744325 0 0)
(0.1010047101820124 0 0)
(0.09374851493782609 0 0)
(0.08428963731411698 0 0)
(0.07263055880599935 0 0)
(0.05895608886975996 0 0)
(0.04361764684880213 0 0)
(0.02708174504511578 0 0)
(0.009855424049412869 0 0)
(-0.007597327816563728 0 0)
(-0.02493347359489259 0 0)
(-0.0419736092328518 0 0)
(-0.05866205910439568 0 0)
(-0.07488861351914108 0 0)
(-0.0900938883211591 0 0)
(-0.1026613881199255 0 0)
(-0.1101226495482244 0 0)
(-0.1122902181724887 0 0)
(-0.1124247289912348 0 0)
(-0.1123231292054375 0 0)
(-0.1119424133419986 0 0)
(-0.1109385081031461 0 0)
(-0.1089844229559155 0 0)
(-0.1057189203277936 0 0)
(-0.1008071009316963 0 0)
(-0.09397555655463087 0 0)
(-0.08505525176500446 0 0)
(-0.07401498366480554 0 0)
(-0.06098024955968988 0 0)
(-0.04623194773391176 0 0)
(-0.03017597945381545 0 0)
(-0.01327986679352161 0 0)
(0.004008794746621934 0 0)
(0.02133360806090012 0 0)
(0.03846732639748891 0 0)
(0.05529632540978759 0 0)
(0.0716973275926424 0 0)
(0.08718868239934036 0 0)
(0.1003100999390041 0 0)
(0.108591720859648 0 0)
(0.1113291182466883 0 0)
(0.1115658017008213 0 0)
(0.1115256619500871 0 0)
(0.1112123429517055 0 0)
(0.1103965454414582 0 0)
(0.1087372050763204 0 0)
(0.1058976278884313 0 0)
(0.101543611222801 0 0)
(0.095383708034762 0 0)
(0.08720324744970143 0 0)
(0.07690115953414886 0 0)
(0.06451874151888964 0 0)
(0.05024841534824954 0 0)
(0.03441701965089575 0 0)
(0.01744507208250142 0 0)
(-0.0002164492051143644 0 0)
(-0.01816408916280277 0 0)
(-0.03610353404661916 0 0)
(-0.05383838422822068 0 0)
(-0.07111651588438719 0 0)
(-0.08724553571477889 0 0)
(-0.100497830881697 0 0)
(-0.1083683978410995 0 0)
(-0.1107150059025616 0 0)
(-0.110884182901563 0 0)
(-0.1108053833179808 0 0)
(-0.1105029942237307 0 0)
(-0.1096837313230977 0 0)
(-0.1080641721326473 0 0)
(-0.1053229983513936 0 0)
(-0.1011491123239126 0 0)
(-0.09526744150155832 0 0)
(-0.08747266038506302 0 0)
(-0.07765855485183569 0 0)
(-0.06584123036703345 0 0)
(-0.05217173023353537 0 0)
(-0.03692832823061784 0 0)
(-0.02048097641313575 0 0)
(-0.003234318649507899 0 0)
(0.01443338076539876 0 0)
(0.03221778113705763 0 0)
(0.04989590312771613 0 0)
(0.06722781424933708 0 0)
(0.08363325088470644 0 0)
(0.09759814432562956 0 0)
(0.106607399735488 0 0)
(0.1097818645679644 0 0)
(0.1101167171110449 0 0)
(0.1100923344485545 0 0)
(0.1098523422345321 0 0)
(0.1092021203615642 0 0)
(0.1078436047385267 0 0)
(0.1054778913509025 0 0)
(0.1017966178921814 0 0)
(0.09651329957478762 0 0)
(0.08938998214529471 0 0)
(0.08026882435216351 0 0)
(0.06910021249777004 0 0)
(0.05595880803190681 0 0)
(0.04104370588586779 0 0)
(0.02466153240669291 0 0)
(0.007187815309877141 0 0)
(-0.01099272240469171 0 0)
(-0.02954208716975817 0 0)
(-0.04816858608892822 0 0)
(-0.0664974699971989 0 0)
(-0.08371072984395664 0 0)
(-0.09795868370268251 0 0)
(-0.1065875068897325 0 0)
(-0.1092939759973841 0 0)
(-0.1095226430760138 0 0)
(-0.1094652557704229 0 0)
(-0.1092318741992875 0 0)
(-0.1085630999917824 0 0)
(-0.1072092058642575 0 0)
(-0.1048812416044859 0 0)
(-0.101293107617638 0 0)
(-0.09617917147685817 0 0)
(-0.0893201898317473 0 0)
(-0.08056756522682462 0 0)
(-0.06986626853258669 0 0)
(-0.0572725274736202 0 0)
(-0.04295722221505914 0 0)
(-0.02718794901396171 0 0)
(-0.01029327869484668 0 0)
(0.00738096489808498 0 0)
(0.02551345894741274 0 0)
(0.04382276938634881 0 0)
(0.06198877187878055 0 0)
(0.07936010111010014 0 0)
(0.09438515746802534 0 0)
(0.1044511491539481 0 0)
(0.1083143110513384 0 0)
(0.1088147091616043 0 0)
(0.108806854712358 0 0)
(0.1086275851949334 0 0)
(0.1081136433668713 0 0)
(0.1069975669862996 0 0)
(0.1050112848982816 0 0)
(0.1018710881715661 0 0)
(0.09730309312488652 0 0)
(0.09106326456932148 0 0)
(0.08296302088600754 0 0)
(0.07289392355296473 0 0)
(0.06084580809232374 0 0)
(0.04691551539350119 0 0)
(0.03130376629215837 0 0)
(0.01429407510709263 0 0)
(-0.003787619224417837 0 0)
(-0.02261393495881396 0 0)
(-0.04185474278273931 0 0)
(-0.061065454674309 0 0)
(-0.07935539080037909 0 0)
(-0.09480625808090024 0 0)
(-0.1045752291877047 0 0)
(-0.107932502231062 0 0)
(-0.108288346758687 0 0)
(-0.1082497383109623 0 0)
(-0.1080709124477332 0 0)
(-0.1075273725373936 0 0)
(-0.1063942732757154 0 0)
(-0.1044088896033336 0 0)
(-0.1013060085754199 0 0)
(-0.09683134994225442 0 0)
(-0.09076230406915706 0 0)
(-0.08292751992981136 0 0)
(-0.07322716246592621 0 0)
(-0.06165082804811223 0 0)
(-0.04828551460911177 0 0)
(-0.03330840492923232 0 0)
(-0.01696702122077626 0 0)
(0.0004486343904510902 0 0)
(0.01863807874910368 0 0)
(0.03730575947143226 0 0)
(0.05609647466867028 0 0)
(0.07433762865861744 0 0)
(0.0905036992601921 0 0)
(0.1019184996518092 0 0)
(0.1068098866840148 0 0)
(0.107609184347405 0 0)
(0.1076208063383705 0 0)
(0.1074926843258059 0 0)
(0.1070937011926531 0 0)
(0.1061812312464147 0 0)
(0.1045118911381301 0 0)
(0.1018225249475864 0 0)
(0.09785321271720616 0 0)
(0.09236194949209903 0 0)
(0.08514503372600123 0 0)
(0.07605741188635884 0 0)
(0.06502988695989323 0 0)
(0.05208144081027982 0 0)
(0.03732385241719077 0 0)
(0.02095258587451394 0 0)
(0.003222379845103852 0 0)
(-0.01557857173187891 0 0)
(-0.03512324204982917 0 0)
(-0.05495088769869689 0 0)
(-0.07417333915414838 0 0)
(-0.09090661095057795 0 0)
(-0.1021597503564904 0 0)
(-0.1065321167779151 0 0)
(-0.1071313892908618 0 0)
(-0.1071122273244096 0 0)
(-0.1069840602844508 0 0)
(-0.1065511696699151 0 0)
(-0.1056096986855471 0 0)
(-0.1039170913670707 0 0)
(-0.1012264634083798 0 0)
(-0.09729580707288991 0 0)
(-0.09190450686584903 0 0)
(-0.08486925439142584 0 0)
(-0.0760616702990536 0 0)
(-0.06542486246719591 0 0)
(-0.05298279228726759 0 0)
(-0.03883931000032265 0 0)
(-0.02316903631329601 0 0)
(-0.006201212199826355 0 0)
(0.01180311137654284 0 0)
(0.03056304997879548 0 0)
(0.04972427211528542 0 0)
(0.06864115924066772 0 0)
(0.08589174979277163 0 0)
(0.09883965515925093 0 0)
(0.1051350450280884 0 0)
(0.1064560061730848 0 0)
(0.1065008539243834 0 0)
(0.1064156484913538 0 0)
(0.1061148156498667 0 0)
(0.1053765395701349 0 0)
(0.103979079834641 0 0)
(0.10167580057716 0 0)
(0.09821978683333481 0 0)
(0.09337439119331967 0 0)
(0.08692919180304527 0 0)
(0.07871641885014195 0 0)
(0.06862664429266209 0 0)
(0.05662203230286209 0 0)
(0.04274413068424484 0 0)
(0.02711215501788762 0 0)
(0.00991131787111782 0 0)
(-0.008620301442370441 0 0)
(-0.02818434010746701 0 0)
(-0.04834497937043761 0 0)
(-0.06827723519828775 0 0)
(-0.08622884195639588 0 0)
(-0.09918294198153928 0 0)
(-0.10497108976273 0 0)
(-0.1060088970795219 0 0)
(-0.106021246287142 0 0)
(-0.1059372815335355 0 0)
(-0.1056051864789456 0 0)
(-0.1048353103899244 0 0)
(-0.1034022623176781 0 0)
(-0.1010729041513552 0 0)
(-0.0976162772696597 0 0)
(-0.09281612037036772 0 0)
(-0.08648391846099716 0 0)
(-0.07847385776708275 0 0)
(-0.06869714670220887 0 0)
(-0.05713124750418406 0 0)
(-0.04382272260049445 0 0)
(-0.02888522548315641 0 0)
(-0.01249123942235439 0 0)
(0.005143558626444021 0 0)
(0.02376824713978081 0 0)
(0.0430526550549111 0 0)
(0.06241116727773548 0 0)
(0.08058302127877337 0 0)
(0.09509843605301846 0 0)
(0.1031358389314699 0 0)
(0.1052909640114684 0 0)
(0.105430741176365 0 0)
(0.105376140837863 0 0)
(0.1051587888367769 0 0)
(0.1045723832878461 0 0)
(0.10341259627159 0 0)
(0.1014471841172897 0 0)
(0.09844044749709735 0 0)
(0.09416162037635831 0 0)
(0.08839806401688971 0 0)
(0.0809684871834063 0 0)
(0.07173629306699271 0 0)
(0.06062236505619797 0 0)
(0.04761475189969169 0 0)
(0.03277152382120782 0 0)
(0.01621664888151123 0 0)
(-0.00186450758474075 0 0)
(-0.02121489197754221 0 0)
(-0.04144368043450245 0 0)
(-0.0618217672677789 0 0)
(-0.080802057703698 0 0)
(-0.09551047657252935 0 0)
(-0.1031041063238858 0 0)
(-0.1048904178384196 0 0)
(-0.1049729066184964 0 0)
(-0.1049223043746152 0 0)
(-0.1046753652960574 0 0)
(-0.1040560469610246 0 0)
(-0.1028526732398889 0 0)
(-0.1008445282705093 0 0)
(-0.09780925449104294 0 0)
(-0.09353485053002404 0 0)
(-0.08783083238908936 0 0)
(-0.0805404365622302 0 0)
(-0.07155223406974791 0 0)
(-0.060809474865022 0 0)
(-0.04831588968480848 0 0)
(-0.03413676376392231 0 0)
(-0.01839410857800711 0 0)
(-0.001257807931776362 0 0)
(0.01705630646016449 0 0)
(0.03625282572409249 0 0)
(0.05582367358759426 0 0)
(0.0746982352028194 0 0)
(0.09066931491756768 0 0)
(0.1006552062945813 0 0)
(0.1040182084872238 0 0)
(0.1043707539224376 0 0)
(0.1043469716905314 0 0)
(0.1041971650775497 0 0)
(0.1037487151471889 0 0)
(0.1028032687956209 0 0)
(0.1011416449619003 0 0)
(0.09853692712702286 0 0)
(0.09476390938679932 0 0)
(0.08961034878009883 0 0)
(0.08288730077285787 0 0)
(0.07443998039606332 0 0)
(0.06416009210561797 0 0)
(0.0519964890440965 0 0)
(0.03795961614664684 0 0)
(0.02212125854707582 0 0)
(0.00461697562924192 0 0)
(-0.01434042607586728 0 0)
(-0.03441352034842398 0 0)
(-0.05498298881340488 0 0)
(-0.07473989638574446 0 0)
(-0.09108900094565178 0 0)
(-0.1007630159775608 0 0)
(-0.1036985803406157 0 0)
(-0.1039514732478099 0 0)
(-0.103929659248266 0 0)
(-0.1037501907303255 0 0)
(-0.1032656365893128 0 0)
(-0.1022676494295852 0 0)
(-0.1005478587912239 0 0)
(-0.09789150255736902 0 0)
(-0.09409083004200902 0 0)
(-0.08895434301400983 0 0)
(-0.08231803051430393 0 0)
(-0.07405542679793421 0 0)
(-0.06408507607084958 0 0)
(-0.05237682846442621 0 0)
(-0.03895689096138766 0 0)
(-0.02390723943178604 0 0)
(-0.007358607751980986 0 0)
(0.01051077857284884 0 0)
(0.02944633089047719 0 0)
(0.0490147807722756 0 0)
(0.06833166434104711 0 0)
(0.08552443892505175 0 0)
(0.09753505326932281 0 0)
(0.1025573303218737 0 0)
(0.1033580033901742 0 0)
(0.1033518242996678 0 0)
(0.1032643370304101 0 0)
(0.1029242634454652 0 0)
(0.1021623609955348 0 0)
(0.100765351279033 0 0)
(0.09851608561030616 0 0)
(0.09519523628214052 0 0)
(0.09059176505355425 0 0)
(0.08451178563228047 0 0)
(0.07678850209515059 0 0)
(0.06729290561372392 0 0)
(0.05594320423534857 0 0)
(0.04271119920582352 0 0)
(0.02762670816090811 0 0)
(0.01078285073079605 0 0)
(-0.007652707515567738 0 0)
(-0.02740057232164139 0 0)
(-0.04794599740657509 0 0)
(-0.06820797259399128 0 0)
(-0.08594839899849857 0 0)
(-0.09779350041091668 0 0)
(-0.1023172176422655 0 0)
(-0.1029296753765085 0 0)
(-0.1029258700790681 0 0)
(-0.102809694710556 0 0)
(-0.1024427196758063 0 0)
(-0.1016323159034169 0 0)
(-0.100176973242169 0 0)
(-0.0978682319685102 0 0)
(-0.09450180877243183 0 0)
(-0.08988627723447445 0 0)
(-0.08385251634425844 0 0)
(-0.07626227847766155 0 0)
(-0.06701577314948412 0 0)
(-0.05605861202464864 0 0)
(-0.04338686917910259 0 0)
(-0.02904784042036803 0 0)
(-0.01313753005160277 0 0)
(0.004197778209598053 0 0)
(0.0227415001796696 0 0)
(0.04213450713302101 0 0)
(0.06166492574049089 0 0)
(0.07979588026869505 0 0)
(0.09370413971364507 0 0)
(0.1007251435030099 0 0)
(0.1023092085541649 0 0)
(0.102374036477047 0 0)
(0.102323597788591 0 0)
(0.102081046176629 0 0)
(0.1014802359600633 0 0)
(0.1003203334630533 0 0)
(0.09839157339576193 0 0)
(0.09548013428798029 0 0)
(0.09137715498641952 0 0)
(0.08588654417575667 0 0)
(0.07883367261960902 0 0)
(0.07007437690484526 0 0)
(0.05950373279018668 0 0)
(0.04706389284327829 0 0)
(0.03275063029240965 0 0)
(0.0166194843820733 0 0)
(-0.001203754128903186 0 0)
(-0.02049250058130817 0 0)
(-0.04082525214090258 0 0)
(-0.06132937223558172 0 0)
(-0.0801507492516919 0 0)
(-0.09408893536386946 0 0)
(-0.10061682277249 0 0)
(-0.1019070195622346 0 0)
(-0.1019420764729469 0 0)
(-0.1018752003142978 0 0)
(-0.1016053991819121 0 0)
(-0.100959205861267 0 0)
(-0.09974221856673787 0 0)
(-0.09775103858061612 0 0)
(-0.09478360602350293 0 0)
(-0.0906476877560168 0 0)
(-0.08516943780731748 0 0)
(-0.07820141950311156 0 0)
(-0.06963017111612799 0 0)
(-0.05938338145210684 0 0)
(-0.04743509935348682 0 0)
(-0.03380721599544412 0 0)
(-0.01856844429957279 0 0)
(-0.001836206651498371 0 0)
(0.01620967772224389 0 0)
(0.03527631313522998 0 0)
(0.05480008853237196 0 0)
(0.07355973746151086 0 0)
(0.08909071632377503 0 0)
(0.09832350351117269 0 0)
(0.1011499653992005 0 0)
(0.1014488150707554 0 0)
(0.1014942211256004 0 0)
(0.1013493968575685 0 0)
(0.1008911412313031 0 0)
(0.09991281288755716 0 0)
(0.09821050749794799 0 0)
(0.09558314766824146 0 0)
(0.09183861415516742 0 0)
(0.08679791385466379 0 0)
(0.08030078587526875 0 0)
(0.07221049083250441 0 0)
(0.06241639380302751 0 0)
(0.05083695352155347 0 0)
(0.03742710498912962 0 0)
(0.02219019698380859 0 0)
(0.005191604502863541 0 0)
(-0.01341126433421718 0 0)
(-0.03329032566681415 0 0)
(-0.05378742382315648 0 0)
(-0.07335541965885949 0 0)
(-0.08909106037388707 0 0)
(-0.09796685697616976 0 0)
(-0.1005708258039904 0 0)
(-0.1008518075021145 0 0)
(-0.1007800920928247 0 0)
(-0.1004478996815915 0 0)
(-0.09973858371606378 0 0)
(-0.09849830766847575 0 0)
(-0.09656119833511265 0 0)
(-0.09375260940428776 0 0)
(-0.08990541304558475 0 0)
(-0.08487146413632352 0 0)
(-0.07852325662695146 0 0)
(-0.07075121932388176 0 0)
(-0.06146511106571569 0 0)
(-0.05060005037031099 0 0)
(-0.03812432577552937 0 0)
(-0.0240465589484436 0 0)
(-0.008417732830982098 0 0)
(0.008653689649718528 0 0)
(0.02694457070528398 0 0)
(0.0460176647610412 0 0)
(0.06492057240276439 0 0)
(0.08146768204480821 0 0)
(0.09254241404268645 0 0)
(0.09744946640532673 0 0)
(0.09844068982002484 0 0)
(0.0985804138754087 0 0)
(0.0984600282410197 0 0)
(0.09800424568794894 0 0)
(0.0970639349900882 0 0)
(0.09551441284005213 0 0)
(0.09318874793472763 0 0)
(0.0898864018541662 0 0)
(0.08541588036961874 0 0)
(0.0796143555001676 0 0)
(0.07234052063584852 0 0)
(0.0634680122501986 0 0)
(0.05289099113836612 0 0)
(0.04053574767209216 0 0)
(0.02637014380146311 0 0)
(0.01041134846372455 0 0)
(-0.00723757710873259 0 0)
(-0.02630015507086175 0 0)
(-0.04621976981530442 0 0)
(-0.06584995644195651 0 0)
(-0.08274129215790563 0 0)
(-0.09361170156350709 0 0)
(-0.09807693421958201 0 0)
(-0.09893063817513291 0 0)
(-0.09899640609091462 0 0)
(-0.09881084258640388 0 0)
(-0.09827776031208457 0 0)
(-0.09724447852643539 0 0)
(-0.09559726935345469 0 0)
(-0.09317339934378498 0 0)
(-0.08978709605652226 0 0)
(-0.08526699356638361 0 0)
(-0.07946958907469547 0 0)
(-0.07227582176436075 0 0)
(-0.06358998098427299 0 0)
(-0.05334447282762397 0 0)
(-0.04150467180111825 0 0)
(-0.02807025311026146 0 0)
(-0.01307507739570796 0 0)
(0.003394434933986505 0 0)
(0.02113921610973469 0 0)
(0.03977709947683715 0 0)
(0.05858866195222125 0 0)
(0.07599026148210973 0 0)
(0.08908026175765434 0 0)
(0.09596201681728844 0 0)
(0.09800053029227851 0 0)
(0.0982262122395753 0 0)
(0.09822289880545566 0 0)
(0.09790514486273759 0 0)
(0.09712392003198064 0 0)
(0.09576057794107064 0 0)
(0.09367138938113434 0 0)
(0.09068218017080119 0 0)
(0.08661247443026131 0 0)
(0.08129508831717923 0 0)
(0.0745761615540286 0 0)
(0.06631391335642943 0 0)
(0.05638733929013735 0 0)
(0.04470964155714476 0 0)
(0.03123798800189278 0 0)
(0.01598003439957073 0 0)
(-0.0009820392271855996 0 0)
(-0.01942298732925839 0 0)
(-0.03889196514170672 0 0)
(-0.05853183350979595 0 0)
(-0.07649574483935438 0 0)
(-0.08958977409918892 0 0)
(-0.09599279783403923 0 0)
(-0.09775801116821584 0 0)
(-0.09787993388099268 0 0)
(-0.09784531119196974 0 0)
(-0.09747971045413478 0 0)
(-0.09664695787858123 0 0)
(-0.09523122992067166 0 0)
(-0.09308441128150642 0 0)
(-0.09003710573383479 0 0)
(-0.08593060104291046 0 0)
(-0.0806251954673935 0 0)
(-0.07399276731579688 0 0)
(-0.06591772812639322 0 0)
(-0.05630975212530658 0 0)
(-0.04511629295885354 0 0)
(-0.03232757555215843 0 0)
(-0.01797590566453076 0 0)
(-0.002139836096349635 0 0)
(0.01501835579789559 0 0)
(0.03318057971359783 0 0)
(0.05177922242845297 0 0)
(0.06967217752450393 0 0)
(0.08447151734194153 0 0)
(0.09340746748415711 0 0)
(0.0968125146999847 0 0)
(0.09731320042842788 0 0)
(0.09743924952876563 0 0)
(0.09725932532752657 0 0)
(0.0966823844650032 0 0)
(0.09554634501791746 0 0)
(0.09371978750718539 0 0)
(0.09103886619023639 0 0)
(0.08733399276709773 0 0)
(0.08245080479878765 0 0)
(0.07624384943651916 0 0)
(0.06856922325856953 0 0)
(0.05929283360768504 0 0)
(0.04830777734449733 0 0)
(0.03555091829651547 0 0)
(0.02101500224523259 0 0)
(0.004760584145041986 0 0)
(-0.01303996641378693 0 0)
(-0.03201558936376721 0 0)
(-0.05148567113244419 0 0)
(-0.07008859290543221 0 0)
(-0.08510298553676773 0 0)
(-0.09366576587796904 0 0)
(-0.09661242224142043 0 0)
(-0.09699811219758633 0 0)
(-0.09706798341673528 0 0)
(-0.09683952419786017 0 0)
(-0.09621137085698865 0 0)
(-0.09502972605183586 0 0)
(-0.09315784656887495 0 0)
(-0.09043048683083124 0 0)
(-0.08669322267484766 0 0)
(-0.0818149511315364 0 0)
(-0.07567523407764612 0 0)
(-0.06815770950557837 0 0)
(-0.05916009955334088 0 0)
(-0.04861013972567394 0 0)
(-0.03647749804372914 0 0)
(-0.02277886149364854 0 0)
(-0.007579504623217533 0 0)
(0.008984441984374848 0 0)
(0.02664478071587921 0 0)
(0.04494271584209038 0 0)
(0.06303848989403399 0 0)
(0.07908571619921449 0 0)
(0.09010536180793366 0 0)
(0.09509757512866471 0 0)
(0.09629259021232252 0 0)
(0.09645910299017418 0 0)
(0.09641175464200258 0 0)
(0.09602787161125852 0 0)
(0.09513110014755505 0 0)
(0.09358122512122506 0 0)
(0.09121537008197922 0 0)
(0.0878664565079907 0 0)
(0.08338502765223371 0 0)
(0.0776367553908147 0 0)
(0.07048977889484197 0 0)
(0.06181347360890473 0 0)
(0.05149108335750539 0 0)
(0.03943931196758223 0 0)
(0.02562674689680788 0 0)
(0.01008690692955436 0 0)
(-0.00705092389167562 0 0)
(-0.02548638340549541 0 0)
(-0.04467044777379114 0 0)
(-0.06357838484484431 0 0)
(-0.08002791327143709 0 0)
(-0.0908016869469421 0 0)
(-0.09524819011046019 0 0)
(-0.0962144957627117 0 0)
(-0.09629261159465562 0 0)
(-0.09620111926512852 0 0)
(-0.09576021964823289 0 0)
(-0.09481649921648104 0 0)
(-0.09322778083804181 0 0)
(-0.09082262761369934 0 0)
(-0.08744196232885505 0 0)
(-0.0829592779340575 0 0)
(-0.07726693098782583 0 0)
(-0.07025947883044414 0 0)
(-0.06183485175685548 0 0)
(-0.05190838793171338 0 0)
(-0.04042855629449713 0 0)
(-0.02738922607452859 0 0)
(-0.01283617985228808 0 0)
(0.003121824112564917 0 0)
(0.02026948681359004 0 0)
(0.03821967640336879 0 0)
(0.05630057085535464 0 0)
(0.07312874042960517 0 0)
(0.08607470514798631 0 0)
(0.09292455299732216 0 0)
(0.09509248108880589 0 0)
(0.09529368771559912 0 0)
(0.09540998846585204 0 0)
(0.09518542368039019 0 0)
(0.09452391034255904 0 0)
(0.09325577695415874 0 0)
(0.09121664093896112 0 0)
(0.08822770543049556 0 0)
(0.08413656561065151 0 0)
(0.07881913420540007 0 0)
(0.07215875832940093 0 0)
(0.06403629530750302 0 0)
(0.05433750995409457 0 0)
(0.04296849570798886 0 0)
(0.02987468054218229 0 0)
(0.01506050275769745 0 0)
(-0.001387752064308667 0 0)
(-0.01924401692896091 0 0)
(-0.03805302444362341 0 0)
(-0.05699545296010039 0 0)
(-0.07440638622962506 0 0)
(-0.08732799348324183 0 0)
(-0.0936608388507572 0 0)
(-0.09543527717806813 0 0)
(-0.09555079571887673 0 0)
(-0.09558811389426232 0 0)
(-0.09530034106126374 0 0)
(-0.09458224414298143 0 0)
(-0.09327432618982789 0 0)
(-0.09119935672850525 0 0)
(-0.08818003253852522 0 0)
(-0.08407937763761884 0 0)
(-0.07879677614408311 0 0)
(-0.07224504894597722 0 0)
(-0.06433795898861118 0 0)
(-0.05499385869589351 0 0)
(-0.04414852868186502 0 0)
(-0.03177120704682174 0 0)
(-0.01787879977370679 0 0)
(-0.002546722054296687 0 0)
(0.01405687237675535 0 0)
(0.03160447578915389 0 0)
(0.0495416905258915 0 0)
(0.06683038221424445 0 0)
(0.08132030553705047 0 0)
(0.09021311827086459 0 0)
(0.09355693349733131 0 0)
(0.09417894557065454 0 0)
(0.09426281173458607 0 0)
(0.09416591092192718 0 0)
(0.09371686822796055 0 0)
(0.09273516348909862 0 0)
(0.0910425940584878 0 0)
(0.08844023320945142 0 0)
(0.0847547981717285 0 0)
(0.07985517348808967 0 0)
(0.0736385721556561 0 0)
(0.06601157906722181 0 0)
(0.05688097451506129 0 0)
(0.04615705840980518 0 0)
(0.03376922566148903 0 0)
(0.01969029393851029 0 0)
(0.003961346296265389 0 0)
(-0.01326212947316413 0 0)
(-0.03161858659812689 0 0)
(-0.05044327492529437 0 0)
(-0.0684636593111073 0 0)
(-0.08316464637476295 0 0)
(-0.09166598869439545 0 0)
(-0.09452253908043895 0 0)
(-0.09499647615910828 0 0)
(-0.0949586766139813 0 0)
(-0.0947887465225116 0 0)
(-0.09426129302462334 0 0)
(-0.09322977247421882 0 0)
(-0.09150307187773001 0 0)
(-0.08887608597491371 0 0)
(-0.08518201806166459 0 0)
(-0.08030554655296539 0 0)
(-0.07416800695406525 0 0)
(-0.06670891205453724 0 0)
(-0.05787371586239012 0 0)
(-0.04761070244974749 0 0)
(-0.03587925033743178 0 0)
(-0.02266730938941446 0 0)
(-0.00800898866901483 0 0)
(0.00798737028486087 0 0)
(0.02507105448248247 0 0)
(0.04278091487137631 0 0)
(0.06029410653149204 0 0)
(0.07590286638547379 0 0)
(0.08688944791577753 0 0)
(0.09186828657453627 0 0)
(0.09307629602643289 0 0)
(0.09308624611755328 0 0)
(0.09306069546502294 0 0)
(0.09274416494860663 0 0)
(0.09201317386047597 0 0)
(0.09066972806482866 0 0)
(0.08848981579264041 0 0)
(0.08525972281713091 0 0)
(0.08081495568588311 0 0)
(0.07504008032242591 0 0)
(0.06785346904434703 0 0)
(0.05919497155681876 0 0)
(0.04901557074480743 0 0)
(0.03726793798009469 0 0)
(0.02391111444583684 0 0)
(0.008937732655051399 0 0)
(-0.007576216602160062 0 0)
(-0.02537511677292435 0 0)
(-0.04393149659563236 0 0)
(-0.06226556782346795 0 0)
(-0.07833015816202421 0 0)
(-0.0890899293601084 0 0)
(-0.09356120011725678 0 0)
(-0.09448106771476114 0 0)
(-0.09441640277615838 0 0)
(-0.09424120320711055 0 0)
(-0.09380231289855684 0 0)
(-0.0929829746824745 0 0)
(-0.09159389871142394 0 0)
(-0.08940658157089383 0 0)
(-0.0861999610909449 0 0)
(-0.08180343069851709 0 0)
(-0.07610692149374841 0 0)
(-0.06905552806715698 0 0)
(-0.06063483304931271 0 0)
(-0.05084576310919051 0 0)
(-0.03968110345477343 0 0)
(-0.02712334098103748 0 0)
(-0.01316854596692156 0 0)
(0.002139589826918847 0 0)
(0.01864532386118967 0 0)
(0.03599246872549119 0 0)
(0.05353345216088859 0 0)
(0.06995302053870288 0 0)
(0.08277321007419962 0 0)
(0.08979054330755172 0 0)
(0.09191436939897628 0 0)
(0.09215382064190009 0 0)
(0.09196375334024343 0 0)
(0.09164790820232356 0 0)
(0.09100843180896537 0 0)
(0.08991988166451256 0 0)
(0.08817113481883754 0 0)
(0.08549949026231965 0 0)
(0.0816503682289634 0 0)
(0.07642500118807131 0 0)
(0.06970324971070666 0 0)
(0.06144281104832294 0 0)
(0.05165755571530971 0 0)
(0.0403836154882485 0 0)
(0.0276429091436548 0 0)
(0.01342916964965648 0 0)
(-0.002268306178503922 0 0)
(-0.01935323675576974 0 0)
(-0.03745528647892964 0 0)
(-0.0558220276633407 0 0)
(-0.07286308889597801 0 0)
(-0.08569840870378469 0 0)
(-0.09226047413060746 0 0)
(-0.09404263134326175 0 0)
(-0.09416885287727159 0 0)
(-0.09393744391131105 0 0)
(-0.09347991957736554 0 0)
(-0.09266284514989796 0 0)
(-0.09139488028120983 0 0)
(-0.08952758542154624 0 0)
(-0.08685309916848236 0 0)
(-0.08313501805646067 0 0)
(-0.07813993824615358 0 0)
(-0.07167224415111313 0 0)
(-0.06362072679291186 0 0)
(-0.0540119478924921 0 0)
(-0.04302980957420623 0 0)
(-0.03092881395025034 0 0)
(-0.01780677614450561 0 0)
(-0.00351910583043502 0 0)
(0.01238021490703429 0 0)
(0.02880045730951235 0 0)
(0.04841681719496287 0 0)
)
;

boundaryField
{
    inlet
    {
        type            zeroGradient;
    }
    outlet
    {
        type            velocityOutletNSCBCx;
        pInf            101325;
        gamma           1.4;
        etaAc           1;
        fieldInf        (-1 0 0);
        lInf            2.25;
        value           uniform (0.05592526954244257 0 0);
    }
    frontAndBack
    {
        type            empty;
    }
}


// ************************************************************************* //
