/*--------------------------------*- C++ -*----------------------------------*\
| =========                 |                                                 |
| \\      /  F ield         | OpenFOAM: The Open Source CFD Toolbox           |
|  \\    /   O peration     | Version:  v2012                                 |
|   \\  /    A nd           | Website:  www.openfoam.com                      |
|    \\/     M anipulation  |                                                 |
\*---------------------------------------------------------------------------*/
FoamFile
{
    version     2.0;
    format      ascii;
    class       volVectorField;
    location    "0.01";
    object      UMean;
}
// * * * * * * * * * * * * * * * * * * * * * * * * * * * * * * * * * * * * * //

dimensions      [0 1 -1 0 0 0 0];


internalField   nonuniform List<vector> 
1000
(
(-3.15179423122962e-05 0 0)
(4.969606465135469e-06 0 0)
(2.580419596367184e-05 0 0)
(6.547528087842358e-05 0 0)
(0.0001119071287935869 0 0)
(0.0001631432098401005 0 0)
(0.000227287839903176 0 0)
(0.0002963161354003958 0 0)
(0.000375820536316321 0 0)
(0.0004595125746692275 0 0)
(0.0005464095560922305 0 0)
(0.0006329286907206749 0 0)
(0.0007190692048840413 0 0)
(0.0008040410252582499 0 0)
(0.0008865596048644538 0 0)
(0.0009649173923359914 0 0)
(0.001037281585984588 0 0)
(0.0011022439118978 0 0)
(0.001158596810683617 0 0)
(0.001205371968313606 0 0)
(0.001241819782941149 0 0)
(0.001267154901087245 0 0)
(0.001281072576253093 0 0)
(0.001283102015315809 0 0)
(0.001273390210026559 0 0)
(0.001251917085018552 0 0)
(0.001219297609164539 0 0)
(0.001175937345484218 0 0)
(0.00112268553738773 0 0)
(0.001059996068850289 0 0)
(0.0009887260838913796 0 0)
(0.0009099700176751316 0 0)
(0.0008266210706605548 0 0)
(0.0007417792854234022 0 0)
(0.0006569837812759935 0 0)
(0.0005724103601581611 0 0)
(0.000488693555276682 0 0)
(0.0004067855442384539 0 0)
(0.0003281082154256678 0 0)
(0.000254324408481136 0 0)
(0.0001872165992014154 0 0)
(0.0001283511027810698 0 0)
(7.906726274882386e-05 0 0)
(4.027655196805098e-05 0 0)
(1.266113176038287e-05 0 0)
(-3.392734284408139e-06 0 0)
(-7.624818861639452e-06 0 0)
(-1.496802298614721e-08 0 0)
(1.932442410308466e-05 0 0)
(5.004689937398191e-05 0 0)
(9.17238645390867e-05 0 0)
(0.0001438711160350832 0 0)
(0.0002060117157034327 0 0)
(0.0002773982023156298 0 0)
(0.0003562237349354437 0 0)
(0.0004391063508366841 0 0)
(0.0005229548620860688 0 0)
(0.0006067620631615457 0 0)
(0.0006903589436558857 0 0)
(0.0007731644386074199 0 0)
(0.0008544639134962778 0 0)
(0.0009329139081858021 0 0)
(0.00100715487809276 0 0)
(0.001075360305817349 0 0)
(0.001136011604713587 0 0)
(0.001187435969273219 0 0)
(0.00122860905454537 0 0)
(0.001258527601770019 0 0)
(0.001276873420422494 0 0)
(0.001283270126055095 0 0)
(0.001277887784471312 0 0)
(0.001260740894221789 0 0)
(0.0012322723752267 0 0)
(0.001192617783331362 0 0)
(0.001142251044207147 0 0)
(0.001081371259199434 0 0)
(0.001010958577229016 0 0)
(0.0009328915376647993 0 0)
(0.0008509167981238664 0 0)
(0.0007679517997366375 0 0)
(0.0006850739458515549 0 0)
(0.0006023640308146792 0 0)
(0.0005202991780423506 0 0)
(0.0004395435080041872 0 0)
(0.0003611769524048083 0 0)
(0.0002865009478314177 0 0)
(0.0002171212412687965 0 0)
(0.0001546585565183985 0 0)
(0.0001007660379070276 0 0)
(5.680327725670141e-05 0 0)
(2.390624250060256e-05 0 0)
(2.742896145865488e-06 0 0)
(-6.280428147713681e-06 0 0)
(-3.165158430285237e-06 0 0)
(1.198841044952236e-05 0 0)
(3.88718234022413e-05 0 0)
(7.726124552739581e-05 0 0)
(0.0001268317161192059 0 0)
(0.0001872705097722002 0 0)
(0.0002575731505760587 0 0)
(0.0003354186216178467 0 0)
(0.0004168996790281561 0 0)
(0.0004991543172366198 0 0)
(0.0005813329046716835 0 0)
(0.0006633877217071712 0 0)
(0.0007447663258158703 0 0)
(0.0008250104251504029 0 0)
(0.0009029726271937768 0 0)
(0.0009776190835507799 0 0)
(0.001047303266806887 0 0)
(0.001110637561595682 0 0)
(0.001165835446746983 0 0)
(0.001211650161611517 0 0)
(0.00124667909560165 0 0)
(0.001270281969996312 0 0)
(0.001281751503398435 0 0)
(0.001281147056972576 0 0)
(0.001268335438598078 0 0)
(0.00124376494067132 0 0)
(0.001207466538596488 0 0)
(0.001159897859189133 0 0)
(0.00110120324493594 0 0)
(0.00103249680078846 0 0)
(0.0009558799657766705 0 0)
(0.0008753475694753659 0 0)
(0.0007938071453652628 0 0)
(0.0007123654071311307 0 0)
(0.0006310106329580562 0 0)
(0.0005501957396302312 0 0)
(0.0004703722708410039 0 0)
(0.0003924924127488781 0 0)
(0.00031755045623628 0 0)
(0.0002470170888044798 0 0)
(0.0001822860819607749 0 0)
(0.000125058257644786 0 0)
(7.674727366837892e-05 0 0)
(3.881077444037064e-05 0 0)
(1.220603715450497e-05 0 0)
(-2.254893503186894e-06 0 0)
(-4.31205227363759e-06 0 0)
(6.1935060907471e-06 0 0)
(2.903545300397862e-05 0 0)
(6.40941972281664e-05 0 0)
(0.0001109967195997414 0 0)
(0.0001694172314793397 0 0)
(0.0002381271742260485 0 0)
(0.0003146275513541349 0 0)
(0.0003947762912195363 0 0)
(0.0004757414576602828 0 0)
(0.000556618726313137 0 0)
(0.0006374288009958772 0 0)
(0.0007176659283105401 0 0)
(0.0007970132218835024 0 0)
(0.0008744582708007814 0 0)
(0.0009491832536102734 0 0)
(0.001019702722198733 0 0)
(0.00108480737757099 0 0)
(0.00114276302242005 0 0)
(0.001192301593782907 0 0)
(0.001231848513690531 0 0)
(0.001260514017771377 0 0)
(0.00127726948649834 0 0)
(0.001281869616145562 0 0)
(0.001273911351446656 0 0)
(0.001253672720875208 0 0)
(0.001221075001223666 0 0)
(0.001176587065648242 0 0)
(0.001120369333024341 0 0)
(0.001053667918188977 0 0)
(0.0009786511330561046 0 0)
(0.0008994727790323645 0 0)
(0.0008191452077588309 0 0)
(0.0007389104740035483 0 0)
(0.0006587016976116725 0 0)
(0.000578943981499887 0 0)
(0.0004999535202221858 0 0)
(0.0004225698890363 0 0)
(0.000347601550903013 0 0)
(0.0002763596486185455 0 0)
(0.0002100683202247252 0 0)
(0.0001503483730485881 0 0)
(9.857397797775122e-05 0 0)
(5.632845781157876e-05 0 0)
(2.473253809799581e-05 0 0)
(4.930061745748502e-06 0 0)
(-2.540072259740614e-06 0 0)
(2.851761501279993e-06 0 0)
(2.107655767827048e-05 0 0)
(5.223510685309325e-05 0 0)
(9.596766943048544e-05 0 0)
(0.0001519626677777564 0 0)
(0.000218822383698975 0 0)
(0.0002938997746934464 0 0)
(0.0003728338441726158 0 0)
(0.0004526852467695285 0 0)
(0.0005324543695023315 0 0)
(0.0006121990958507696 0 0)
(0.0006914524984268851 0 0)
(0.000770002143480143 0 0)
(0.0008469368530158272 0 0)
(0.0009215987892458898 0 0)
(0.0009926391983214246 0 0)
(0.001059008502368466 0 0)
(0.001119059009880416 0 0)
(0.001171583467968593 0 0)
(0.00121494062173903 0 0)
(0.001248128477576375 0 0)
(0.001269869739108466 0 0)
(0.001279671474502446 0 0)
(0.001276816731716398 0 0)
(0.001261351129672027 0 0)
(0.001232991019558725 0 0)
(0.00119211459730905 0 0)
(0.001138842472844103 0 0)
(0.001074459004727666 0 0)
(0.001001173871625774 0 0)
(0.0009232791049395719 0 0)
(0.0008440236358718071 0 0)
(0.0007648295077628166 0 0)
(0.0006856248438569196 0 0)
(0.0006067998337195642 0 0)
(0.0005285752851402177 0 0)
(0.0004516991333625187 0 0)
(0.0003768302914277263 0 0)
(0.0003051523723227294 0 0)
(0.0002377325116202396 0 0)
(0.0001760972324942542 0 0)
(0.0001215373391108418 0 0)
(7.566943888559511e-05 0 0)
(3.968872253872724e-05 0 0)
(1.495029242398097e-05 0 0)
(2.226349071449993e-06 0 0)
(2.365015453902519e-06 0 0)
(1.560770492469502e-05 0 0)
(4.231229961613767e-05 0 0)
(8.227287866341808e-05 0 0)
(0.0001352685001824394 0 0)
(0.0001998813203193315 0 0)
(0.0002733679347431663 0 0)
(0.0003511448776205234 0 0)
(0.0004300026490103305 0 0)
(0.0005088009640969006 0 0)
(0.0005876020842146784 0 0)
(0.0006659870782948664 0 0)
(0.0007438089123397361 0 0)
(0.0008202493408123691 0 0)
(0.0008947686229854353 0 0)
(0.0009661386757871195 0 0)
(0.00103344331721444 0 0)
(0.001095135275836192 0 0)
(0.001150083388962653 0 0)
(0.001196654903766575 0 0)
(0.001233786851989147 0 0)
(0.001260068570568427 0 0)
(0.001274800571264021 0 0)
(0.001277026093536554 0 0)
(0.001266531682936242 0 0)
(0.00124280934466977 0 0)
(0.001206058566799838 0 0)
(0.001156277701427195 0 0)
(0.001094669612389827 0 0)
(0.00102338412152203 0 0)
(0.0009468111828764789 0 0)
(0.0008685404872374314 0 0)
(0.0007902825901682359 0 0)
(0.0007119773686213223 0 0)
(0.0006340002511522683 0 0)
(0.0005564800109706983 0 0)
(0.0004801085442534715 0 0)
(0.0004054104323971682 0 0)
(0.0003334785156820743 0 0)
(0.0002652267354364698 0 0)
(0.000202096284180425 0 0)
(0.0001452728306474605 0 0)
(9.636081011549062e-05 0 0)
(5.657319838066299e-05 0 0)
(2.738719823392281e-05 0 0)
(9.747722026352894e-06 0 0)
(4.747788064311573e-06 0 0)
(1.288759690235758e-05 0 0)
(3.478968453585191e-05 0 0)
(7.046684691061272e-05 0 0)
(0.0001198676240114124 0 0)
(0.0001816924682728095 0 0)
(0.0002532513659750526 0 0)
(0.0003298035698415794 0 0)
(0.0004077396844806136 0 0)
(0.0004856578530789896 0 0)
(0.0005635993605527984 0 0)
(0.0006411904120665753 0 0)
(0.0007183305802144804 0 0)
(0.0007942894406688559 0 0)
(0.0008686095092157752 0 0)
(0.0009401805368518084 0 0)
(0.001008183902009552 0 0)
(0.001071188073465406 0 0)
(0.001128126738890523 0 0)
(0.001177421831451427 0 0)
(0.001217982223102714 0 0)
(0.00124833716396693 0 0)
(0.001267633972757482 0 0)
(0.001274744259993887 0 0)
(0.001269217648343752 0 0)
(0.001250342367541067 0 0)
(0.001218095499155389 0 0)
(0.001172315641282572 0 0)
(0.001114000318612729 0 0)
(0.001045127260689085 0 0)
(0.0009700343756492059 0 0)
(0.0008927331213268292 0 0)
(0.0008153296475085594 0 0)
(0.0007378672535499946 0 0)
(0.0006606687252593609 0 0)
(0.0005838291641155743 0 0)
(0.0005079473554301123 0 0)
(0.0004334840721593107 0 0)
(0.0003614075341420775 0 0)
(0.0002925483154760619 0 0)
(0.0002282214249551479 0 0)
(0.0001695472905937956 0 0)
(0.0001180578438043471 0 0)
(7.497655454757977e-05 0 0)
(4.182164747464729e-05 0 0)
(1.966606664387599e-05 0 0)
(9.772798207933771e-06 0 0)
(1.286158744085153e-05 0 0)
(2.979186320977433e-05 0 0)
(6.080093067716046e-05 0 0)
(0.000106069475747576 0 0)
(0.000164517180825578 0 0)
(0.000233706009737259 0 0)
(0.0003088566077894261 0 0)
(0.0003858955515821057 0 0)
(0.0004629868121030099 0 0)
(0.0005401300625950294 0 0)
(0.0006169700117268671 0 0)
(0.0006934685510613162 0 0)
(0.0007689461209810299 0 0)
(0.0008430379694776323 0 0)
(0.0009147078689416313 0 0)
(0.000983249527404697 0 0)
(0.001047305823614478 0 0)
(0.001105910381908075 0 0)
(0.001157516374899856 0 0)
(0.001201070693948123 0 0)
(0.001235045729029635 0 0)
(0.001258527659911771 0 0)
(0.001270227620289987 0 0)
(0.001269547581538966 0 0)
(0.001255557477535844 0 0)
(0.00122806489665937 0 0)
(0.001186679348631369 0 0)
(0.00113217959422652 0 0)
(0.001066192868881015 0 0)
(0.0009928795322319722 0 0)
(0.0009165777578844002 0 0)
(0.0008399938158061485 0 0)
(0.0007633146459665077 0 0)
(0.0006868709050919952 0 0)
(0.0006106774559534596 0 0)
(0.0005353030429329028 0 0)
(0.0004611047705825191 0 0)
(0.0003889910415601374 0 0)
(0.0003196754421109547 0 0)
(0.0002544004949465841 0 0)
(0.0001941853473725396 0 0)
(0.0001405128379794924 0 0)
(9.456713716048057e-05 0 0)
(5.788965891728949e-05 0 0)
(3.161969796797077e-05 0 0)
(1.713941450705159e-05 0 0)
(1.533891431136407e-05 0 0)
(2.726397503255434e-05 0 0)
(5.337819294561213e-05 0 0)
(9.408168164302193e-05 0 0)
(0.0001486167245324174 0 0)
(0.0002149085475039197 0 0)
(0.000288384633331355 0 0)
(0.0003644715595477029 0 0)
(0.000440782435638672 0 0)
(0.0005171413638264625 0 0)
(0.0005932749715854473 0 0)
(0.0006691273110337943 0 0)
(0.0007441418716496931 0 0)
(0.0008179520540650598 0 0)
(0.0008896690282597003 0 0)
(0.0009585961299615161 0 0)
(0.001023533774400646 0 0)
(0.001083515272794309 0 0)
(0.001137129356766318 0 0)
(0.001183276174257125 0 0)
(0.001220501836775223 0 0)
(0.001247766214240924 0 0)
(0.001263768605853827 0 0)
(0.001267703682907629 0 0)
(0.001258565483641394 0 0)
(0.001235911773017091 0 0)
(0.001199231292446094 0 0)
(0.001148957661005155 0 0)
(0.001086388896295224 0 0)
(0.001015223263898055 0 0)
(0.0009400723540467043 0 0)
(0.00086426431739627 0 0)
(0.0007883587326811451 0 0)
(0.0007126250633588021 0 0)
(0.0006370877415380769 0 0)
(0.0005622107403279882 0 0)
(0.0004883335425525046 0 0)
(0.0004162431507755291 0 0)
(0.0003466148051934553 0 0)
(0.0002805658495541729 0 0)
(0.0002190756665931773 0 0)
(0.0001635248840507531 0 0)
(0.0001150908364555729 0 0)
(7.527386052577907e-05 0 0)
(4.527679859132782e-05 0 0)
(2.652962475967727e-05 0 0)
(2.006718643745246e-05 0 0)
(2.706146598439567e-05 0 0)
(4.818079277193434e-05 0 0)
(8.402628015801015e-05 0 0)
(0.0001341834145572571 0 0)
(0.0001970376576399754 0 0)
(0.000268434137781344 0 0)
(0.0003434587565009188 0 0)
(0.0004190055908566579 0 0)
(0.0004946170352198818 0 0)
(0.0005700499124805926 0 0)
(0.0006452745128130029 0 0)
(0.0007197993422118366 0 0)
(0.0007933047599967061 0 0)
(0.0008649842043044284 0 0)
(0.0009341999191796812 0 0)
(0.0009998427427338717 0 0)
(0.001060999809328806 0 0)
(0.001116336222113264 0 0)
(0.001164773480021572 0 0)
(0.001204890575566763 0 0)
(0.001235605630948374 0 0)
(0.001255583439146751 0 0)
(0.001263905332795787 0 0)
(0.001259472368750279 0 0)
(0.001241672712755982 0 0)
(0.001209842424992756 0 0)
(0.001164125631669285 0 0)
(0.001105422667978494 0 0)
(0.001036874187198427 0 0)
(0.000963094364193454 0 0)
(0.0008880942025883868 0 0)
(0.0008129452244478178 0 0)
(0.0007379312777357059 0 0)
(0.0006630441130402613 0 0)
(0.0005886980942322595 0 0)
(0.000515170327822188 0 0)
(0.0004431838993843718 0 0)
(0.0003733390364331033 0 0)
(0.0003066800063652894 0 0)
(0.0002441123800859595 0 0)
(0.0001869533460348651 0 0)
(0.0001363316023689518 0 0)
(9.37231220635948e-05 0 0)
(6.033866566655805e-05 0 0)
(3.764994726909253e-05 0 0)
(2.677110676566914e-05 0 0)
(2.898437095080577e-05 0 0)
(4.510604728107479e-05 0 0)
(7.593242959171973e-05 0 0)
(0.0001213572498843232 0 0)
(0.0001802720332268808 0 0)
(0.0002490992453016668 0 0)
(0.000322852108239203 0 0)
(0.0003976236336057585 0 0)
(0.0004725103401722861 0 0)
(0.000547244298643204 0 0)
(0.0006218503030822432 0 0)
(0.0006958587377308972 0 0)
(0.000769035177671163 0 0)
(0.000840603627057529 0 0)
(0.0009100245994396305 0 0)
(0.0009762243973925505 0 0)
(0.00103838928148832 0 0)
(0.001095208229512394 0 0)
(0.001145681123354237 0 0)
(0.001188375416963421 0 0)
(0.001222244056055485 0 0)
(0.001245884330910939 0 0)
(0.001258354716883525 0 0)
(0.001258431467171628 0 0)
(0.001245430923570649 0 0)
(0.001218501554158266 0 0)
(0.001177595452602061 0 0)
(0.001123158804308325 0 0)
(0.00105776172982102 0 0)
(0.0009856709054448269 0 0)
(0.0009115500196032904 0 0)
(0.0008371067548417622 0 0)
(0.0007627937799287647 0 0)
(0.0006885437896476741 0 0)
(0.0006147381155245576 0 0)
(0.0005415932173042081 0 0)
(0.0004697752472979843 0 0)
(0.0003998126076042906 0 0)
(0.0003326850788608084 0 0)
(0.0002692230949797579 0 0)
(0.0002106863698359481 0 0)
(0.0001581448229351412 0 0)
(0.000113047731941852 0 0)
(7.658746817615018e-05 0 0)
(5.026202837361037e-05 0 0)
(3.522588569724354e-05 0 0)
(3.285199999260543e-05 0 0)
(4.405996579882359e-05 0 0)
(6.982058386527578e-05 0 0)
(0.0001102874826972732 0 0)
(0.0001648509381063693 0 0)
(0.0002305891337679043 0 0)
(0.0003027478286829158 0 0)
(0.0003766736880574713 0 0)
(0.0004508352905913871 0 0)
(0.0005248687490091928 0 0)
(0.0005988298317308594 0 0)
(0.0006723036770001471 0 0)
(0.000745097148703971 0 0)
(0.0008165017490017925 0 0)
(0.0008860303019388227 0 0)
(0.0009526794591287757 0 0)
(0.001015688690496909 0 0)
(0.001073809343783462 0 0)
(0.001126079623827492 0 0)
(0.001171104391864685 0 0)
(0.001207838932900892 0 0)
(0.001234876345685394 0 0)
(0.001251229589562797 0 0)
(0.001255625195320058 0 0)
(0.001247281580499404 0 0)
(0.001225239541118494 0 0)
(0.001189241652196715 0 0)
(0.001139387382362066 0 0)
(0.001077607147533341 0 0)
(0.001007655085374599 0 0)
(0.0009345397317910588 0 0)
(0.000860820877730034 0 0)
(0.0007871974915672617 0 0)
(0.0007135959600687001 0 0)
(0.0006403482058825442 0 0)
(0.0005676267519450913 0 0)
(0.0004960331932127941 0 0)
(0.0004260441556488685 0 0)
(0.0003585630752329892 0 0)
(0.000294368674181468 0 0)
(0.0002346438390993262 0 0)
(0.0001804214112963282 0 0)
(0.0001330920358586846 0 0)
(9.384469694555634e-05 0 0)
(6.415722836227352e-05 0 0)
(4.523210206837866e-05 0 0)
(3.847365767751979e-05 0 0)
(4.490961570366806e-05 0 0)
(6.5617997631139e-05 0 0)
(0.000101005809687463 0 0)
(0.0001508680825526101 0 0)
(0.000213002898843746 0 0)
(0.0002831267522322376 0 0)
(0.0003561027956547681 0 0)
(0.0004295457492009412 0 0)
(0.0005028987673818108 0 0)
(0.0005762072903020754 0 0)
(0.0006491396848619315 0 0)
(0.000721507276674298 0 0)
(0.0007927000621684243 0 0)
(0.0008622434987641757 0 0)
(0.0009292373267748898 0 0)
(0.0009929369694240571 0 0)
(0.001052190144598523 0 0)
(0.00110604362493382 0 0)
(0.001153175486396547 0 0)
(0.001192525696942899 0 0)
(0.00122271861625311 0 0)
(0.001242714083973214 0 0)
(0.001251215876515068 0 0)
(0.001247353376189183 0 0)
(0.001230076409136704 0 0)
(0.001198975502334512 0 0)
(0.001153846530215626 0 0)
(0.00109605104582344 0 0)
(0.0010287185539588 0 0)
(0.0009568635130779631 0 0)
(0.000883937911604408 0 0)
(0.0008110880164768747 0 0)
(0.000738242664591834 0 0)
(0.0006657075338949419 0 0)
(0.0005935414454654195 0 0)
(0.0005223187866899202 0 0)
(0.0004523718105392044 0 0)
(0.0003845870291107678 0 0)
(0.0003196543493600688 0 0)
(0.0002587164823645342 0 0)
(0.0002027293952479611 0 0)
(0.0001531973323032384 0 0)
(0.0001111953250761196 0 0)
(7.830356703955852e-05 0 0)
(5.574028156567575e-05 0 0)
(4.506076399349672e-05 0 0)
(4.701270230454995e-05 0 0)
(6.305537652822605e-05 0 0)
(9.364346784056772e-05 0 0)
(0.000139005904168102 0 0)
(0.0001972533717355856 0 0)
(0.0002650730820916143 0 0)
(0.0003369722230524475 0 0)
(0.0004098623163617247 0 0)
(0.0004827463075546181 0 0)
(0.0005557401651512429 0 0)
(0.0006284440378489708 0 0)
(0.0007008080555761958 0 0)
(0.0007724203404442713 0 0)
(0.0008426468059768759 0 0)
(0.0009107351036706133 0 0)
(0.0009759449674272067 0 0)
(0.001037309140810352 0 0)
(0.001093493675672563 0 0)
(0.001143258740282819 0 0)
(0.0011855969826131 0 0)
(0.001218763171177189 0 0)
(0.001242000652487649 0 0)
(0.001253921400754849 0 0)
(0.00125376560142879 0 0)
(0.001239992837577231 0 0)
(0.001212519894467924 0 0)
(0.001170860174920676 0 0)
(0.001115960154694166 0 0)
(0.001050334962066516 0 0)
(0.0009789097396404884 0 0)
(0.0009049389325802002 0 0)
(0.0008309611654851354 0 0)
(0.000757024597634043 0 0)
(0.0006833993726615184 0 0)
(0.0006098483289660914 0 0)
(0.0005374223382776426 0 0)
(0.0004659985825462333 0 0)
(0.0003964367623291487 0 0)
(0.000329283743971908 0 0)
(0.0002659757076481481 0 0)
(0.0002071329346746393 0 0)
(0.0001542594895796518 0 0)
(0.0001089144304707155 0 0)
(7.19795566202835e-05 0 0)
(4.529055311965392e-05 0 0)
(2.994639666052125e-05 0 0)
(2.74998509677341e-05 0 0)
(3.857201905423109e-05 0 0)
(6.425460111446265e-05 0 0)
(0.0001048019437128071 0 0)
(0.0001592277684056024 0 0)
(0.0002241853263911028 0 0)
(0.0002953723789944534 0 0)
(0.0003683928863104647 0 0)
(0.0004415622961581629 0 0)
(0.0005149280483457872 0 0)
(0.0005878755890502726 0 0)
(0.0006604256939322108 0 0)
(0.0007321099754145835 0 0)
(0.0008027009907084207 0 0)
(0.0008712573748689295 0 0)
(0.0009372297791517377 0 0)
(0.0009996289128864941 0 0)
(0.001057549038973922 0 0)
(0.00110943152931298 0 0)
(0.001154522575291046 0 0)
(0.00119092753629755 0 0)
(0.001217954145206238 0 0)
(0.001233952502983109 0 0)
(0.001238567638076504 0 0)
(0.001229904688340821 0 0)
(0.001207710071444696 0 0)
(0.001171517119208361 0 0)
(0.001121879707232361 0 0)
(0.001060357738340397 0 0)
(0.0009913857608212146 0 0)
(0.0009188576111898854 0 0)
(0.0008455268488643189 0 0)
(0.0007724401037068455 0 0)
(0.0006995840395385404 0 0)
(0.0006269200932444885 0 0)
(0.0005549754464325567 0 0)
(0.0004842382213286769 0 0)
(0.0004150208549453316 0 0)
(0.0003480194496597997 0 0)
(0.0002841921757524898 0 0)
(0.0002247699170170251 0 0)
(0.0001703490217991025 0 0)
(0.0001229892800242302 0 0)
(8.370685457778454e-05 0 0)
(5.372937134483109e-05 0 0)
(3.481008912680391e-05 0 0)
(2.792830682070516e-05 0 0)
(3.458632027573711e-05 0 0)
(5.52124816627468e-05 0 0)
(9.064976217493896e-05 0 0)
(0.0001402493676634152 0 0)
(0.0002019150348897322 0 0)
(0.0002710294868410244 0 0)
(0.0003435949183919834 0 0)
(0.0004163090159195522 0 0)
(0.0004893195030687503 0 0)
(0.0005621255742732534 0 0)
(0.0006343821846294022 0 0)
(0.0007059496277806616 0 0)
(0.000776404807922151 0 0)
(0.000845122673920681 0 0)
(0.0009114206321444496 0 0)
(0.0009744033299068953 0 0)
(0.00103341990527759 0 0)
(0.001086817555009244 0 0)
(0.00113392208761119 0 0)
(0.001173265428321559 0 0)
(0.001203267978169649 0 0)
(0.001223085691284471 0 0)
(0.001231520700165458 0 0)
(0.001227682631455916 0 0)
(0.001210253240988917 0 0)
(0.00117916011523905 0 0)
(0.001134394339650831 0 0)
(0.001077197237201655 0 0)
(0.00101066510575355 0 0)
(0.0009395894802978037 0 0)
(0.0008669259542869713 0 0)
(0.0007940280211029753 0 0)
(0.0007217208537638053 0 0)
(0.0006495803139017924 0 0)
(0.0005778986849431959 0 0)
(0.0005073805787140047 0 0)
(0.0004383889477825948 0 0)
(0.0003712669867607606 0 0)
(0.0003069815198002284 0 0)
(0.0002466423639430935 0 0)
(0.0001910055942027362 0 0)
(0.0001416346752789199 0 0)
(9.998349921772384e-05 0 0)
(6.680579228936145e-05 0 0)
(4.424261503715163e-05 0 0)
(3.314006370659209e-05 0 0)
(3.511518515339052e-05 0 0)
(5.068493201505211e-05 0 0)
(8.07991079603188e-05 0 0)
(0.0001252607322975592 0 0)
(0.0001828054043820725 0 0)
(0.0002493400735072014 0 0)
(0.000320677207573464 0 0)
(0.0003931162612555707 0 0)
(0.0004652414131684267 0 0)
(0.0005377476589394475 0 0)
(0.0006097455510565157 0 0)
(0.000680745533353136 0 0)
(0.0007511222148747208 0 0)
(0.0008198165904065943 0 0)
(0.0008862435173684933 0 0)
(0.0009496577147704926 0 0)
(0.00100936312260079 0 0)
(0.001064028998277412 0 0)
(0.001112954146669915 0 0)
(0.001154402224164479 0 0)
(0.001187370204307617 0 0)
(0.001210507908706098 0 0)
(0.001222758973695478 0 0)
(0.001223102594047254 0 0)
(0.001210512154147025 0 0)
(0.001184262000502213 0 0)
(0.001144420128164244 0 0)
(0.00109159116893358 0 0)
(0.001028280054166374 0 0)
(0.0009586497514770775 0 0)
(0.0008867525409678989 0 0)
(0.0008142945368458394 0 0)
(0.0007420085874859077 0 0)
(0.000670410522936786 0 0)
(0.000598820065049059 0 0)
(0.0005286496814444739 0 0)
(0.0004595780225685726 0 0)
(0.0003923686860703677 0 0)
(0.000327674555213894 0 0)
(0.0002663906583605674 0 0)
(0.0002097600123218148 0 0)
(0.0001583639661657171 0 0)
(0.0001143583996609031 0 0)
(7.865460505069548e-05 0 0)
(5.238284480867714e-05 0 0)
(3.731775873078502e-05 0 0)
(3.460407294301587e-05 0 0)
(4.52940281888933e-05 0 0)
(7.006205975260278e-05 0 0)
(0.0001092775264600039 0 0)
(0.0001620569320682605 0 0)
(0.0002256274964220017 0 0)
(0.0002949903039797093 0 0)
(0.0003668415616389785 0 0)
(0.0004386594214829043 0 0)
(0.0005100587277723264 0 0)
(0.0005818795382421587 0 0)
(0.0006524333091326507 0 0)
(0.0007226112986109584 0 0)
(0.000790961159659468 0 0)
(0.0008575867390546921 0 0)
(0.0009212658775549161 0 0)
(0.0009815016370850361 0 0)
(0.001037308153738237 0 0)
(0.001087361651253386 0 0)
(0.001130996868295768 0 0)
(0.00116657697150924 0 0)
(0.001192661307945262 0 0)
(0.001208505378744928 0 0)
(0.001212955767658764 0 0)
(0.001204816970990596 0 0)
(0.001183353707584127 0 0)
(0.001148374932252313 0 0)
(0.001100100028746693 0 0)
(0.001040404692644711 0 0)
(0.000972762741408777 0 0)
(0.000901750749013133 0 0)
(0.0008298427631458725 0 0)
(0.0007575842858031281 0 0)
(0.0006861600796997118 0 0)
(0.0006151339537397337 0 0)
(0.0005445478310659331 0 0)
(0.0004757407828153754 0 0)
(0.0004084318838513885 0 0)
(0.0003433109867712835 0 0)
(0.0002812855891339996 0 0)
(0.0002235339943873143 0 0)
(0.0001705572236936099 0 0)
(0.0001244829720029518 0 0)
(8.596236484308814e-05 0 0)
(5.649837544860104e-05 0 0)
(3.754183187162027e-05 0 0)
(3.050250228699977e-05 0 0)
(3.614017006832277e-05 0 0)
(5.577533450479234e-05 0 0)
(8.957018730934113e-05 0 0)
(0.0001373273797718896 0 0)
(0.0001969566489435872 0 0)
(0.0002643205409740737 0 0)
(0.0003348192663839101 0 0)
(0.0004063018688781112 0 0)
(0.0004772521031813931 0 0)
(0.000548021590925465 0 0)
(0.0006188193036350903 0 0)
(0.0006878031863366118 0 0)
(0.0007566532254286363 0 0)
(0.0008229877416349829 0 0)
(0.0008869074477739701 0 0)
(0.0009475299276061695 0 0)
(0.001004201628926999 0 0)
(0.001055428638237594 0 0)
(0.001100924039495071 0 0)
(0.001138623543065669 0 0)
(0.001167661750561356 0 0)
(0.00118671175364885 0 0)
(0.001194794197475887 0 0)
(0.001190957689548849 0 0)
(0.001174126174211446 0 0)
(0.001143924109563415 0 0)
(0.001100393468490347 0 0)
(0.001044578553895463 0 0)
(0.0009796944591938808 0 0)
(0.0009095842300317162 0 0)
(0.000838279514177961 0 0)
(0.0007667161018790907 0 0)
(0.0006946723391739996 0 0)
(0.0006241913717388974 0 0)
(0.000553361949876292 0 0)
(0.0004849343566154252 0 0)
(0.0004172253836318641 0 0)
(0.0003519312049114599 0 0)
(0.000289222021177771 0 0)
(0.0002303229604029638 0 0)
(0.0001762634530716962 0 0)
(0.0001276818065981864 0 0)
(8.681668619567281e-05 0 0)
(5.450009008523907e-05 0 0)
(3.159266481317458e-05 0 0)
(2.043210505702662e-05 0 0)
(2.167108028949221e-05 0 0)
(3.596259782281732e-05 0 0)
(6.442617415607512e-05 0 0)
(0.0001069258558376595 0 0)
(0.0001620618937635942 0 0)
(0.0002266760246619368 0 0)
(0.0002955925630378932 0 0)
(0.0003665097260311976 0 0)
(0.0004370870213719599 0 0)
(0.0005070208432565786 0 0)
(0.0005772570757747425 0 0)
(0.0006465435602789034 0 0)
(0.0007142458783047658 0 0)
(0.0007809677435773797 0 0)
(0.0008449006516693428 0 0)
(0.0009058021062667796 0 0)
(0.0009629881016944063 0 0)
(0.001015605438516533 0 0)
(0.001062018386243454 0 0)
(0.001102192754709128 0 0)
(0.001133709903590936 0 0)
(0.001155818554270971 0 0)
(0.001167488272918971 0 0)
(0.001167664162070962 0 0)
(0.001155107600960733 0 0)
(0.001129593011260281 0 0)
(0.001090826476288985 0 0)
(0.001039376579579971 0 0)
(0.000977407917277677 0 0)
(0.0009093061226868577 0 0)
(0.0008381455708461206 0 0)
(0.00076704763456217 0 0)
(0.0006958040479721176 0 0)
(0.0006240983644159435 0 0)
(0.0005545835398083082 0 0)
(0.0004842407189108416 0 0)
(0.0004178173223793548 0 0)
(0.0003518154846410864 0 0)
(0.0002886278476922748 0 0)
(0.0002288244692530337 0 0)
(0.000173436638655888 0 0)
(0.0001233341337837098 0 0)
(8.003054197667061e-05 0 0)
(4.463675430806076e-05 0 0)
(1.877883832280532e-05 0 0)
(2.925172050059978e-06 0 0)
(-1.433232099507675e-07 0 0)
(9.562839909308574e-06 0 0)
(3.26330632309271e-05 0 0)
(6.986339580230451e-05 0 0)
(0.0001202472344490459 0 0)
(0.0001811821996597859 0 0)
(0.0002485625896004626 0 0)
(0.0003177531038686278 0 0)
(0.0003881788499626306 0 0)
(0.0004581791447130115 0 0)
(0.0005266688667836468 0 0)
(0.0005964849538146372 0 0)
(0.0006633630288108767 0 0)
(0.0007308623689978785 0 0)
(0.0007941534538664506 0 0)
(0.0008554203512094618 0 0)
(0.000912913837066575 0 0)
(0.0009661415118457703 0 0)
(0.001014355364193975 0 0)
(0.001055606865149168 0 0)
(0.001089884864566377 0 0)
(0.001114970769345637 0 0)
(0.001129725029546056 0 0)
(0.001133713213260367 0 0)
(0.001125672223892451 0 0)
(0.001104401803731531 0 0)
(0.001070160847568452 0 0)
(0.001023216939659471 0 0)
(0.0009648578899385171 0 0)
(0.0008986388320940838 0 0)
(0.0008288882533711956 0 0)
(0.0007576136207504445 0 0)
(0.0006868725256768077 0 0)
(0.0006162111814477335 0 0)
(0.0005444893003667305 0 0)
(0.0004763713521955673 0 0)
(0.0004063911272516853 0 0)
(0.0003427488893494766 0 0)
(0.0002780634920476566 0 0)
(0.0002176742572322392 0 0)
(0.0001610308618411768 0 0)
(0.0001098556465086135 0 0)
(6.41328386553226e-05 0 0)
(2.62286979751581e-05 0 0)
(-3.254056950787197e-06 0 0)
(-2.239740399206841e-05 0 0)
(-3.059236570694867e-05 0 0)
(-2.525216693302434e-05 0 0)
(-7.415366133125321e-06 0 0)
(2.455832077806825e-05 0 0)
(7.015445462270707e-05 0 0)
(0.0001270897320210873 0 0)
(0.000191818276605515 0 0)
(0.000260169236923542 0 0)
(0.0003289767991652613 0 0)
(0.0003984310652212672 0 0)
(0.0004678104845554569 0 0)
(0.0005349221440088118 0 0)
(0.0006037900289533047 0 0)
(0.0006684998222882191 0 0)
(0.0007358067693037744 0 0)
(0.0007946054486855929 0 0)
(0.0008528543776600923 0 0)
(0.0009063056501344809 0 0)
(0.00095593430195237 0 0)
(0.0009982720285007976 0 0)
(0.001034837391744526 0 0)
(0.001062664145569921 0 0)
(0.001081313299235402 0 0)
(0.001088023929402679 0 0)
(0.001084651795488791 0 0)
(0.001066582578871635 0 0)
(0.001039328108977483 0 0)
)
;

boundaryField
{
    inlet
    {
        type            calculated;
        value           uniform (-3.15179423122962e-05 0 0);
    }
    outlet
    {
        type            calculated;
        value           uniform (0.001018172841726875 0 0);
    }
    frontAndBack
    {
        type            empty;
    }
}


// ************************************************************************* //
