/*--------------------------------*- C++ -*----------------------------------*\
| =========                 |                                                 |
| \\      /  F ield         | OpenFOAM: The Open Source CFD Toolbox           |
|  \\    /   O peration     | Version:  v2012                                 |
|   \\  /    A nd           | Website:  www.openfoam.com                      |
|    \\/     M anipulation  |                                                 |
\*---------------------------------------------------------------------------*/
FoamFile
{
    version     2.0;
    format      ascii;
    class       volScalarField;
    location    "0.0095";
    object      p;
}
// * * * * * * * * * * * * * * * * * * * * * * * * * * * * * * * * * * * * * //

dimensions      [1 -1 -2 0 0 0 0];


internalField   nonuniform List<scalar> 
1000
(
101339.0575435291
101336.4515019794
101343.144523835
101348.3925594759
101354.2140879086
101359.486852688
101364.0649599441
101367.973158739
101371.2497072429
101373.4253220824
101374.059968087
101374.038415768
101373.6761106236
101372.6630467337
101370.7007310675
101367.7132147042
101363.8056928112
101359.1564197993
101353.9157617508
101348.1840623302
101342.0408126363
101335.575130704
101328.8963068849
101322.1302958588
101315.4126599099
101308.8801258887
101302.6545957293
101296.8147569824
101291.3708282031
101286.3029487594
101281.7603174681
101278.3965392475
101276.9744338523
101276.8200843907
101276.8826724101
101277.1597812062
101277.9149940154
101279.3935863975
101281.797911963
101285.2162651052
101289.6007178401
101294.7932967688
101300.5896475405
101306.8007458578
101313.2808022513
101319.919462456
101326.6193962294
101333.2803981673
101339.7998743252
101346.091848703
101352.1152549877
101357.8746524191
101363.3235620776
101368.1047024771
101371.3388991132
101372.4841198327
101372.5720983161
101372.5317604507
101372.2853091232
101371.6638783655
101370.4445553536
101368.4317636348
101365.4834796069
101361.5493260745
101356.6844620358
101351.0368486247
101344.8098339561
101338.2149201063
101331.435596897
101324.6150067347
101317.8609815847
101311.2498128273
101304.8205264614
101298.5759576636
101292.5242927123
101286.8069722585
101281.9480839458
101278.9116369683
101277.9722465864
101277.9120358349
101277.9738967067
101278.193655127
101278.7629854925
101279.8582347103
101281.6625412176
101284.3219511331
101287.9191384136
101292.4513889445
101297.8267001628
101303.8800409546
101310.4042391837
101317.1865892195
101324.0426135918
101330.8388016988
101337.4992189527
101343.9984631155
101350.3444176131
101356.5325114333
101362.4136296084
101367.434670365
101370.5941322466
101371.5904870092
101371.6562035526
101371.6255809487
101371.4339059447
101370.9558955102
101370.015587034
101368.4454678206
101366.0948280522
101362.8561845475
101358.6860745086
101353.6199903186
101347.7738077985
101341.3271581939
101334.4922269413
101327.477961686
101320.4579547152
101313.5461488762
101306.7876031071
101300.1796023741
101293.7447682926
101287.6897065743
101282.6551644857
101279.6503021246
101278.7782641257
101278.7254760328
101278.7739987115
101278.94910548
101279.404666753
101280.2855349446
101281.7494780156
101283.9380786161
101286.9595386997
101290.8690514392
101295.6553027285
101301.2360099208
101307.4644733843
101314.149319753
101321.0868323146
101328.0974153708
101335.0529210217
101341.8859902615
101348.5764355404
101355.0961352078
101361.2645370245
101366.4927776735
101369.7734046457
101370.832835461
101370.9163052523
101370.8951561906
101370.7479353012
101370.372216639
101369.6189606674
101368.3418288505
101366.3988108434
101363.6712390993
101360.0800433832
101355.6019004689
101350.2798945657
101344.2232877436
101337.5946565091
101330.5866270202
101323.3910214058
101316.165304789
101309.0096337244
101301.9766102724
101295.1395541514
101288.7525898254
101283.4960899287
101280.3798118424
101279.464552429
101279.4034339425
101279.4401259723
101279.5788378927
101279.9489796694
101280.6745338583
101281.8944200216
101283.740601607
101286.3258537583
101289.7282567354
101293.9781926123
101299.0492651752
101304.8552906085
101311.2573266872
101318.0833261726
101325.1564515285
101332.3228988971
101339.4705691404
101346.5282804446
101353.4206592399
101359.9307721573
101365.4524755823
101368.9709173658
101370.1685259645
101370.2821961087
101370.2692035553
101370.1574651258
101369.859814156
101369.2464776584
101368.1881742839
101366.5538677309
101364.2250567495
101361.1080982251
101357.1483041745
101352.3418951351
101346.7415740708
101340.4537358537
101333.6272002278
101326.4326175825
101319.0340454028
101311.564101205
101304.1253887942
101296.8480600615
101290.0426973891
101284.4415491639
101281.0928972179
101280.0731857049
101279.9937585458
101280.0214990216
101280.1306561875
101280.4330614119
101281.0372262139
101282.0675540336
101283.6461305887
101285.8837453453
101288.8677973102
101292.6514865192
101297.2443662606
101302.6058263604
101308.6454853728
101315.2336669495
101322.2200053486
101329.4547565972
101336.8074847352
101344.172676121
101351.434163733
101358.3383765669
101364.2553082279
101368.1355080769
101369.556373332
101369.7219160943
101369.7156660871
101369.6306745224
101369.394777856
101368.8921995345
101368.0071998233
101366.6187176104
101364.6121665389
101361.8887737216
101358.3770555172
101354.0435588778
101348.9000346557
101343.0056183472
101336.4631912261
101329.407589774
101321.9852960951
101314.3343933599
101306.5845709041
101298.9063642503
101291.6526822236
101285.5966068255
101281.8583029418
101280.6352374276
101280.5197975407
101280.5398131873
101280.6239130151
101280.8711444351
101281.3776772933
101282.2556588451
101283.6174664871
101285.5694826036
101288.2025370412
101291.582885428
101295.7433010332
101300.6756891898
101306.3285742272
101312.6119547403
101319.4083968477
101326.5875638079
101334.0213581339
101341.5902903718
101349.1541156735
101356.4389297997
101362.8109862357
101367.1857105649
101368.9551648711
101369.2126200768
101369.2127038712
101369.1501503678
101368.9641964845
101368.551508758
101367.8076084729
101366.6207739882
101364.8816793898
101362.4905918776
101359.3668681296
101355.4581445689
101350.7473764406
101345.2571313949
101339.0503148969
101332.22445963
101324.8985024487
101317.199017345
101309.2618956919
101301.2748423003
101293.6046641294
101287.031968717
101282.7521554701
101281.1930945435
101281.0063547987
101281.0191560563
101281.0803337459
101281.2791015837
101281.7016446792
101282.4511499727
101283.6316266327
101285.3441785063
101287.6794474659
101290.7103878252
101294.4844621364
101299.0165274823
101304.2850972411
101310.2336829982
101316.7765251359
101323.8076725809
101331.2122033672
101338.871509735
101346.6388757493
101354.2423367922
101361.0756208708
101366.0468194995
101368.3129006807
101368.733019951
101368.7421256904
101368.699539962
101368.5567449822
101368.2209050212
101367.5965985963
101366.5798749102
101365.0669674292
101362.9596810679
101360.1730619243
101356.6429137151
101352.3321582641
101347.2360134209
101341.3850796773
101334.843426258
101327.7007637781
101320.064395455
101312.0629107696
101303.881925693
101295.8740916695
101288.7846985135
101283.8468654227
101281.7909541918
101281.4685531613
101281.4732168132
101281.5140293079
101281.6705314299
101282.0192741332
101282.6567554169
101283.6802721209
101285.1861782777
101287.2636815347
101289.9889178382
101293.4183668223
101297.582704112
101302.482787552
101308.0887349635
101314.3420928897
101321.1612816406
101328.4494284778
101336.0975824901
101343.9645787208
101351.7976771455
101359.0470345412
101364.661366341
101367.5721140293
101368.260091479
101368.2914394577
101368.2660234523
101368.160928361
101367.8927783232
101367.3729716354
101366.5039490303
101365.1868673774
101363.326052516
101360.8350413218
101357.6425402287
101353.6979386933
101348.9766437243
101343.4842078668
101337.25666894
101330.3567187219
101322.8701970862
101314.9110436263
101306.6501073743
101298.4063298629
101290.8540290072
101285.20159952
101282.4826607595
101281.922706617
101281.9078557379
101281.9329835116
101282.0524410814
101282.3359249865
101282.8740499427
101283.7588021072
101285.0824993084
101286.9325156812
101289.3865725369
101292.5069690267
101296.3350926088
101300.8878136102
101306.1558480176
101312.1034486247
101318.6705565132
101325.7782462208
101333.3314828641
101341.2027663102
101349.1679181611
101356.7492031907
101362.9872836321
101366.6637283765
101367.7713488387
101367.8639662461
101367.8464675946
101367.7738926452
101367.5632004337
101367.1344411192
101366.3947866252
101365.2499386605
101363.6068351471
101361.3787247764
101358.4899196328
101354.8807088646
101350.5124046849
101345.3715025822
101339.4713545386
101332.8514560588
101325.577040334
101317.7439609544
101309.5012254721
101301.1249164136
101293.1997684447
101286.8491347959
101283.3355689339
101282.3953777004
101282.3343390515
101282.3490455529
101282.4351213905
101282.6594834481
101283.1073085452
101283.8662833909
101285.0256658646
101286.6713117167
101288.8815283629
101291.7221721504
101295.2421026024
101299.4698775785
101304.4114233832
101310.0485564497
101316.3397588829
101323.2235831114
101330.6197165923
101338.4160657191
101346.4203843815
101354.2339808253
101361.0237943238
101365.5247049489
101367.2230170214
101367.4461467517
101367.4383132276
101367.3902867625
101367.2289141394
101366.8799348002
101366.2549194888
101365.2635875971
101363.8153773558
101361.8237800704
101359.2104396306
101355.9095695095
101351.8723591489
101347.070838218
101341.5006210923
101335.182373404
101328.1628920158
101320.5193097259
101312.3769618451
101303.9678784333
101295.7808717328
101288.8055423945
101284.4125482655
101282.9122864933
101282.7481910394
101282.7558204391
101282.8138934803
101282.9872919505
101283.3550191966
101284.0015941431
101285.0133977951
101286.4746815004
101288.4636475908
101291.0484965459
101294.283626613
101298.20626232
101302.8337543534
101308.1619863117
101314.1653948085
101320.7981681006
101327.9938863617
101335.6565336476
101343.6255270212
101351.5757793452
101358.8085665603
101364.1102515741
101366.5503815955
101367.0154604551
101367.0252903225
101366.9963613777
101366.879094973
101366.6021374268
101366.0821546496
101365.2314201015
101363.9613607514
101362.1860746529
101359.8255865027
101356.8096771808
101353.082309728
101348.6054083139
101343.3612269904
101337.3544874134
101330.6155560839
101323.2051824162
101315.2269710867
101306.8706641617
101298.5330082148
101291.049560273
101285.7736768289
101283.5313822629
101283.1591028332
101283.1527461154
101283.1920014538
101283.3208980348
101283.6184556485
101284.1640158267
101285.0418722511
101286.334804912
101288.121010197
101290.4702700576
101293.4407857059
101297.076386314
101301.4035879645
101306.4291962983
101312.1398964152
101318.5031941604
101325.4662705303
101332.9481261582
101340.8146732427
101348.8054527468
101356.3579075053
101362.3901214605
101365.7023790385
101366.5762956431
101366.6312156573
101366.617425071
101366.533408795
101366.3174407652
101365.8877910748
101365.1608148042
101364.0499593647
101362.4701381452
101360.3407056518
101357.5888638409
101354.1531999875
101349.9871710586
101345.0623131372
101339.37108613
101332.9296197253
101325.7818914956
101318.0107461295
101309.7711157339
101301.3815383122
101293.5242428206
101287.4406248775
101284.3221949016
101283.5952649226
101283.560817102
101283.5811145554
101283.6731739491
101283.9064789109
101284.3587734042
101285.1120635249
101286.2481606787
101287.8452084719
101289.9744876577
101292.6973439393
101296.062304922
101300.1025225759
101304.8338113608
101310.2535037018
101316.3399158445
101323.0513267782
101330.3211999409
101338.0402062821
101346.0005778649
101353.7555093356
101360.3878971785
101364.6040580163
101366.069817007
101366.2355821591
101366.2289024577
101366.17478865
101366.0118716259
101365.66447685
101365.050977205
101364.0868033985
101362.6876574748
101360.7725021601
101358.2666690156
101355.1050677394
101351.2352813716
101346.6205816552
101341.2430735227
101335.1069397593
101328.2423478841
101320.7139428625
101312.6456826191
101304.2898603508
101296.1901300732
101289.4189899711
101285.3466171153
101284.0726007814
101283.9546029907
101283.9654078282
101284.0264988456
101284.2050177585
101284.5749199156
101285.2163799498
101286.2100040334
101287.6336302481
101289.5592033917
101292.0502392424
101295.1591598064
101298.9245561478
101303.3692544654
101308.4994892059
101314.3040459279
101320.7523011269
101327.7901102417
101335.3278432657
101343.2004435182
101351.0571322048
101358.1504821351
101363.2265688621
101365.4559256822
101365.8382663929
101365.8353832413
101365.781029003
101365.6463235814
101365.3612898306
101364.8520325353
101364.0380491754
101362.8351259737
101361.1580479168
101358.9242283355
101356.0573760466
101352.4914960194
101348.1760449599
101343.0816843681
101337.2047955191
101330.5707496361
101323.2384206904
101315.3171469092
101307.0134680374
101298.749625333
101291.4668503821
101286.5169953466
101284.4996672121
101284.1762296637
101284.1903573994
101284.2442478623
101284.365213693
101284.620470801
101285.0901470671
101285.8660482762
101287.0434091435
101288.7125342227
101290.9531189475
101293.8306575105
101297.3930665165
101301.6682492545
101306.663293722
101312.3642350097
101318.7365169583
101325.7247631349
101333.2393450952
101341.1281102123
101349.1161215357
101356.5974891845
101362.3706464837
101365.4743213581
101366.4258057733
101366.5064877433
101366.4256571506
101366.27246379
101365.9987355146
101365.5553177773
101364.8716080248
101363.8468498586
101362.371149839
101360.3441718876
101357.6815110712
101354.3153281441
101350.1956416174
101345.292710902
101339.5993617757
101333.1320747111
101325.9359102978
101318.1095415102
101309.8440624132
101301.4822175953
101293.7344203273
101287.8968425035
101284.9086690837
101284.0094942823
101283.9418431349
101284.0215228697
101284.1793735664
101284.4851393164
101284.9695390277
101285.6975491999
101286.7622844602
101288.2621089278
101290.2863545768
101292.9105157464
101296.193041173
101300.1718799302
101304.8632601848
101310.2629756909
101316.3478960987
101323.0745745013
101330.3658427706
101338.0821448751
101345.987205872
101353.6314760916
101360.0901924662
101364.1577316985
101365.7956056629
101366.0521969669
101366.0052681352
101365.8686051907
101365.6113685031
101365.1942583414
101364.5637913075
101363.6408790181
101362.3271799377
101360.5229439759
101358.1345810377
101355.07844545
101351.2877216802
101346.7194269205
101341.3569908766
101335.2097657779
101328.3150874353
101320.7550312029
101312.69140799
101304.4050408249
101296.4276286781
101289.8151906275
101285.8282585248
101284.3346418899
101284.0945591018
101284.1487390031
101284.2934480811
101284.5820823974
101285.0418563747
101285.7231174618
101286.7021849962
101288.0673427894
101289.9049284448
101292.2952995375
101295.3086086389
101298.9974008524
101303.3911225264
101308.4953182687
101314.293097758
101320.7464057591
101327.7899214484
101335.305917945
101343.0929932489
101350.8099491406
101357.7637218101
101362.7585723011
101365.1421946278
101365.7561420191
101365.7699807828
101365.6449024707
101365.4136519004
101365.0225307507
101364.4360726662
101363.5904833114
101362.3997609572
101360.7711468394
101358.6113859802
101355.8306406168
101352.3506237931
101348.1138433264
101343.0891714505
101337.2743021008
101330.6973600172
101323.4241696447
101315.5863210019
101307.420266495
101299.3351326348
101292.1471963783
101287.16138023
101284.9417997354
101284.3852409604
101284.3743258277
101284.5018288656
101284.7577668751
101285.1903690935
101285.8280913794
101286.7330577264
101287.9835403658
101289.6603909629
101291.8436829162
101294.6091900051
101298.0200388666
101302.1184408723
101306.9218801613
101312.4228435587
101318.5900581965
101325.3672784921
101332.6571881446
101340.2936144573
101348.0047557932
101355.2645699282
101361.0518350295
101364.3176482234
101365.4488148753
101365.5857664952
101365.4969004613
101365.2937602069
101364.9285655302
101364.3768404661
101363.5909449912
101362.4986712881
101361.0151245482
101359.0517886689
101356.5184292792
101353.3284358329
101349.4098102014
101344.7163018538
101339.2335610012
101332.980002408
101326.0083574415
101318.4245997247
101310.4231237049
101302.3289960048
101294.7703183641
101288.9150083343
101285.8010750006
101284.8082407943
101284.6670012365
101284.7549192508
101284.970612684
101285.3698449425
101285.9686361133
101286.8141278449
101287.9707643701
101289.5093564548
101291.5049862541
101294.0365587161
101297.1784499342
101300.9878015634
101305.4955389145
101310.7037788847
101316.5870597269
101323.0948342683
101330.1452199324
101337.6001436439
101345.2350668371
101352.6505669649
101359.0406145025
101363.2501506989
101364.9931642319
101365.3869257043
101365.3820119996
101365.2177701091
101364.893188916
101364.3713087175
101363.6250728733
101362.6013454578
101361.2321603246
101359.4390768016
101357.1327923681
101354.2191474371
101350.6124008137
101346.2491419741
101341.0979602531
101335.1651579326
101328.4958333907
101321.1789130633
101313.3757036644
101305.357846702
101297.6084436668
101291.0718940021
101286.9667025945
101285.3868050392
101285.0464201446
101285.023114503
101285.1874140633
101285.5333118384
101286.0953424092
101286.9003214891
101287.9951453254
101289.4340725904
101291.2782608971
101293.6005248801
101296.4815988996
101299.9965708244
101304.1991374256
101309.1106031893
101314.7155293333
101320.9647671956
101327.780449148
101335.0409941847
101342.5539123109
101350.0117490467
101356.7972279046
101361.8289854467
101364.3644999365
101365.1109380581
101365.2239834436
101365.1543692554
101364.9066085343
101364.4413287824
101363.7322119211
101362.7443386031
101361.4358579038
101359.7557060188
101357.6351531265
101354.9831221391
101351.696450112
101347.6821131386
101342.8797554017
101337.2748755079
101330.9027856355
101323.8461183553
101316.2477367182
101308.3433011308
101300.5157262233
101293.5096647753
101288.5275518322
101286.169398001
101285.5214023461
101285.4094837046
101285.4647226843
101285.7054569369
101286.1796088266
101286.926281298
101287.9826838864
101289.3798465784
101291.1455879037
101293.3193400727
101295.9660091699
101299.1735433982
101303.0326308029
101307.6083158666
101312.917088905
101318.9172122265
101325.5193324405
101332.5976215951
101339.9752467525
101347.4044150837
101354.4269228802
101360.1148485097
101363.514001988
101364.7530240524
101364.971611169
101364.9934583056
101364.8598653807
101364.5293713253
101363.9415990076
101363.0383289581
101361.7691512864
101360.104186116
101358.0269220278
101355.5116826636
101352.5040581583
101348.9113701332
101344.6020924439
101339.4337668216
101333.3324387507
101326.4166136048
101318.9096178393
101311.3681396937
101302.7047308157
)
;

boundaryField
{
    inlet
    {
        type            uniformFixedValue;
        uniformValue    sine;
        uniformValueCoeffs
        {
            frequency       constant 3000;
            scale           constant 50;
            level           constant 101325;
        }
        value           uniform 101326.3578702043;
    }
    outlet
    {
        type            pressureOutletNSCBC;
        pInf            101325;
        gamma           1.4;
        etaAc           1;
        fieldInf        1;
        lInf            2.25;
        value           uniform 101298.9557700661;
    }
    frontAndBack
    {
        type            empty;
    }
}


// ************************************************************************* //
