/*--------------------------------*- C++ -*----------------------------------*\
| =========                 |                                                 |
| \\      /  F ield         | OpenFOAM: The Open Source CFD Toolbox           |
|  \\    /   O peration     | Version:  v2012                                 |
|   \\  /    A nd           | Website:  www.openfoam.com                      |
|    \\/     M anipulation  |                                                 |
\*---------------------------------------------------------------------------*/
FoamFile
{
    version     2.0;
    format      ascii;
    class       volScalarField;
    location    "0.0095";
    object      pMean;
}
// * * * * * * * * * * * * * * * * * * * * * * * * * * * * * * * * * * * * * //

dimensions      [1 -1 -2 0 0 0 0];


internalField   nonuniform List<scalar> 
1000
(
101325.5511124599
101325.5507998343
101325.538149056
101325.527737187
101325.5072596908
101325.4840190922
101325.4548440919
101325.4246929223
101325.390823095
101325.3554759171
101325.3186342737
101325.2814810355
101325.2444605464
101325.2079038506
101325.1724458016
101325.1387752454
101325.1076495336
101325.0796985831
101325.0554117022
101325.0352760036
101325.0195661376
101325.008643462
101325.0026523363
101325.0017782681
101325.0059896554
101325.0152561848
101325.0293604889
101325.0480821123
101325.0710826514
101325.098114649
101325.1288566128
101325.1627833908
101325.1986831471
101325.2351778979
101325.2716676985
101325.3080572576
101325.3440536174
101325.3792885032
101325.413080442
101325.4447691307
101325.4735396288
101325.4987776595
101325.5198704792
101325.5364863831
101325.5482854331
101325.5551594115
101325.5569532673
101325.5537113381
101325.5454349742
101325.5323267006
101325.5145065378
101325.4922327335
101325.4656358861
101325.4350950256
101325.4012956515
101325.3657244052
101325.3296694238
101325.293651984
101325.2577188272
101325.222098323
101325.1871293026
101325.1533311167
101325.1213390419
101325.0918906796
101325.0656996081
101325.0434363676
101325.0256168803
101325.012627937
101325.0046830719
101325.0018872406
101325.0042283935
101325.0116461233
101325.0240136249
101325.0412038782
101325.063064671
101325.089439476
101325.1199466004
101325.1536658175
101325.1890007937
101325.2246843968
101325.2603407706
101325.2959269604
101325.3311971297
101325.3659146739
101325.3995407742
101325.4315789738
101325.4612716339
101325.4879952629
101325.5109838323
101325.5297362571
101325.5437176166
101325.5527245789
101325.5565319214
101325.5552088786
101325.5487392048
101325.5373204726
101325.5209845048
101325.4999211343
101325.4741902526
101325.4442488941
101325.4109614877
101325.3760163128
101325.3406477828
101325.3053256471
101325.2700551051
101325.2350390572
101325.2005129849
101325.1669054556
101325.1347140617
101325.1045879255
101325.0771859509
101325.0532309729
101325.0333344392
101325.0180650678
101325.0077781512
101325.0027392383
101325.0029898654
101325.0085422567
101325.0192623459
101325.0350788211
101325.0558397988
101325.0814085068
101325.1113113989
101325.1444943158
101325.1792365864
101325.2143083712
101325.2493501573
101325.2843471459
101325.319078273
101325.3533798834
101325.3867852388
101325.4189082927
101325.4490680292
101325.4767171336
101325.5010856174
101325.5216322471
101325.5377058465
101325.5489688417
101325.5550471518
101325.5558949603
101325.5514078511
101325.5417389769
101325.5268934685
101325.507067607
101325.4823312061
101325.4531969328
101325.4205789042
101325.3862389366
101325.351434382
101325.316674585
101325.2819367295
101325.2474111059
101325.2132616077
101325.1798687385
101325.1476222962
101325.1171123505
101325.0889079021
101325.0637191365
101325.0421551527
101325.0248707576
101325.0123228439
101325.0049362978
101325.0028842683
101325.0063179064
101325.0151733698
101325.0294431586
101325.0489613449
101325.0735844096
101325.1027463201
101325.1353345496
101325.1695300295
101325.2040922809
101325.2386203562
101325.2731268638
101325.307407203
101325.3413460329
101325.3745333897
101325.4066532103
101325.4370986967
101325.4653838556
101325.4907822036
101325.5127580411
101325.5306172029
101325.5439458868
101325.5522454895
101325.5553501951
101325.553020458
101325.5453236187
101325.532188866
101325.5138006469
101325.4902265386
101325.4620147456
101325.4301097796
101325.3963283078
101325.3620122188
101325.3277312368
101325.2934519983
101325.259352002
101325.2255434041
101325.1923676882
101325.1601386199
101325.1293898304
101325.1006156279
101325.0744903644
101325.0515914298
101325.0326077259
101325.0180433126
101325.0084390199
101325.0040816572
101325.005268488
101325.0120464891
101325.0245099597
101325.0425349998
101325.0659981522
101325.0942900425
101325.1262398192
101325.1599301863
101325.1940416511
101325.2281254774
101325.2622009103
101325.2960860565
101325.3296954929
101325.3626688597
101325.3947398916
101325.4253650112
101325.4541146276
101325.4803090541
101325.5034384263
101325.5228024101
101325.5379485298
101325.5482996819
101325.5535903847
101325.553463056
101325.5478745865
101325.5366605722
101325.519941371
101325.4977516868
101325.4706263871
101325.4395159403
101325.4062882254
101325.3724142553
101325.3385560312
101325.3046866882
101325.2709669622
101325.237474383
101325.2045148108
101325.1723447064
101325.1414506665
101325.1122599127
101325.0854079967
101325.0614304417
101325.0410189891
101325.024696353
101325.0130728852
101325.0065233414
101325.0054664962
101325.0100645223
101325.0205284465
101325.0368137146
101325.0588587141
101325.0860694134
101325.1172716453
101325.1504537828
101325.1841594541
101325.2178453015
101325.2515387171
101325.2850652545
101325.3183764085
101325.3511362907
101325.3831354877
101325.4138689454
101325.4429681197
101325.4697901861
101325.493865049
101325.5144988982
101325.5312281263
101325.5434294941
101325.550765774
101325.5527866026
101325.5493442337
101325.5401779814
101325.5253212273
101325.5047456754
101325.4789227745
101325.4487563726
101325.4161248589
101325.3826686118
101325.3491925882
101325.3156967509
101325.2823256538
101325.2491313728
101325.2163862478
101325.1843056556
101325.1533274628
101325.1238311942
101325.0964038578
101325.071547525
101325.0499310359
101325.0320866266
101325.0186532858
101325.0100752713
101325.0068541214
101325.0092632442
101325.0176135252
101325.0319679801
101325.0523424692
101325.0782315176
101325.1085123477
101325.141141107
101325.1744540217
101325.2077789407
101325.2411130564
101325.274313897
101325.3073384445
101325.3398975676
101325.3718008075
101325.402602421
101325.4319602719
101325.4592912112
101325.4841428352
101325.5058583002
101325.5239601746
101325.5378166434
101325.5470308634
101325.551094013
101325.5497645204
101325.5426996962
101325.5298398885
101325.5110772276
101325.4867857471
101325.4577566607
101325.4258200001
101325.3927833082
101325.3596667023
101325.3265191532
101325.2934780794
101325.2605670853
101325.228037664
101325.1960630403
101325.1650487808
101325.1353232979
101325.1074398785
101325.0818548076
101325.0592210153
101325.040052989
101325.0250140618
101325.014578055
101325.0093199034
101325.0095849725
101325.0157870599
101325.028075618
101325.0465767555
101325.0708925566
101325.1000456202
101325.1320153791
101325.1649370824
101325.1979152137
101325.2309139046
101325.2637983737
101325.2965511013
101325.3289033897
101325.3607006133
101325.391528694
101325.4210862918
101325.4488266848
101325.4743312584
101325.4969689324
101325.5162699076
101325.5315995113
101325.5425267413
101325.5485022578
101325.5492105399
101325.5442453701
101325.5334547818
101325.5166570852
101325.4940973046
101325.4664241611
101325.4353225327
101325.4027465005
101325.3699704732
101325.3371621407
101325.304434917
101325.27180605
101325.2394903803
101325.2076433292
101325.1766237935
101325.1467356107
101325.1184811156
101325.0922949439
101325.0687886999
101325.0484747864
101325.0320042214
101325.0198854263
101325.0127220425
101325.0109325241
101325.0149928702
101325.0251495299
101325.0416171786
101325.0641444862
101325.091933888
101325.1231001728
101325.155594695
101325.1882420982
101325.2209147096
101325.2534954068
101325.2859780771
101325.3181222228
101325.349797162
101325.3806222949
101325.4103285178
101325.4384030326
101325.4644596958
101325.4878908106
101325.5082451092
101325.5248859108
101325.5373732397
101325.5451209769
101325.5477737148
101325.5448591054
101325.5361661685
101325.5214235528
101325.500770719
101325.4746625206
101325.4445925476
101325.4125433585
101325.3801114573
101325.3476215821
101325.3152025117
101325.2828489839
101325.2507549393
101325.2190492797
101325.1880596071
101325.1580574845
101325.1295096938
101325.1028195147
101325.0785683379
101325.057251123
101325.0395089604
101325.0258614535
101325.0169338449
101325.013190385
101325.015159988
101325.0231646206
101325.0375049978
101325.0580717684
101325.0842767157
101325.1144503031
101325.1464461567
101325.1787608604
101325.211110559
101325.2433910633
101325.2755981091
101325.3075293119
101325.3390620379
101325.3698604871
101325.3996682123
101325.4280198027
101325.4545407925
101325.4786654283
101325.4999433326
101325.5177631141
101325.53166342
101325.541056916
101325.5455397157
101325.5446130681
101325.5379949724
101325.5253603915
101325.5067260279
101325.4823800622
101325.4535486513
101325.4221554488
101325.3900753305
101325.3579000671
101325.3257799632
101325.2937036203
101325.2618360963
101325.2302901029
101325.1993574466
101325.1692872839
101325.1405075518
101325.1133978827
101325.0885050242
101325.066308752
101325.0474313471
101325.0323972062
101325.0218386895
101325.0162524215
101325.016203773
101325.0220746452
101325.034238818
101325.0527162421
101325.0771322033
101325.106092467
101325.1374779222
101325.1694492791
101325.2014870881
101325.2334715436
101325.2654042685
101325.2971152674
101325.3284914614
101325.3592358916
101325.3891060881
101325.4176777569
101325.4445904919
101325.4693159102
101325.4914103945
101325.5102871736
101325.5254744867
101325.5363882629
101325.5425921983
101325.5435678938
101325.5389784425
101325.5284513107
101325.5119001748
101325.4894576232
101325.4620741819
101325.4315037916
101325.3998274645
101325.3679703763
101325.3361569517
101325.3043637251
101325.2727404404
101325.2413707885
101325.2105278961
101325.1804257148
101325.1514715084
101325.1240082083
101325.0985648324
101325.0755899873
101325.0556989957
101325.039400816
101325.0273401091
101325.0200206317
101325.0180436906
101325.0218262799
101325.0318121178
101325.0481212515
101325.0705822223
101325.0980961445
101325.1287088917
101325.1603021379
101325.1920360478
101325.2237237296
101325.2553877063
101325.2868638436
101325.318075046
101325.3487341448
101325.3786373152
101325.4073741026
101325.43462128
101325.4598633513
101325.4826865296
101325.5025091111
101325.5188748309
101325.5311893431
101325.5390118379
101325.5417956945
101325.5391790183
101325.5307372524
101325.5163133577
101325.4958906472
101325.4701660639
101325.4406210056
101325.4094275733
101325.3778774485
101325.3463571582
101325.3148422289
101325.2834592115
101325.2522801734
101325.2215437479
101325.1914491159
101325.1623653437
101325.1346189136
101325.1087019847
101325.0850502729
101325.064251052
101325.0468105718
101325.0333626445
101325.0244259926
101325.0206145245
101325.022381224
101325.0302167734
101325.0443325085
101325.0647271507
101325.0905895743
101325.1202257795
101325.151359684
101325.1827820593
101325.2141664084
101325.2455469248
101325.2767759217
101325.3077980109
101325.338346156
101325.3682458276
101325.3971034832
101325.4246295065
101325.4503192928
101325.4737922368
101325.4944666977
101325.5119123874
101325.5255194934
101325.5348610223
101325.5393557656
101325.5386391979
101325.5322285625
101325.5199290266
101325.5015816448
101325.4776777046
101325.449369112
101325.4187960784
101325.3875723281
101325.3563557748
101325.3251160464
101325.293997438
101325.2630149385
101325.2324218922
101325.2023566716
101325.1731982786
101325.1452135
101325.1189021903
101325.094645987
101325.0730422219
101325.0545551624
101325.0398369442
101325.0293833236
101325.0238402419
101325.0236636115
101325.0293992206
101325.0413144994
101325.0595608557
101325.0835836118
101325.1120163924
101325.1425802811
101325.1736811407
101325.2047716004
101325.2358700095
101325.2668493132
101325.2976684484
101325.3280891661
101325.357950334
101325.3868939568
101325.4146397927
101325.4407213375
101325.4647598782
101325.4862094821
101325.5046295931
101325.5194382536
101325.5301833205
101325.5362998515
101325.5373823942
101325.5329510979
101325.5227317441
101325.5065076176
101325.4845458672
101325.4577122497
101325.4279411002
101325.3971118438
101325.3661794221
101325.3352191805
101325.3043276891
101325.2735413029
101325.2430619595
101325.2130505153
101325.1838362954
101325.1556982984
101325.1290891781
101325.104391043
101325.082143856
101325.0628235792
101325.0470182451
101325.0351926781
101325.0280131938
101325.0259618806
101325.0295342717
101325.0391688041
101325.0550908126
101325.0770050279
101325.1037618411
101325.1333907025
101325.1640200426
101325.1947481915
101325.2255072214
101325.2561468315
101325.2866108523
101325.3166514565
101325.3462430865
101325.3749199866
101325.4024794878
101325.4284720976
101325.452646877
101325.4743739823
101325.4933818641
101325.5091449313
101325.5211180305
101325.5288198976
101325.5318839138
101325.5297144328
101325.5219859462
101325.5084491131
101325.4891918441
101325.4647578806
101325.43684531
101325.4073500735
101325.3773186199
101325.3472933881
101325.317316512
101325.2874564881
101325.2576982919
101325.228510833
101325.2000247942
101325.172473153
101325.1462440194
101325.1218250733
101325.099520219
101325.0799106278
101325.0635730874
101325.0508001122
101325.0423894242
101325.0387384138
101325.040537645
101325.0479989931
101325.061621226
101325.0812140571
101325.1060632024
101325.134185979
101325.1640375527
101325.1941519692
101325.2243356547
101325.2545031992
101325.2845110487
101325.3141572553
101325.3433685372
101325.3719020038
101325.3994073936
101325.4255319733
101325.4499513161
101325.4721722398
101325.4917932433
101325.508352225
101325.5213633951
101325.5302601861
101325.5346395292
101325.5341405505
101325.5281236932
101325.5164897738
101325.4991437182
101325.4764714896
101325.4496265165
101325.4206135856
101325.3908534687
101325.3608158333
101325.3309733178
101325.301147155
101325.2714555055
101325.242121271
101325.2135230147
101325.1857301436
101325.159155536
101325.1341706839
101325.1112541006
101325.0907594536
101325.0732981722
101325.0593871177
101325.0494498051
101325.0441637695
101325.044020518
101325.0494650948
101325.0608270747
101325.0781805426
101325.1010871154
101325.1280266091
101325.1570550343
101325.1868569477
101325.2166490835
101325.2465309025
101325.2762988855
101325.3057630683
101325.334853026
101325.3633243947
101325.3909033515
101325.4172349091
101325.4419852891
101325.464745366
101325.4850386157
101325.5024250587
101325.5165907035
101325.5267643153
101325.5326234166
101325.5337211657
101325.5296300105
101325.5199375083
101325.5046793577
101325.4839157897
101325.4586278245
101325.430331493
101325.4010028857
101325.3713568552
101325.341611948
101325.3120726749
101325.2825667045
101325.2533138362
101325.22465062
101325.1967892223
101325.1700047487
101325.1446536124
101325.1212516163
101325.100030546
101325.0817235198
101325.0667415696
101325.0555111734
101325.0486983573
101325.0468301051
101325.050349275
101325.0596151752
101325.0748313433
101325.0957443936
101325.1213453618
101325.149556161
101325.178941785
101325.2085922115
101325.2380342117
101325.2677499064
101325.2970621323
101325.3260021638
101325.3545090526
101325.3822287123
101325.4087804747
101325.4338820405
101325.457159247
101325.4780929501
101325.4964265368
101325.5114899244
101325.5229875958
101325.5303051046
101325.5330258994
101325.5307580338
101325.5230720928
101325.5098422681
101325.4911324377
101325.4675070134
101325.440353754
101325.4114611663
101325.3822115127
101325.3528139196
101325.3234228443
101325.2942878767
101325.2650518947
101325.2365127817
101325.2085831738
101325.1816508779
101325.1560140237
101325.1321748424
101325.1104163643
101325.0913517256
101325.0753046301
101325.0630706994
101325.0547831568
101325.0513302153
101325.0529931406
101325.0603233589
101325.0734178612
101325.0923641381
101325.1163460942
101325.143815434
101325.172576637
101325.2019545216
101325.2313696855
101325.2605663227
101325.2899989397
101325.3187218282
101325.3473353035
101325.3751178682
101325.4018971777
101325.4273465465
101325.4510916586
101325.4727221905
101325.4917214371
101325.5078336452
101325.5204861555
101325.5291734253
101325.5334973966
101325.533068684
101325.5273032839
101325.5161098712
101325.4994417274
101325.4776432758
101325.4518265866
101325.4236310925
101325.3947126713
101325.3657530016
101325.3365785923
101325.3077613507
101325.2789107506
101325.2502230894
101325.2223967774
101325.1953700351
101325.1695060842
101325.1452685447
101325.1230896085
101325.1032010652
101325.0864765056
101325.0730538963
101325.0636429455
101325.0586033532
101325.0586364178
101325.0639344884
101325.0750756654
101325.0919611741
101325.1142261095
101325.1405587143
101325.1689955627
101325.1979052975
101325.2271383192
101325.2563213596
101325.2852766744
101325.3143789939
101325.3424239023
101325.370559121
101325.3975949906
101325.4233623516
101325.4476024713
101325.4698771484
101325.4895822649
101325.5066963804
101325.5203109281
101325.5303928428
101325.5361284415
101325.5373774046
101325.5336851578
101325.5244666283
101325.5098579737
101325.4899996587
101325.4656439058
101325.4384740375
101325.4098743707
101325.3811776499
101325.3525866947
101325.3236835104
101325.2956331257
101325.2669156109
101325.2392692533
101325.2121809213
101325.1860470157
101325.1614766553
101325.1388177614
101325.1183954876
101325.1006883237
101325.0864730651
101325.0759190595
101325.069530179
101325.0678877359
101325.0715273349
101325.080530887
101325.0954395567
101325.115831395
101325.140808645
101325.1685912831
101325.1974278632
101325.2263137223
101325.2553595007
101325.2843417711
101325.3129136689
101325.3417522373
101325.3688260925
101325.3964171979
101325.4226551287
101325.4473367391
101325.470322475
101325.490794758
101325.5085890377
101325.5234673118
101325.5345978943
101325.5417851199
101325.5445958821
101325.5427187676
101325.5355860706
101325.5230717531
101325.5052132022
101325.4825984797
101325.4564803326
101325.4285861986
101325.4000925883
101325.371620523
101325.3433844476
101325.3148358639
101325.2876352158
101325.2592103741
101325.2326418107
101325.2065351353
101325.181343882
101325.1584968867
101325.1370496616
101325.1187422788
101325.1035484512
101325.0920316644
101325.0847176809
101325.0814627051
101325.0832510945
101325.0905068346
101325.1031516727
)
;

boundaryField
{
    inlet
    {
        type            calculated;
        value           uniform 101325.558404066;
    }
    outlet
    {
        type            calculated;
        value           uniform 101325.1137370395;
    }
    frontAndBack
    {
        type            empty;
    }
}


// ************************************************************************* //
