/*--------------------------------*- C++ -*----------------------------------*\
| =========                 |                                                 |
| \\      /  F ield         | OpenFOAM: The Open Source CFD Toolbox           |
|  \\    /   O peration     | Version:  v2012                                 |
|   \\  /    A nd           | Website:  www.openfoam.com                      |
|    \\/     M anipulation  |                                                 |
\*---------------------------------------------------------------------------*/
FoamFile
{
    version     2.0;
    format      ascii;
    class       volScalarField;
    location    "0.0095";
    object      rho;
}
// * * * * * * * * * * * * * * * * * * * * * * * * * * * * * * * * * * * * * //

dimensions      [1 -3 0 0 0 0 0];


internalField   nonuniform List<scalar> 
1000
(
1.176538310525992
1.176514890177449
1.176567460460314
1.176609065109973
1.176657792969443
1.176702194150128
1.176739678793387
1.176770815903766
1.176796666437856
1.176813701853955
1.176818378741334
1.17681777136183
1.176814398566162
1.176805869321671
1.176789574055293
1.176764824193192
1.176732541031257
1.176694187833301
1.176650964460249
1.176603667203193
1.176552933590141
1.176499489292454
1.176444232520265
1.176388204095659
1.176332529067312
1.176278346690892
1.176226677009176
1.176178184062836
1.176132964480575
1.176090863843001
1.176053128912273
1.176025187763373
1.176013366847516
1.176012074302244
1.176012596111806
1.176014914451859
1.176021206542784
1.176033495033733
1.176053456710058
1.176081822888161
1.176118194157766
1.176161259682686
1.176209325323645
1.17626082485404
1.176314550986991
1.176369590376108
1.17642513748065
1.176480362524336
1.176534415440279
1.176586583486928
1.176636525952063
1.176684280189074
1.176729460199363
1.17676910329988
1.176795920203926
1.176805416814676
1.176806147153414
1.176805813164076
1.176803769443083
1.176798616099899
1.176788505818595
1.176771817187301
1.176747372587801
1.176714754203574
1.176674419100217
1.176627593690073
1.176575963623032
1.176521282243785
1.176465070756103
1.176408515941453
1.176352511902389
1.176297691293929
1.176244377818432
1.176192595096973
1.176142411127075
1.176094998954802
1.176054704943739
1.176029523895433
1.176021733550062
1.176021234221788
1.17602174725054
1.176023569735099
1.176028291198007
1.176037374053007
1.176052337013295
1.176074391128215
1.176104221834431
1.176141806390845
1.176186381570089
1.176236578556272
1.176290679145016
1.176346919352316
1.176403769385495
1.176460122172487
1.176515348122577
1.176569236677566
1.176621853274854
1.176673160085843
1.176721920872041
1.176763550066674
1.176789744717963
1.17679800530416
1.176798550139848
1.176798296244499
1.176796707096539
1.176792744001005
1.176784948069933
1.17677193044805
1.17675244154406
1.17672559008707
1.176691015521182
1.176649011848477
1.17660053951689
1.176547087618348
1.176490415250204
1.176432254782881
1.176374045552836
1.176316732387983
1.176260688983365
1.1762058928984
1.176152531798071
1.176102319097289
1.176060568604996
1.176035649591477
1.176028417829095
1.176027980053446
1.17602838244221
1.176029834587497
1.17603361252919
1.176040917507478
1.176053057849385
1.176071207618226
1.176096263996895
1.176128684507947
1.176168375084447
1.176214653107938
1.17626630179103
1.176321733956814
1.17637926017785
1.176437391157985
1.176495064304282
1.176551721137647
1.176607194336169
1.176661250808021
1.176712393673379
1.176755740883356
1.176782940168023
1.176791723727497
1.176792415754234
1.176792240402387
1.176791019812039
1.176787904790545
1.176781659667349
1.176771071149452
1.176754961795567
1.17673234764563
1.176702572973624
1.176665444185229
1.176621318225218
1.176571100717112
1.176516139365525
1.176458031112009
1.176398366342992
1.176338450677853
1.176279114624871
1.176220794418572
1.176164098132165
1.176111133251999
1.176067542222904
1.176041699306265
1.176034109123243
1.17603360226306
1.176033906538163
1.176035056856487
1.176038126410338
1.176044143368688
1.176054259757851
1.176069569888917
1.176091008901154
1.176119224157111
1.176154467408103
1.176196519510812
1.176244665506213
1.176297752957642
1.17635435497422
1.176413005037693
1.176472427728471
1.176531693525049
1.176590212242433
1.176647358989448
1.176701335244547
1.176747115697786
1.176776286749858
1.176786215935855
1.176787158348167
1.176787050618061
1.176786124200498
1.176783656417252
1.176778571333511
1.176769797080262
1.176756247215532
1.176736939184407
1.176711096475239
1.176678265490663
1.176638414660001
1.176591980677431
1.176539845405865
1.176483242507236
1.176423586730117
1.176362238256288
1.176300296669964
1.176238612763192
1.176178265845057
1.176121831571765
1.176075382594926
1.176047612695197
1.176039156313632
1.176038497620143
1.176038727657998
1.176039632876685
1.176042140689809
1.176047150966941
1.176055695358481
1.176068786272795
1.176087342403831
1.17611208842411
1.176143465345892
1.176181552177704
1.176226011902614
1.176276094764536
1.176330725185422
1.176388656086964
1.176448645630317
1.176509612166064
1.176570680774842
1.176630888281673
1.17668813236372
1.176737189848041
1.176769360292744
1.176781140490631
1.176782512971838
1.17678246114157
1.17678175647523
1.176779800682762
1.176775633871552
1.176768296448022
1.176756784683061
1.176740148497943
1.176717568878112
1.17668845300871
1.176652523329557
1.176609877020777
1.176561004109423
1.176506757336356
1.176448254437909
1.176386709782116
1.176323268181441
1.176259004938264
1.176195334166113
1.176135182464919
1.176084961084034
1.176053959941844
1.176043817184627
1.176042859842906
1.176043025820586
1.176043723239764
1.176045773498186
1.176049974117895
1.176057255112562
1.176068548388878
1.176084736109206
1.176106571421254
1.176134603634777
1.176169104346916
1.176210006205153
1.17625688208948
1.176308985406898
1.176365342116158
1.176424871240608
1.176486510445465
1.176549268852627
1.17661198357855
1.176672383652961
1.176725214842553
1.176761485476528
1.176776155814869
1.176778290333407
1.176778291017787
1.176777772382436
1.176776230656749
1.17677280911263
1.176766641522081
1.176756801594938
1.176742382879449
1.17672255842347
1.176696659497851
1.176664251786921
1.17662519375259
1.176579672247209
1.176528208554227
1.176471611074158
1.176410865720657
1.176347021796018
1.176281205944145
1.176214974565493
1.176151369429153
1.176096864121612
1.17606137245001
1.176048443350098
1.176046894729959
1.176047000881648
1.176047508211131
1.176049156564908
1.176052660663759
1.176058876216393
1.1760686657385
1.176082867629664
1.176102233496816
1.176127368224958
1.176158665253816
1.176196247588646
1.17623993681328
1.17628926424051
1.176343518461292
1.176401820666072
1.176463217711454
1.176526725961105
1.176591128803566
1.176654171274027
1.176710826850466
1.17675204299248
1.176770830859531
1.176774314010391
1.176774389497392
1.176774036415817
1.176772852514399
1.176770068103554
1.176764892048755
1.176756462491414
1.176743919081646
1.176726447632314
1.176703343698035
1.176674074885745
1.176638333587237
1.176596079915833
1.176547567314454
1.176493326712609
1.176434101657018
1.17637078160418
1.176304432577567
1.176236593571649
1.176170188874752
1.176111399087573
1.176070450747936
1.17605340137721
1.176050727739269
1.176050766409119
1.176051104854639
1.176052402703728
1.176055294782975
1.176060581332074
1.17606906920634
1.176081557424347
1.176098785713205
1.176121385362213
1.176149824611635
1.176184357670214
1.176224991436632
1.176271477866446
1.176323331978185
1.176379877031293
1.17644030950567
1.176503725782259
1.17656895520924
1.176633902139324
1.176694007807702
1.176740556380246
1.176764689192628
1.176770393135237
1.176770653033145
1.176770442306631
1.176769570970855
1.176767347767998
1.176763038106822
1.176755833123207
1.176744913293841
1.176729485344655
1.176708832335439
1.176682363052923
1.176649657717476
1.176610512212607
1.17656497231959
1.17651333655204
1.176456124413405
1.176394047356261
1.176328049873173
1.176259548435066
1.176191187696717
1.176128559586513
1.176081685482365
1.176059137791152
1.176054494163665
1.176054371003962
1.176054579381004
1.176055570024544
1.176057920919619
1.17606238351775
1.176069720636499
1.176080697829332
1.176096039629355
1.176116390488924
1.176142266928545
1.176174012009899
1.176211765439021
1.176255449998256
1.176304769000672
1.176359224152247
1.176418160728392
1.176480790460434
1.176546055946045
1.176612098279918
1.176674956451922
1.176726676825202
1.176757158090769
1.176766341269518
1.176767109147985
1.176766964066019
1.176766362352226
1.176764615525092
1.176761060726355
1.176754928319902
1.176745436468583
1.176731813564531
1.176713340292844
1.176689389026381
1.176659464557846
1.176623245933456
1.176580620949173
1.176531700034735
1.176476810360415
1.176416492496717
1.176351540932515
1.176283190968876
1.176213731771224
1.176148012259717
1.176095348422606
1.176066211128455
1.176058414263503
1.176057908076677
1.176058030033656
1.176058743847602
1.176060604452081
1.176064318203945
1.176070612268377
1.176080226828236
1.176093873833737
1.176112202610743
1.176135759195989
1.176164948635152
1.176200007575798
1.176240984950879
1.17628772973043
1.176339897369333
1.176396978060311
1.176458305585866
1.176522950249474
1.176589317849844
1.176654102647192
1.176710397827176
1.176747714866327
1.176761795452017
1.176763645398462
1.17676358045051
1.176763182266888
1.176761844342918
1.176758950990316
1.176753769044989
1.17674554998409
1.176733542937238
1.176717030612966
1.17669536327872
1.176667995374194
1.176634522039613
1.176594711154226
1.176548526097114
1.17649613791977
1.176437934320991
1.176374554539495
1.176307037543863
1.176237307132346
1.176169416665157
1.176111572781231
1.176075142716185
1.17606270130148
1.176061340481739
1.176061403750812
1.176061885342176
1.176063323311902
1.176066372821868
1.176071734769045
1.176080125482762
1.176092243615299
1.176108737631926
1.176130173023467
1.176157000784719
1.176189529452691
1.17622790271687
1.17627208621393
1.176321867706726
1.176376867040761
1.176436533182621
1.176500069719925
1.176566144939319
1.176632063294603
1.176692031628716
1.176735988102409
1.176756219108553
1.176760075039957
1.176760156538531
1.176759916691563
1.176758944447589
1.176756648219247
1.176752337087347
1.176745283707774
1.176734753704717
1.176720034827048
1.176700463931512
1.176675458725041
1.176644554454103
1.176607435233481
1.176563953688068
1.176514148685525
1.176458271695783
1.176396826102062
1.176330670657057
1.176261378444355
1.176192239271108
1.176130182170765
1.176086430725116
1.176067835811709
1.176064748558928
1.176064695844064
1.176065021383549
1.176066090304979
1.176068557906828
1.176073082152104
1.176080362063399
1.176091084097052
1.1761058966781
1.17612537842478
1.176150011884777
1.176180160383466
1.176216043633939
1.176257717860614
1.176305072407515
1.176357837557449
1.176415575050794
1.176477612972922
1.176542839262627
1.176609094162279
1.176671713370991
1.176721726970727
1.176749188841929
1.176756434429072
1.176756889767211
1.17675677543161
1.176756078861366
1.176754288290377
1.17675072610057
1.176744698790592
1.176735488740759
1.176722390467895
1.176704735284067
1.176681919530137
1.176653433900967
1.176618892329736
1.176578058596948
1.176530869921345
1.176477459739286
1.176418192367633
1.176353754404295
1.176285430244675
1.176215861078722
1.176150704297437
1.176100254814481
1.176074394366704
1.176068366066327
1.176068080397128
1.176068248722005
1.176069012157862
1.17607094692076
1.176074697726382
1.176080944629223
1.176090366058042
1.176103610007818
1.176121267536891
1.176143847283389
1.176171751551861
1.176205255102131
1.17624448888175
1.176289430541053
1.176339900014663
1.176395551070305
1.176455831708979
1.176519835136808
1.17658583842915
1.176650136904906
1.17670512694276
1.176740083205024
1.176752235747926
1.176753610096621
1.176753554717006
1.176753106065536
1.176751755334923
1.176748875112148
1.176743788627178
1.176735794707521
1.176724194415349
1.176708315824562
1.176687539782321
1.176661326509741
1.176629241258454
1.176590979308486
1.176546392041696
1.176495513852404
1.176438594557129
1.176376169839964
1.176309267231387
1.176239978536995
1.176172811880762
1.176116661352202
1.176082890202934
1.176072325036357
1.176071346502602
1.176071436106755
1.176071942726589
1.176073423156322
1.17607649069381
1.176081810207471
1.176090050135052
1.176101855944223
1.176117824209453
1.176138481577189
1.176164262662217
1.176195487345748
1.176232344737917
1.176274886324464
1.176323018866915
1.176376488161121
1.176434844959286
1.176497345791318
1.176562621835205
1.176627764511027
1.17668657684715
1.176728662973037
1.176747146521755
1.176750316489086
1.17675029258662
1.176749841941666
1.176748725110306
1.176746361916113
1.176742139695052
1.176735390995466
1.176725417584008
1.176711512907349
1.176692992176583
1.17666922276267
1.176639657357985
1.176603876716207
1.17656163735152
1.17651290898065
1.176457901652903
1.176397103193992
1.176331419888998
1.176262564102667
1.176194037054892
1.176133644114172
1.17609259640328
1.176075867132417
1.17607318492518
1.176073302085736
1.176073748992459
1.17607475214355
1.176076868948557
1.176080763891119
1.17608719829102
1.176096961891177
1.176110803529747
1.1761293840376
1.176153246442547
1.176182787965605
1.176218239821647
1.176259660573051
1.176306934168313
1.176359773784131
1.176417719945571
1.176480029179413
1.176545439636187
1.176611671525973
1.176673701291232
1.176721567025011
1.176747299546017
1.176755188242757
1.176755857171708
1.176755187013891
1.176753916902305
1.176751647444427
1.176747971101701
1.176742302507291
1.176733806281601
1.176721571273227
1.176704765543613
1.176682689202818
1.176654779663262
1.176620622347726
1.176579970447525
1.176532764208174
1.176479139964569
1.176419471000853
1.176354575149776
1.176286036664484
1.176216697482867
1.176152448749561
1.176104039650341
1.176079259423819
1.176071802734074
1.176071241716785
1.176071902490295
1.176073211521987
1.176075747185863
1.17607976422652
1.176085801476222
1.176094631101888
1.176107068786867
1.176123855287953
1.176145616576797
1.176172837231374
1.176205831790483
1.176244734629038
1.176289510633422
1.176339967736522
1.176395745386945
1.1764562034228
1.176520184418075
1.176585729099379
1.176649110062196
1.176702660202498
1.176736384277372
1.176749963826419
1.176752091211149
1.176751702130439
1.176750569070723
1.176748436339446
1.176744978104221
1.176739750934196
1.176732099101235
1.176721207236616
1.176706248271415
1.176686446177562
1.176661107335111
1.176629677614728
1.176591800434252
1.176547338151982
1.1764963680144
1.176439199263612
1.176376512105181
1.176309647951579
1.17624093520906
1.176174782901606
1.176119948481353
1.176086885911612
1.176074499651599
1.176072508690546
1.176072957998745
1.176074158050399
1.176076551645457
1.176080364466406
1.176086014031589
1.176094133231216
1.176105454160842
1.176120692755757
1.176140515331419
1.176165503539428
1.176196092976494
1.176232527647364
1.176274853311635
1.176322929657794
1.176376440850033
1.176434844963547
1.176497165559827
1.176561732477304
1.176625716606532
1.176683371732575
1.176724784376224
1.176744546955478
1.176749637163123
1.176749751903507
1.176748714893069
1.176746797610797
1.176743554846279
1.176738692547942
1.176731681792477
1.176721809524978
1.176708306650265
1.17669039993222
1.176667344430085
1.176638490925411
1.176603362559276
1.17656170101173
1.176513486883883
1.176458953056237
1.176398644987748
1.17633365348208
1.176265938964719
1.176198893930686
1.176139287546841
1.176097941698257
1.176079535218468
1.176074919784123
1.176074829271468
1.176075886637382
1.176078009088076
1.17608159657646
1.176086885079125
1.176094389769477
1.176104759723814
1.176118665391902
1.176136770744759
1.176159704064901
1.176187988716299
1.176221974577399
1.176261806433349
1.176307421745339
1.176358560927851
1.176414757310932
1.176475203687992
1.176538521975546
1.176602458393461
1.176662651407862
1.176710634281108
1.176737711185269
1.176747089648269
1.176748225110934
1.176747488332879
1.176745804113666
1.176742776304583
1.17673820197447
1.176731686136853
1.176722630105488
1.176710329992025
1.176694051861625
1.176673047501315
1.176646598701379
1.176614108354687
1.176575192777596
1.176529732732735
1.176477880605731
1.176420073298585
1.176357189197199
1.176290839940473
1.17622372088662
1.176161040589291
1.176112484575173
1.176086661521809
1.176078428155622
1.176077256886677
1.176077985979804
1.176079774691466
1.176083085450125
1.176088051103301
1.176095062580604
1.176104654289073
1.176117413418008
1.176133962557893
1.176154955971873
1.176181010329542
1.176212599338704
1.176249979262986
1.176293167434772
1.176341952466809
1.176395914946185
1.176454375636955
1.176516189428251
1.176579494372556
1.176640978677971
1.176693959619113
1.176728861085715
1.176743312380112
1.176746577039906
1.176746536305232
1.176745174591489
1.17674248350789
1.176738156620482
1.176731969599088
1.176723481884333
1.17671212994832
1.176697263401171
1.176678141770576
1.176653984276636
1.17662407988944
1.176587902671713
1.176545191949873
1.17649599969521
1.176440699528218
1.176380028478679
1.176315323795097
1.176248837759601
1.176184576393823
1.176130371464587
1.176096328309763
1.176083226579191
1.176080403838864
1.176080210574245
1.176081573084467
1.176084441550509
1.176089102354518
1.176095777867559
1.176104856976684
1.176116789612633
1.176132082901388
1.176151340614135
1.176175232165347
1.176204380103938
1.176239229545608
1.1762799569494
1.176326434050943
1.176378253037641
1.176434767961917
1.176494970446778
1.176557264244067
1.176619100032712
1.176675359934563
1.176717078679254
1.176738100641504
1.176744289336787
1.176745226593967
1.176744649430876
1.176742595264256
1.176738737651559
1.176732858385199
1.176724667939592
1.176713819309979
1.176699889094509
1.176682307402418
1.176660319030664
1.176633068528355
1.176599784454205
1.176559966165198
1.176513493156797
1.176460657913212
1.176402145272235
1.176339139527232
1.176273594551242
1.176208685484933
1.176150587512783
1.176109272526282
1.176089716956985
1.176084343272117
1.176083415156234
1.17608387324391
1.176085869602488
1.17608980163607
1.176095993613094
1.176104754095485
1.17611634039138
1.17613098316601
1.176149009375887
1.176170957194088
1.176197555825934
1.176229557133347
1.176267500261801
1.176311521677923
1.176361274998873
1.176416019052529
1.176474710325909
1.176535882542137
1.176597481211795
1.176655707341943
1.176702867580387
1.176731051193567
1.176741325166044
1.176743138596005
1.176743321029588
1.176742214325578
1.176739471643472
1.176734589311515
1.176727085556776
1.176716551925994
1.176702757458974
1.176685571863479
1.176664753752946
1.176639791696958
1.176609886197674
1.176574028342926
1.176531245019815
1.176481164913794
1.176424844275298
1.176363411536979
1.17629939758356
1.176221997576729
)
;

boundaryField
{
    inlet
    {
        type            calculated;
        value           uniform 1.176427481426743;
    }
    outlet
    {
        type            calculated;
        value           uniform 1.176188349464629;
    }
    frontAndBack
    {
        type            empty;
    }
}


// ************************************************************************* //
