/*--------------------------------*- C++ -*----------------------------------*\
| =========                 |                                                 |
| \\      /  F ield         | OpenFOAM: The Open Source CFD Toolbox           |
|  \\    /   O peration     | Version:  v2012                                 |
|   \\  /    A nd           | Website:  www.openfoam.com                      |
|    \\/     M anipulation  |                                                 |
\*---------------------------------------------------------------------------*/
FoamFile
{
    version     2.0;
    format      ascii;
    class       volScalarField;
    location    "0.0095";
    object      T;
}
// * * * * * * * * * * * * * * * * * * * * * * * * * * * * * * * * * * * * * //

dimensions      [0 0 0 1 0 0 0];


internalField   nonuniform List<scalar> 
1000
(
300.0093369698789
300.0075939072636
300.0140031233969
300.0189303104551
300.0237385001764
300.0280251208072
300.0320187737953
300.0356477350588
300.0387548248023
300.0408507936143
300.0415367688416
300.0416278369224
300.0414154327818
300.0405916262843
300.0389382555107
300.0364060172263
300.0330712711667
300.0290884334659
300.0245965453709
300.0196894965025
300.0144399463662
300.0089265958465
300.00324389439
299.9974992962208
299.9918072637883
299.9862821280384
299.9810247651099
299.9760989070306
299.9715102516282
299.9672394426702
299.9634104280304
299.9605746037925
299.9593777600521
299.9592502944323
299.9593025708635
299.9595319775005
299.960163851494
299.9614087175057
299.9634381626989
299.9663270737611
299.9700352574046
299.9744290622315
299.9793352595694
299.9845934335191
299.9900796960274
299.9957001594751
300.001372038869
300.0070102479592
300.0125278351529
300.0178520582891
300.0229482800233
300.0278205297689
300.0324297043917
300.0364737425909
300.0392090768026
300.0401774142124
300.0402516027337
300.0402173660404
300.0400089946358
300.0394835975453
300.0384523831599
300.0367498508054
300.0342558205328
300.0309276089346
300.0268118119799
300.0220335499242
300.0167648215117
300.0111845482339
300.0054479740895
299.9996762223635
299.993960550246
299.9883655324369
299.9829242108633
299.9776389988622
299.9725168383075
299.9676774670271
299.9635645490019
299.9609942021958
299.9601989990932
299.960148030189
299.9602003918479
299.9603864121558
299.9608683510793
299.9617954851027
299.963322828015
299.9655739809198
299.9686188824656
299.9724551742136
299.9770049089668
299.9821283294621
299.9876500280207
299.9933899411936
299.999191925795
300.0049429965567
300.0105789082764
300.0160781839725
300.0214475124276
300.0266830432685
300.0316586396478
300.0359064189267
300.0385792295031
300.0394221040339
300.039477698999
300.0394517961046
300.0392896499072
300.0388852743156
300.0380898093442
300.0367615356927
300.0347729366404
300.0320330476537
300.0285050463516
300.0242188921684
300.0192725464663
300.0138179205879
300.0080344921915
300.0020990296576
299.9961584151325
299.9903090781262
299.9845891672884
299.9789964028835
299.9735499493426
299.9684247080329
299.9641631035333
299.9616194920159
299.9608813034839
299.9608366193369
299.9608776963296
299.9610259279928
299.9614115658165
299.9621572257174
299.9633964503785
299.965249071232
299.9678066486591
299.9711158552391
299.9751670525112
299.9798905234019
299.9851620311212
299.9908195446112
299.996690612725
300.0026232276172
300.0085089448087
300.0142907764477
300.0199516567394
300.0254678096313
300.0306865031203
300.03510960426
300.0378849333147
300.0387811719544
300.0388517854784
300.0388338965114
300.0387093559099
300.0383915138109
300.0377542865817
300.0366738702991
300.0350301138802
300.0327226009466
300.029684397812
300.0258957163699
300.0213929385004
300.0162684328183
300.0106596855768
300.0047296296765
299.9986405461477
299.992525671743
299.9864697680675
299.9805173646852
299.9747305349471
299.9693244051887
299.9648749493271
299.9622370394945
299.9614622682608
299.9614105330738
299.9614415956503
299.9615590191627
299.9618723481592
299.9624865328414
299.9635191629797
299.9650819321515
299.9672702798653
299.9701502625665
299.9737475464885
299.9780397257376
299.9829537838199
299.9883720554545
299.994148873195
300.0001345396633
300.0061988763954
300.0122470190507
300.0182187425455
300.0240502866758
300.0295581390991
300.0342295499557
300.0372060843897
300.0382192220732
300.0383153847308
300.0383043963377
300.0382098731183
300.0379580730996
300.0374392120436
300.0365439176746
300.0351613264316
300.0331911692846
300.030554193435
300.0272040865834
300.0231375913767
300.0183992273373
300.0130789402545
300.0073025816993
300.0012144948657
299.9949534695021
299.988631714815
299.982336060682
299.976176671365
299.9704164567011
299.965675304476
299.9628407081581
299.9619775218421
299.9619102889343
299.9619337744032
299.9620261798442
299.9622821691217
299.9627935965436
299.9636657653382
299.9650020107679
299.9668960970517
299.969421976711
299.9726246398486
299.9765121182093
299.9810499741473
299.9861616412934
299.9917373023592
299.9976496457264
300.0037719073092
300.0099936848843
300.0162256856761
300.0223696212795
300.028210973689
300.0332168003593
300.0364993986529
300.0377014098442
300.0378414555066
300.0378361713865
300.0377642751162
300.0375647166505
300.0371395525412
300.0363908673344
300.0352162387469
300.0335187143602
300.0312147087113
300.0282437092027
300.0245773630119
300.0202255487845
300.015238228207
300.0097023768528
300.003732018753
299.9974510501204
299.9909762818561
299.9844174443125
299.9779188626616
299.9717792591367
299.966653078421
299.9634886669566
299.9624533454741
299.962355627705
299.9623725736229
299.96244376764
299.9626530514552
299.9630818322174
299.9638250393528
299.9649777922542
299.9666301285399
299.9688589108762
299.9717201881649
299.9752416547777
299.9794164014857
299.9842007939788
299.9895185905312
299.9952703398848
300.0013456856101
300.0076361850772
300.0140407001484
300.0204405522563
300.0266040050109
300.0319949383708
300.0356959287013
300.0371928432155
300.0374106439958
300.0374107175214
300.0373578025885
300.0372004933725
300.0368513727848
300.0362220526501
300.0352180134367
300.0337467563119
300.0317238890624
300.0290811571724
300.0257742173567
300.0217885935082
300.0171433128808
300.0118915264924
300.006115686196
299.9999163650492
299.9934006147235
299.9866833923324
299.9799235323751
299.9734314997264
299.9678680906731
299.9642453297492
299.9629255942243
299.9627675208998
299.9627783591612
299.9628301488103
299.9629984073104
299.9633560896068
299.9639905409036
299.9649897985295
299.9664394347936
299.9684161578408
299.9709816930152
299.974176175658
299.9780121304572
299.9824713105898
299.9875058392601
299.9930430672316
299.9989932648562
300.0052591241545
300.0117402355117
300.0183124265162
300.0247455826905
300.0305268071891
300.0347324535979
300.03664951257
300.0370049230411
300.0370126281408
300.0369766041134
300.0368558053141
300.0365716945747
300.0360435464602
300.0351834166977
300.0339035120458
300.0321207452324
300.029763220752
300.0267765917494
300.0231294404974
300.0188176606414
300.0138670728279
300.0083318119454
300.0022877120045
299.9958255030772
299.989053944365
299.9821300811147
299.9753523728617
299.9693516940574
299.965171976824
299.9634316692251
299.9631587589311
299.9631627080481
299.9631972577118
299.9633297374537
299.9636249467939
299.9641645691723
299.9650309611704
299.9663056766473
299.9680642132627
299.97037099452
299.9732737944695
299.976798533678
299.9809458834472
299.9856904889504
299.9909828103874
299.9967537379853
300.002921227742
300.0093930277269
300.0160496457563
300.0226772132488
300.0288105488547
300.0335603451977
300.0360227966359
300.0366048092278
300.0366313299148
300.0366098300412
300.0365209235714
300.0362940757312
300.0358543306684
300.035119152191
300.0340049140214
300.0324306646835
300.0303232364799
300.0276222841348
300.0242849478686
300.0202903667051
300.0156431732166
300.0103737854884
300.0045351716122
299.9981998903535
299.9914642895236
299.9844728984657
299.977495621389
299.9711032277291
299.9663186862844
299.964017148169
299.9635431511561
299.9635305807826
299.9635518524487
299.9636529733752
299.9638929405186
299.9643484573994
299.9650973860531
299.9662178654558
299.9677838440485
299.9698610913654
299.9725023126319
299.9757425012
299.979595887265
299.9840545543126
299.98908818168
299.9946458709142
300.0006607602169
300.0070523637977
300.0137127385871
300.0204521639611
300.0268664396235
300.0321440104728
300.0352542591904
300.0361912829758
300.0362696356967
300.0362548329138
300.0361934369435
300.0360151962286
300.0356524741814
300.0350267377999
300.0340582070956
300.0326681428388
300.0307831372555
300.0283391324218
300.0252855754575
300.0215896868067
300.0172399808264
300.0122476842456
300.0066461375627
300.0004904578979
299.9938616787642
299.9868858306666
299.9797965221508
299.9730886651895
299.9677132010565
299.9647390500278
299.9639431875644
299.9638915192226
299.9639039686882
299.9639768315273
299.9641667517034
299.9645458296726
299.9651882886957
299.9661696788983
299.9675626656909
299.969433518055
299.9718379566348
299.9748173046588
299.9783956903279
299.9825780758651
299.9873490089922
299.9926732835698
299.998498826322
300.0047576037351
300.0113546994066
300.0181273963054
300.0247383462493
300.0304827894362
300.0342905739956
300.035727318079
300.0359160812435
300.0359094545032
300.0358688253934
300.0357323073145
300.0354370766862
300.0349083222502
300.0340696640145
300.03284447994
300.0311595705453
300.0289486248138
300.0261559549812
300.0227402231012
300.0186777102297
300.0139646398982
300.0086184222409
300.0026785729479
299.9962102784026
299.9893195255272
299.9822026219022
299.9752732609161
299.9693691228635
299.9656505975642
299.9643806472977
299.9642417422593
299.964248200581
299.9642973587981
299.9644441382312
299.9647554135447
299.9653027269786
299.9661591944885
299.967396125213
299.9690797019472
299.9712676333102
299.9740059353682
299.9773260770946
299.9812426952716
299.9857522476883
299.9908330332897
299.9964462109626
300.002535500484
300.0090195834232
300.0157625224465
300.0224892244703
300.028608547448
300.0330938492943
300.0351581741887
300.0355516221708
300.0355599380429
300.0355354646284
300.0354362590687
300.0352019569263
300.0347620576448
300.0340423427817
300.0329678743239
300.0314659686009
300.0294689483165
300.0269173802408
300.0237638179948
300.0199759984282
300.0155388462349
300.010456284723
300.0047539281135
299.9984830969992
299.991731382089
299.9846592885927
299.9776025620063
299.9712684505026
299.9668026477252
299.9649045903428
299.9645894604619
299.964584079473
299.9646173083634
299.9647264170683
299.9649782941648
299.9654400996033
299.9661831832784
299.9672776103473
299.9687895608832
299.9707780853781
299.9732924229808
299.9763696377151
299.9800321288608
299.9842856027898
299.9891187281637
299.9945039360708
300.0003964551174
300.0067276699404
300.0133840538034
300.0201451793758
300.026535077496
300.0316384952698
300.0344406574684
300.0351799774145
300.0352264386489
300.0352147717804
300.0351436948857
300.0349609884128
300.0345975090504
300.0339824919623
300.0330427096569
300.0317061702925
300.0299046326113
300.0275764856102
300.0246697397648
300.0211449736694
300.0169780491585
300.0121625193453
300.00671195494
300.0006634845935
299.9940871273608
299.9871139191466
299.9800133926082
299.9733629775948
299.9682135416126
299.9655738768712
299.9649585420638
299.9649293822612
299.9649465633908
299.9650244896266
299.9652219774104
299.965604834554
299.9662424751805
299.9672041457883
299.9685559837267
299.9703583109391
299.9726630318067
299.9755111915078
299.9789308106336
299.9829352250067
299.9875221184986
299.9926730737077
299.9983527118058
300.0045046543148
300.0110363189469
300.0177718487675
300.0243331827103
300.0299444580048
300.0335113613318
300.0347513776565
300.0348916123033
300.0348859610383
300.0348401809507
300.0347023545301
300.0344084613233
300.0338894439577
300.0330737537848
300.031890067867
300.0302698160658
300.0281498085068
300.025474948743
300.0222008508537
300.0182963898388
300.0137463625175
300.0085542348701
300.0027454518113
299.9963746302527
299.9895465871241
299.9824747741085
299.9756192989809
299.9698880120244
299.9664408995349
299.9653624702368
299.9652625868263
299.9652717325513
299.9653234443595
299.9654745563837
299.9657876695644
299.9663306481664
299.9671717194656
299.9683767638227
299.9700066676551
299.9721151753846
299.9747466324358
299.9779336675172
299.9816955556539
299.9860375192392
299.9909500045877
299.9964070262372
300.0023626918321
300.0087410845783
300.0154024779468
300.0220500371852
300.0280514126877
300.0323458772564
300.0342319028339
300.0345553582017
300.0345529186916
300.0345069349711
300.0343929748813
300.0341518379201
300.0337210081328
300.0330323782131
300.0320146981367
300.0305958660359
300.0287059967164
300.0262805218322
300.0232635724615
300.0196123395187
300.0153019410465
300.0103292439929
300.0047156351912
299.9985108466017
299.991807318684
299.984779770732
299.9777855257039
299.9716212786584
299.9674314606967
299.9657238433892
299.9654500594023
299.9654620178196
299.9655076343829
299.9656100287731
299.9658260974011
299.9662236656391
299.9668804423361
299.9678770357191
299.969289875722
299.9711864048974
299.9736220359897
299.9766372927833
299.9802557481783
299.9844833464194
299.9893082044346
299.9947010063995
300.0006148148379
300.0069737105804
300.0136488803882
300.0204076487643
300.0267373887731
300.0316216312885
300.0342473362008
300.0350522795158
300.0351205349385
300.035052152928
300.0349225528578
300.0346909814506
300.0343158535489
300.0337374381685
300.0328704921284
300.0316220380372
300.029907177364
300.0276544803694
300.0248065208742
300.0213209679911
300.0171726021907
300.0123552842494
300.0068828792764
300.0007934294459
299.9941703453363
299.9871752658781
299.9800982153302
299.9735404858762
299.9685993186995
299.9660699228232
299.9653087892787
299.9652515232548
299.9653189699299
299.9654525867577
299.9657114104911
299.9661214426817
299.9667376820832
299.9676389434403
299.9689084809435
299.9706218972519
299.9728430738971
299.975621454311
299.9789891194376
299.9829597545473
299.9875297399427
299.9926794322745
299.9983719902732
300.0045420368518
300.0110714117736
300.0177601412449
300.0242278493173
300.0296921983044
300.0331333752881
300.034519003893
300.0347360761936
300.0346963742344
300.034580758122
300.0343631381779
300.0340102661009
300.0334768932541
300.0326961078558
300.0315847068691
300.0300582903255
300.028037661938
300.0254520282052
300.0222448217357
300.018379624854
300.0138423532607
300.0086408443885
300.0028066061679
299.9964090034551
299.9895848876201
299.9825718617391
299.9758199234655
299.9702229782972
299.9668481986193
299.9655838864967
299.9653806602593
299.9654265215791
299.9655490137768
299.9657933359636
299.9661825233581
299.9667591914546
299.9675879386722
299.9687434878568
299.9702989094686
299.9723222051574
299.97487272953
299.9779949229372
299.9817136633096
299.9860335878978
299.9909403376255
299.9964016360354
300.002362131783
300.0087221327968
300.0153111633372
300.0218405033144
300.0277238015922
300.0319495509692
300.033966090824
300.0344854836509
300.0344971900553
300.0343913735829
300.0341957370982
300.0338648513388
300.0333687099461
300.0326533400583
300.0316459790203
300.0302681434935
300.0284409239595
300.0260882929294
300.0231439835387
300.0195593085901
300.0153078728238
300.0103876541547
300.0048223696162
299.9986676331067
299.9920347171141
299.9851236607067
299.9782806940274
299.9721967485925
299.9679765109271
299.9660976996993
299.9656265840565
299.9656173434525
299.9657252705082
299.9659419153178
299.9663081022019
299.9668479159336
299.9676139392708
299.9686724214821
299.9700917911523
299.9719398122164
299.9742806012553
299.9771675599168
299.9806363756207
299.9847017957202
299.9893574012857
299.9945766584675
300.0003118970743
300.0064806949651
300.0129423787128
300.0194669293488
300.0256092747356
300.030505500843
300.0332683980707
300.0342253563575
300.0343412149332
300.034266033836
300.0340941775602
300.0337852248389
300.033318467391
300.0326535989236
300.0317295270845
300.030474422937
300.0288133886593
300.0266700651798
300.0239711489006
300.020655685932
300.016684492059
300.0120453602149
300.0067537953965
300.0008543343147
299.9944365700254
299.9876649390675
299.9808145069722
299.9744168927209
299.9694607542693
299.9668249239705
299.9659845136025
299.9658649564554
299.9659393756727
299.9661219532815
299.9664598921343
299.9669667510468
299.967682430764
299.9686614762394
299.969963818217
299.9716529981549
299.9737957865215
299.9764551113386
299.9796793020984
299.9834944872163
299.9879024020344
299.9928814335014
299.9983887354691
300.0043549459718
300.0106631643232
300.0171233505499
300.0233975392182
300.0288038320946
300.0323651657387
300.0338397498591
300.0341728682971
300.0341687101767
300.0340297610655
300.0337551665816
300.0333136576218
300.0326823415464
300.0318162612306
300.0306579106012
300.02914091794
300.0271897160119
300.0247246193197
300.0216730525531
300.0179813191237
300.0136227823052
300.0086027023587
300.0029591593767
299.9967673203365
299.9901636147294
299.9833778780412
299.9768189735234
299.9712863120878
299.9678114617506
299.9664741253615
299.9661859972609
299.9661662684505
299.9663053423482
299.9665981342013
299.9670738756421
299.9677552622111
299.9686819854575
299.9698999664215
299.9714609620209
299.9734265908224
299.9758651672095
299.978840215955
299.9823971442332
299.9865539310202
299.991297448179
299.9965860338048
300.0023537231999
300.0084975685351
300.0148546399082
300.0211647693023
300.0269057185063
300.031162722858
300.0333077769591
300.0339392583939
300.0340348930639
300.033975998797
300.0337663933182
300.0333727676908
300.032772854403
300.0319371075655
300.0308301152129
300.0294086682272
300.0276146072875
300.0253708597265
300.0225901171968
300.0191936352917
300.015130293068
300.010387752144
300.0049958130947
299.9990243157605
299.9925940769241
299.9859044700066
299.9792795417467
299.9733495913202
299.9691325304491
299.967136440056
299.9665879295499
299.9664931928119
299.9665399505895
299.966743725605
299.9671450824433
299.9677771171433
299.9686713205022
299.969853949787
299.9713485408774
299.9731884570014
299.9754286198876
299.978143449594
299.9814096775785
299.9852823201206
299.9897752855341
299.9948531878631
300.0004403327998
300.0064301511756
300.0126729119082
300.018958866134
300.024900318281
300.029712304955
300.0325877425447
300.0336356293677
300.0338202638546
300.033838414944
300.0337251643416
300.0334462228016
300.0329512958713
300.0321908884304
300.0311199215306
300.0297088220702
300.0279419127681
300.0258047060333
300.0232665046856
300.0202567648819
300.016643312184
300.0122524345337
300.0069597067979
300.0008464235122
299.9942858442006
299.9882807542
299.9823666594763
)
;

boundaryField
{
    inlet
    {
        type            fixedValue;
        value           uniform 300;
    }
    outlet
    {
        type            temperatureOutletNSCBC;
        pInf            101325;
        gamma           1.4;
        etaAc           1;
        fieldInf        1;
        lInf            2.25;
        value           uniform 299.9798465648329;
    }
    frontAndBack
    {
        type            empty;
    }
}


// ************************************************************************* //
