/*--------------------------------*- C++ -*----------------------------------*\
| =========                 |                                                 |
| \\      /  F ield         | OpenFOAM: The Open Source CFD Toolbox           |
|  \\    /   O peration     | Version:  v2012                                 |
|   \\  /    A nd           | Website:  www.openfoam.com                      |
|    \\/     M anipulation  |                                                 |
\*---------------------------------------------------------------------------*/
FoamFile
{
    version     2.0;
    format      ascii;
    class       volVectorField;
    location    "0.0095";
    object      U;
}
// * * * * * * * * * * * * * * * * * * * * * * * * * * * * * * * * * * * * * //

dimensions      [0 1 -1 0 0 0 0];


internalField   nonuniform List<vector> 
1000
(
(0.002918056121965894 0 0)
(0.03443113028081179 0 0)
(0.04257947094798419 0 0)
(0.05763150356644649 0 0)
(0.07144185345364785 0 0)
(0.08442523952722271 0 0)
(0.09560775946980909 0 0)
(0.1051550681160955 0 0)
(0.1131783416395157 0 0)
(0.1185394497558734 0 0)
(0.1200699991262874 0 0)
(0.1199799055585175 0 0)
(0.1191362022864433 0 0)
(0.1166416113698852 0 0)
(0.1118434423507871 0 0)
(0.1045336478172627 0 0)
(0.09497225851063298 0 0)
(0.0835944360351783 0 0)
(0.07076993974293268 0 0)
(0.05674485000073561 0 0)
(0.04171078473075856 0 0)
(0.02588396017649838 0 0)
(0.009535532263512805 0 0)
(-0.007022660771175705 0 0)
(-0.02346360512583425 0 0)
(-0.03945939653761389 0 0)
(-0.05470625154238786 0 0)
(-0.06899943752494835 0 0)
(-0.08231780562598115 0 0)
(-0.09472954730082493 0 0)
(-0.1058696102745607 0 0)
(-0.1141076119027711 0 0)
(-0.117569388841252 0 0)
(-0.1179366207392439 0 0)
(-0.1178207590561975 0 0)
(-0.1171174173448146 0 0)
(-0.1152760273972531 0 0)
(-0.1116541353171967 0 0)
(-0.1057659495642247 0 0)
(-0.09739552799708107 0 0)
(-0.08666146538516038 0 0)
(-0.07394823276558185 0 0)
(-0.05975487891489665 0 0)
(-0.04454777382656184 0 0)
(-0.02868707984327477 0 0)
(-0.01243866828063768 0 0)
(0.003965111814020569 0 0)
(0.02027388666174906 0 0)
(0.03622600341161666 0 0)
(0.05161579609243792 0 0)
(0.06636053534289214 0 0)
(0.08046988187087134 0 0)
(0.09380232213037527 0 0)
(0.1054781965919984 0 0)
(0.1133860497508504 0 0)
(0.1162149328526596 0 0)
(0.1164488434570411 0 0)
(0.116300219604623 0 0)
(0.1157279647960655 0 0)
(0.1141981329107577 0 0)
(0.1112160204341378 0 0)
(0.1062918492023859 0 0)
(0.09907819482543262 0 0)
(0.08944998011150547 0 0)
(0.07754467911208482 0 0)
(0.06372631376366922 0 0)
(0.04848873486582932 0 0)
(0.03234532950227931 0 0)
(0.01574934005452793 0 0)
(-0.0009417065829534336 0 0)
(-0.01746832659526099 0 0)
(-0.03365606226439646 0 0)
(-0.04940615674213746 0 0)
(-0.06469161925124432 0 0)
(-0.07949116280172989 0 0)
(-0.09348857497479623 0 0)
(-0.1054099845363319 0 0)
(-0.1128557685649731 0 0)
(-0.1151291247946749 0 0)
(-0.1152519834259666 0 0)
(-0.1151529643523752 0 0)
(-0.1145849563737789 0 0)
(-0.1131995693488477 0 0)
(-0.1105164138054939 0 0)
(-0.1060975692018238 0 0)
(-0.09958526552133171 0 0)
(-0.09077869289732454 0 0)
(-0.07968222837009885 0 0)
(-0.06651952543810946 0 0)
(-0.05169816231654348 0 0)
(-0.03572884000063772 0 0)
(-0.01912828817200678 0 0)
(-0.00234232198945726 0 0)
(0.01429751960968068 0 0)
(0.03059523522425376 0 0)
(0.04649303520626757 0 0)
(0.06202725210325023 0 0)
(0.07718492786774533 0 0)
(0.09157477518721296 0 0)
(0.1038396563757925 0 0)
(0.1115653845806803 0 0)
(0.114027977223368 0 0)
(0.1142048648571667 0 0)
(0.1140854690110521 0 0)
(0.1136439034167543 0 0)
(0.1124660558205895 0 0)
(0.110166474400928 0 0)
(0.1063252172567166 0 0)
(0.1005739561538085 0 0)
(0.09264802574000394 0 0)
(0.08244302487176125 0 0)
(0.07004750810102546 0 0)
(0.05574197377691453 0 0)
(0.03996245566392793 0 0)
(0.02323152120609481 0 0)
(0.00606616361636793 0 0)
(-0.01111251152444653 0 0)
(-0.02803524357035943 0 0)
(-0.04458876618670023 0 0)
(-0.06076388728384289 0 0)
(-0.07650507741551665 0 0)
(-0.09133036197618007 0 0)
(-0.1036766917187845 0 0)
(-0.1110419011302166 0 0)
(-0.1131559215304476 0 0)
(-0.1132671425754592 0 0)
(-0.1131888037337806 0 0)
(-0.112736588286402 0 0)
(-0.1116280124546222 0 0)
(-0.1094700420075242 0 0)
(-0.1058847419281468 0 0)
(-0.100525389878662 0 0)
(-0.09312828167278291 0 0)
(-0.08355626462331223 0 0)
(-0.07183586183118433 0 0)
(-0.05817173418889785 0 0)
(-0.04292575953077375 0 0)
(-0.02656275543545579 0 0)
(-0.009577117045681928 0 0)
(0.007586668935913705 0 0)
(0.02460699648659036 0 0)
(0.04132411596005981 0 0)
(0.05770226276308794 0 0)
(0.07366869887375696 0 0)
(0.0887598737902152 0 0)
(0.1015356767513429 0 0)
(0.1095616900802788 0 0)
(0.112174134931123 0 0)
(0.1123898896010111 0 0)
(0.1123006563236019 0 0)
(0.1119649186679934 0 0)
(0.1110379892030921 0 0)
(0.1091960776029322 0 0)
(0.1060715261482667 0 0)
(0.1013175813171884 0 0)
(0.09464251288494126 0 0)
(0.08585439152807645 0 0)
(0.07489741587548628 0 0)
(0.06187450787479348 0 0)
(0.04705033994674319 0 0)
(0.03082549784859839 0 0)
(0.0136754352331475 0 0)
(-0.0039339654249561 0 0)
(-0.02162451202461603 0 0)
(-0.0391476356470305 0 0)
(-0.0563625914977927 0 0)
(-0.07309168545430132 0 0)
(-0.08873116727890862 0 0)
(-0.1016168215161551 0 0)
(-0.1092506305897245 0 0)
(-0.1114749104766893 0 0)
(-0.1116129713501509 0 0)
(-0.1115543616931036 0 0)
(-0.1111954859120877 0 0)
(-0.1102950244850215 0 0)
(-0.1085174072655522 0 0)
(-0.1055298789404542 0 0)
(-0.101009161566124 0 0)
(-0.09467987560519422 0 0)
(-0.086349169036759 0 0)
(-0.07594208210825805 0 0)
(-0.06352598507183674 0 0)
(-0.04931355050129646 0 0)
(-0.03364164951978071 0 0)
(-0.01692889005140119 0 0)
(0.000386985763728335 0 0)
(0.01792409554682343 0 0)
(0.03541382910415153 0 0)
(0.0526917264460901 0 0)
(0.06956716580046843 0 0)
(0.08549277927940287 0 0)
(0.09899079420976485 0 0)
(0.1076028070454704 0 0)
(0.1105492185924522 0 0)
(0.1108334638228947 0 0)
(0.1107711461935566 0 0)
(0.1105197849256704 0 0)
(0.1097842284187253 0 0)
(0.1082847277825372 0 0)
(0.1056955340009934 0 0)
(0.1016968561860834 0 0)
(0.09599765189367766 0 0)
(0.0883702127803014 0 0)
(0.07868162256668493 0 0)
(0.06692033308074966 0 0)
(0.05321327340062118 0 0)
(0.03782339930291721 0 0)
(0.02111784607169492 0 0)
(0.003510480101486086 0 0)
(-0.01460281298622857 0 0)
(-0.03289338643190955 0 0)
(-0.05110061389590187 0 0)
(-0.06890951736691764 0 0)
(-0.0855747513488906 0 0)
(-0.09930146260778365 0 0)
(-0.1075012278585238 0 0)
(-0.1099840851078749 0 0)
(-0.1101710238915545 0 0)
(-0.1101291647561793 0 0)
(-0.1098445662009862 0 0)
(-0.1091096945838436 0 0)
(-0.1076292499717754 0 0)
(-0.1051059338250964 0 0)
(-0.1012406087341298 0 0)
(-0.0957624557028566 0 0)
(-0.08845585266319465 0 0)
(-0.07919036169142804 0 0)
(-0.06794522418366132 0 0)
(-0.05482084692245136 0 0)
(-0.04003522024274792 0 0)
(-0.02390431319115266 0 0)
(-0.006801373011354319 0 0)
(0.01090321197612702 0 0)
(0.02889670626268616 0 0)
(0.04692814316127606 0 0)
(0.06470503883547941 0 0)
(0.08159368813848435 0 0)
(0.09606180177863609 0 0)
(0.1055617488632193 0 0)
(0.1090516498261359 0 0)
(0.1094603060753435 0 0)
(0.1094168200482147 0 0)
(0.1092311958068007 0 0)
(0.1086461668677735 0 0)
(0.1074179630399999 0 0)
(0.1052526812248653 0 0)
(0.1018553930854425 0 0)
(0.09694486421386569 0 0)
(0.09028068058445789 0 0)
(0.08168845546617125 0 0)
(0.07108427788820915 0 0)
(0.05849551290024144 0 0)
(0.04406928062255477 0 0)
(0.02805928210943712 0 0)
(0.01079168382881708 0 0)
(-0.007379211772471087 0 0)
(-0.02611099137484939 0 0)
(-0.04507900872963358 0 0)
(-0.06387091460291219 0 0)
(-0.08163486217522575 0 0)
(-0.09647300621749735 0 0)
(-0.1056242257814349 0 0)
(-0.1086073837304146 0 0)
(-0.1088854220116948 0 0)
(-0.1088593296574748 0 0)
(-0.108636770844824 0 0)
(-0.1080370264876525 0 0)
(-0.1067955245499873 0 0)
(-0.1046454023470832 0 0)
(-0.1013109585842007 0 0)
(-0.09653190781693673 0 0)
(-0.09008455252224908 0 0)
(-0.08180687003180316 0 0)
(-0.07162073887137892 0 0)
(-0.05954624092211777 0 0)
(-0.04570671479522138 0 0)
(-0.03032219899498647 0 0)
(-0.01368469594410015 0 0)
(0.003884872381986034 0 0)
(0.02207894413929121 0 0)
(0.0406089685463713 0 0)
(0.05912328464562294 0 0)
(0.0769435259504503 0 0)
(0.09252969488305278 0 0)
(0.1032408494582501 0 0)
(0.1075795352291702 0 0)
(0.1082109971345833 0 0)
(0.1081876868179301 0 0)
(0.1080552899026536 0 0)
(0.1075924911157481 0 0)
(0.1065844003764921 0 0)
(0.1047643067426291 0 0)
(0.1018602987118324 0 0)
(0.09760427195471223 0 0)
(0.09175344688263522 0 0)
(0.08411062852537482 0 0)
(0.07454568510168044 0 0)
(0.06301618925500779 0 0)
(0.04957985835850805 0 0)
(0.03439156474563616 0 0)
(0.01768582077511604 0 0)
(-0.0002490548018477389 0 0)
(-0.01909798396248829 0 0)
(-0.03852333453883015 0 0)
(-0.05807282433664827 0 0)
(-0.07685788942734437 0 0)
(-0.09295849134738572 0 0)
(-0.1034327668080722 0 0)
(-0.1072406196727742 0 0)
(-0.107695717811635 0 0)
(-0.1076862802865984 0 0)
(-0.1075185277087632 0 0)
(-0.1070383075352115 0 0)
(-0.106002136640719 0 0)
(-0.1041668017019503 0 0)
(-0.1012764411106186 0 0)
(-0.09708352835901952 0 0)
(-0.09136517754986187 0 0)
(-0.08394328426844096 0 0)
(-0.07470320271671177 0 0)
(-0.06360822355896166 0 0)
(-0.05070896377283 0 0)
(-0.03614440758468001 0 0)
(-0.02012814042300404 0 0)
(-0.002919696774811738 0 0)
(0.01520460827560697 0 0)
(0.03395538745927771 0 0)
(0.05296578755275663 0 0)
(0.07156684862262795 0 0)
(0.08828554121488554 0 0)
(0.1004566678345655 0 0)
(0.1060083290529446 0 0)
(0.1070316265454664 0 0)
(0.1070389466722042 0 0)
(0.1069528081464075 0 0)
(0.1065953248972243 0 0)
(0.1057755383769781 0 0)
(0.1042479685189282 0 0)
(0.101760086066668 0 0)
(0.09805761577920188 0 0)
(0.09290143509916397 0 0)
(0.08608340241594092 0 0)
(0.0774446320846206 0 0)
(0.06689435613587336 0 0)
(0.05442319672522752 0 0)
(0.04010592520279658 0 0)
(0.02409524521144677 0 0)
(0.006609587906614733 0 0)
(-0.01208296133103169 0 0)
(-0.0316653098836045 0 0)
(-0.05169137414571891 0 0)
(-0.07130346958844033 0 0)
(-0.08866584217080282 0 0)
(-0.1007497366531524 0 0)
(-0.1057767126117584 0 0)
(-0.1065652698951149 0 0)
(-0.1065754684037676 0 0)
(-0.106455738076862 0 0)
(-0.1060801099090118 0 0)
(-0.1052242752640826 0 0)
(-0.1036635010987815 0 0)
(-0.1011574400392985 0 0)
(-0.09747025965023313 0 0)
(-0.09238309359215888 0 0)
(-0.0857100884492228 0 0)
(-0.07731369350873728 0 0)
(-0.06711828795523297 0 0)
(-0.0551209767365468 0 0)
(-0.0413960167467451 0 0)
(-0.02608834208173609 0 0)
(-0.009396839788674744 0 0)
(0.008443724450720903 0 0)
(0.02716538742221711 0 0)
(0.04641837524945241 0 0)
(0.06558482782182744 0 0)
(0.08332535929237689 0 0)
(0.09706820213096189 0 0)
(0.104191576227971 0 0)
(0.1058694197048421 0 0)
(0.1059429401407977 0 0)
(0.105890019113301 0 0)
(0.1056271145203433 0 0)
(0.1049726521198731 0 0)
(0.1037007343924442 0 0)
(0.101574164433809 0 0)
(0.09835101021105945 0 0)
(0.0937980663502247 0 0)
(0.08770317974097812 0 0)
(0.0798904921892305 0 0)
(0.07023668465780425 0 0)
(0.05868340672867983 0 0)
(0.04524324038564274 0 0)
(0.03000094216896158 0 0)
(0.01311034315288581 0 0)
(-0.005213739038952564 0 0)
(-0.02469270033396854 0 0)
(-0.0449161475966677 0 0)
(-0.06510492758569561 0 0)
(-0.0835972679348773 0 0)
(-0.0974296558525715 0 0)
(-0.1040821524588741 0 0)
(-0.1054606287344409 0 0)
(-0.1055081575216735 0 0)
(-0.1054290628213263 0 0)
(-0.1051454453054346 0 0)
(-0.1044487772557181 0 0)
(-0.1031314141562309 0 0)
(-0.1009653071380669 0 0)
(-0.09772424805856539 0 0)
(-0.09319380587836122 0 0)
(-0.08718480878254715 0 0)
(-0.07954550351688044 0 0)
(-0.0701731610111925 0 0)
(-0.0590254573750086 0 0)
(-0.04612749580201154 0 0)
(-0.03156914901161509 0 0)
(-0.01549472723582138 0 0)
(0.001906131731351507 0 0)
(0.02039680760858801 0 0)
(0.03965840926523644 0 0)
(0.05914643522131267 0 0)
(0.07770265826035232 0 0)
(0.09297595768284528 0 0)
(0.1019700649509047 0 0)
(0.1046700888785168 0 0)
(0.1048926286290712 0 0)
(0.1048692353496954 0 0)
(0.1046779002981967 0 0)
(0.1041667487068235 0 0)
(0.1031168509320042 0 0)
(0.1013069620581738 0 0)
(0.09850547706370753 0 0)
(0.0944851990747589 0 0)
(0.0890332710741088 0 0)
(0.08196386393124655 0 0)
(0.0731314548226886 0 0)
(0.06244208117839753 0 0)
(0.04986149468606513 0 0)
(0.03542065108842716 0 0)
(0.01921723243969601 0 0)
(0.001413109370322001 0 0)
(-0.01775889062845753 0 0)
(-0.03793839807857496 0 0)
(-0.0584482884579572 0 0)
(-0.07785052885570506 0 0)
(-0.09339489290099702 0 0)
(-0.1019979248267284 0 0)
(-0.104305959601477 0 0)
(-0.1044586474799477 0 0)
(-0.1044120146695462 0 0)
(-0.1042081475983415 0 0)
(-0.1036565353936757 0 0)
(-0.1025603826746541 0 0)
(-0.1007021766273308 0 0)
(-0.09786329260534438 0 0)
(-0.09383339373848923 0 0)
(-0.08842168515239143 0 0)
(-0.08146710853071532 0 0)
(-0.07284884923985935 0 0)
(-0.06249685814616179 0 0)
(-0.05039874834795982 0 0)
(-0.03659994228611086 0 0)
(-0.0211994708000415 0 0)
(-0.004346454113156315 0 0)
(0.01375820825718678 0 0)
(0.03283673814885206 0 0)
(0.05242399729094848 0 0)
(0.07155019883893816 0 0)
(0.08816999628758783 0 0)
(0.09917931214618265 0 0)
(0.1033285505566785 0 0)
(0.1038733071411932 0 0)
(0.1038697367902966 0 0)
(0.1037390445576897 0 0)
(0.1033488859764324 0 0)
(0.1024939163934337 0 0)
(0.1009647379365094 0 0)
(0.0985390118291814 0 0)
(0.09499537482162713 0 0)
(0.09012200736595692 0 0)
(0.08372708468249072 0 0)
(0.07564960292902632 0 0)
(0.06577000878939532 0 0)
(0.05401954389163605 0 0)
(0.04038717919539974 0 0)
(0.02492340208368279 0 0)
(0.00774258816050233 0 0)
(-0.01096700237792402 0 0)
(-0.0308990793576594 0 0)
(-0.05148553171455922 0 0)
(-0.0715293168822819 0 0)
(-0.08860765011740453 0 0)
(-0.09936434240212737 0 0)
(-0.1030382841599648 0 0)
(-0.1034401884675694 0 0)
(-0.1034206141472158 0 0)
(-0.1032791599000299 0 0)
(-0.1028542694861663 0 0)
(-0.1019539305145374 0 0)
(-0.1003707559241997 0 0)
(-0.09789322224494172 0 0)
(-0.0943151116452097 0 0)
(-0.08944513289821585 0 0)
(-0.08311627165265854 0 0)
(-0.07519521411321196 0 0)
(-0.06559107598459497 0 0)
(-0.05426189716952742 0 0)
(-0.04121781838197918 0 0)
(-0.0265210916198865 0 0)
(-0.01028422815573803 0 0)
(0.007329052293604535 0 0)
(0.02608350114117167 0 0)
(0.04558724696133588 0 0)
(0.06504484900310668 0 0)
(0.08274462145705874 0 0)
(0.09571636837398283 0 0)
(0.1016863376019951 0 0)
(0.1028254781315654 0 0)
(0.1028516761886807 0 0)
(0.1027775823930781 0 0)
(0.1024924245955061 0 0)
(0.1018143188859652 0 0)
(0.1005417647813236 0 0)
(0.09846018566686494 0 0)
(0.09535283638483479 0 0)
(0.09100861366388478 0 0)
(0.08523189098804158 0 0)
(0.07785201347386075 0 0)
(0.06873161148960417 0 0)
(0.05777542058963279 0 0)
(0.04493976216934134 0 0)
(0.03023886525468811 0 0)
(0.01374727161049842 0 0)
(-0.004391022330590337 0 0)
(-0.02392427546711615 0 0)
(-0.04438185232849401 0 0)
(-0.06478902620341478 0 0)
(-0.08310854189173099 0 0)
(-0.09603190343109012 0 0)
(-0.1015282925231657 0 0)
(-0.1024377093221752 0 0)
(-0.1024392594289667 0 0)
(-0.1023579518709493 0 0)
(-0.1020361564431398 0 0)
(-0.1013091653948984 0 0)
(-0.09997319417112195 0 0)
(-0.09782346539875497 0 0)
(-0.09465743999928931 0 0)
(-0.09028424571868589 0 0)
(-0.08453239331275564 0 0)
(-0.0772586883140495 0 0)
(-0.06835689734890747 0 0)
(-0.05776351757200519 0 0)
(-0.04546076534396214 0 0)
(-0.03147934372099394 0 0)
(-0.01590071027536426 0 0)
(0.001142065972520289 0 0)
(0.01945238035333334 0 0)
(0.03870757855736469 0 0)
(0.05826834589521016 0 0)
(0.07674915127334202 0 0)
(0.09150334648126504 0 0)
(0.0996076789166883 0 0)
(0.1017538766468699 0 0)
(0.1018929052529488 0 0)
(0.1018449057193382 0 0)
(0.1016482370063658 0 0)
(0.1011171878288331 0 0)
(0.1000663874547218 0 0)
(0.09828746884718005 0 0)
(0.09556930851528789 0 0)
(0.09170353603377461 0 0)
(0.08649280644776439 0 0)
(0.07975894848952704 0 0)
(0.07135153260159065 0 0)
(0.06115644241886607 0 0)
(0.04910387817028563 0 0)
(0.03517526167871255 0 0)
(0.01940973869208339 0 0)
(0.001914481198825046 0 0)
(-0.01710796714125574 0 0)
(-0.03727836020870508 0 0)
(-0.05781713470525582 0 0)
(-0.07705439014727615 0 0)
(-0.09195025897097875 0 0)
(-0.09958598574457862 0 0)
(-0.1013656469392265 0 0)
(-0.1014497497287092 0 0)
(-0.1014006505002917 0 0)
(-0.101174867445192 0 0)
(-0.1006037139222194 0 0)
(-0.09949620883843693 0 0)
(-0.09765169495579754 0 0)
(-0.09486988451833074 0 0)
(-0.09095948341727508 0 0)
(-0.08574594379894258 0 0)
(-0.07907911790861696 0 0)
(-0.07084038692529551 0 0)
(-0.06094875532592591 0 0)
(-0.04936553857610108 0 0)
(-0.03609739916535779 0 0)
(-0.02119784987992364 0 0)
(-0.004769410731385579 0 0)
(0.01302508016116988 0 0)
(0.03191806067102727 0 0)
(0.05140046227097355 0 0)
(0.0703782710164054 0 0)
(0.08660788052430904 0 0)
(0.09692495885567991 0 0)
(0.1005120395885291 0 0)
(0.1009177662744461 0 0)
(0.1009002819013779 0 0)
(0.1007688311294206 0 0)
(0.1003698207199957 0 0)
(0.0995198337990396 0 0)
(0.09801871335994902 0 0)
(0.09565946817949735 0 0)
(0.09223571060929363 0 0)
(0.08754931198537508 0 0)
(0.08141762082132337 0 0)
(0.07368095261611053 0 0)
(0.06421067094064171 0 0)
(0.05291718590957436 0 0)
(0.03975693626524264 0 0)
(0.02473924185251833 0 0)
(0.00793681421344457 0 0)
(-0.01049153518217068 0 0)
(-0.03024117995384368 0 0)
(-0.0506958530703133 0 0)
(-0.07052723413352716 0 0)
(-0.08710803742881779 0 0)
(-0.09707885889861276 0 0)
(-0.1001958839517912 0 0)
(-0.1004838254621241 0 0)
(-0.1004617929972006 0 0)
(-0.10030800728168 0 0)
(-0.09987167146581422 0 0)
(-0.09896544027452724 0 0)
(-0.09739509282839666 0 0)
(-0.09496360954832055 0 0)
(-0.09148024026702965 0 0)
(-0.08676769135385101 0 0)
(-0.08066968340251163 0 0)
(-0.07305761784136559 0 0)
(-0.06383589097738626 0 0)
(-0.05294715519814574 0 0)
(-0.04037755731234147 0 0)
(-0.026159516020815 0 0)
(-0.01037229046866043 0 0)
(0.006850384219449788 0 0)
(0.02528691697767812 0 0)
(0.04452893485528251 0 0)
(0.0637227968296538 0 0)
(0.08105801184158919 0 0)
(0.09347500247617359 0 0)
(0.09894190679949656 0 0)
(0.09991706045946855 0 0)
(0.09997759866701728 0 0)
(0.09993804914717606 0 0)
(0.09968152807291893 0 0)
(0.09902668206252117 0 0)
(0.09776615044961624 0 0)
(0.09569311076736323 0 0)
(0.09260643020399101 0 0)
(0.08831812059247444 0 0)
(0.08265780851207909 0 0)
(0.07547768440239519 0 0)
(0.06665770643327555 0 0)
(0.0561085276647084 0 0)
(0.04377215911441482 0 0)
(0.0296267676028935 0 0)
(0.01369948648995027 0 0)
(-0.0039153904413594 0 0)
(-0.0230027063064365 0 0)
(-0.04309208146155282 0 0)
(-0.06317665589492015 0 0)
(-0.08099205318140326 0 0)
(-0.0932168599022158 0 0)
(-0.09829831654163404 0 0)
(-0.09922646136026796 0 0)
(-0.09934204161392854 0 0)
(-0.09921527361105306 0 0)
(-0.09878128283895178 0 0)
(-0.09788915898099564 0 0)
(-0.09637364764731929 0 0)
(-0.09406320109577115 0 0)
(-0.09078724221340745 0 0)
(-0.08639298255220942 0 0)
(-0.0807525618711547 0 0)
(-0.07375898255520104 0 0)
(-0.06532138028941405 0 0)
(-0.05536753049872859 0 0)
(-0.04385086075993572 0 0)
(-0.0307572479483878 0 0)
(-0.01611074608011214 0 0)
(1.949361116875946e-05 0 0)
(0.0174879050218738 0 0)
(0.03599861046424693 0 0)
(0.05492250407063845 0 0)
(0.07277590840526264 0 0)
(0.08664228817869149 0 0)
(0.0942063734226114 0 0)
(0.09665626728519469 0 0)
(0.09698012013422463 0 0)
(0.09707103937239515 0 0)
(0.09686394537953524 0 0)
(0.09625659414623564 0 0)
(0.09511052508813307 0 0)
(0.09326854730578131 0 0)
(0.09053406729281573 0 0)
(0.08670857470588671 0 0)
(0.08162518203081556 0 0)
(0.07514722785156137 0 0)
(0.06715358346506591 0 0)
(0.05753522451609249 0 0)
(0.04620456002610498 0 0)
(0.03310728140344469 0 0)
(0.01823121833992403 0 0)
(0.00162397215194894 0 0)
(-0.01654610534039528 0 0)
(-0.03588861267857683 0 0)
(-0.05561325467526022 0 0)
(-0.07399687943350983 0 0)
(-0.08790704447578572 0 0)
(-0.09505745125408076 0 0)
(-0.09722262268776698 0 0)
(-0.0974054393512299 0 0)
(-0.0974412870619368 0 0)
(-0.09716011578792334 0 0)
(-0.09645669044831819 0 0)
(-0.09520690320616663 0 0)
(-0.09326090218360975 0 0)
(-0.09043132180675088 0 0)
(-0.08654016996615881 0 0)
(-0.081439784373319 0 0)
(-0.07500907075457899 0 0)
(-0.06714883205574301 0 0)
(-0.05778434365413705 0 0)
(-0.04686937489478903 0 0)
(-0.03438827694009555 0 0)
(-0.02035697517508488 0 0)
(-0.004827010500037632 0 0)
(0.01207832972114495 0 0)
(0.03007882530992384 0 0)
(0.04864909705192751 0 0)
(0.06675355302237616 0 0)
(0.08216893285265925 0 0)
(0.09190815217066954 0 0)
(0.09586481424729135 0 0)
(0.09660090920054837 0 0)
(0.09676219312238203 0 0)
(0.09665199198492416 0 0)
(0.0961971743503901 0 0)
(0.09522528340305478 0 0)
(0.09359985926779366 0 0)
(0.09115115544345723 0 0)
(0.0876973993212149 0 0)
(0.08306998726586977 0 0)
(0.07711657631799684 0 0)
(0.06969782749850029 0 0)
(0.06069157061454497 0 0)
(0.05000094195027605 0 0)
(0.03756368301524258 0 0)
(0.02336187265824491 0 0)
(0.007432432302456194 0 0)
(-0.01008957728221538 0 0)
(-0.02887303599607058 0 0)
(-0.04829067725396553 0 0)
(-0.06711302201941037 0 0)
(-0.08279828593726664 0 0)
(-0.09222670586148787 0 0)
(-0.0957148483902409 0 0)
(-0.09631112226131282 0 0)
(-0.09640044182012478 0 0)
(-0.09624065107035173 0 0)
(-0.09572379010471548 0 0)
(-0.09469175821994261 0 0)
(-0.09300584567153565 0 0)
(-0.09049357132161112 0 0)
(-0.08698764104003187 0 0)
(-0.08234550887819436 0 0)
(-0.07644266450362182 0 0)
(-0.06916589171579821 0 0)
(-0.06041902827550512 0 0)
(-0.05013427629840977 0 0)
(-0.03828108772555911 0 0)
(-0.02487006835388591 0 0)
(-0.009953730654689319 0 0)
(0.006355160644936396 0 0)
(0.02382305866716449 0 0)
(0.04202517316865905 0 0)
(0.06018804054592131 0 0)
(0.07663572477151155 0 0)
(0.08846630915558835 0 0)
(0.09413875131591605 0 0)
(0.09570290009735827 0 0)
(0.09585244571299488 0 0)
(0.09589584345004316 0 0)
(0.09560603727156342 0 0)
(0.09484834272079005 0 0)
(0.09348104007036621 0 0)
(0.0913349411830244 0 0)
(0.08823012264246689 0 0)
(0.08400662269605391 0 0)
(0.0785249765524875 0 0)
(0.07165207141849016 0 0)
(0.06325810158946918 0 0)
(0.05322839848815284 0 0)
(0.04148037669133832 0 0)
(0.02797845596271349 0 0)
(0.01274622641906423 0 0)
(-0.00410797735401633 0 0)
(-0.02232076616814768 0 0)
(-0.04138403943854303 0 0)
(-0.06036081753725817 0 0)
(-0.07727795794720811 0 0)
(-0.08898185633592692 0 0)
(-0.09415954886965631 0 0)
(-0.09546351162118211 0 0)
(-0.09550353211800976 0 0)
(-0.09550712800343804 0 0)
(-0.09515556927688026 0 0)
(-0.09434174638085945 0 0)
(-0.09292345969874431 0 0)
(-0.09072276694400563 0 0)
(-0.08756725219699218 0 0)
(-0.08331913108230148 0 0)
(-0.07786620202018689 0 0)
(-0.07110426103591326 0 0)
(-0.06293444190657035 0 0)
(-0.05327372473942821 0 0)
(-0.04206862629394042 0 0)
(-0.02930722248516681 0 0)
(-0.01502677024540419 0 0)
(0.0006785210582210534 0 0)
(0.01761770754053122 0 0)
(0.03542853216821578 0 0)
(0.05348270586161843 0 0)
(0.07055052980334893 0 0)
(0.0842059071298142 0 0)
(0.0918752578034084 0 0)
(0.09447916181076577 0 0)
(0.09483432301349151 0 0)
(0.09495642347727019 0 0)
(0.09479815864188136 0 0)
(0.09426138786530694 0 0)
(0.09316281414160664 0 0)
(0.09133270840067378 0 0)
(0.08858303362719248 0 0)
(0.08474848258271582 0 0)
(0.07969445031320137 0 0)
(0.07330075100826149 0 0)
(0.06545169593988476 0 0)
(0.05603894923921997 0 0)
(0.04497004367258139 0 0)
(0.03218386229580576 0 0)
(0.01767300749411661 0 0)
(0.001507241642465348 0 0)
(-0.0161135228769669 0 0)
(-0.03476636458601397 0 0)
(-0.05369617194544754 0 0)
(-0.07141941775692874 0 0)
(-0.08514681876967231 0 0)
(-0.09233827401987904 0 0)
(-0.09449007174833829 0 0)
(-0.09474207921742185 0 0)
(-0.09476885319028677 0 0)
(-0.09454792412561606 0 0)
(-0.09394772108132171 0 0)
(-0.09280602234250007 0 0)
(-0.09093809659087226 0 0)
(-0.08815241727053148 0 0)
(-0.08429563341806692 0 0)
(-0.07925606689680416 0 0)
(-0.0729450977943599 0 0)
(-0.06528311013523543 0 0)
(-0.05619680131597538 0 0)
(-0.04562482267805415 0 0)
(-0.03353088129525453 0 0)
(-0.01992085642886823 0 0)
(-0.0048557910978803 0 0)
(0.01151902213155798 0 0)
(0.02890508349741442 0 0)
(0.04678322905393991 0 0)
(0.06420572126502787 0 0)
(0.07921104941522965 0 0)
(0.08899940449479643 0 0)
(0.09296320376308106 0 0)
(0.09383959469748633 0 0)
(0.0938315912711211 0 0)
(0.09380543940117678 0 0)
(0.0934392031186906 0 0)
(0.09260504780915753 0 0)
(0.09111749443054397 0 0)
(0.08876129795005604 0 0)
(0.08534128080795926 0 0)
(0.08070959397311224 0 0)
(0.07475612756797842 0 0)
(0.0673886083246026 0 0)
(0.05852124298626919 0 0)
(0.0480746556547207 0 0)
(0.03598366134774332 0 0)
(0.02221474322117732 0 0)
(0.006790445164236113 0 0)
(-0.01016559233857637 0 0)
(-0.02833051885973906 0 0)
(-0.04708529101528306 0 0)
(-0.06527786204734744 0 0)
(-0.08059479701783277 0 0)
(-0.09005582166645419 0 0)
(-0.09353068676263816 0 0)
(-0.09419608622771576 0 0)
(-0.09408003470797555 0 0)
(-0.09394933377856778 0 0)
(-0.09348938438660531 0 0)
(-0.09259271690122584 0 0)
(-0.09106760253987775 0 0)
(-0.08869164231274368 0 0)
(-0.08527037524043601 0 0)
(-0.08066297213920519 0 0)
(-0.07477558042650015 0 0)
(-0.06754738836071002 0 0)
(-0.05893764061794184 0 0)
(-0.04891435648594447 0 0)
(-0.03744862220591477 0 0)
(-0.02452306587631315 0 0)
(-0.01015375982413776 0 0)
(0.005577716728501208 0 0)
(0.02245437382062456 0 0)
(0.0400478867768984 0 0)
(0.05761095414474686 0 0)
(0.07361468878196623 0 0)
(0.08542166514470118 0 0)
(0.09122140003646796 0 0)
(0.09272020458255983 0 0)
(0.09281762790877052 0 0)
(0.09271326210482025 0 0)
(0.09241051745082872 0 0)
(0.0917658900012778 0 0)
(0.09059818026730077 0 0)
(0.08867708458246953 0 0)
(0.08575835445367927 0 0)
(0.08163276941653121 0 0)
(0.07614979383960946 0 0)
(0.06921860453802565 0 0)
(0.06079405459392272 0 0)
(0.05085179873338384 0 0)
(0.03936533887864815 0 0)
(0.0263020457291847 0 0)
(0.01164845112105597 0 0)
(-0.004546256399936536 0 0)
(-0.022082403579674 0 0)
(-0.04049164829373854 0 0)
(-0.05888081721049233 0 0)
(-0.0754001356699784 0 0)
(-0.08708004792416288 0 0)
(-0.09245035459651808 0 0)
(-0.09369223941092657 0 0)
(-0.09370369140770521 0 0)
(-0.0934650908965113 0 0)
(-0.09300645181851357 0 0)
(-0.09221773120082312 0 0)
(-0.09095493589105859 0 0)
(-0.08900516855235324 0 0)
(-0.08612008737682844 0 0)
(-0.08207230572727026 0 0)
(-0.07669221579255257 0 0)
(-0.06988797508512049 0 0)
(-0.06164743709499706 0 0)
(-0.05201233163744384 0 0)
(-0.04103292099465913 0 0)
(-0.0287285445231598 0 0)
(-0.01508632099838282 0 0)
(-0.0001009565165424782 0 0)
(0.01613539537266157 0 0)
(0.03330775785439063 0 0)
(0.05081391340064467 0 0)
(0.06747618846345237 0 0)
(0.0809677857202292 0 0)
(0.08890028810916684 0 0)
(0.09162163411097846 0 0)
(0.09200484444109434 0 0)
(0.09182396325507369 0 0)
(0.09149700307404475 0 0)
(0.09082859291844871 0 0)
(0.08974246864196506 0 0)
(0.08810425933680753 0 0)
(0.08570075560941015 0 0)
(0.08226895471076245 0 0)
(0.07753697117145207 0 0)
(0.07126710720528361 0 0)
(0.06330026008736893 0 0)
(0.05360158296032502 0 0)
(0.04229338230081597 0 0)
(0.02962293579595775 0 0)
(0.01577451538314946 0 0)
(0.0007079429925112518 0 0)
(-0.0160520228538874 0 0)
(-0.03342954495808392 0 0)
(-0.0543677275314253 0 0)
)
;

boundaryField
{
    inlet
    {
        type            zeroGradient;
    }
    outlet
    {
        type            velocityOutletNSCBCx;
        pInf            101325;
        gamma           1.4;
        etaAc           1;
        fieldInf        (-1 0 0);
        lInf            2.25;
        value           uniform (-0.06192846376545279 0 0);
    }
    frontAndBack
    {
        type            empty;
    }
}


// ************************************************************************* //
