/*--------------------------------*- C++ -*----------------------------------*\
| =========                 |                                                 |
| \\      /  F ield         | OpenFOAM: The Open Source CFD Toolbox           |
|  \\    /   O peration     | Version:  v2012                                 |
|   \\  /    A nd           | Website:  www.openfoam.com                      |
|    \\/     M anipulation  |                                                 |
\*---------------------------------------------------------------------------*/
FoamFile
{
    version     2.0;
    format      ascii;
    class       volVectorField;
    location    "0.0095";
    object      UMean;
}
// * * * * * * * * * * * * * * * * * * * * * * * * * * * * * * * * * * * * * //

dimensions      [0 1 -1 0 0 0 0];


internalField   nonuniform List<vector> 
1000
(
(0.001374943298997672 0 0)
(0.001314048538578377 0 0)
(0.001314071480800298 0 0)
(0.001275457341658799 0 0)
(0.001233246206725452 0 0)
(0.001170256059971815 0 0)
(0.001103489802427414 0 0)
(0.001025509471688572 0 0)
(0.0009449116585059206 0 0)
(0.00085752201322877 0 0)
(0.000767808738842925 0 0)
(0.0006767663860825474 0 0)
(0.0005861312382118114 0 0)
(0.0004966649102361127 0 0)
(0.000409833129042984 0 0)
(0.0003275001810812867 0 0)
(0.0002512906358538662 0 0)
(0.0001828750957604851 0 0)
(0.0001234578265268247 0 0)
(7.413225292652276e-05 0 0)
(3.574634684981881e-05 0 0)
(8.952732233031368e-06 0 0)
(-5.6419306732264e-06 0 0)
(-7.845382734696091e-06 0 0)
(2.527396959855148e-06 0 0)
(2.515934923262763e-05 0 0)
(5.97389169386748e-05 0 0)
(0.000105518810647882 0 0)
(0.0001618741942279476 0 0)
(0.0002280218321575373 0 0)
(0.0003033165589541372 0 0)
(0.0003863426904286876 0 0)
(0.0004742585402734216 0 0)
(0.0005635955553112979 0 0)
(0.0006529686911369628 0 0)
(0.0007419987852559626 0 0)
(0.0008302052815388086 0 0)
(0.0009163916778547505 0 0)
(0.0009992010048769863 0 0)
(0.001076704956571019 0 0)
(0.001147223581149759 0 0)
(0.001208925822420108 0 0)
(0.001260648725867568 0 0)
(0.001301244592515007 0 0)
(0.0013302094915966 0 0)
(0.001346960236850977 0 0)
(0.001351428217667933 0 0)
(0.001343419869006277 0 0)
(0.001323245278953837 0 0)
(0.00129108491991739 0 0)
(0.001247542408739002 0 0)
(0.001192958392775913 0 0)
(0.001127950032582918 0 0)
(0.001053132851847869 0 0)
(0.0009704864390661833 0 0)
(0.0008833515077148029 0 0)
(0.0007952095316564736 0 0)
(0.0007070071265808202 0 0)
(0.0006190978491679257 0 0)
(0.000531917281465969 0 0)
(0.0004463461992521259 0 0)
(0.0003636278940958274 0 0)
(0.0002853467431520959 0 0)
(0.0002132646403653929 0 0)
(0.0001491813095146414 0 0)
(9.468063179685673e-05 0 0)
(5.108502355484474e-05 0 0)
(1.928349901939158e-05 0 0)
(-1.504422119271612e-07 0 0)
(-7.002865446190618e-06 0 0)
(-1.258764266766964e-06 0 0)
(1.68924370960671e-05 0 0)
(4.718246102963131e-05 0 0)
(8.924541336153362e-05 0 0)
(0.0001427793539293494 0 0)
(0.0002073448540784465 0 0)
(0.0002820498117115859 0 0)
(0.0003645774848343178 0 0)
(0.0004510982203668955 0 0)
(0.000538455845284522 0 0)
(0.0006257954651343069 0 0)
(0.0007128409481120289 0 0)
(0.0007992911270285497 0 0)
(0.0008841871386612731 0 0)
(0.0009666162139059731 0 0)
(0.001044951259310523 0 0)
(0.001117749968851913 0 0)
(0.001183069906172552 0 0)
(0.001239453823895352 0 0)
(0.001285258794429645 0 0)
(0.001319592072571605 0 0)
(0.00134153616482924 0 0)
(0.001350961152353254 0 0)
(0.001347623094975068 0 0)
(0.001331895707624652 0 0)
(0.001303844869982902 0 0)
(0.001263962745471147 0 0)
(0.001212311295125931 0 0)
(0.001149451679101445 0 0)
(0.001076072907207353 0 0)
(0.0009947057571356602 0 0)
(0.0009090799234876909 0 0)
(0.00082263988317008 0 0)
(0.0007361122451846876 0 0)
(0.0006498544465319576 0 0)
(0.000564123110411768 0 0)
(0.0004796629166200739 0 0)
(0.000397388737590404 0 0)
(0.0003186380899672706 0 0)
(0.0002448807731498763 0 0)
(0.000177853650939993 0 0)
(0.0001191908461799766 0 0)
(7.05368719421777e-05 0 0)
(3.312621624776222e-05 0 0)
(7.992964271958392e-06 0 0)
(-4.386308327114239e-06 0 0)
(-3.720346898206424e-06 0 0)
(9.826139528712493e-06 0 0)
(3.611756844036269e-05 0 0)
(7.478810431106836e-05 0 0)
(0.0001256560901340806 0 0)
(0.0001882234323199347 0 0)
(0.0002614678099857934 0 0)
(0.0003426658721005689 0 0)
(0.000427757655223452 0 0)
(0.000513590619701339 0 0)
(0.0005994473022596884 0 0)
(0.0006850346554676547 0 0)
(0.0007701780656160826 0 0)
(0.0008540406986809754 0 0)
(0.0009359468477022457 0 0)
(0.001014470267393982 0 0)
(0.001088432171916156 0 0)
(0.001156000613810126 0 0)
(0.001215777889613277 0 0)
(0.001265964001138695 0 0)
(0.001305427654901472 0 0)
(0.001332888756514748 0 0)
(0.001347877857429977 0 0)
(0.001349849099712473 0 0)
(0.001338978150255295 0 0)
(0.001315204112781966 0 0)
(0.001278978929816566 0 0)
(0.001230345262314428 0 0)
(0.001169931836297068 0 0)
(0.001098509961329428 0 0)
(0.001018801369396215 0 0)
(0.0009346384956795807 0 0)
(0.000849595703309501 0 0)
(0.0007644229575871145 0 0)
(0.0006794923530682076 0 0)
(0.0005949352563570027 0 0)
(0.000511425188206208 0 0)
(0.0004296451891001518 0 0)
(0.0003507907581968102 0 0)
(0.00027606555317078 0 0)
(0.0002071006113713177 0 0)
(0.0001453956856304096 0 0)
(9.268207054908936e-05 0 0)
(5.032041948734552e-05 0 0)
(1.967209469011296e-05 0 0)
(1.529013461004969e-06 0 0)
(-3.422898769835241e-06 0 0)
(4.916863106970203e-06 0 0)
(2.666562090405201e-05 0 0)
(6.152492349238535e-05 0 0)
(0.0001093804554225001 0 0)
(0.0001695976829817662 0 0)
(0.0002410618118220538 0 0)
(0.0003207699875130701 0 0)
(0.0004045590789155932 0 0)
(0.000489111708116805 0 0)
(0.0005737321057969484 0 0)
(0.0006581065776272266 0 0)
(0.0007421522704018516 0 0)
(0.0008251241394940178 0 0)
(0.0009064960892189243 0 0)
(0.0009850143341434059 0 0)
(0.001059671989260414 0 0)
(0.001128800330542637 0 0)
(0.001191100505062831 0 0)
(0.001244780600879291 0 0)
(0.00128862377889083 0 0)
(0.001321131021211255 0 0)
(0.001341571561831507 0 0)
(0.001349051550360188 0 0)
(0.001343477573613123 0 0)
(0.001324512858259675 0 0)
(0.001292491102754531 0 0)
(0.00124736349947276 0 0)
(0.001189802374985661 0 0)
(0.001120629646681241 0 0)
(0.00104267232798378 0 0)
(0.0009598747851665625 0 0)
(0.000876029030922464 0 0)
(0.000792019167389958 0 0)
(0.0007082245224781203 0 0)
(0.000624692982729166 0 0)
(0.0005420332968425506 0 0)
(0.0004607694205600623 0 0)
(0.0003819715613945794 0 0)
(0.0003066481988440241 0 0)
(0.0002363033563131073 0 0)
(0.0001722915981147137 0 0)
(0.0001163279415173972 0 0)
(6.978925184205585e-05 0 0)
(3.422451647512715e-05 0 0)
(1.063606029369731e-05 0 0)
(5.754264224008098e-08 0 0)
(2.882791869068332e-06 0 0)
(1.955878549345623e-05 0 0)
(4.998468615193792e-05 0 0)
(9.419701493590255e-05 0 0)
(0.0001515609603903564 0 0)
(0.0002209061456126254 0 0)
(0.0002990408138028242 0 0)
(0.0003816044418305148 0 0)
(0.0004650444862844658 0 0)
(0.0005485794221414371 0 0)
(0.0006319006270960638 0 0)
(0.0007149744779655331 0 0)
(0.000797144558808513 0 0)
(0.0008779879849760019 0 0)
(0.0009563905234673099 0 0)
(0.001031485766996322 0 0)
(0.001101751973544756 0 0)
(0.001166001888176909 0 0)
(0.001222504895856655 0 0)
(0.001270034795328398 0 0)
(0.00130698757624494 0 0)
(0.001332454956700405 0 0)
(0.001345282380336333 0 0)
(0.001345101075218321 0 0)
(0.001331295594514021 0 0)
(0.001303975644845083 0 0)
(0.001262933483973427 0 0)
(0.001208758229805127 0 0)
(0.001142244623970922 0 0)
(0.001066230935017099 0 0)
(0.000984791443843578 0 0)
(0.0009020255942006256 0 0)
(0.000819047657191077 0 0)
(0.0007362608090781002 0 0)
(0.000653654183342908 0 0)
(0.0005717748250544201 0 0)
(0.0004910305432884233 0 0)
(0.0004123884640977828 0 0)
(0.0003366969124908448 0 0)
(0.0002653458005300531 0 0)
(0.0001995437843894303 0 0)
(0.0001409516308506493 0 0)
(9.090905081136528e-05 0 0)
(5.105002164763333e-05 0 0)
(2.251235093083266e-05 0 0)
(6.575620792092356e-06 0 0)
(3.90088283097968e-06 0 0)
(1.524848781905383e-05 0 0)
(4.077142784363458e-05 0 0)
(8.07344131836983e-05 0 0)
(0.0001346143912422512 0 0)
(0.0002013232471751867 0 0)
(0.0002776163744548008 0 0)
(0.0003589494893433232 0 0)
(0.0004413815054119998 0 0)
(0.0005239542400620156 0 0)
(0.0006063283137905433 0 0)
(0.0006885367020799157 0 0)
(0.0007699628860537751 0 0)
(0.0008502975369544806 0 0)
(0.0009285105732454685 0 0)
(0.001003883495783347 0 0)
(0.001074994990785516 0 0)
(0.001140790576084556 0 0)
(0.00119960175098463 0 0)
(0.001250244845390717 0 0)
(0.001291071536016487 0 0)
(0.001321068829685482 0 0)
(0.001338904727204728 0 0)
(0.001343978828933241 0 0)
(0.001335429592131586 0 0)
(0.001313118309476353 0 0)
(0.001276639536581163 0 0)
(0.001226405860807407 0 0)
(0.001163086897035209 0 0)
(0.001089377107291718 0 0)
(0.001009404977435721 0 0)
(0.0009276527741636747 0 0)
(0.0008456132843754754 0 0)
(0.0007637409358170523 0 0)
(0.0006819862945328052 0 0)
(0.0006008372449978803 0 0)
(0.000520618143570378 0 0)
(0.0004421939127727554 0 0)
(0.000366298328859813 0 0)
(0.0002941969080654566 0 0)
(0.0002269906030243601 0 0)
(0.0001662434846374245 0 0)
(0.0001132571266142598 0 0)
(6.966782417280133e-05 0 0)
(3.670783822072722e-05 0 0)
(1.579875550936427e-05 0 0)
(7.834409015533129e-06 0 0)
(1.381452232418784e-05 0 0)
(3.417408953368443e-05 0 0)
(6.939945866800994e-05 0 0)
(0.0001192006458407327 0 0)
(0.0001826595152407969 0 0)
(0.0002567112120603962 0 0)
(0.0003366761055606207 0 0)
(0.0004181617435283126 0 0)
(0.0004998311794508821 0 0)
(0.0005813462260170374 0 0)
(0.0006627364810673072 0 0)
(0.0007434817799208401 0 0)
(0.0008233035136042223 0 0)
(0.0009013031618681085 0 0)
(0.0009768212934020755 0 0)
(0.001048587571196733 0 0)
(0.001115608608352538 0 0)
(0.001176341001247754 0 0)
(0.001229613859379883 0 0)
(0.001273818100818108 0 0)
(0.001307852416292518 0 0)
(0.001330298437601366 0 0)
(0.001340359919400709 0 0)
(0.001336992196144913 0 0)
(0.001319817629234394 0 0)
(0.001288230950878181 0 0)
(0.001242429299228646 0 0)
(0.001182859427336059 0 0)
(0.001111934110786645 0 0)
(0.001033661994937205 0 0)
(0.0009529361225508001 0 0)
(0.0008717716140343415 0 0)
(0.0007907598789730707 0 0)
(0.0007098036008241241 0 0)
(0.000629356699930661 0 0)
(0.0005496563328918195 0 0)
(0.0004715007381752595 0 0)
(0.0003955069383098578 0 0)
(0.0003228552007771361 0 0)
(0.000254521745823242 0 0)
(0.0001920030223793964 0 0)
(0.000136514927792049 0 0)
(8.969869324188663e-05 0 0)
(5.279724942730898e-05 0 0)
(2.735297988460967e-05 0 0)
(1.438988185076319e-05 0 0)
(1.513427059322711e-05 0 0)
(3.022350467362189e-05 0 0)
(6.040383184062412e-05 0 0)
(0.0001056049070390101 0 0)
(0.0001652236106875155 0 0)
(0.0002365028886209919 0 0)
(0.0003148672611301565 0 0)
(0.0003953826220001233 0 0)
(0.000476211139742617 0 0)
(0.0005568980350865521 0 0)
(0.0006375206895972195 0 0)
(0.0007175935523234684 0 0)
(0.0007969147858566333 0 0)
(0.0008746498918044839 0 0)
(0.0009502362465512864 0 0)
(0.001022489840237294 0 0)
(0.001090513568283119 0 0)
(0.001152846028963245 0 0)
(0.001208373214851086 0 0)
(0.001255519032278256 0 0)
(0.001293152253381378 0 0)
(0.00131980072721531 0 0)
(0.001334531729270765 0 0)
(0.001336166233292015 0 0)
(0.001324115797721579 0 0)
(0.001297609340948921 0 0)
(0.001256596471849962 0 0)
(0.001201286329831339 0 0)
(0.001133658537925801 0 0)
(0.001057451970398926 0 0)
(0.0009778259373344105 0 0)
(0.0008975199068100953 0 0)
(0.0008173197481159298 0 0)
(0.0007371461668381087 0 0)
(0.0006573751829654005 0 0)
(0.000578212517985295 0 0)
(0.0005003538393628261 0 0)
(0.0004243626448521503 0 0)
(0.0003512967632740918 0 0)
(0.00028207172273841 0 0)
(0.0002180652904086081 0 0)
(0.0001604586967074084 0 0)
(0.0001108217684725719 0 0)
(7.043324605377539e-05 0 0)
(4.085402256113604e-05 0 0)
(2.324295603056799e-05 0 0)
(1.894336478970087e-05 0 0)
(2.880504494542044e-05 0 0)
(5.375218074577639e-05 0 0)
(9.398651837002582e-05 0 0)
(0.0001492143448876349 0 0)
(0.000217167164882314 0 0)
(0.0002935547389895836 0 0)
(0.0003730309517169431 0 0)
(0.0004530404473385403 0 0)
(0.0005329391866095688 0 0)
(0.0006128094759253416 0 0)
(0.0006922271481998077 0 0)
(0.0007710343103368272 0 0)
(0.0008484728220687971 0 0)
(0.0009240502853946075 0 0)
(0.0009966678840530906 0 0)
(0.001065511008307136 0 0)
(0.001129192664121956 0 0)
(0.001186665894824617 0 0)
(0.00123638557370887 0 0)
(0.001277235275242748 0 0)
(0.00130769575435497 0 0)
(0.001326772669585443 0 0)
(0.001333157208122539 0 0)
(0.001326136871011243 0 0)
(0.001304753770067566 0 0)
(0.00126878096207891 0 0)
(0.001218123408758833 0 0)
(0.001154339952673832 0 0)
(0.00108064542813495 0 0)
(0.001002321955144769 0 0)
(0.0009228410653316407 0 0)
(0.000843433028628753 0 0)
(0.0007640079978640136 0 0)
(0.0006849116746165624 0 0)
(0.0006062916487890491 0 0)
(0.0005287778657611332 0 0)
(0.000452860883184758 0 0)
(0.0003795147552515433 0 0)
(0.0003095737718246826 0 0)
(0.0002443314390573654 0 0)
(0.0001849046322195101 0 0)
(0.0001328094769178849 0 0)
(8.931258966433719e-05 0 0)
(5.59872334372892e-05 0 0)
(3.406267902444128e-05 0 0)
(2.497604870414831e-05 0 0)
(2.972571186830142e-05 0 0)
(4.939742772290147e-05 0 0)
(8.442953950788735e-05 0 0)
(0.0001348517815875586 0 0)
(0.0001989336246169652 0 0)
(0.0002728814117919895 0 0)
(0.0003511426180905642 0 0)
(0.0004303285547123098 0 0)
(0.0005094521348360417 0 0)
(0.0005885677167620612 0 0)
(0.0006673309328368664 0 0)
(0.0007455958583472015 0 0)
(0.0008227067662921693 0 0)
(0.0008981980102532591 0 0)
(0.0009710850324034653 0 0)
(0.001040585496767238 0 0)
(0.001105424717768488 0 0)
(0.00116457507855922 0 0)
(0.001216577061825135 0 0)
(0.001260292119138997 0 0)
(0.001294231976116293 0 0)
(0.001317317073037203 0 0)
(0.001328202433397463 0 0)
(0.001326027445844786 0 0)
(0.001309741722365963 0 0)
(0.001278907745422206 0 0)
(0.001233211155017095 0 0)
(0.001173720798017447 0 0)
(0.001103074617801323 0 0)
(0.001026335893896312 0 0)
(0.0009477348486394607 0 0)
(0.0008690827984802943 0 0)
(0.0007903998115832203 0 0)
(0.0007119714577788704 0 0)
(0.0006339156083920874 0 0)
(0.0005567825701444879 0 0)
(0.0004810145422838495 0 0)
(0.0004074927899864577 0 0)
(0.0003369927350604601 0 0)
(0.000270715356569251 0 0)
(0.0002097263339058356 0 0)
(0.0001554725872398191 0 0)
(0.0001092041326600721 0 0)
(7.247808083700229e-05 0 0)
(4.656848221895456e-05 0 0)
(3.296601860623528e-05 0 0)
(3.278025012802282e-05 0 0)
(4.722242460176106e-05 0 0)
(7.693208183511606e-05 0 0)
(0.000122236359961564 0 0)
(0.0001819413230059601 0 0)
(0.0002529124558953356 0 0)
(0.0003296816732517313 0 0)
(0.0004080258705022718 0 0)
(0.0004863919144779369 0 0)
(0.0005647696130180761 0 0)
(0.0006428768419062342 0 0)
(0.0007205859447003155 0 0)
(0.0007973298296563672 0 0)
(0.00087267261540579 0 0)
(0.0009457285319573078 0 0)
(0.00101575164870583 0 0)
(0.001081565681253512 0 0)
(0.001142171632054984 0 0)
(0.001196188211098644 0 0)
(0.001242475267633651 0 0)
(0.001279580650602783 0 0)
(0.001306373306631555 0 0)
(0.001321486534412153 0 0)
(0.001323952636524417 0 0)
(0.001312645287278073 0 0)
(0.001286956882478668 0 0)
(0.00124637306489888 0 0)
(0.001191525883643792 0 0)
(0.001124433046844451 0 0)
(0.001049696562899052 0 0)
(0.0009720977659106577 0 0)
(0.0008942147756267598 0 0)
(0.0008162818573296875 0 0)
(0.0007385519064983036 0 0)
(0.0006610859163873781 0 0)
(0.000584392872480102 0 0)
(0.0005088348495155781 0 0)
(0.0004352446847336174 0 0)
(0.000364307359098646 0 0)
(0.000297175131172022 0 0)
(0.000234827666346079 0 0)
(0.0001786795255050405 0 0)
(0.0001299202343025879 0 0)
(9.01109366141005e-05 0 0)
(6.051371695370109e-05 0 0)
(4.267880394170607e-05 0 0)
(3.776505534238323e-05 0 0)
(4.710384470150797e-05 0 0)
(7.147108788664122e-05 0 0)
(0.0001114731140755151 0 0)
(0.0001663879124055018 0 0)
(0.0002338239052519065 0 0)
(0.0003086945850401776 0 0)
(0.0003861129611675665 0 0)
(0.000463733849194754 0 0)
(0.000541394812865393 0 0)
(0.0006188271712133017 0 0)
(0.0006959791881401631 0 0)
(0.000772301473137925 0 0)
(0.000847451426462542 0 0)
(0.0009205729122491049 0 0)
(0.0009910144052829091 0 0)
(0.001057633825240541 0 0)
(0.001119516807714375 0 0)
(0.001175306221323033 0 0)
(0.001223919570966643 0 0)
(0.001263899506553655 0 0)
(0.001294129942302481 0 0)
(0.00131319723441278 0 0)
(0.00132009778677991 0 0)
(0.001313610938595385 0 0)
(0.001293031905124341 0 0)
(0.001257648662215945 0 0)
(0.001207751872569895 0 0)
(0.001144712161819696 0 0)
(0.001072486813686749 0 0)
(0.0009960649600139827 0 0)
(0.0009189393482339856 0 0)
(0.0008417234840688891 0 0)
(0.0007646663423007521 0 0)
(0.000687800041376253 0 0)
(0.0006115600927522669 0 0)
(0.0005362761740847156 0 0)
(0.0004626906678671042 0 0)
(0.0003914493907182161 0 0)
(0.0003236112580599177 0 0)
(0.000260117675538692 0 0)
(0.0002023011529478205 0 0)
(0.0001513295193290995 0 0)
(0.0001087147271535714 0 0)
(7.573190280159261e-05 0 0)
(5.393127756076306e-05 0 0)
(4.453177338735018e-05 0 0)
(4.893142270261551e-05 0 0)
(6.803897007650631e-05 0 0)
(0.0001026713336110263 0 0)
(0.0001525226281669482 0 0)
(0.000215917364959497 0 0)
(0.0002883925708171464 0 0)
(0.0003646981078706249 0 0)
(0.0004415434482264591 0 0)
(0.0005184664500325886 0 0)
(0.0005952043767258484 0 0)
(0.0006717518943339888 0 0)
(0.0007476075734292635 0 0)
(0.0008224922237840415 0 0)
(0.0008955956099055084 0 0)
(0.0009663447160339876 0 0)
(0.001033632625474927 0 0)
(0.00109662842183559 0 0)
(0.001153989675603515 0 0)
(0.001204708696326332 0 0)
(0.001247310843606461 0 0)
(0.001280729620654006 0 0)
(0.001303489892262881 0 0)
(0.001314603496407267 0 0)
(0.001312741022052107 0 0)
(0.001297162641365308 0 0)
(0.001266948912780892 0 0)
(0.001222157710307393 0 0)
(0.001163543793874382 0 0)
(0.001094376907846943 0 0)
(0.001019443328041323 0 0)
(0.0009431439031652025 0 0)
(0.0008666360175611439 0 0)
(0.0007902954305335324 0 0)
(0.0007140298496625496 0 0)
(0.0006383164871663129 0 0)
(0.0005633385904559793 0 0)
(0.0004898682252725273 0 0)
(0.0004184025140559284 0 0)
(0.0003500209398524846 0 0)
(0.0002855240380756665 0 0)
(0.0002262643105755955 0 0)
(0.0001732897375486259 0 0)
(0.0001281450839081701 0 0)
(9.202400360040242e-05 0 0)
(6.653721641481793e-05 0 0)
(5.287579326940289e-05 0 0)
(5.25387958391977e-05 0 0)
(6.648801276073922e-05 0 0)
(9.57479891783469e-05 0 0)
(0.0001403289979925589 0 0)
(0.0001992265245873525 0 0)
(0.0002687494324339243 0 0)
(0.0003436602313007435 0 0)
(0.0004197210195143399 0 0)
(0.0004959198148208214 0 0)
(0.0005719720022046061 0 0)
(0.0006479026095746075 0 0)
(0.0007232711626197423 0 0)
(0.0007978328804758776 0 0)
(0.0008708567176158351 0 0)
(0.0009417977909845876 0 0)
(0.001009640356372179 0 0)
(0.001073569063435636 0 0)
(0.001132334570446196 0 0)
(0.001184922048089631 0 0)
(0.001229937804474697 0 0)
(0.00126627566041078 0 0)
(0.00129251685876048 0 0)
(0.00130758710758703 0 0)
(0.001310178312061962 0 0)
(0.001299417912043112 0 0)
(0.001274321215070958 0 0)
(0.001234662542604693 0 0)
(0.001180792562186112 0 0)
(0.001115143795511752 0 0)
(0.001042148393858014 0 0)
(0.0009667302737325441 0 0)
(0.0008909797750490362 0 0)
(0.0008153523641896629 0 0)
(0.0007398223500877282 0 0)
(0.0006647197448527008 0 0)
(0.0005902467130357236 0 0)
(0.0005170040989201927 0 0)
(0.000445492549382727 0 0)
(0.0003766251623333398 0 0)
(0.0003112247729467423 0 0)
(0.0002505016949598945 0 0)
(0.000195526961213499 0 0)
(0.0001478229158536452 0 0)
(0.0001086337281588089 0 0)
(7.952137569720921e-05 0 0)
(6.185789774640792e-05 0 0)
(5.717375490657427e-05 0 0)
(6.628618468914182e-05 0 0)
(9.052493664486932e-05 0 0)
(0.0001301605346927463 0 0)
(0.0001846731238892886 0 0)
(0.0002509474465799636 0 0)
(0.0003243492704390557 0 0)
(0.0003998007590017314 0 0)
(0.0004755206894866192 0 0)
(0.0005511474830399254 0 0)
(0.0006267531144415263 0 0)
(0.0007019393476472534 0 0)
(0.0007765227308568157 0 0)
(0.0008500785951896287 0 0)
(0.0009217951074174572 0 0)
(0.000990904869411585 0 0)
(0.00105650813386237 0 0)
(0.001117640880639218 0 0)
(0.001172815438836606 0 0)
(0.001220750764884495 0 0)
(0.001260354201915038 0 0)
(0.001289889326094147 0 0)
(0.001308435826167337 0 0)
(0.001314818100043778 0 0)
(0.00130793473030746 0 0)
(0.001286544054692286 0 0)
(0.001250618643620022 0 0)
(0.001200102652703551 0 0)
(0.001136859676114099 0 0)
(0.001064812936486171 0 0)
(0.0009889743289253005 0 0)
(0.000911936367622637 0 0)
(0.0008350753531299361 0 0)
(0.000758405996503276 0 0)
(0.0006822033640334348 0 0)
(0.0006062751225729457 0 0)
(0.0005317842837697558 0 0)
(0.0004586533201227751 0 0)
(0.0003877962553103673 0 0)
(0.0003199127719545502 0 0)
(0.0002565618730310736 0 0)
(0.0001983372568463385 0 0)
(0.0001470378564326103 0 0)
(0.0001041969578139226 0 0)
(7.069833756982261e-05 0 0)
(4.857257002394811e-05 0 0)
(3.890048618346514e-05 0 0)
(4.32746209723469e-05 0 0)
(6.222858229364231e-05 0 0)
(9.671264934519561e-05 0 0)
(0.0001464157430102248 0 0)
(0.0002092941451735343 0 0)
(0.0002806062996846733 0 0)
(0.0003560736076887405 0 0)
(0.0004321453322915227 0 0)
(0.0005081062430469009 0 0)
(0.0005841627089439089 0 0)
(0.0006596443416588571 0 0)
(0.0007344589701392198 0 0)
(0.0008081814862857094 0 0)
(0.0008804014125737302 0 0)
(0.0009501452437790637 0 0)
(0.001016733305969121 0 0)
(0.001079155622042888 0 0)
(0.00113630299790445 0 0)
(0.00118674098663579 0 0)
(0.001229370345878924 0 0)
(0.001262538177108575 0 0)
(0.001285233154262631 0 0)
(0.001295996948795013 0 0)
(0.001294389310771768 0 0)
(0.001278469235566495 0 0)
(0.001248197524154903 0 0)
(0.001203381644541112 0 0)
(0.001145251314234712 0 0)
(0.001076647980355092 0 0)
(0.001002674445368362 0 0)
(0.0009267260091522715 0 0)
(0.0008504862896128166 0 0)
(0.0007746303186836019 0 0)
(0.0006991889970443335 0 0)
(0.0006240481639027515 0 0)
(0.0005500482749087266 0 0)
(0.0004775173054816089 0 0)
(0.0004068892165783739 0 0)
(0.0003389793519634262 0 0)
(0.0002749086645922302 0 0)
(0.0002157800122375301 0 0)
(0.0001627842572271105 0 0)
(0.0001174961374749618 0 0)
(8.132386737759189e-05 0 0)
(5.555760280718972e-05 0 0)
(4.183644104255339e-05 0 0)
(4.14624101870396e-05 0 0)
(5.554351149235465e-05 0 0)
(8.459098289343781e-05 0 0)
(0.0001289813661531602 0 0)
(0.0001873235693236341 0 0)
(0.0002560507554856353 0 0)
(0.0003300839641269785 0 0)
(0.0004059744125109194 0 0)
(0.0004815466836697407 0 0)
(0.000557238041939983 0 0)
(0.0006326800836583704 0 0)
(0.0007072146469739262 0 0)
(0.0007809529520561209 0 0)
(0.0008531167459552651 0 0)
(0.0009231330832573606 0 0)
(0.0009902418858879771 0 0)
(0.001053457611778873 0 0)
(0.001111924645494844 0 0)
(0.001164220806786944 0 0)
(0.001209182637055734 0 0)
(0.001245531733099322 0 0)
(0.001271652207024922 0 0)
(0.001286501090077819 0 0)
(0.001289148850293278 0 0)
(0.001278394952981689 0 0)
(0.001253268593326232 0 0)
(0.00121382294938661 0 0)
(0.001160527953914828 0 0)
(0.001095720267344995 0 0)
(0.001023522357683321 0 0)
(0.0009485472455170025 0 0)
(0.0008730174573780193 0 0)
(0.0007972151122664066 0 0)
(0.0007222806987148291 0 0)
(0.0006475963825968611 0 0)
(0.000573852808456096 0 0)
(0.0005013931858925194 0 0)
(0.0004309180887901945 0 0)
(0.0003627365668471209 0 0)
(0.0002979851439396471 0 0)
(0.000237806361386639 0 0)
(0.0001830609898292494 0 0)
(0.0001355493261385896 0 0)
(9.665476514479758e-05 0 0)
(6.730650903386403e-05 0 0)
(4.961600354904434e-05 0 0)
(4.451598862257829e-05 0 0)
(5.350942731163582e-05 0 0)
(7.711746083635805e-05 0 0)
(0.0001159315568423865 0 0)
(0.0001691835635058267 0 0)
(0.0002344370193090327 0 0)
(0.0003064829043547133 0 0)
(0.0003816106455722328 0 0)
(0.0004570014526347512 0 0)
(0.0005318276584876507 0 0)
(0.0006070259086486773 0 0)
(0.0006814442365212427 0 0)
(0.0007545911268311982 0 0)
(0.0008268068335078451 0 0)
(0.0008969027573186284 0 0)
(0.0009642523784855961 0 0)
(0.001028092219740264 0 0)
(0.00108754830368968 0 0)
(0.001141218571872768 0 0)
(0.001188464210080201 0 0)
(0.001227206439964477 0 0)
(0.001256632659490827 0 0)
(0.00127518907147955 0 0)
(0.00128191972182455 0 0)
(0.001275814341780545 0 0)
(0.001255851612379627 0 0)
(0.001221531454736484 0 0)
(0.001173279174579185 0 0)
(0.001112465247636013 0 0)
(0.001042878076474775 0 0)
(0.0009688288667936772 0 0)
(0.0008937805786618999 0 0)
(0.0008185414072300615 0 0)
(0.0007433618303938214 0 0)
(0.000669291645454692 0 0)
(0.0005952802978149682 0 0)
(0.0005232988795266115 0 0)
(0.0004525994482078326 0 0)
(0.0003842264433735242 0 0)
(0.0003188238824568718 0 0)
(0.0002576112579302187 0 0)
(0.0002014258632864955 0 0)
(0.000151876018150409 0 0)
(0.0001101128796455623 0 0)
(7.781861074226612e-05 0 0)
(5.597727280011642e-05 0 0)
(4.653836630546154e-05 0 0)
(5.042485401888487e-05 0 0)
(6.874427264141471e-05 0 0)
(0.0001019199940206552 0 0)
(0.0001498684747712607 0 0)
(0.0002107249966383405 0 0)
(0.000280546590668287 0 0)
(0.0003540462880760576 0 0)
(0.0004290831278426058 0 0)
(0.0005037940892345092 0 0)
(0.0005777232411375426 0 0)
(0.0006521939102306162 0 0)
(0.0007248531593205277 0 0)
(0.0007971580292803767 0 0)
(0.0008669440307336511 0 0)
(0.000934569344368677 0 0)
(0.0009987821173721735 0 0)
(0.001058982865604021 0 0)
(0.001114025850099081 0 0)
(0.001162692574853703 0 0)
(0.001204013427893014 0 0)
(0.00123631542602301 0 0)
(0.001258257490991886 0 0)
(0.001268896519718446 0 0)
(0.001267247153947411 0 0)
(0.001252048234202738 0 0)
(0.001222832937504309 0 0)
(0.001179620048639009 0 0)
(0.001123236649588282 0 0)
(0.001056637445051274 0 0)
(0.0009840421712289003 0 0)
(0.0009096403588124595 0 0)
(0.0008348227797265527 0 0)
(0.0007597694531600728 0 0)
(0.0006854691394211951 0 0)
(0.0006121666526806813 0 0)
(0.0005393338506449907 0 0)
(0.0004690223685759496 0 0)
(0.0004003597161155906 0 0)
(0.000334453243798274 0 0)
(0.0002722218149698669 0 0)
(0.0002148927251809246 0 0)
(0.0001631199036414265 0 0)
(0.0001191089653200144 0 0)
(8.353245174926671e-05 0 0)
(5.820889354873919e-05 0 0)
(4.435714605011485e-05 0 0)
(4.358859162344751e-05 0 0)
(5.645428494621247e-05 0 0)
(8.414858948307312e-05 0 0)
(0.0001265596978346253 0 0)
(0.0001826079157315008 0 0)
(0.0002490421113790307 0 0)
(0.000321204966723814 0 0)
(0.0003949120085850951 0 0)
(0.0004693451575013009 0 0)
(0.0005432828512348292 0 0)
(0.0006162634416673517 0 0)
(0.0006897558421848549 0 0)
(0.0007604985221101599 0 0)
(0.0008313861789974499 0 0)
(0.0008986365381064785 0 0)
(0.0009631358068548622 0 0)
(0.001023873667344996 0 0)
(0.001079978192432245 0 0)
(0.001130063117996993 0 0)
(0.001173568074683702 0 0)
(0.001208459478156319 0 0)
(0.001233746362757501 0 0)
(0.001247867422403395 0 0)
(0.001250115379847307 0 0)
(0.001239815102122104 0 0)
(0.001215375253200662 0 0)
(0.001177095734696509 0 0)
(0.001125419609150041 0 0)
(0.001062239125135768 0 0)
(0.0009918289541530705 0 0)
(0.0009179069426827588 0 0)
(0.0008436705087790153 0 0)
(0.0007694300891464798 0 0)
(0.0006943570575735957 0 0)
(0.0006213190190857805 0 0)
(0.0005481905454318864 0 0)
(0.0004780328864887319 0 0)
(0.0004087990305158776 0 0)
(0.0003426328132524454 0 0)
(0.0002796026297346136 0 0)
(0.0002208977603956883 0 0)
(0.0001678973199647482 0 0)
(0.0001210381063833766 0 0)
(8.278874478727261e-05 0 0)
(5.388337359704255e-05 0 0)
(3.581331950313104e-05 0 0)
(3.037354792437143e-05 0 0)
(3.853664222158365e-05 0 0)
(6.054582804674945e-05 0 0)
(9.740182190176451e-05 0 0)
(0.0001483877521755329 0 0)
(0.0002108970951252238 0 0)
(0.0002806967767099394 0 0)
(0.000353477261164951 0 0)
(0.0004267884440776217 0 0)
(0.0005004016932276856 0 0)
(0.0005735920236975509 0 0)
(0.0006451059290282369 0 0)
(0.0007177794372789412 0 0)
(0.0007861187023675277 0 0)
(0.0008557050986175152 0 0)
(0.000919377552735925 0 0)
(0.0009805401625685359 0 0)
(0.001037161962965865 0 0)
(0.001088928986765698 0 0)
(0.001133658338346013 0 0)
(0.001171347809295881 0 0)
(0.00119959303884668 0 0)
(0.001217427434038434 0 0)
(0.001223667402708261 0 0)
(0.001217143518706346 0 0)
(0.001197630777895051 0 0)
(0.001164199217381383 0 0)
(0.001117279708104225 0 0)
(0.001058132529845119 0 0)
(0.0009899734281494086 0 0)
(0.0009175924654442898 0 0)
(0.0008433647147033879 0 0)
(0.0007694384479265505 0 0)
(0.0006959007549117066 0 0)
(0.0006212509470105011 0 0)
(0.0005491698521673028 0 0)
(0.0004765607678607339 0 0)
(0.0004094437597938849 0 0)
(0.0003410591876954848 0 0)
(0.0002776850692418106 0 0)
(0.0002179256936795008 0 0)
(0.0001641039400336145 0 0)
(0.0001152180394389721 0 0)
(7.43135318211223e-05 0 0)
(4.173292547648818e-05 0 0)
(1.978321403515176e-05 0 0)
(9.218065534674981e-06 0 0)
(1.293010420383979e-05 0 0)
(3.072143164138026e-05 0 0)
(6.153682408325883e-05 0 0)
)
;

boundaryField
{
    inlet
    {
        type            calculated;
        value           uniform (0.001374943298997672 0 0);
    }
    outlet
    {
        type            calculated;
        value           uniform (8.382611012935139e-05 0 0);
    }
    frontAndBack
    {
        type            empty;
    }
}


// ************************************************************************* //
