/*--------------------------------*- C++ -*----------------------------------*\
| =========                 |                                                 |
| \\      /  F ield         | OpenFOAM: The Open Source CFD Toolbox           |
|  \\    /   O peration     | Version:  v2012                                 |
|   \\  /    A nd           | Website:  www.openfoam.com                      |
|    \\/     M anipulation  |                                                 |
\*---------------------------------------------------------------------------*/
FoamFile
{
    version     2.0;
    format      ascii;
    class       volScalarField;
    location    "0.005";
    object      p;
}
// * * * * * * * * * * * * * * * * * * * * * * * * * * * * * * * * * * * * * //

dimensions      [1 -1 -2 0 0 0 0];


internalField   nonuniform List<scalar> 
1000
(
101311.5873126703
101314.2274706397
101307.4550776258
101302.1370452439
101296.2424368507
101290.9173639342
101286.3151831334
101282.3747197226
101278.9551926312
101276.5777582766
101275.8808771867
101275.8726457998
101276.1840140358
101277.0900882198
101278.947361175
101281.8501418988
101285.6955802872
101290.2979901262
101295.5013667509
101301.2013196621
101307.3158191386
101313.7576192715
101320.4237474119
101327.1928648039
101333.927091965
101340.4844752603
101346.743754629
101352.6362957317
101358.1698775096
101363.3876137669
101368.1423975578
101371.7019384437
101373.2157086554
101373.3971202846
101373.331821547
101373.1181586411
101372.465476648
101371.1409120163
101368.9050345458
101365.6278031091
101361.326267309
101356.1546074487
101350.3343768345
101344.0746316023
101337.5318362956
101330.8181714221
101324.0300697636
101317.2691594122
101310.6438448874
101304.2444000932
101298.0985314684
101292.1631260304
101286.4607506962
101281.4431973902
101278.1926383157
101277.1640844143
101277.0987187332
101277.1262869023
101277.3528997369
101277.9122259028
101279.037614924
101280.9385375192
101283.7839580154
101287.6503653509
101292.4965481042
101298.1693824801
101304.445096582
101311.0892013736
101317.9042057562
101324.7441127481
101331.5052346266
101338.1222120126
101344.5808523453
101350.9217793266
101357.1859675392
101363.2388873204
101368.4320954281
101371.5871825195
101372.497517935
101372.5561274881
101372.500340195
101372.3272971356
101371.8511027827
101370.9055946158
101369.2928569547
101366.8348987475
101363.4056514467
101358.9673566442
101353.5880839418
101347.4330885331
101340.7330259122
101333.7382374735
101326.6700520769
101319.6822180521
101312.843580252
101306.1432119496
101299.5170355972
101292.9274274086
101286.5898281936
101281.3566060111
101278.4788450292
101277.7948061451
101277.7750757752
101277.8052281568
101277.9889995861
101278.4294335653
101279.2979723599
101280.7673698229
101283.0060480307
101286.1472689538
101290.2609807563
101295.3291469854
101301.2363415904
101307.7850398177
101314.7334021084
101321.842941903
101328.9247357529
101335.8770757471
101342.7016978998
101349.4744398704
101356.2365274229
101362.752786107
101368.1524824411
101371.1697807426
101371.9309256032
101371.9715927095
101371.9277019915
101371.7896720785
101371.4168228043
101370.6773507516
101369.4085755736
101367.4469118239
101364.646093247
101360.904860163
101356.1916776667
101350.5611154661
101344.1571626855
101337.196494098
101329.9263359481
101322.5652227736
101315.2504957464
101308.0176253576
101300.8297778593
101293.692975812
101286.9365970088
101281.5880951098
101278.8728171559
101278.299164667
101278.2867960104
101278.3129995226
101278.4629876728
101278.8208140153
101279.5246644038
101280.7197913979
101282.5577756422
101285.177157262
101288.6832141372
101293.1244411933
101298.4730597679
101304.618992346
101311.3821510977
101318.5423382317
101325.8847109815
101333.2530568265
101340.5870828756
101347.9057593348
101355.1930631281
101362.1312321103
101367.7391235446
101370.7484950794
101371.4706776212
101371.5080191174
101371.4735164295
101371.364265699
101371.0659030165
101370.4699692407
101369.438862068
101367.8270377716
101365.4917264031
101362.3125566933
101358.2119089883
101353.1736225459
101347.2571084832
101340.5991691157
101333.3932399169
101325.8452943239
101318.1220409153
101310.3171400486
101302.4672126527
101294.6725050663
101287.4059069409
101281.8618440368
101279.2213271668
101278.7098584869
101278.7003118508
101278.7223596182
101278.8466941947
101279.1430801483
101279.7268918203
101280.722448005
101282.264681981
101284.4860202251
101287.5020652329
101291.3927183432
101296.1833501598
101301.8329832211
101308.2339721601
101315.225271481
101322.6226603491
101330.2643963628
101338.0519166724
101345.9435617837
101353.8448162102
101361.3281764361
101367.272962273
101370.3709715309
101371.089724847
101371.1267365102
101371.0991891949
101371.0116330707
101370.7685202104
101370.2789963022
101369.4251359006
101368.0781661557
101366.1047525424
101363.3810226361
101359.8080981904
101355.32823809
101349.9403071006
101343.7086978625
101336.7559555006
101329.2353314938
101321.2924374773
101313.0363511806
101304.5548463629
101296.0428757466
101288.1370344342
101282.2384174669
101279.547155267
101279.0541715192
101279.0445667084
101279.0628291644
101279.1669368049
101279.4159865028
101279.9081701381
101280.7509679209
101282.064148083
101283.9706666288
101286.5865365302
101290.0062059173
101294.2866068591
101299.4349461344
101305.4034527711
101312.0932368777
101319.3720781661
101327.1078049338
101335.2014642494
101343.5805043841
101352.0895326875
101360.1993216994
101366.6381342323
101369.9819156644
101370.7605847241
101370.8030120289
101370.7812752724
101370.7112793164
101370.5113829291
101370.1043313454
101369.3879706243
101368.2484351968
101366.5635404514
101364.2127422872
101361.0885374209
101357.1092475571
101352.2328365286
101346.4674087577
101339.8703680684
101332.5325575029
101324.5535772811
101316.0239892321
101307.0475182585
101297.8788997244
101289.2794472763
101282.8432135055
101279.9033055085
101279.3576271245
101279.3430190747
101279.3571076684
101279.4433955235
101279.6529371003
101280.0710896186
101280.7918505989
101281.9218054788
101283.5736921676
101285.8593288307
101288.8785152867
101292.7063222845
101297.3824272715
101302.9044820526
101309.2271970372
101316.2719829142
101323.9497118213
101332.1839449799
101340.8994349478
101349.9141507998
101358.6458274367
101365.7173242105
101369.5162282334
101370.4576128133
101370.5173488968
101370.500798331
101370.4464193547
101370.2827524711
101369.9431878719
101369.3379752964
101368.365928388
101366.9158342595
101364.8734704485
101362.1296077033
101358.5896030161
101354.1847303112
101348.8819071904
101342.6856013855
101335.629427671
101327.7622393699
101319.1404935769
101309.8562922934
101300.1770098984
101290.9085172485
101283.7670756734
101280.3377572287
101279.6407227794
101279.6127623732
101279.6223950918
101279.691989887
101279.8662831175
101280.2211823528
101280.8399822985
101281.8183295357
101283.2593819742
101285.268932765
101287.9470908909
101291.378596345
101295.6242894587
101300.7146368868
101306.646566271
101313.388118921
101320.8933449804
101329.1169450923
101337.9991624884
101347.3647980836
101356.6418009011
101364.4327315716
101368.9092834857
101370.1562164015
101370.2561044066
101370.2442361706
101370.2041322335
101370.0721504493
101369.7903005248
101369.2784319103
101368.4458398816
101367.1911667535
101365.4073714014
101362.987072664
101359.8294866453
101355.8493087202
101350.9848219364
101345.2006401146
101338.483978834
101330.8383076112
101322.2825900102
101312.8807634518
101302.8727041428
101293.0256312227
101285.0722520188
101280.9064315509
101279.9225734762
101279.8646278271
101279.8700180397
101279.9241381824
101280.0661287729
101280.3650200727
101280.8955162115
101281.744420042
101283.0065491325
101284.7813688171
101287.1667814945
101290.2520084625
101294.1111117337
101298.7972122634
101304.338454127
101310.7398361361
101317.9927092441
101326.083090123
101334.9754810411
101344.5247090916
101354.221385093
101362.742060846
101368.0886492513
101369.826261696
101370.0099621468
101370.002901119
101369.9756443864
101369.871562786
101369.6402462653
101369.2089170081
101368.4954710372
101367.4070209593
101365.8434927547
101363.701002038
101360.8767849241
101357.2759937281
101352.8180190594
101347.4391705775
101341.0918042195
101333.7428000879
101325.3764731213
101316.0217865845
101305.8670338735
101295.5804266588
101286.7988410105
101281.6809532356
101280.2278600147
101280.1054308653
101280.106765787
101280.1471642666
101280.2597013365
101280.5082847647
101280.9605935724
101281.6963107773
101282.8032256304
101284.3748746597
101286.5058871143
101289.2869133159
101292.7998192194
101297.1126695677
101302.2755997037
101308.3212533113
101315.2707019311
101323.1374311868
101331.9121864652
101341.4908491485
101351.4568808591
101360.6376941308
101366.9771429706
101369.4242478566
101369.7700894845
101369.7719846249
101369.7554372294
101369.6755738731
101369.4887597503
101369.127942757
101368.5181585166
101367.5736891895
101366.200803069
101364.2997418148
101361.7682460062
101358.5066700516
101354.4226358811
101349.4333127919
101343.4662531575
101336.4606351027
101328.3715290965
101319.1929698919
101309.0532020424
101298.4913370037
101288.9574603924
101282.7431544965
101280.5950917616
101280.3405214466
101280.3367057466
101280.3653706029
101280.4516179968
101280.6550866424
101281.0374620185
101281.6726851293
101282.6426387213
101284.0355506952
101285.9424683091
101288.4537416458
101291.6554367458
101295.6249960972
101300.4274654556
101306.1153908999
101312.7323379267
101320.3140399206
101328.8755007909
101338.3552244539
101348.4382165321
101358.1475779023
101365.5069771376
101368.8864730421
101369.5255810665
101369.5487463307
101369.5401179314
101369.480923582
101369.3330838161
101369.0342854652
101368.5156789041
101367.6976133946
101366.4920080774
101364.8033733614
101362.5314045534
101359.5747561305
101355.8342593992
101351.2147689476
101345.6269900148
101338.9900339366
101331.2356625613
101322.3268946495
101312.3341958635
101301.6628576069
101291.5231589661
101284.1695387275
101281.0830207096
101280.5774502157
101280.5623957018
101280.5811282247
101280.6444739736
101280.8079407562
101281.1276816897
101281.6729605987
101282.5206317237
101283.7542226687
101285.4612462904
101287.7308049915
101290.6508080222
101294.3042121973
101298.7658479864
101304.1021963853
101310.3732082892
101317.6316883905
101325.9131682702
101335.1947760679
101345.2568537693
101355.3298190993
101363.6368112806
101368.1322719197
101369.2553498822
101369.331196437
101369.3280526742
101369.2857258545
101369.1717446222
101368.92739608
101368.4893872579
101367.783285119
101366.7260311357
101365.2263449289
101363.1867012511
101360.5060145558
101357.0817019168
101352.8112083561
101347.5943537668
101341.3362274859
101333.9507650164
101325.3754602619
101315.6308070793
101304.999697656
101294.4386848852
101286.0112422898
101281.7708994934
101280.8346922468
101280.7836883746
101280.795688046
101280.8396381159
101280.9680658463
101281.2319548728
101281.6965312183
101282.4342491995
101283.5244635349
101285.0513364878
101287.102213647
101289.7653208747
101293.1265291538
101297.2668814014
101302.2623737409
101308.1844943308
101315.0986421755
101323.0567992365
101332.0683283701
101341.9949494183
101352.2610329317
101361.3640394471
101367.0750474995
101368.9202616007
101369.1163560998
101369.1184718353
101369.0893842875
101369.0042465372
101368.8074223639
101368.4407220596
101367.8342765707
101366.9095654015
101365.5793857797
101363.7494345794
101361.320089299
101358.1876112988
101354.2454969516
101349.3869956588
101343.5077375035
101336.5084978292
101328.3069097316
101318.8830848888
101308.4164863364
101297.6253584897
101288.2802957897
101282.7507445494
101281.1448075055
101281.0023555014
101281.0091999933
101281.0374596929
101281.135820621
101281.3502256679
101281.7424876876
101282.3810124926
101283.3414010414
101284.7046794999
101286.5561548546
101288.9833847369
101292.0734513511
101295.9111731477
101300.5788432294
101306.1557862058
101312.7164248768
101320.3254705485
101329.0177210378
101338.7199515329
101349.0232808194
101358.7247423153
101365.6409094278
101368.457885894
101368.8983763633
101368.9105281024
101368.8919876671
101368.8309611211
101368.6751448679
101368.3713985222
101367.8538198672
101367.0480627506
101365.8708656666
101364.2313595712
101362.032108295
101359.1697296304
101355.5361842108
101351.0211968535
101345.5143018889
101338.9069266389
101331.1019563059
101322.0483488476
101311.8426957428
101300.9970298728
101290.9472552947
101284.1068363408
101281.5631914388
101281.2234574147
101281.2215079615
101281.2374102983
101281.3107362607
101281.4818524853
101281.8096626173
101282.3588152014
101283.2015279238
101284.4159306837
101286.0851985967
101288.2957715333
101291.1351779798
101294.6907795359
101299.0494096964
101304.296423128
101310.5139068255
101317.7775568745
101326.1420397044
101335.5815612861
101345.8107635539
101355.8800024231
101363.7822463063
101367.6362380044
101368.4430681424
101368.482286727
101368.469157849
101368.4204533417
101368.2831155144
101368.0035691482
101367.5141043691
101366.7389742324
101365.5944199043
101363.9906252343
101361.8344337948
101359.0336834273
101355.5043828193
101351.1844678303
101346.0656033625
101340.2744916452
101334.262558909
101329.0677307488
101326.0034253167
101325.0959605745
101325.0023096043
101325.0000091955
101325.0000000034
101324.999999999
101324.9999999989
101324.9999999989
101324.9999999988
101324.9999999988
101324.9999999987
101324.9999999989
101324.9999999989
101324.9999999989
101324.9999999989
101324.9999999989
101324.999999999
101324.999999999
101324.9999999989
101324.9999999986
101324.999999999
101324.9999999989
101324.9999999988
101324.9999999989
101324.9999999986
101324.9999999992
101324.9999999993
101324.9999999995
101324.9999999993
101324.9999999995
101324.9999999993
101324.9999999992
101324.9999999994
101324.9999999991
101324.9999999996
101324.9999999992
101324.9999999997
101324.9999999995
101324.9999999995
101324.9999999991
101324.999999999
101324.9999999993
101324.9999999989
101324.999999999
101324.9999999989
101324.9999999987
101324.9999999987
101324.9999999988
101324.9999999988
101324.9999999989
101324.9999999988
101324.9999999987
101324.9999999989
101324.999999999
101324.9999999992
101324.9999999993
101324.9999999992
101324.9999999992
101324.9999999992
101324.999999999
101324.9999999992
101324.999999999
101324.999999999
101324.999999999
101324.999999999
101324.9999999988
101324.999999999
101324.9999999988
101324.999999999
101324.999999999
101324.999999999
101324.9999999988
101324.9999999989
101324.9999999986
101324.9999999987
101324.9999999985
101324.9999999987
101324.9999999985
101324.9999999986
101324.9999999987
101324.999999999
101324.9999999988
101324.999999999
101324.9999999988
101324.999999999
101324.9999999991
101324.9999999991
101324.9999999989
101324.999999999
101324.9999999989
101324.9999999988
101324.9999999988
101324.9999999987
101324.9999999985
101324.9999999983
101324.9999999986
101324.9999999985
101324.9999999983
101324.9999999987
101324.9999999982
101324.9999999986
101324.9999999984
101324.9999999984
101324.9999999985
101324.9999999984
101324.9999999982
101324.9999999985
101324.9999999982
101324.9999999984
101324.9999999983
101324.9999999986
101324.9999999986
101324.9999999984
101324.9999999985
101324.9999999986
101324.9999999985
101324.9999999988
101324.9999999985
101324.999999999
101324.999999999
101324.9999999988
101324.999999999
101324.9999999992
101324.9999999988
101324.999999999
101324.9999999991
101324.999999999
101324.999999999
101324.999999999
101324.9999999989
101324.9999999988
101324.9999999987
101324.9999999991
101324.999999999
101324.9999999988
101324.9999999987
101324.9999999991
101324.9999999987
101324.999999999
101324.9999999987
101324.9999999984
101324.9999999984
101324.9999999985
101324.9999999985
101324.9999999985
101324.9999999986
101324.9999999988
101324.999999999
101324.9999999991
101324.9999999985
101324.9999999989
101324.999999999
101324.9999999989
101324.999999999
101324.999999999
101324.999999999
101324.9999999993
101324.9999999991
101324.9999999996
101324.9999999989
101324.9999999993
101324.9999999993
101324.999999999
101324.999999999
101324.9999999988
101324.9999999986
101324.9999999986
101324.9999999991
101324.9999999985
101324.9999999988
101324.9999999988
101324.9999999987
101324.999999999
101324.9999999988
101324.999999999
101324.9999999985
101324.999999999
101324.9999999991
101324.9999999987
101324.9999999988
101324.999999999
101324.999999999
101324.9999999991
101324.9999999992
101324.999999999
101324.999999999
101324.999999999
101324.9999999987
101324.9999999993
101324.9999999989
101324.9999999992
101324.9999999989
101324.999999999
101324.9999999991
101324.9999999991
101324.999999999
101324.999999999
101324.9999999991
101324.9999999991
101324.9999999993
101324.9999999989
101324.999999999
101324.9999999993
101324.9999999993
101324.9999999993
101324.9999999995
101324.9999999994
101324.9999999993
101324.9999999993
101324.9999999993
101324.9999999992
101324.9999999993
101324.9999999993
101324.9999999992
101324.9999999987
101324.9999999992
101324.9999999988
101324.9999999993
101324.9999999988
101324.9999999993
101324.999999999
101324.9999999989
101324.9999999992
101324.9999999991
101324.9999999993
101324.9999999993
101324.9999999992
101324.9999999993
101324.9999999993
101324.9999999993
101324.9999999993
101324.999999999
101324.9999999993
101324.9999999995
101324.9999999988
101324.9999999991
101324.9999999991
101324.9999999993
101324.9999999993
101324.999999999
101324.9999999993
101324.9999999993
101324.9999999993
101324.999999999
101324.9999999989
101324.9999999989
101324.9999999989
101324.9999999987
101324.9999999985
101324.9999999989
101324.9999999985
101324.9999999987
101324.9999999984
101324.9999999982
101324.9999999982
101324.9999999984
101324.9999999982
101324.9999999985
101324.9999999985
101324.9999999985
101324.9999999983
101324.9999999985
101324.9999999985
101324.9999999982
101324.9999999982
101324.9999999982
101324.9999999982
101324.9999999982
101324.9999999982
101324.9999999982
101324.9999999982
101324.9999999982
101324.999999998
101324.9999999979
101324.9999999982
101324.9999999979
101324.999999998
101324.9999999979
101324.9999999979
101324.9999999977
101324.9999999975
101324.999999998
101324.9999999975
101324.9999999979
101324.9999999981
101324.9999999977
101324.9999999982
101324.9999999979
101324.9999999981
101324.9999999983
101324.9999999985
101324.9999999984
101324.9999999984
101324.9999999984
101324.9999999985
101324.9999999983
101324.9999999985
101324.9999999983
101324.9999999982
101324.9999999984
101324.9999999982
101324.9999999982
101324.9999999983
101324.9999999982
)
;

boundaryField
{
    inlet
    {
        type            uniformFixedValue;
        uniformValue    sine;
        uniformValueCoeffs
        {
            frequency       constant 3000;
            scale           constant 50;
            level           constant 101325;
        }
        value           uniform 101325;
    }
    outlet
    {
        type            characteristicVelocityInletOutletPressure;
        UName           U;
        pName           p;
        TName           T;
        phiName         phi;
        rhoName         rho;
        U               (0 0 0);
        p               101325;
        T               300;
        value           uniform 101324.9999999982;
    }
    frontAndBack
    {
        type            empty;
    }
}


// ************************************************************************* //
