/*--------------------------------*- C++ -*----------------------------------*\
| =========                 |                                                 |
| \\      /  F ield         | OpenFOAM: The Open Source CFD Toolbox           |
|  \\    /   O peration     | Version:  v2012                                 |
|   \\  /    A nd           | Website:  www.openfoam.com                      |
|    \\/     M anipulation  |                                                 |
\*---------------------------------------------------------------------------*/
FoamFile
{
    version     2.0;
    format      ascii;
    class       volScalarField;
    location    "0.005";
    object      pMean;
}
// * * * * * * * * * * * * * * * * * * * * * * * * * * * * * * * * * * * * * //

dimensions      [1 -1 -2 0 0 0 0];


internalField   nonuniform List<scalar> 
1000
(
101325.0304692865
101325.0078665756
101325.0348820905
101325.0603278239
101325.0975444763
101325.1423843755
101325.193519462
101325.2525047983
101325.3159408428
101325.3846163385
101325.4550240321
101325.5259152705
101325.5962777592
101325.6660590419
101325.7335887768
101325.7979466299
101325.8572458146
101325.9107258979
101325.9569507745
101325.9955783409
101326.0254978866
101326.0465975845
101326.05805122
101326.0600405347
101326.0521128292
101326.0348056306
101326.0080691911
101325.9727701116
101325.9290852153
101325.8778251426
101325.8190953292
101325.7543228512
101325.6856592334
101325.6161300342
101325.5464434452
101325.4770494423
101325.4082484295
101325.3408728997
101325.2760365525
101325.2151553226
101325.1596990464
101325.1110347445
101325.070252519
101325.0381409695
101325.0152225098
101325.0018302176
101324.9981557296
101325.0042402535
101325.0199705078
101325.0450641617
101325.0791833875
101325.1220139097
101325.1732907196
101325.2324270634
101325.2977194536
101325.3660830964
101325.4350750684
101325.504049672
101325.5727724327
101325.6410307314
101325.7079765775
101325.7728654366
101325.8342500338
101325.890927023
101325.9412479747
101325.9841200414
101326.0183117693
101326.0433213061
101326.0585535412
101326.064064263
101326.0596945495
101326.0457980547
101326.0223902051
101325.9898660757
101325.9481669489
101325.8976366294
101325.8387269302
101325.7736880915
101325.7057021547
101325.6373055693
101325.56885452
101325.500610939
101325.4328215866
101325.3660508023
101325.3011042804
101325.2390732992
101325.1812548375
101325.1290779656
101325.083941489
101325.0470913043
101325.0194713283
101325.0016953628
101324.9940230869
101324.9964682724
101325.0088522549
101325.0309768721
101325.0626827462
101325.1039429871
101325.1546103199
101325.2138180727
101325.2790250818
101325.3466855701
101325.4147013524
101325.4827031209
101325.5504906883
101325.6179086526
101325.6843095614
101325.7491214979
101325.8111986663
101325.8695035367
101325.9225228968
101325.9690334402
101326.0075821956
101326.0372598481
101326.0571527122
101326.0670174183
101326.0666019281
101326.0561785607
101326.0357667042
101326.0056462696
101325.9656869013
101325.9161584528
101325.8577604384
101325.793191412
101325.7259472838
101325.6583782033
101325.5907660718
101325.5233233083
101325.456230081
101325.389942084
101325.3250762143
101325.2625318246
101325.2033836852
101325.1489330395
101325.1005329838
101325.059569293
101325.027237294
101325.0045187648
101324.9920159991
101324.9900465763
101324.9986150611
101325.0176512956
101325.0470514349
101325.0868165989
101325.1366986759
101325.1955361267
101325.2603059628
101325.3273020065
101325.3945755282
101325.461842541
101325.5289291007
101325.5957188405
101325.6616800054
101325.7263546796
101325.7887902689
101325.8481039044
101325.9029565006
101325.9521771826
101325.9943015215
101326.028237194
101326.0528234894
101326.0674694255
101326.071623058
101326.0652722069
101326.0482814819
101326.0208141888
101325.9827423141
101325.9343964689
101325.8767239456
101325.8127399797
101325.7461454638
101325.6792369652
101325.6122864295
101325.5454767283
101325.4789396749
101325.4130554819
101325.3483180725
101325.2854839075
101325.2254589038
101325.1693961115
101325.1185361397
101325.0742475531
101325.0378080327
101325.0104140119
101324.9929664865
101324.9861392154
101324.9902744034
101325.0055843388
101325.0321440815
101325.0700288036
101325.1188861288
101325.1772266948
101325.2415621866
101325.3080001227
101325.3746747117
101325.441348938
101325.5078687792
101325.5741465219
101325.6397339869
101325.7042552559
101325.7669002283
101325.826912879
101325.883110499
101325.9344168756
101325.9794328072
101326.0170127235
101326.0458720993
101326.0651674911
101326.0740621468
101326.072209754
101326.0592029318
101326.0349741594
101325.9992907984
101325.9524782405
101325.8956974391
101325.8323002994
101325.7662576774
101325.6998944278
101325.633489356
101325.5672024766
101325.5011327331
101325.4356014845
101325.3710135547
101325.308013231
101325.2473721071
101325.1901081321
101325.1373393672
101325.0903609252
101325.0504474165
101325.0188903288
101324.9967865164
101324.9850984853
101324.9845072157
101324.9955729421
101325.0186687762
101325.0540668424
101325.1014314969
101325.1590154455
101325.2228680991
101325.288821407
101325.3549993026
101325.4211797251
101325.4872283573
101325.5530767685
101325.6183411878
101325.6827066868
101325.7454768128
101325.8059971066
101325.8632229359
101325.916176175
101325.9635525585
101326.0042144057
101326.036836966
101326.0604193526
101326.073913347
101326.0766718364
101326.0679973157
101326.047524008
101326.0148125525
101325.9700664785
101325.9145384663
101325.8518508388
101325.7863200974
101325.7204219732
101325.6544811993
101325.5886393643
101325.522972293
101325.4577533129
101325.3933210168
101325.3302294326
101325.2691421536
101325.2109571344
101325.1566783303
101325.1075063845
101325.0646711386
101325.0294863172
101325.0031615994
101324.986860515
101324.9815479165
101324.9881121529
101325.007260078
101325.0395404697
101325.0847706163
101325.1411244196
101325.2043177891
101325.2698087062
101325.3355559817
101325.4013085405
101325.4669511337
101325.5324270691
101325.5974074969
101325.6616223221
101325.7244670425
101325.7853684552
101325.8434023381
101325.8976816768
101325.9470042455
101325.9902710416
101326.0261682936
101326.0536059542
101326.0713966856
101326.0786572433
101326.074434618
101326.0580653721
101326.0288603887
101325.9868014002
101325.9330542898
101325.8713358061
101325.8063366704
101325.7408536054
101325.6753227851
101325.6098734359
101325.5445635871
101325.4796263955
101325.4153499161
101325.3522132212
101325.2907945186
101325.2318869481
101325.1763931302
101325.1254154588
101325.0801207835
101325.0418016863
101325.0117214501
101324.991169464
101324.9813212141
101324.9833311859
101324.9982117688
101325.0268078643
101325.0692017163
101325.1237202184
101325.1859732086
101325.2509782071
101325.3163342496
101325.3816996133
101325.4469764789
101325.512117162
101325.5768390913
101325.6409069396
101325.7037926427
101325.764988357
101325.8236721912
101325.8790382349
101325.9299835491
101325.9754616457
101326.0141977842
101326.0450613378
101326.0667849266
101326.0783159416
101326.0785041556
101326.0664312208
101326.0411620317
101326.0023963436
101325.9510388637
101325.8906610728
101325.8262753745
101325.7611814325
101325.6960246414
101325.6309343249
101325.5659524519
101325.5012775268
101325.4371576073
101325.3740087795
101325.3123404172
101325.2528559383
101325.1963696846
101325.1438903461
101325.0965156047
101325.0554932399
101325.0220991461
101324.9976884772
101324.9835773216
101324.9811126328
101324.9915535569
101325.0160190381
101325.0549211787
101325.1069494447
101325.1678861825
101325.2323292411
101325.2973134697
101325.3623170035
101325.4272519901
101325.4920789475
101325.5565555166
101325.6204759804
101325.6833752149
101325.7448001257
101325.8040151857
101325.8602858585
101325.9125999449
101325.9599685085
101326.0011696845
101326.0350661295
101326.0603543116
101326.0758721109
101326.0803319248
101326.0726184598
101326.051582686
101326.0166282068
101325.9682743165
101325.9097018121
101325.8460884253
101325.7813820699
101325.7165757341
101325.6518233506
101325.5871518095
101325.5227295033
101325.4587707627
101325.3956383246
101325.3337840991
101325.2738347886
101325.2165287533
101325.162788726
101325.1136430212
101325.0702825868
101325.0339682736
101325.0060766445
101324.9880055857
101324.9812268761
101324.9871808365
101325.0072156027
101325.0420852646
101325.090978509
101325.1501293679
101325.2138629863
101325.2784760658
101325.343133852
101325.4077408968
101325.4722654489
101325.5365009752
101325.6002678281
101325.6631545635
101325.7247549407
101325.7844067581
101325.8414384321
101325.8949187811
101325.9439167904
101325.9872694275
101326.0238542161
101326.0523631826
101326.0715724233
101326.0801090243
101326.0767180063
101326.0600812656
101326.0293281947
101325.9845389274
101325.9283062177
101325.8657211128
101325.8014325918
101325.7369615692
101325.6725338627
101325.6081628843
101325.5439906903
101325.4802019787
101325.4171130421
101325.3551270238
101325.2948043545
101325.2368172641
101325.1820107513
101325.1313465727
101325.0859533258
101325.0470591858
101325.0160312928
101324.9943039328
101324.9834188231
101324.9849375969
101325.0003835695
101325.0308236136
101325.0759962254
101325.1328132183
101325.1955945946
101325.259811591
101325.3241342578
101325.3884215906
101325.4526485224
101325.5166411953
101325.5802437024
101325.6430915217
101325.7048194688
101325.7648288383
101325.8225035702
101325.8769848519
101325.9273978156
101325.9726396634
101326.0116165074
101326.0430373964
101326.0656520128
101326.0780433954
101326.0788656179
101326.0666783503
101326.0403806834
101325.9996232808
101325.9462957026
101325.8851052009
101325.8213144316
101325.7571715164
101325.693059641
101325.6289841314
101325.5650638876
101325.5014568846
101325.4384383105
101325.3763688178
101325.3157506217
101325.2571977408
101325.2014848891
101325.1495109671
101325.1023405269
101325.0611583437
101325.0273013077
101325.0022078958
101324.9874479524
101324.9846548349
101324.9954741189
101325.0212324035
101325.0621962537
101325.1160900193
101325.1775628357
101325.2413158881
101325.3053094998
101325.3692822491
101325.4332127451
101325.4969572938
101325.5603818475
101325.6231637485
101325.6849747964
101325.7452721913
101325.8034896117
101325.8588333782
101325.910481884
101325.9573921535
101325.9985067497
101326.0325659624
101326.0583179823
101326.0743323786
101326.0792109617
101326.0714335554
101326.0497211796
101326.0133467501
101325.9634713549
101325.9041466152
101325.8410088825
101325.7771988633
101325.7133961561
101325.6496135884
101325.5859495851
101325.5225375472
101325.4596157055
101325.3975069643
101325.3366615341
101325.2776414314
101325.2211573523
101325.1680492017
101325.1193178454
101325.0760985597
101325.0396847236
101325.0114968253
101324.9931023802
101324.9861679977
101324.9924148118
101325.0133684956
101325.0497553849
101325.100145826
101325.1598394411
101325.2229925178
101325.2866549607
101325.3503169006
101325.4139504053
101325.477439945
101325.5406714831
101325.60336055
101325.665212705
101325.7257354341
101325.7844075344
101325.8404946743
101325.8932256268
101325.9416156084
101325.9846480675
101326.021103468
101326.0497454562
101326.0691519297
101326.0779016188
101326.0744298761
101326.0573301911
101326.0255694111
101325.9796285129
101325.9227166513
101325.8604889589
101325.7970398113
101325.7335411686
101325.6700500648
101325.6066474792
101325.5434439391
101325.4806440598
101325.4185367983
101325.357525024
101325.2981238447
101325.2409849861
101325.1868931037
101325.1367866535
101325.0917483904
101325.0530200922
101325.0219894552
101325.0002002977
101324.9893235805
101324.99111799
101325.0072500626
101325.0388169875
101325.08518342
101325.1425372678
101325.2048572151
101325.2681680968
101325.3315225362
101325.3948578977
101325.4580851734
101325.5211083802
101325.58367853
101325.6455321712
101325.7062229302
101325.7652709307
101325.8219967707
101325.8756767051
101325.9253823233
101325.9701400468
101326.0087760202
101326.0400805127
101326.0626547761
101326.0750758819
101326.0757624633
101326.0632244597
101326.0361971594
101325.9945760719
101325.9406520408
101325.8797087877
101325.816692211
101325.7534946409
101325.6902937496
101325.6271575643
101325.564175296
101325.5015208419
101325.4394522808
101325.3783288418
101325.3186228709
101325.260931234
101325.2059868509
101325.1546673666
101325.1080021427
101325.0671765016
101325.0335360438
101325.0085858672
101324.9939806506
101324.9914866924
101325.0028613619
101325.0294814098
101325.0714000595
101325.1258102537
101325.1869446507
101325.2498474794
101325.3128966297
101325.3759330754
101325.4388913918
101325.5016918303
101325.5641182176
101325.6259361808
101325.6867415675
101325.7460931945
101325.8033622091
101325.8578697638
101325.908740571
101325.9550440303
101325.9956526084
101326.029387381
101326.0548780347
101326.0707089738
101326.0752945023
101326.0670885088
101326.0446628551
101326.0074725107
101325.9570067724
101325.897946214
101325.8357776556
101325.7732028877
101325.7106131215
101325.6480769388
101325.5856723814
101325.5235655252
101325.4620072345
101325.4013518818
101325.3420684517
101325.2847507802
101325.2301244136
101325.1790485145
101325.1325097669
101325.0916020697
101325.0574759931
101325.0312133226
101325.0135159269
101325.0040462749
101325.0006624437
101325.00004238
101325.0000007082
101325.0000000019
101324.9999999997
101324.9999999998
101324.9999999997
101324.9999999998
101324.9999999998
101324.9999999996
101324.9999999997
101324.9999999998
101324.9999999998
101324.9999999998
101324.9999999998
101324.9999999998
101324.9999999998
101324.9999999997
101324.9999999998
101324.9999999996
101324.9999999998
101324.9999999998
101324.9999999998
101324.9999999998
101324.9999999997
101324.9999999999
101324.9999999996
101324.9999999997
101324.9999999998
101324.9999999997
101324.9999999997
101324.9999999997
101324.9999999998
101324.9999999997
101324.9999999998
101324.9999999997
101324.9999999997
101324.9999999999
101324.9999999997
101324.9999999997
101324.9999999998
101324.9999999998
101324.9999999997
101324.9999999998
101324.9999999998
101324.9999999998
101324.9999999997
101324.9999999997
101324.9999999997
101324.9999999998
101324.9999999997
101324.9999999997
101324.9999999999
101324.9999999998
101324.9999999998
101324.9999999998
101324.9999999998
101324.9999999998
101324.9999999998
101324.9999999998
101324.9999999998
101324.9999999997
101324.9999999997
101324.9999999997
101324.9999999998
101324.9999999997
101324.9999999998
101324.9999999998
101324.9999999998
101324.9999999998
101324.9999999998
101324.9999999998
101324.9999999998
101324.9999999997
101324.9999999998
101324.9999999997
101324.9999999998
101324.9999999998
101324.9999999997
101324.9999999997
101324.9999999997
101324.9999999997
101324.9999999997
101324.9999999997
101324.9999999996
101324.9999999996
101324.9999999997
101324.9999999997
101324.9999999997
101324.9999999997
101324.9999999998
101324.9999999998
101324.9999999998
101324.9999999998
101324.9999999998
101324.9999999998
101324.9999999998
101324.9999999998
101324.9999999998
101324.9999999998
101324.9999999998
101324.9999999998
101324.9999999998
101324.9999999998
101324.9999999998
101324.9999999998
101324.9999999998
101324.9999999998
101324.9999999998
101324.9999999997
101324.9999999998
101324.9999999998
101324.9999999998
101324.9999999998
101324.9999999998
101324.9999999998
101324.9999999998
101324.9999999998
101324.9999999998
101324.9999999998
101324.9999999998
101324.9999999998
101324.9999999999
101324.9999999999
101324.9999999998
101324.9999999999
101324.9999999998
101324.9999999999
101324.9999999999
101324.9999999999
101324.9999999998
101324.9999999999
101324.9999999999
101324.9999999999
101324.9999999999
101324.9999999998
101324.9999999999
101324.9999999999
101324.9999999999
101324.9999999999
101324.9999999999
101324.9999999999
101324.9999999998
101324.9999999999
101324.9999999999
101324.9999999999
101324.9999999998
101324.9999999999
101324.9999999999
101324.9999999997
101324.9999999998
101324.9999999999
101324.9999999999
101324.9999999998
101324.9999999997
101324.9999999998
101324.9999999998
101324.9999999999
101324.9999999998
101324.9999999998
101324.9999999997
101324.9999999997
101324.9999999998
101324.9999999999
101324.9999999998
101324.9999999998
101324.9999999997
101324.9999999998
101324.9999999998
101324.9999999997
101324.9999999998
101324.9999999997
101324.9999999998
101324.9999999996
101324.9999999998
101324.9999999996
101324.9999999998
101324.9999999997
101324.9999999998
101324.9999999997
101324.9999999997
101324.9999999998
101324.9999999997
101324.9999999998
101324.9999999998
101324.9999999998
101324.9999999997
101324.9999999997
101324.9999999998
101324.9999999998
101324.9999999997
101324.9999999997
101324.9999999998
101324.9999999997
101324.9999999998
101324.9999999998
101324.9999999996
101324.9999999998
101324.9999999997
101324.9999999998
101324.9999999996
101324.9999999997
101324.9999999997
101324.9999999997
101324.9999999997
101324.9999999997
101324.9999999997
101324.9999999998
101324.9999999997
101324.9999999997
101324.9999999997
101324.9999999997
101324.9999999997
101324.9999999997
101324.9999999998
101324.9999999997
101324.9999999996
101324.9999999997
101324.9999999996
101324.9999999997
101324.9999999998
101324.9999999996
101324.9999999997
101324.9999999997
101324.9999999997
101324.9999999997
101324.9999999997
101324.9999999997
101324.9999999997
101324.9999999997
101324.9999999997
101324.9999999996
101324.9999999997
101324.9999999996
101324.9999999997
101324.9999999997
101324.9999999996
101324.9999999997
101324.9999999997
101324.9999999996
101324.9999999997
101324.9999999997
101324.9999999997
101324.9999999996
101324.9999999997
101324.9999999996
101324.9999999998
101324.9999999995
101324.9999999995
101324.9999999997
101324.9999999996
101324.9999999996
101324.9999999996
101324.9999999996
101324.9999999996
101324.9999999996
101324.9999999996
101324.9999999996
101324.9999999995
101324.9999999995
101324.9999999995
101324.9999999995
101324.9999999995
101324.9999999994
101324.9999999994
101324.9999999996
101324.9999999995
101324.9999999996
101324.9999999994
101324.9999999995
101324.9999999995
101324.9999999995
101324.9999999994
101324.9999999994
101324.9999999995
101324.9999999995
101324.9999999994
101324.9999999994
101324.9999999994
101324.9999999995
101324.9999999994
101324.9999999994
101324.9999999995
101324.9999999994
101324.9999999994
101324.9999999993
101324.9999999996
101324.9999999994
101324.9999999994
101324.9999999995
101324.9999999995
101324.9999999995
101324.9999999995
101324.9999999995
101324.9999999994
101324.9999999994
101324.9999999995
101324.9999999994
101324.9999999994
101324.9999999995
101324.9999999995
101324.9999999995
101324.9999999995
101324.9999999995
)
;

boundaryField
{
    inlet
    {
        type            calculated;
        value           uniform 101325.000000122;
    }
    outlet
    {
        type            calculated;
        value           uniform 101324.9999999995;
    }
    frontAndBack
    {
        type            empty;
    }
}


// ************************************************************************* //
