/*--------------------------------*- C++ -*----------------------------------*\
| =========                 |                                                 |
| \\      /  F ield         | OpenFOAM: The Open Source CFD Toolbox           |
|  \\    /   O peration     | Version:  v2012                                 |
|   \\  /    A nd           | Website:  www.openfoam.com                      |
|    \\/     M anipulation  |                                                 |
\*---------------------------------------------------------------------------*/
FoamFile
{
    version     2.0;
    format      ascii;
    class       volScalarField;
    location    "0.005";
    object      rho;
}
// * * * * * * * * * * * * * * * * * * * * * * * * * * * * * * * * * * * * * //

dimensions      [1 -3 0 0 0 0 0];


internalField   nonuniform List<scalar> 
1000
(
1.176301720195485
1.17632531481633
1.176271481108422
1.176228099504926
1.176177341430936
1.176130915708945
1.176091561971788
1.176058542142022
1.176030086184316
1.176010212252491
1.176004264319632
1.176003967037595
1.176006326535666
1.176013843531558
1.176029386150623
1.176053614844953
1.176085635409636
1.176123905974226
1.176167136571369
1.176214461417363
1.176265197878585
1.176318621985049
1.176373883540876
1.176429983637503
1.176485787566801
1.176540125959217
1.176591998694521
1.176640839154786
1.176686712110769
1.176729974085263
1.176769402743021
1.176798923411353
1.17681148418478
1.176812996184806
1.17681246082146
1.17681069346762
1.176805281019578
1.176794296387438
1.17677575615442
1.176748582152642
1.176712915885478
1.176670035727049
1.176621778378707
1.176569876786361
1.176515627824193
1.176459961238831
1.17640367630909
1.176347615539566
1.176292677789067
1.176239611724498
1.1761886472796
1.176139427142158
1.176092138650165
1.176050528655634
1.176023571864304
1.176015042048906
1.176014499986487
1.176014728683027
1.176016608092058
1.176021246647509
1.176030579485555
1.176046343701654
1.17606994039944
1.176102003701421
1.176142191586879
1.176189233949015
1.17624127486493
1.176296369638359
1.176352880490861
1.176409596748232
1.17646565864603
1.176520524287807
1.176574076062855
1.176626650865653
1.176678588477514
1.17672877355767
1.176771830061661
1.176797988369995
1.176805535764419
1.176806021673854
1.176805559144526
1.176804124473532
1.176800176443182
1.176792337419735
1.176778966484166
1.176758587855268
1.176730156154767
1.176693358089802
1.17664875772482
1.176597724894098
1.17654217174616
1.176484173775591
1.1764255660626
1.176367623453347
1.176310916860326
1.176255355747305
1.176200408818578
1.1761457641124
1.176093208260668
1.176049810003255
1.176025944948977
1.176020272236211
1.176020108607913
1.176020358653285
1.176021882659302
1.176025535162016
1.176032737914125
1.176044923522934
1.176063488627948
1.17608953822126
1.176123652161581
1.176165680598501
1.176214666028828
1.176268970173879
1.176326587377139
1.176385539925334
1.176444261225545
1.17650190796781
1.176558494609613
1.176614650007004
1.176670715998152
1.176724742769166
1.176769511318383
1.176794527280194
1.176800837781614
1.176801174939563
1.176800811045861
1.17679966666363
1.17679657544369
1.176790444621584
1.17677992542138
1.176763661527717
1.176740440158323
1.176709421599482
1.176670344142776
1.176623659918962
1.176570562441656
1.176512847943551
1.176452566095717
1.176391528815604
1.176330874904147
1.176270898516403
1.176211294253654
1.17615211208732
1.176096083513504
1.176051729306374
1.176029211736947
1.176024454461225
1.176024351884117
1.176024569182028
1.176025813022733
1.176028780458773
1.176034617451254
1.176044528550679
1.176059770755233
1.176081492868961
1.176110567788584
1.176147397445307
1.176191751192224
1.176242715886316
1.176298797859981
1.176358170934174
1.176419053464127
1.176480150090864
1.176540960881749
1.176601643144797
1.176662064043601
1.176719589039176
1.176766083792202
1.176791034064982
1.176797021542582
1.17679733112688
1.176797045064579
1.176796139280354
1.176793665607931
1.176788724826932
1.176780176085996
1.176766812668691
1.176747450813148
1.176721092401254
1.17668709369146
1.176645320425545
1.176596264870445
1.176541060960075
1.17648131225435
1.176418726379705
1.176354685509572
1.17628996620185
1.176224872089497
1.176160234457277
1.176099974916753
1.176053999009396
1.176032101446769
1.17602785986013
1.176027780683427
1.176027963513658
1.176028994605139
1.176031452512659
1.176036294022848
1.176044550089534
1.176057339669911
1.176075760894723
1.176100772321125
1.176133036375354
1.176172763204851
1.176219612703913
1.176272691906998
1.176330665070076
1.176392004356651
1.176455368427468
1.176519939910586
1.176585373313389
1.176650884938057
1.176712930352839
1.176762218372191
1.176787903559708
1.176793862610083
1.176794169457536
1.176793941057658
1.176793215134802
1.176791199523021
1.17678714096052
1.176780061737349
1.176768894192952
1.17675253281502
1.176729950492369
1.176700327274953
1.176663184207679
1.176618511592164
1.176566842992501
1.176509194135424
1.17644683539685
1.176380973883947
1.176312513851749
1.176242182972926
1.176171597780145
1.176106037402038
1.176057121326626
1.176034802962838
1.176030714673408
1.1760306350129
1.176030786449317
1.17603164979682
1.17603371514353
1.176037796783014
1.176044786031438
1.176055676092773
1.176071486578151
1.17609317947781
1.17612153789089
1.17615703373852
1.176199726523365
1.176249219798123
1.176304693205972
1.176365050036051
1.176429194042064
1.176496304494133
1.176565779632739
1.176636330899636
1.176703570384469
1.176756954500551
1.176784677397484
1.176791133205643
1.176791484953128
1.176791304727005
1.176790724390802
1.176789067076622
1.176785692274536
1.176779753035872
1.176770305301183
1.176756336015314
1.176736845686863
1.17671094289198
1.176677950255218
1.176637519004982
1.176589716030383
1.176535016936799
1.17647417458238
1.176408014459461
1.176337287156162
1.176262852463865
1.17618682250971
1.176115510561237
1.176062136274665
1.176037755956457
1.176033230679026
1.176033109527554
1.176033226351365
1.176033941920004
1.176035679627152
1.176039147329665
1.176045124534949
1.176054495129351
1.176068193998957
1.176087148368271
1.176112185747719
1.176143928515621
1.176182705480239
1.17622849689023
1.176280926864533
1.176339343378204
1.176403007034162
1.176471283683182
1.176543549091241
1.176618293700208
1.176690689731724
1.176749319633444
1.176780815965667
1.176788620832987
1.176789116086399
1.176788978859679
1.176788528002128
1.176787171060384
1.176784355780766
1.176779338052992
1.176771278943778
1.176759256373306
1.176742323280313
1.176719573958599
1.176690223578487
1.176653702120078
1.176609735018453
1.176558358982664
1.17649985234467
1.176434619760709
1.176363128926196
1.176286143118657
1.176205879110193
1.176129019496169
1.17606979729153
1.176041358411412
1.176035577958372
1.176035346078487
1.176035425952684
1.176036003088254
1.176037448483745
1.176040391631326
1.176045523282212
1.176053636612062
1.176065587070029
1.176082251931641
1.176104461294901
1.176132917754156
1.176168125649827
1.176210337381663
1.176259527170151
1.176315429657859
1.176377663445957
1.176445852519587
1.176519500988257
1.176597155811389
1.1766740737419
1.176738668780432
1.176775783526088
1.176786121665968
1.176786949815184
1.176786851411251
1.176786518907806
1.176785424662858
1.176783087886558
1.176778844059358
1.176771941152835
1.176761538802627
1.176746749500442
1.176726682883495
1.176700503237406
1.176667503124053
1.17662717060087
1.176579211963843
1.1765235208358
1.176460125544585
1.17638918283607
1.176311222345354
1.176228232673956
1.176146575694694
1.176080620606829
1.176046074110211
1.176037915067668
1.176037434524649
1.176037479218921
1.176037928026297
1.17603910553932
1.176041584217946
1.17604598357343
1.176053023444259
1.176063490120633
1.17607820841408
1.17609799014213
1.176123575086996
1.176155577263407
1.176194436966168
1.176240387303341
1.176293469392671
1.176353611128591
1.176420696129501
1.176494429586427
1.176573607315495
1.176654005453798
1.176724651250881
1.176768979556725
1.176783385880383
1.176784908908741
1.176784850362801
1.176784624375707
1.176783761447782
1.176781843636505
1.17677826754931
1.176772352467533
1.176763328258179
1.176750365186347
1.176732601896897
1.176709186282896
1.176679331814714
1.176642369944482
1.176597772323907
1.176545143563421
1.176484208611058
1.176414836890922
1.176337267972799
1.176253062606947
1.176167761445404
1.176094938707101
1.176052497013598
1.17604044667346
1.176039431376533
1.176039442442946
1.176039777459539
1.176040710717705
1.176042772197724
1.176046523152972
1.176052624380037
1.17606180388902
1.176074837333607
1.176092509401988
1.176115571747529
1.176144703127217
1.176180467789031
1.176223281232909
1.176273413840125
1.176331039962641
1.176396270980702
1.176469029651746
1.176548452122601
1.176631084243523
1.176707203818194
1.176759764110128
1.176780052794324
1.176782920115502
1.176782935825371
1.176782798629685
1.176782136492423
1.176780587644036
1.176777596163626
1.176772540527556
1.176764710048606
1.176753327582792
1.176737565996197
1.176716577383197
1.176689535460181
1.17665567413514
1.176614306396628
1.176564831230923
1.176506743916046
1.176439671393607
1.176363563584893
1.176279483230523
1.176191900253447
1.176112839566481
1.176061305704196
1.176043492100926
1.176041380972236
1.176041349326634
1.176041587039189
1.176042302279766
1.176043989626923
1.176047160630609
1.176052428471093
1.176060472180289
1.176072023395119
1.176087837110262
1.176108662505985
1.17613521319179
1.176168131208993
1.176207955731899
1.176255122207843
1.176309991534711
1.176372859581042
1.176443850242691
1.17652245303529
1.176606055639664
1.176686558100466
1.176747575111093
1.176775594229712
1.176780892989014
1.176781085047424
1.176781013508647
1.176780522735592
1.176779297017803
1.176776819724663
1.176772520030246
1.176765737551818
1.176755742001722
1.176741741647712
1.176722904805911
1.176698391120006
1.17666737822402
1.176629077035469
1.176582746890094
1.176527716714414
1.176463420205951
1.176389550109967
1.176306690022259
1.176218200050277
1.176134116180058
1.176073134559222
1.17604753853982
1.176043345897505
1.1760432210506
1.176043376396434
1.176043901716078
1.176045257331225
1.176047908913006
1.176052430855519
1.176059460492781
1.17606969048829
1.176083846535623
1.176102667481996
1.17612688224107
1.176157178606571
1.176194176920958
1.176238428215216
1.17629042928689
1.17635061758291
1.176419287222605
1.176496247967987
1.176579677904204
1.176663195777594
1.176732069742406
1.176769341363041
1.176778652670122
1.176779281502641
1.176779255437173
1.176778904510844
1.176777959509088
1.176775933651053
1.176772302181109
1.176766447978031
1.176757682398232
1.176745248615505
1.176728338002573
1.176706112376587
1.176677721088165
1.176642313651104
1.176599059182472
1.17654717038314
1.176485933176095
1.17641482868377
1.176334026129256
1.176245870566188
1.176158293684406
1.176088407580897
1.176053243190163
1.17604547933737
1.176045056366852
1.176045155878447
1.176045520351792
1.176046585391058
1.176048773797793
1.176052626481956
1.176058744291754
1.176067785289884
1.176080447391375
1.176097454885877
1.176119539328686
1.176147412700863
1.176181746887835
1.176223171853557
1.176272280096612
1.176329613526683
1.176395602692161
1.176470324644886
1.176552632178135
1.176637751997574
1.176713226325861
1.176760576190904
1.176775874676733
1.176777500470354
1.176777518011193
1.176777276850171
1.176776570985391
1.176774939144614
1.176771898883278
1.17676687092123
1.176759204242704
1.176748175834821
1.176733003794862
1.176712862085206
1.176686890495456
1.176654205828043
1.176613922755951
1.176565175588065
1.176507141169763
1.176439135979771
1.17636099441237
1.17627420382312
1.176184719536244
1.176107224466086
1.176061369099738
1.176048051286974
1.176046869948032
1.176046926708575
1.176047161063387
1.17604797676126
1.176049754801588
1.176053007789991
1.176058303002649
1.176066267376328
1.176077572824946
1.176092926741873
1.176113055154603
1.176138680106958
1.176170504816781
1.176209211493521
1.176255457649507
1.17630986005413
1.176372954838975
1.17644502998029
1.176525477673763
1.176610907086174
1.176691343931937
1.176748686053924
1.176772041386647
1.176775693440374
1.176775794188713
1.176775640472541
1.176775134510186
1.176773842659792
1.176771324340514
1.176767033161986
1.176760352720181
1.176750592683935
1.17673699963063
1.176718765662244
1.176695033541828
1.176664907363396
1.176627472608152
1.1765818130808
1.176527028160534
1.176462312085524
1.176387240961653
1.176302614955191
1.176212679267307
1.176129340967934
1.176072615157432
1.176051521117652
1.176048703744509
1.176048687577955
1.176048819454498
1.176049427539614
1.176050846589476
1.17605356508446
1.176058119143497
1.176065107649119
1.176075178501895
1.176089021423881
1.176107353184873
1.176130899545639
1.176160384834237
1.17619652893693
1.176240039399229
1.17629159657631
1.176351827719316
1.17642118558055
1.176499455641735
1.176584271187926
1.176667758046935
1.176733276165649
1.176765229426785
1.176771918773067
1.176772243929659
1.17677213507997
1.17677173127756
1.176770592628016
1.176768274945114
1.176764216851264
1.176757790328617
1.17674830092292
1.176735003941558
1.17671712697099
1.176693905803125
1.176664643924897
1.176628826565053
1.176586384374513
1.176538367623363
1.176488519123912
1.176445445065322
1.176420036429356
1.17641251186485
1.176411735323138
1.176411716248427
1.176411716172207
1.17641171617217
1.176411716172168
1.176411716172168
1.176411716172167
1.176411716172169
1.176411716172171
1.176411716172171
1.176411716172168
1.176411716172168
1.176411716172168
1.176411716172168
1.176411716172171
1.176411716172173
1.176411716172173
1.176411716172168
1.17641171617217
1.176411716172168
1.176411716172167
1.176411716172168
1.176411716172166
1.176411716172173
1.176411716172175
1.176411716172176
1.176411716172171
1.176411716172172
1.176411716172171
1.176411716172172
1.176411716172173
1.17641171617217
1.176411716172177
1.176411716172175
1.176411716172177
1.176411716172174
1.176411716172174
1.176411716172173
1.176411716172173
1.176411716172177
1.176411716172173
1.176411716172172
1.176411716172171
1.176411716172171
1.176411716172171
1.176411716172171
1.17641171617217
1.17641171617217
1.176411716172169
1.176411716172167
1.176411716172168
1.176411716172167
1.176411716172169
1.176411716172171
1.17641171617217
1.176411716172173
1.176411716172173
1.176411716172171
1.176411716172173
1.176411716172171
1.176411716172171
1.176411716172171
1.17641171617217
1.17641171617217
1.176411716172171
1.17641171617217
1.176411716172171
1.17641171617217
1.17641171617217
1.17641171617217
1.17641171617217
1.176411716172167
1.176411716172168
1.176411716172168
1.17641171617217
1.176411716172168
1.17641171617217
1.17641171617217
1.17641171617217
1.17641171617217
1.176411716172171
1.176411716172169
1.17641171617217
1.176411716172172
1.176411716172173
1.176411716172171
1.176411716172174
1.17641171617217
1.17641171617217
1.17641171617217
1.17641171617217
1.17641171617217
1.176411716172169
1.17641171617217
1.17641171617217
1.176411716172168
1.176411716172169
1.176411716172162
1.176411716172164
1.176411716172162
1.176411716172163
1.176411716172164
1.176411716172164
1.176411716172162
1.176411716172166
1.176411716172165
1.176411716172165
1.176411716172163
1.176411716172164
1.176411716172164
1.176411716172164
1.176411716172165
1.176411716172167
1.176411716172167
1.176411716172171
1.176411716172168
1.176411716172171
1.176411716172172
1.17641171617217
1.176411716172171
1.176411716172173
1.17641171617217
1.176411716172171
1.176411716172172
1.176411716172172
1.176411716172171
1.176411716172172
1.176411716172173
1.176411716172173
1.176411716172171
1.176411716172172
1.176411716172171
1.17641171617217
1.176411716172168
1.176411716172173
1.176411716172171
1.176411716172171
1.176411716172167
1.176411716172164
1.176411716172164
1.176411716172163
1.176411716172164
1.176411716172166
1.176411716172168
1.176411716172168
1.17641171617217
1.176411716172172
1.176411716172168
1.176411716172169
1.17641171617217
1.176411716172168
1.17641171617217
1.17641171617217
1.17641171617217
1.176411716172171
1.176411716172169
1.176411716172174
1.176411716172168
1.176411716172171
1.176411716172171
1.17641171617217
1.17641171617217
1.17641171617217
1.17641171617217
1.176411716172168
1.176411716172171
1.176411716172166
1.176411716172168
1.176411716172169
1.176411716172167
1.176411716172169
1.176411716172169
1.176411716172171
1.176411716172165
1.17641171617217
1.176411716172172
1.17641171617217
1.176411716172171
1.176411716172172
1.176411716172173
1.176411716172172
1.176411716172172
1.176411716172171
1.17641171617217
1.17641171617217
1.176411716172167
1.176411716172171
1.176411716172168
1.176411716172171
1.176411716172168
1.17641171617217
1.176411716172169
1.17641171617217
1.17641171617217
1.176411716172169
1.176411716172171
1.176411716172172
1.176411716172175
1.176411716172169
1.176411716172171
1.176411716172172
1.176411716172172
1.176411716172171
1.176411716172173
1.176411716172172
1.176411716172171
1.176411716172171
1.176411716172171
1.17641171617217
1.176411716172171
1.176411716172171
1.176411716172171
1.176411716172167
1.176411716172173
1.176411716172171
1.176411716172176
1.17641171617217
1.176411716172176
1.176411716172174
1.176411716172173
1.176411716172174
1.176411716172171
1.176411716172171
1.176411716172171
1.176411716172169
1.176411716172171
1.176411716172171
1.176411716172171
1.176411716172171
1.176411716172168
1.176411716172171
1.176411716172173
1.176411716172168
1.176411716172172
1.176411716172171
1.176411716172171
1.176411716172171
1.176411716172168
1.176411716172171
1.176411716172171
1.176411716172171
1.176411716172168
1.176411716172168
1.176411716172168
1.176411716172168
1.176411716172168
1.176411716172168
1.176411716172173
1.176411716172168
1.176411716172168
1.176411716172164
1.176411716172162
1.176411716172162
1.176411716172164
1.176411716172164
1.176411716172168
1.17641171617217
1.176411716172171
1.176411716172168
1.17641171617217
1.176411716172168
1.176411716172164
1.176411716172162
1.176411716172162
1.176411716172162
1.176411716172162
1.176411716172161
1.176411716172162
1.176411716172162
1.176411716172162
1.17641171617216
1.17641171617216
1.176411716172162
1.176411716172159
1.17641171617216
1.17641171617216
1.176411716172159
1.176411716172158
1.176411716172155
1.176411716172159
1.176411716172156
1.17641171617216
1.176411716172163
1.17641171617216
1.176411716172165
1.176411716172162
1.176411716172163
1.176411716172162
1.176411716172165
1.176411716172164
1.176411716172164
1.176411716172165
1.176411716172168
1.176411716172168
1.17641171617217
1.176411716172168
1.176411716172168
1.176411716172171
1.176411716172168
1.176411716172168
1.176411716172168
1.176411716172168
)
;

boundaryField
{
    inlet
    {
        type            calculated;
        value           uniform 1.176411716172193;
    }
    outlet
    {
        type            calculated;
        value           uniform 1.176411716172171;
    }
    frontAndBack
    {
        type            empty;
    }
}


// ************************************************************************* //
