/*--------------------------------*- C++ -*----------------------------------*\
| =========                 |                                                 |
| \\      /  F ield         | OpenFOAM: The Open Source CFD Toolbox           |
|  \\    /   O peration     | Version:  v2012                                 |
|   \\  /    A nd           | Website:  www.openfoam.com                      |
|    \\/     M anipulation  |                                                 |
\*---------------------------------------------------------------------------*/
FoamFile
{
    version     2.0;
    format      ascii;
    class       volScalarField;
    location    "0.005";
    object      T;
}
// * * * * * * * * * * * * * * * * * * * * * * * * * * * * * * * * * * * * * //

dimensions      [0 0 0 1 0 0 0];


internalField   nonuniform List<scalar> 
1000
(
299.9883374076849
299.9901377443936
299.9838133249669
299.9791293898041
299.9746189687905
299.9706898657896
299.9670976149293
299.9638493891534
299.9609797836127
299.9590075216842
299.9584606193021
299.9585120661082
299.9588324472739
299.9595987166865
299.9611351412699
299.9635525168237
299.9667742071134
299.9706434283222
299.9750270649099
299.9798366847702
299.9850033781971
299.9904533489037
299.9960984478419
300.001834102639
300.0075414385933
300.0130984026326
300.0184010883132
300.0233908696486
300.0280743353941
300.0324882692267
300.0365089672313
300.0395178947303
300.0407958061436
300.0409472408268
300.0408904687553
300.0407086829416
300.0401568570321
300.0390370865651
300.037146364395
300.0343746054944
300.0307360752193
300.0263610494962
300.0214368867296
300.0161404482972
300.0106041484941
300.0049229566906
299.9991785219228
299.993456883453
299.9878498068111
299.982433707146
299.9772320414046
299.9722083200156
299.9673816399134
299.9631344414965
299.9603828575359
299.9595121771466
299.9594568399058
299.9594801581227
299.9596719624262
299.9601454237748
299.9610980736231
299.962707212626
299.9651158364321
299.9683886397368
299.9724906673367
299.9772922294902
299.9826038507003
299.9882270112788
299.9939945358956
299.9997828565175
300.0055042306405
300.0111033640718
300.016568265633
300.0219333244501
300.0272332192896
300.0323541436148
300.0367475503451
300.0394166409899
300.0401867420215
300.0402363250915
300.0401891342585
300.0400427508458
300.0396399145101
300.0388400564279
300.0374757380255
300.0353963623165
300.0324952376833
300.0287403600145
300.0241892407134
300.0189816119964
300.0133125555936
300.0073938407067
300.0014127243276
299.9954993090957
299.9897118688488
299.9840411739632
299.9784330064076
299.9728555281959
299.9674911036356
299.9630612848572
299.9606252422548
299.9600461921879
299.9600294912921
299.9600550177796
299.9602105849939
299.9605834197444
299.9613186476599
299.9625624980358
299.9644575219237
299.9671164904756
299.9705985602405
299.9748883935809
299.979888210241
299.9854307491204
299.9913112673491
299.9973278952602
300.0033207433057
300.0092037529289
300.014978409123
300.0207088925625
300.0264300874268
300.0319430325757
300.0365111341176
300.0390636633087
300.0397075571086
300.0397419606996
300.0397048324983
300.0395880669029
300.0392726537747
300.0386470911849
300.0375737517656
300.0359142333405
300.0335447708233
300.0303796546799
300.0263921421856
300.0216283220717
300.0162099341961
300.0103202319459
300.0041683501668
299.9979391832982
299.9917489502193
299.9856276768653
299.979544198069
299.9735036156662
299.9677847383438
299.9632573442622
299.9609588482195
299.9604732435384
299.9604627743715
299.9604849578018
299.9606119263649
299.9609148316887
299.961510648011
299.9625223271296
299.9640781697435
299.9662954252171
299.9692631697128
299.9730223951047
299.9775495155881
299.9827512796724
299.9884751885962
299.9945348202992
300.000748317813
300.0069834726127
300.0131892649825
300.0193817496795
300.025547370903
300.031417298714
300.0361615481773
300.0387073787705
300.0393183147324
300.0393499056579
300.0393207198071
300.0392283005553
300.0389758998045
300.0384717645389
300.0375994843621
300.0362359243047
300.0342602853842
300.0315707020577
300.0281014575262
300.0238388113715
300.0188329471217
300.0131995260567
300.0071021420346
300.0007150252713
299.9941792110178
299.9875739417782
299.9809302003742
299.9743328285123
299.9681821113949
299.9634891899712
299.9612539843912
299.9608210211171
299.9608129415212
299.9608316080224
299.9609368611678
299.9611877566806
299.96168195921
299.962524701476
299.9638301957314
299.9657105228706
299.9682635087528
299.9715567419621
299.9756116356313
299.9803934305586
299.9858109360239
299.9917277744114
299.9979879753525
300.0044546183241
300.0110442703519
300.0177216621652
300.0244068113668
300.0307380374629
300.0357673196682
300.0383881423297
300.0389961795834
300.0390274922306
300.0390041910029
300.0389301251534
300.0387244637072
300.0383103470863
300.037588011951
300.03644851373
300.0347790410452
300.032474775197
300.0294520261908
300.0256618879089
300.0211033273816
300.0158307413437
300.0099477291892
300.0035838841417
299.9968623546666
299.9898753937562
299.9826972422968
299.9754928730018
299.9688011252991
299.9638080995016
299.9615299427094
299.9611126284468
299.9611044999926
299.9611199627159
299.9612080938496
299.9614189187524
299.9618355573281
299.9625489892769
299.9636605919432
299.9652744340707
299.967488696327
299.9703832906579
299.9740063563704
299.9783639274351
299.9834154930086
299.989077273968
299.9952372902987
300.0017836188384
300.008632465021
300.0157223887726
300.0229218719186
300.0297831512878
300.0352304120244
300.0380591595795
300.0387178846413
300.0387537788626
300.0387353931613
300.038676182571
300.0385070803779
300.0381627318731
300.0375567165935
300.0365927028871
300.0351673156443
300.0331785581866
300.0305354528433
300.0271688532548
300.0230431331539
300.0181650717037
300.0125831494075
300.0063741387153
299.9996222278916
299.9924039666963
299.9848070569966
299.9770470312936
299.9697682650022
299.9643201920572
299.9618315629788
299.9613696429567
299.961357279098
299.9613692082936
299.9614422545891
299.9616196351176
299.9619736053086
299.9625837323631
299.9635402359758
299.9649385385106
299.9668732751601
299.9694288957014
299.9726689025885
299.9766268235729
299.9813006004109
299.9866518197967
299.9926138822315
299.9991112732362
300.0060792240688
300.0134539824332
300.0210814575744
300.0284689809525
300.0344515462232
300.0376653291764
300.0384617064082
300.038512242856
300.0384982439872
300.0384522442733
300.038313790309
300.0380265326082
300.0375145442935
300.0366922211903
300.0354654725741
300.0337376543341
300.031416335613
300.0284214109526
300.0246946837432
300.0202080953166
300.0149653410082
300.0089947658566
300.0023376020483
299.995041513306
299.9871843306934
299.9789922423543
299.9711472939236
299.9651023378801
299.9621994352207
299.9616093915694
299.961585724434
299.9615938809737
299.9616527958636
299.9618003377565
299.9621007628981
299.9626245790022
299.9634527471553
299.9646725825793
299.9663736243325
299.9686405898979
299.9715451742859
299.9751388272601
299.9794472734937
299.9844678359632
299.9901733787753
299.9965249189898
300.003484021396
300.0110000163273
300.0189245612241
300.0267735893539
300.0333648804909
300.0371519618067
300.0382068233235
300.0382913262449
300.0382812877925
300.0382473635166
300.0381357133051
300.0378972793573
300.0374642561613
300.0367599075868
300.0356984820063
300.0341894139402
300.0321418413182
300.029470470878
300.0261030891627
300.0219874203951
300.0170934471436
300.0114102569242
300.0049406738307
299.9977006187871
299.9897440625851
299.9812738834898
299.9729393608615
299.9662072130985
299.9626808867745
299.961848046006
299.9617989956901
299.9618035601623
299.9618493749675
299.9619695718295
299.9622225852175
299.9626716512582
299.9633902456671
299.9644586252888
299.9659609757346
299.9679801513117
299.9705916467269
299.9738581109839
299.9778244519127
299.9825144203223
299.9879321622342
299.9940702598748
300.0009167698205
300.0084415333362
300.0165215879667
300.0247258433599
300.0319346205997
300.0364577774533
300.0379277406555
300.038083145334
300.0380771730072
300.0380541163127
300.0379660680458
300.0377703828864
300.0374054926269
300.0368019377794
300.0358811337256
300.0345584115237
300.0327458714191
300.0303565510117
300.0273101709259
300.0235384803037
300.0189875226232
300.0136168960973
300.0073984655652
300.0003188263021
299.9924023369392
299.983808191782
299.9751018210117
299.9676687522042
299.9633365488205
299.9621065010555
299.9620028646996
299.9620039957342
299.962038194459
299.9621334582341
299.9623438851781
299.9627267649045
299.963349546836
299.9642865396547
299.9656169125817
299.9674207529039
299.9697747701518
299.9727482256479
299.9763986836192
299.9807685155864
299.9858852707069
299.9917666864325
299.9984240627451
300.0058494392885
300.0139545739152
300.0223869017389
300.0301543139622
300.0355174834909
300.0375876636379
300.0378802336629
300.0378818375086
300.0378678399636
300.0378002789884
300.0376422408003
300.0373370010763
300.0368211407045
300.0360221413403
300.0348607014107
300.033252414916
300.0311107509959
300.0283513776487
300.0248960952006
300.0206747617077
300.015625996978
300.0096982315559
300.0028533155237
299.9950860437348
299.9865047728568
299.9775656236163
299.9694959358811
299.9642356960748
299.9624173622523
299.9622018676262
299.9621986382159
299.9622229037944
299.9622959128932
299.962468149575
299.9627918301066
299.963329543799
299.9641506004887
299.9653296774753
299.9669438328398
299.9690695262019
299.971779579711
299.9751395020528
299.9792042923804
299.9840183515765
299.9896184596025
299.9960347465395
300.0032797780686
300.0113013682073
300.0198328431532
300.0280475959053
300.0342737342771
300.0371327102586
300.0376733738352
300.0376929712007
300.0376856723811
300.0376355963514
300.0375105288066
300.0372577544757
300.0368190275084
300.0361269629459
300.0351070411814
300.0336784700146
300.0317563761232
300.0292549947724
300.0260903882216
300.0221820038264
300.0174542159359
300.0118384840762
300.0052769410587
299.9977381365196
299.9892815211962
299.9802499253323
299.971667634915
299.9654430895573
299.9628303711153
299.9624024040795
299.9623896607017
299.9624055181513
299.9624591406717
299.9625975153869
299.9628681755013
299.9633297514792
299.9640472973177
299.9650915129657
299.9665364670109
299.9684575664221
299.9709291983294
299.9740215450095
299.9777978945428
299.982314449433
299.9876218641693
299.9937647216262
300.0007729615917
300.0086270785459
300.0171410485302
300.0256636178153
300.0326915531538
300.0364946464844
300.0374447344711
300.03750889828
300.0375062390109
300.0374704320981
300.0373740075334
300.0371672957585
300.036796751952
300.0361994057894
300.0353049875938
300.0340362680781
300.0323107284483
300.0300428284665
300.0271457479948
300.0235326731732
300.019118777295
300.013823664962
300.0075743938083
300.0003179203919
299.9920714053092
299.9830740685921
299.9741353777511
299.967002011492
299.9634126208737
299.9626201200882
299.9625769453472
299.962587103216
299.9626243070735
299.9627330209948
299.9629564022533
299.963349663596
299.9639741351104
299.9648969855618
299.9661894491992
299.967925448772
299.9701796434715
299.9730246875785
299.9765291340036
299.9807572460915
299.9857694505807
299.9916209963257
299.9983557503768
300.005981486731
300.0143810306
300.0230671909424
300.0307687270865
300.0356002162504
300.0371612151576
300.0373271047713
300.0373288947259
300.0373042876295
300.037232263597
300.0370657558074
300.0367555368296
300.0362424978026
300.0354602090236
300.0343348923881
300.032786757562
300.0307315058852
300.0280813447932
300.0247461266409
300.0206354741023
300.0156609979716
300.009738630752
300.002798532396
299.9948236953121
299.9859657969179
299.9768325567174
299.9689226356457
299.9642420056082
299.9628825828683
299.9627619971113
299.9627677910067
299.9627917128345
299.9628749750764
299.9630564680443
299.9633885154335
299.9639290207627
299.9647419761753
299.9658959628036
299.9674631801694
299.9695177252971
299.9721332823788
299.9753816059467
299.9793322961159
299.9840524199557
299.9896048716138
299.9960442986447
300.0034000046447
300.011609860831
300.0203277374706
300.0285357686323
300.0343869075747
300.0367700059304
300.0371426470616
300.0371529270894
300.0371372424206
300.0370856156445
300.0369537992243
300.0366968374246
300.0362589775658
300.0355773220543
300.0345814283131
300.0331944133283
300.031333831315
300.0289121958775
300.0258380663
300.0220180911708
300.0173587332828
300.0117680263605
300.0051636623081
299.9975022794621
299.9888654208689
299.9796862447398
299.9711800246993
299.9653898657097
299.9632366881792
299.9629491032591
299.9629474530363
299.9629609142996
299.9630229843908
299.9631678333539
299.9634453223738
299.9639101748211
299.9646235196518
299.9656514876127
299.96706447565
299.9689356375907
299.9713390394464
299.9743485936152
299.9780377496659
299.9824786858124
299.987740790874
299.993888017093
300.000966488916
300.0089542148777
300.0176095662791
300.0261289462795
300.0328144323501
300.0360748541749
300.0367574096958
300.036790587489
300.0367794807699
300.036738277937
300.0366220934122
300.0363856035175
300.0359715262874
300.0353157790844
300.0343474986511
300.0329906928499
300.031166536884
300.0287970374878
300.0258111014629
300.0221561718359
300.0178251351033
300.0129251258003
300.007838060193
300.0034422174965
300.0008491336158
300.0000812053347
300.0000019544714
300.0000000077849
300.0000000000063
300.0000000000027
300.0000000000031
300.0000000000031
300.000000000003
300.0000000000023
300.0000000000019
300.0000000000021
300.000000000003
300.0000000000031
300.0000000000031
300.0000000000031
300.0000000000026
300.000000000002
300.0000000000018
300.0000000000019
300.0000000000027
300.0000000000031
300.000000000003
300.0000000000031
300.0000000000026
300.0000000000026
300.0000000000023
300.0000000000028
300.0000000000034
300.0000000000036
300.0000000000034
300.0000000000029
300.0000000000031
300.000000000003
300.000000000003
300.0000000000022
300.0000000000028
300.0000000000032
300.0000000000032
300.0000000000024
300.000000000002
300.000000000002
300.0000000000017
300.0000000000023
300.0000000000021
300.0000000000019
300.0000000000015
300.0000000000021
300.0000000000022
300.0000000000023
300.0000000000023
300.0000000000028
300.000000000003
300.0000000000035
300.0000000000036
300.0000000000034
300.0000000000033
300.0000000000026
300.0000000000026
300.0000000000024
300.0000000000026
300.0000000000026
300.0000000000025
300.0000000000026
300.0000000000026
300.0000000000022
300.0000000000027
300.0000000000022
300.0000000000026
300.0000000000027
300.0000000000027
300.0000000000023
300.0000000000026
300.0000000000024
300.0000000000023
300.0000000000016
300.000000000002
300.0000000000016
300.0000000000014
300.000000000002
300.0000000000026
300.0000000000022
300.0000000000027
300.0000000000024
300.0000000000027
300.0000000000023
300.0000000000022
300.0000000000022
300.0000000000019
300.0000000000023
300.0000000000022
300.0000000000023
300.000000000002
300.0000000000014
300.0000000000009
300.0000000000016
300.0000000000014
300.0000000000012
300.000000000002
300.0000000000023
300.0000000000032
300.000000000003
300.0000000000028
300.0000000000028
300.0000000000027
300.0000000000025
300.0000000000022
300.0000000000016
300.0000000000023
300.0000000000024
300.0000000000032
300.0000000000032
300.0000000000027
300.0000000000023
300.0000000000023
300.0000000000021
300.000000000002
300.0000000000016
300.0000000000025
300.0000000000022
300.0000000000023
300.0000000000026
300.0000000000026
300.0000000000023
300.0000000000023
300.0000000000023
300.0000000000022
300.0000000000026
300.0000000000022
300.0000000000018
300.0000000000013
300.0000000000017
300.0000000000023
300.0000000000026
300.0000000000023
300.0000000000025
300.0000000000022
300.0000000000019
300.0000000000026
300.0000000000027
300.0000000000027
300.0000000000027
300.000000000003
300.0000000000026
300.0000000000024
300.0000000000023
300.0000000000026
300.0000000000027
300.0000000000023
300.0000000000016
300.0000000000026
300.0000000000028
300.000000000003
300.0000000000027
300.0000000000027
300.0000000000027
300.0000000000034
300.0000000000033
300.0000000000035
300.0000000000031
300.0000000000034
300.0000000000034
300.0000000000027
300.0000000000027
300.0000000000022
300.0000000000018
300.0000000000023
300.0000000000028
300.0000000000024
300.0000000000025
300.0000000000025
300.0000000000025
300.0000000000028
300.0000000000025
300.0000000000026
300.0000000000026
300.0000000000027
300.0000000000023
300.000000000002
300.0000000000019
300.0000000000022
300.000000000002
300.0000000000023
300.0000000000028
300.0000000000026
300.0000000000027
300.0000000000028
300.0000000000025
300.0000000000034
300.0000000000031
300.0000000000031
300.0000000000031
300.0000000000028
300.0000000000032
300.0000000000031
300.0000000000027
300.000000000003
300.0000000000031
300.0000000000023
300.0000000000026
300.0000000000027
300.0000000000026
300.000000000003
300.000000000003
300.0000000000034
300.0000000000034
300.0000000000034
300.0000000000034
300.0000000000034
300.0000000000034
300.0000000000035
300.0000000000034
300.0000000000034
300.0000000000032
300.0000000000028
300.0000000000026
300.0000000000019
300.000000000002
300.000000000002
300.0000000000022
300.0000000000018
300.0000000000017
300.0000000000025
300.0000000000027
300.0000000000034
300.0000000000034
300.0000000000034
300.0000000000034
300.0000000000034
300.0000000000034
300.0000000000034
300.0000000000033
300.0000000000034
300.0000000000034
300.0000000000025
300.0000000000027
300.0000000000027
300.0000000000034
300.0000000000034
300.0000000000033
300.0000000000034
300.0000000000034
300.0000000000034
300.0000000000033
300.0000000000031
300.0000000000031
300.000000000003
300.0000000000023
300.0000000000016
300.0000000000018
300.0000000000016
300.0000000000023
300.0000000000027
300.0000000000025
300.0000000000025
300.0000000000027
300.0000000000019
300.0000000000016
300.0000000000014
300.000000000001
300.0000000000012
300.0000000000014
300.0000000000016
300.0000000000019
300.0000000000023
300.0000000000025
300.0000000000025
300.0000000000025
300.0000000000026
300.0000000000025
300.0000000000025
300.0000000000025
300.0000000000023
300.0000000000021
300.0000000000025
300.0000000000022
300.0000000000023
300.0000000000021
300.0000000000022
300.0000000000021
300.0000000000019
300.0000000000024
300.0000000000019
300.0000000000021
300.000000000002
300.0000000000015
300.0000000000018
300.0000000000017
300.000000000002
300.0000000000027
300.0000000000026
300.0000000000027
300.0000000000027
300.000000000002
300.0000000000016
300.0000000000013
300.0000000000014
300.0000000000012
300.0000000000008
300.0000000000009
300.0000000000008
300.0000000000008
300.0000000000014
300.0000000000008
)
;

boundaryField
{
    inlet
    {
        type            fixedValue;
        value           uniform 300;
    }
    outlet
    {
        type            characteristicVelocityInletOutletTemperature;
        UName           U;
        pName           p;
        TName           T;
        phiName         phi;
        rhoName         rho;
        U               (0 0 0);
        p               101325;
        T               300;
        value           uniform 300;
    }
    frontAndBack
    {
        type            empty;
    }
}


// ************************************************************************* //
