/*--------------------------------*- C++ -*----------------------------------*\
| =========                 |                                                 |
| \\      /  F ield         | OpenFOAM: The Open Source CFD Toolbox           |
|  \\    /   O peration     | Version:  v2012                                 |
|   \\  /    A nd           | Website:  www.openfoam.com                      |
|    \\/     M anipulation  |                                                 |
\*---------------------------------------------------------------------------*/
FoamFile
{
    version     2.0;
    format      ascii;
    class       volVectorField;
    location    "0.005";
    object      U;
}
// * * * * * * * * * * * * * * * * * * * * * * * * * * * * * * * * * * * * * //

dimensions      [0 1 -1 0 0 0 0];


internalField   nonuniform List<vector> 
1000
(
(-0.001022514718622703 0 0)
(-0.03286512239812776 0 0)
(-0.04108180468533723 0 0)
(-0.05633886113395034 0 0)
(-0.07035031695947105 0 0)
(-0.08347865133868873 0 0)
(-0.09470282727947008 0 0)
(-0.1043113850480389 0 0)
(-0.1127157946436633 0 0)
(-0.1185968561577147 0 0)
(-0.1203000485527399 0 0)
(-0.1201979331393853 0 0)
(-0.1195451022209414 0 0)
(-0.1172879356071655 0 0)
(-0.1127475108469188 0 0)
(-0.1056411871642428 0 0)
(-0.09622476250236828 0 0)
(-0.08495188751162731 0 0)
(-0.07221199809120479 0 0)
(-0.05826245010290477 0 0)
(-0.04329407410898934 0 0)
(-0.02751592510635704 0 0)
(-0.01119423327487944 0 0)
(0.005363536861200518 0 0)
(0.02183800861090912 0 0)
(0.03790196174736569 0 0)
(0.05323768768138581 0 0)
(0.0676413428603773 0 0)
(0.08115169619194211 0 0)
(0.0939350689451887 0 0)
(0.1056197984567941 0 0)
(0.1143222241123743 0 0)
(0.117966373035967 0 0)
(0.1183866598954141 0 0)
(0.1183392503733632 0 0)
(0.1177350914683091 0 0)
(0.116165390294336 0 0)
(0.1129199984170083 0 0)
(0.1074474852758285 0 0)
(0.09942771390087035 0 0)
(0.08890552853341041 0 0)
(0.07625155223377836 0 0)
(0.06200370892698445 0 0)
(0.04668141163792663 0 0)
(0.03067487985252209 0 0)
(0.01424860743130982 0 0)
(-0.002374835945250985 0 0)
(-0.01893525652575576 0 0)
(-0.03514457342227428 0 0)
(-0.05079248011019945 0 0)
(-0.06584762795557124 0 0)
(-0.08041026996757458 0 0)
(-0.09436875312144694 0 0)
(-0.1066108910806529 0 0)
(-0.1145614780268814 0 0)
(-0.1171297684368334 0 0)
(-0.1173234598898628 0 0)
(-0.1171630801470844 0 0)
(-0.1166668715847247 0 0)
(-0.1152788453161569 0 0)
(-0.1125256884608437 0 0)
(-0.1078723033493646 0 0)
(-0.1009058578640086 0 0)
(-0.09143601150393531 0 0)
(-0.07956883379222221 0 0)
(-0.06568336047715138 0 0)
(-0.0503215581500469 0 0)
(-0.03405114762744736 0 0)
(-0.01736315246965919 0 0)
(-0.000626323714271209 0 0)
(0.01591360396603751 0 0)
(0.03211562668561521 0 0)
(0.04793822102187992 0 0)
(0.06345044772557934 0 0)
(0.07875463864491118 0 0)
(0.09356783069756526 0 0)
(0.106310108137453 0 0)
(0.1140397142858007 0 0)
(0.1162282350418738 0 0)
(0.1163417663525958 0 0)
(0.1162796014529146 0 0)
(0.1158106550657183 0 0)
(0.1146593502030452 0 0)
(0.1123443051871449 0 0)
(0.1083972581830444 0 0)
(0.1023817396012933 0 0)
(0.09399266706327333 0 0)
(0.08313392288013535 0 0)
(0.06996754194741533 0 0)
(0.05490197247483109 0 0)
(0.03850808163950555 0 0)
(0.02139343842040143 0 0)
(0.004089005796749742 0 0)
(-0.0130243456343849 0 0)
(-0.02976111623876515 0 0)
(-0.04615004318369471 0 0)
(-0.06237423487392688 0 0)
(-0.07852962059216252 0 0)
(-0.09405019257295057 0 0)
(-0.1068366029454609 0 0)
(-0.1138688742516982 0 0)
(-0.1155719792364673 0 0)
(-0.1156535551947356 0 0)
(-0.1155185942583825 0 0)
(-0.1151024067134169 0 0)
(-0.1140139676601192 0 0)
(-0.1118881831051051 0 0)
(-0.1082910530563239 0 0)
(-0.1028102580588132 0 0)
(-0.09511687899953017 0 0)
(-0.08504307065710646 0 0)
(-0.07263661671186734 0 0)
(-0.05817623181475096 0 0)
(-0.0421404644768881 0 0)
(-0.02512665504357347 0 0)
(-0.007727431679305207 0 0)
(0.009600029578580254 0 0)
(0.02662095626756361 0 0)
(0.04333562895354579 0 0)
(0.0599070626721739 0 0)
(0.07643636458065005 0 0)
(0.09238211882302176 0 0)
(0.1056198231937739 0 0)
(0.1130113544182614 0 0)
(0.1148464748713462 0 0)
(0.1149221177170905 0 0)
(0.1148683110792653 0 0)
(0.1144988740285084 0 0)
(0.1135959479405742 0 0)
(0.111785729359305 0 0)
(0.1086806321209508 0 0)
(0.1038796226970355 0 0)
(0.09702769225110359 0 0)
(0.08787457030526255 0 0)
(0.07633921736531923 0 0)
(0.06255786177993364 0 0)
(0.04688808551042738 0 0)
(0.02985646489620365 0 0)
(0.01205933390159166 0 0)
(-0.005965419798859589 0 0)
(-0.02386836335355605 0 0)
(-0.04156368914630199 0 0)
(-0.05916189914674595 0 0)
(-0.07665187464198714 0 0)
(-0.09319764747288459 0 0)
(-0.1062733390235683 0 0)
(-0.1129100571563084 0 0)
(-0.1143346483115485 0 0)
(-0.1143924559220602 0 0)
(-0.1142818679815059 0 0)
(-0.113939476368146 0 0)
(-0.113056032873925 0 0)
(-0.1113331604765244 0 0)
(-0.1084074413322053 0 0)
(-0.1039076392073874 0 0)
(-0.0974923648384108 0 0)
(-0.08890655427559334 0 0)
(-0.07803445132834745 0 0)
(-0.06494090199718743 0 0)
(-0.04989137025724674 0 0)
(-0.03333133416635146 0 0)
(-0.01580706201364463 0 0)
(0.002160204691277751 0 0)
(0.02019940540890065 0 0)
(0.03815874803438535 0 0)
(0.0560664155926427 0 0)
(0.07388493361466096 0 0)
(0.0908643018201615 0 0)
(0.1046067619248013 0 0)
(0.1119759748531778 0 0)
(0.1137206622779755 0 0)
(0.1137940063341524 0 0)
(0.1137527926561715 0 0)
(0.1134593817093859 0 0)
(0.1127370636704077 0 0)
(0.1112782240691244 0 0)
(0.1087548495395013 0 0)
(0.1048099708154861 0 0)
(0.09909679231968198 0 0)
(0.09131891649453816 0 0)
(0.08128304710089532 0 0)
(0.0689516579142808 0 0)
(0.05447460865264861 0 0)
(0.03818372749386539 0 0)
(0.02054486941072114 0 0)
(0.002064437328988219 0 0)
(-0.01683844641041197 0 0)
(-0.03593554066316916 0 0)
(-0.05515427548684184 0 0)
(-0.07425190815660422 0 0)
(-0.09204616976547127 0 0)
(-0.1056044960737086 0 0)
(-0.1120602370572008 0 0)
(-0.1133285281927463 0 0)
(-0.1133749360198146 0 0)
(-0.1132829768237138 0 0)
(-0.112998726234115 0 0)
(-0.1122670974577858 0 0)
(-0.1108380247989517 0 0)
(-0.1084008640065121 0 0)
(-0.1046251253841493 0 0)
(-0.09918471511752927 0 0)
(-0.09179884254184449 0 0)
(-0.0822743650683681 0 0)
(-0.07054644312331529 0 0)
(-0.05671205617244789 0 0)
(-0.04103884395663711 0 0)
(-0.02392714858447656 0 0)
(-0.005823669662089173 0 0)
(0.01288498136047819 0 0)
(0.03195299799756614 0 0)
(0.05126308292208836 0 0)
(0.07058694270982957 0 0)
(0.08890157371121449 0 0)
(0.1034652278402299 0 0)
(0.1110489119930176 0 0)
(0.1127885104841009 0 0)
(0.1128653827372627 0 0)
(0.1128341805018742 0 0)
(0.1125974261022546 0 0)
(0.1120092965237521 0 0)
(0.1108108806339518 0 0)
(0.1087213310971432 0 0)
(0.1054246328156578 0 0)
(0.1005967694311053 0 0)
(0.09393320246611071 0 0)
(0.08518908085283995 0 0)
(0.07422469179960112 0 0)
(0.06104110667117976 0 0)
(0.04579346625162257 0 0)
(0.02877512710077594 0 0)
(0.01036298479751424 0 0)
(-0.00907721944866062 0 0)
(-0.02927973010836575 0 0)
(-0.05004438746174276 0 0)
(-0.0708956025956268 0 0)
(-0.09025400392937144 0 0)
(-0.1046830453764527 0 0)
(-0.1112650935412075 0 0)
(-0.1124858831424414 0 0)
(-0.1125280075027843 0 0)
(-0.1124516825629277 0 0)
(-0.1122137644633951 0 0)
(-0.1115989433847234 0 0)
(-0.110394187492535 0 0)
(-0.1083309903580975 0 0)
(-0.1051159934331364 0 0)
(-0.1004466142975452 0 0)
(-0.09404074698072266 0 0)
(-0.08566915265113066 0 0)
(-0.07519001591836347 0 0)
(-0.06258299856613911 0 0)
(-0.0479687999821559 0 0)
(-0.03159452922118153 0 0)
(-0.01377982199320338 0 0)
(0.005159295535530139 0 0)
(0.02497560503335764 0 0)
(0.04547869005369615 0 0)
(0.06629254422193183 0 0)
(0.08614146684793722 0 0)
(0.1019114141054782 0 0)
(0.110093909024425 0 0)
(0.1119827810358046 0 0)
(0.1120768990594003 0 0)
(0.1120543851146237 0 0)
(0.111863057872417 0 0)
(0.1113800948849445 0 0)
(0.1103834462542767 0 0)
(0.1086304022484266 0 0)
(0.1058414098069681 0 0)
(0.1017194053026447 0 0)
(0.09596819359517424 0 0)
(0.08832231301513359 0 0)
(0.07858331760148266 0 0)
(0.06665154286865817 0 0)
(0.05254454808960824 0 0)
(0.03639728285070374 0 0)
(0.0184339421688555 0 0)
(-0.001093931823037853 0 0)
(-0.02196670147617591 0 0)
(-0.04394317226343081 0 0)
(-0.06639977866600674 0 0)
(-0.08745476212569595 0 0)
(-0.103201811438778 0 0)
(-0.1103953710391543 0 0)
(-0.1117444448089319 0 0)
(-0.1117937213949582 0 0)
(-0.1117325477036365 0 0)
(-0.1115363902080192 0 0)
(-0.1110187409263717 0 0)
(-0.1099953151408185 0 0)
(-0.1082308847468866 0 0)
(-0.1054643870367153 0 0)
(-0.1014186106006976 0 0)
(-0.09582154838875984 0 0)
(-0.08843032918834526 0 0)
(-0.07905886627300998 0 0)
(-0.0676080404553584 0 0)
(-0.05408718926393641 0 0)
(-0.0386110423438227 0 0)
(-0.02136788335452698 0 0)
(-0.002570180248897693 0 0)
(0.01758921151624532 0 0)
(0.03891574507014484 0 0)
(0.06096983627381614 0 0)
(0.08234239746348411 0 0)
(0.09965811404431624 0 0)
(0.1089513084590701 0 0)
(0.1112408395557397 0 0)
(0.1113810061452777 0 0)
(0.1113670164215044 0 0)
(0.1112151277887378 0 0)
(0.1108207554109023 0 0)
(0.1099890954770088 0 0)
(0.1085080340499301 0 0)
(0.1061290213888567 0 0)
(0.1025815136218431 0 0)
(0.09758479072819577 0 0)
(0.09086968586563393 0 0)
(0.08220610664813691 0 0)
(0.07142839365096293 0 0)
(0.05845316665655475 0 0)
(0.04328688256609382 0 0)
(0.02601417081846334 0 0)
(0.006760839275994601 0 0)
(-0.01433824832223383 0 0)
(-0.03706844902427309 0 0)
(-0.0607730250643231 0 0)
(-0.08346375754957276 0 0)
(-0.10093871667638 0 0)
(-0.1093341406389994 0 0)
(-0.1110532560185214 0 0)
(-0.1111302322777731 0 0)
(-0.1110835737098115 0 0)
(-0.110927617569829 0 0)
(-0.1104962465091538 0 0)
(-0.1096278690612026 0 0)
(-0.1081130564737392 0 0)
(-0.1057176203261583 0 0)
(-0.1021881755333564 0 0)
(-0.09726737489246878 0 0)
(-0.09071101409729415 0 0)
(-0.08230939362362057 0 0)
(-0.07191237692470241 0 0)
(-0.05944890276358316 0 0)
(-0.04492906895429979 0 0)
(-0.02842680669138842 0 0)
(-0.010050811870227 0 0)
(0.01008146342464507 0 0)
(0.03181608497996437 0 0)
(0.05473190821245576 0 0)
(0.07744092036395121 0 0)
(0.09651442721458067 0 0)
(0.1074629969976088 0 0)
(0.1105029336708339 0 0)
(0.1107443269416139 0 0)
(0.1107389066590433 0 0)
(0.1106220078852089 0 0)
(0.1103056455116269 0 0)
(0.1096149248726771 0 0)
(0.108362277962555 0 0)
(0.106324660378683 0 0)
(0.1032553271513661 0 0)
(0.09889104492882353 0 0)
(0.09296771661271426 0 0)
(0.08524039678020595 0 0)
(0.07550211591848791 0 0)
(0.0635991488906259 0 0)
(0.04944157459400456 0 0)
(0.03300113317622121 0 0)
(0.014290916173963 0 0)
(-0.0066474044535356 0 0)
(-0.02966597074406072 0 0)
(-0.05417293656741276 0 0)
(-0.07827761255093593 0 0)
(-0.09774216711037151 0 0)
(-0.1079446713299228 0 0)
(-0.1103646111792245 0 0)
(-0.1105110343290841 0 0)
(-0.1104772521776203 0 0)
(-0.1103594515562133 0 0)
(-0.1100067286275436 0 0)
(-0.1092757678759796 0 0)
(-0.1079771065378563 0 0)
(-0.1058984545991465 0 0)
(-0.1028072160502977 0 0)
(-0.09846143450475496 0 0)
(-0.09262170542479915 0 0)
(-0.08506746258248908 0 0)
(-0.07561704641674924 0 0)
(-0.06414379462076109 0 0)
(-0.05058001757467542 0 0)
(-0.03490911319410318 0 0)
(-0.01715052030747098 0 0)
(0.002654466778122666 0 0)
(0.02441432310339441 0 0)
(0.04778265937645183 0 0)
(0.07152023411370161 0 0)
(0.09237639708000986 0 0)
(0.1054520445556699 0 0)
(0.10969544997044 0 0)
(0.110144255038145 0 0)
(0.1101486330993167 0 0)
(0.1100622269824465 0 0)
(0.109815169214892 0 0)
(0.1092476456965089 0 0)
(0.1081921221869449 0 0)
(0.1064462106215503 0 0)
(0.103783594440924 0 0)
(0.09995801337813476 0 0)
(0.09471451109824575 0 0)
(0.08780342180578098 0 0)
(0.07899361142632515 0 0)
(0.06808493225500439 0 0)
(0.05491947396487089 0 0)
(0.03938418891348734 0 0)
(0.02140077889414072 0 0)
(0.0009249967173587342 0 0)
(-0.02197830278580374 0 0)
(-0.04684148478250431 0 0)
(-0.07201994126264794 0 0)
(-0.09351464952254769 0 0)
(-0.1060512061309431 0 0)
(-0.1096177698260536 0 0)
(-0.1099194270243383 0 0)
(-0.1098971059120133 0 0)
(-0.1098139453638508 0 0)
(-0.1095324811433614 0 0)
(-0.1089251035028484 0 0)
(-0.1078177722433866 0 0)
(-0.1060161140004372 0 0)
(-0.1033050652419768 0 0)
(-0.09945700581573634 0 0)
(-0.09423996680729357 0 0)
(-0.08743013120462853 0 0)
(-0.07882755832566651 0 0)
(-0.06826863630589386 0 0)
(-0.05563048900374123 0 0)
(-0.04082915301845638 0 0)
(-0.02381337456236929 0 0)
(-0.004557038895328904 0 0)
(0.01691577660648331 0 0)
(0.04035940311517337 0 0)
(0.06475683090136179 0 0)
(0.08722532390193101 0 0)
(0.1027293560020695 0 0)
(0.1087107716999 0 0)
(0.1095628424544865 0 0)
(0.1095823300818267 0 0)
(0.1095223203334149 0 0)
(0.1093361120127669 0 0)
(0.1088768041725918 0 0)
(0.1079939461447224 0 0)
(0.1065018406180969 0 0)
(0.1041914734543883 0 0)
(0.1008321094749235 0 0)
(0.09617948120476996 0 0)
(0.08998512599802858 0 0)
(0.08200533147657497 0 0)
(0.07201120197417528 0 0)
(0.05979932323771721 0 0)
(0.04519608009938744 0 0)
(0.02805340417450839 0 0)
(0.008255024491057927 0 0)
(-0.01421671551232414 0 0)
(-0.03904005834935766 0 0)
(-0.06489094333251866 0 0)
(-0.08823031077704167 0 0)
(-0.1034529661951033 0 0)
(-0.108719104824477 0 0)
(-0.1093412427768914 0 0)
(-0.1093336455053454 0 0)
(-0.1092806041577597 0 0)
(-0.1090621735722188 0 0)
(-0.1085658169780309 0 0)
(-0.1076295328730128 0 0)
(-0.106073830286222 0 0)
(-0.1036983239674785 0 0)
(-0.1002881039398841 0 0)
(-0.09561948498333808 0 0)
(-0.08946981659642919 0 0)
(-0.08162957178388069 0 0)
(-0.07191152990757715 0 0)
(-0.06015514551760252 0 0)
(-0.04622852666576348 0 0)
(-0.03002717979782963 0 0)
(-0.01146952868196421 0 0)
(0.009482718451524159 0 0)
(0.03268712819561898 0 0)
(0.05737049097113383 0 0)
(0.08112945169880033 0 0)
(0.09912886428239173 0 0)
(0.10739638541642 0 0)
(0.1089698975049517 0 0)
(0.1090336477999872 0 0)
(0.108994247618745 0 0)
(0.1088605370214255 0 0)
(0.1084956322740207 0 0)
(0.1077647742222489 0 0)
(0.1064958932777825 0 0)
(0.1044947104221277 0 0)
(0.1015444370037118 0 0)
(0.09741179762768146 0 0)
(0.09185287456049707 0 0)
(0.08461902414815568 0 0)
(0.07546510271254864 0 0)
(0.06415880795711221 0 0)
(0.05048491188324236 0 0)
(0.03424435228646043 0 0)
(0.0152642283016365 0 0)
(-0.00654603358195188 0 0)
(-0.03100632964879605 0 0)
(-0.05712480819271592 0 0)
(-0.08195007957564489 0 0)
(-0.09996337368832149 0 0)
(-0.1075247761989717 0 0)
(-0.108754977712781 0 0)
(-0.1087829903342406 0 0)
(-0.108753483807385 0 0)
(-0.1085894022454236 0 0)
(-0.1081917576068508 0 0)
(-0.1074085605269792 0 0)
(-0.1060730461864747 0 0)
(-0.1039971713028442 0 0)
(-0.1009771619831011 0 0)
(-0.09679766331789746 0 0)
(-0.09123966231266813 0 0)
(-0.08408957251072714 0 0)
(-0.07514578325706958 0 0)
(-0.06422299429796213 0 0)
(-0.05115641375671103 0 0)
(-0.03580273479814598 0 0)
(-0.0180368408774601 0 0)
(0.002232095148057975 0 0)
(0.02495386692910038 0 0)
(0.04958476104611442 0 0)
(0.07423108798414804 0 0)
(0.09455126407987269 0 0)
(0.1055543172686956 0 0)
(0.1083109857979048 0 0)
(0.1084993534014349 0 0)
(0.1084740786646826 0 0)
(0.1083838709437238 0 0)
(0.1081004998261449 0 0)
(0.107503278273836 0 0)
(0.1064316689767599 0 0)
(0.1047042898155906 0 0)
(0.1021168579388281 0 0)
(0.09844682806813852 0 0)
(0.0934566502352356 0 0)
(0.08689772603962939 0 0)
(0.07851722602340863 0 0)
(0.06806569414461118 0 0)
(0.05530038152690204 0 0)
(0.03998640088501665 0 0)
(0.02190848347334478 0 0)
(0.0009161164181851875 0 0)
(-0.0229344678334599 0 0)
(-0.04895505698017258 0 0)
(-0.07481427980859422 0 0)
(-0.0954560118332179 0 0)
(-0.1058378070581219 0 0)
(-0.1081219064986681 0 0)
(-0.1082430239337498 0 0)
(-0.1082293095508729 0 0)
(-0.1081107748396695 0 0)
(-0.1077999566258389 0 0)
(-0.1071531324923624 0 0)
(-0.1060152623204277 0 0)
(-0.1042088323917673 0 0)
(-0.1015398890211943 0 0)
(-0.09780116851903596 0 0)
(-0.09277861165610858 0 0)
(-0.08625799000244248 0 0)
(-0.07802955555958382 0 0)
(-0.06789249095364085 0 0)
(-0.05566015052900537 0 0)
(-0.04116154080123304 0 0)
(-0.02423851334496826 0 0)
(-0.004758767620803083 0 0)
(0.01730324372972157 0 0)
(0.04160065575719463 0 0)
(0.06671855773157274 0 0)
(0.08899032385305482 0 0)
(0.1029706083095545 0 0)
(0.1074919267076277 0 0)
(0.1079718347228855 0 0)
(0.1079598889593504 0 0)
(0.1079047350802573 0 0)
(0.107690156058827 0 0)
(0.1072098329816122 0 0)
(0.1063126690375676 0 0)
(0.1048289590299077 0 0)
(0.1025657788132382 0 0)
(0.09931081828843169 0 0)
(0.09483384765996852 0 0)
(0.08888953223537049 0 0)
(0.08122308076336496 0 0)
(0.07157593146221007 0 0)
(0.05968803318164168 0 0)
(0.04530046612704734 0 0)
(0.02816761429085836 0 0)
(0.008091995371800872 0 0)
(-0.01497155984241763 0 0)
(-0.04059084988830947 0 0)
(-0.06701488165590649 0 0)
(-0.08990042108280583 0 0)
(-0.103435476834576 0 0)
(-0.1073614163715619 0 0)
(-0.1077090529747335 0 0)
(-0.1077078286001503 0 0)
(-0.1076253756407278 0 0)
(-0.1073895650730611 0 0)
(-0.1068633869733051 0 0)
(-0.1059027172763537 0 0)
(-0.1043393524999665 0 0)
(-0.1019881980869998 0 0)
(-0.09864977054645026 0 0)
(-0.09411561059528445 0 0)
(-0.08817292949837473 0 0)
(-0.08060807502137733 0 0)
(-0.07121119410263754 0 0)
(-0.05978161432017013 0 0)
(-0.04612891452512012 0 0)
(-0.03007064104294674 0 0)
(-0.01144336458230897 0 0)
(0.009837385578782153 0 0)
(0.03358358186202414 0 0)
(0.05879322634973329 0 0)
(0.08253357211122385 0 0)
(0.09946478116355831 0 0)
(0.1063616304608252 0 0)
(0.1074321687950217 0 0)
(0.107452387452211 0 0)
(0.1074233097129251 0 0)
(0.1072654452387438 0 0)
(0.1068863620582985 0 0)
(0.1061430748787216 0 0)
(0.1048766467265051 0 0)
(0.1029045582223786 0 0)
(0.1000242187440627 0 0)
(0.09601320615074058 0 0)
(0.09063151758597902 0 0)
(0.08362614090564495 0 0)
(0.07473484941471843 0 0)
(0.06368764692099516 0 0)
(0.05021052213372447 0 0)
(0.034037060187456 0 0)
(0.0149342515639091 0 0)
(-0.007222352204409922 0 0)
(-0.0322046167316538 0 0)
(-0.05876214183079739 0 0)
(-0.08336934900326992 0 0)
(-0.1001121137080982 0 0)
(-0.1063355673581186 0 0)
(-0.1071717190925133 0 0)
(-0.107188161516667 0 0)
(-0.1071343593368573 0 0)
(-0.1069617790222544 0 0)
(-0.1065409157602245 0 0)
(-0.1057382874520302 0 0)
(-0.1043938232050624 0 0)
(-0.102330662115848 0 0)
(-0.09935665663178007 0 0)
(-0.09526886844641662 0 0)
(-0.08985682086291019 0 0)
(-0.08290529187188363 0 0)
(-0.07419878780163286 0 0)
(-0.06352624314737046 0 0)
(-0.05068159139209492 0 0)
(-0.03546235440293109 0 0)
(-0.01767935221165789 0 0)
(0.002798503498927359 0 0)
(0.02590078556078389 0 0)
(0.05093095709514257 0 0)
(0.07557449827488755 0 0)
(0.0949186083126185 0 0)
(0.1043489442481916 0 0)
(0.106315124994748 0 0)
(0.1064066658159885 0 0)
(0.1063891646205868 0 0)
(0.1062606154392925 0 0)
(0.1059273883767804 0 0)
(0.1052427934237572 0 0)
(0.104045237070552 0 0)
(0.1021485745445207 0 0)
(0.09934796986119247 0 0)
(0.09542360419446928 0 0)
(0.09014748199393306 0 0)
(0.08329400452060066 0 0)
(0.07465752326332965 0 0)
(0.06408599414789853 0 0)
(0.05155880383786744 0 0)
(0.0373857871546612 0 0)
(0.02267158757327497 0 0)
(0.009956634385042797 0 0)
(0.002456126144840867 0 0)
(0.0002348874851869823 0 0)
(5.653332433973318e-06 0 0)
(2.250542836180282e-08 0 0)
(5.624343293449989e-12 0 0)
(-5.39053439557173e-12 0 0)
(-6.744026505654752e-12 0 0)
(-7.864574803171004e-12 0 0)
(-9.085090942132567e-12 0 0)
(-1.058466277700435e-11 0 0)
(-1.21311371968692e-11 0 0)
(-1.277869453981844e-11 0 0)
(-1.211629889103186e-11 0 0)
(-1.082451674105111e-11 0 0)
(-9.574446199501003e-12 0 0)
(-8.579101183477142e-12 0 0)
(-7.31342089208125e-12 0 0)
(-5.52092926033806e-12 0 0)
(-4.612544844263872e-12 0 0)
(-5.353170772028577e-12 0 0)
(-5.885986340629716e-12 0 0)
(-4.422115443309104e-12 0 0)
(-2.693993619794245e-12 0 0)
(-1.198825676520354e-12 0 0)
(-7.293467910419115e-13 0 0)
(-6.049910519935414e-13 0 0)
(8.119559091208872e-13 0 0)
(1.778614358760484e-12 0 0)
(1.956757408427699e-12 0 0)
(1.519551414307915e-12 0 0)
(7.233155741269011e-13 0 0)
(-1.286538119620512e-12 0 0)
(-2.57137492724054e-12 0 0)
(-3.430308568158169e-12 0 0)
(-3.477293295164427e-12 0 0)
(-4.039703237922375e-12 0 0)
(-5.144502512236278e-12 0 0)
(-5.286236674452503e-12 0 0)
(-5.479250269589163e-12 0 0)
(-6.099038331112227e-12 0 0)
(-7.52027136782234e-12 0 0)
(-7.158654026303681e-12 0 0)
(-5.467882625627336e-12 0 0)
(-3.882313356346167e-12 0 0)
(-2.654895100421366e-12 0 0)
(-2.528826217572363e-12 0 0)
(-2.223723148326067e-12 0 0)
(-8.29330984991662e-13 0 0)
(7.545890871711358e-13 0 0)
(2.244541541342048e-12 0 0)
(3.500647513880143e-12 0 0)
(4.080432328002376e-12 0 0)
(5.106202080567855e-12 0 0)
(6.542296427821122e-12 0 0)
(8.113203390945608e-12 0 0)
(9.370273481892656e-12 0 0)
(9.408472096228652e-12 0 0)
(8.772991659946809e-12 0 0)
(7.804573654962323e-12 0 0)
(6.352813887223427e-12 0 0)
(5.393991298800975e-12 0 0)
(4.852405614412689e-12 0 0)
(3.490194056511635e-12 0 0)
(2.30887571327011e-12 0 0)
(1.118840099025159e-12 0 0)
(-3.954242287003057e-13 0 0)
(-1.06397302808912e-12 0 0)
(-1.346594566839804e-12 0 0)
(-1.617846777907055e-12 0 0)
(-9.266875921750614e-13 0 0)
(3.136432113222828e-14 0 0)
(1.125802899600671e-12 0 0)
(2.574877688935098e-12 0 0)
(3.019071116698203e-12 0 0)
(2.488822287147587e-12 0 0)
(1.747293812176703e-12 0 0)
(1.164014820302553e-12 0 0)
(4.964159821241651e-13 0 0)
(-1.4334742104153e-12 0 0)
(-2.869535228435662e-12 0 0)
(-2.182728734532303e-12 0 0)
(-1.670724319895695e-12 0 0)
(-1.48565268948244e-12 0 0)
(-1.853476937611245e-12 0 0)
(-3.353855206659509e-12 0 0)
(-4.481245398645199e-12 0 0)
(-5.206192877443104e-12 0 0)
(-6.46676475911046e-12 0 0)
(-7.225615992370567e-12 0 0)
(-7.244666740835385e-12 0 0)
(-7.045588320175079e-12 0 0)
(-5.825154102458962e-12 0 0)
(-4.428194048715507e-12 0 0)
(-4.171746557634524e-12 0 0)
(-5.508733020777784e-12 0 0)
(-6.270205933389134e-12 0 0)
(-5.059311240504872e-12 0 0)
(-4.082187505737422e-12 0 0)
(-3.487696613469394e-12 0 0)
(-3.777300596289042e-12 0 0)
(-4.295320959944818e-12 0 0)
(-4.222226133604704e-12 0 0)
(-5.261074338609424e-12 0 0)
(-6.972699328029181e-12 0 0)
(-8.424364521359367e-12 0 0)
(-9.701450933563807e-12 0 0)
(-9.101692633481742e-12 0 0)
(-7.96374208717209e-12 0 0)
(-6.990066978810589e-12 0 0)
(-6.584971967697472e-12 0 0)
(-6.474517793764587e-12 0 0)
(-5.360862662264261e-12 0 0)
(-4.104789005974221e-12 0 0)
(-2.81916142939469e-12 0 0)
(-1.213512431073926e-12 0 0)
(4.321242119575352e-13 0 0)
(1.977694721053948e-12 0 0)
(2.125452884368047e-12 0 0)
(2.31840780065273e-12 0 0)
(3.992674977022552e-12 0 0)
(4.537752335537095e-12 0 0)
(4.447344922537844e-12 0 0)
(5.424416527908435e-12 0 0)
(5.170507209244261e-12 0 0)
(3.892648304951276e-12 0 0)
(2.876486726951883e-12 0 0)
(2.081978867215529e-12 0 0)
(1.308244476765673e-12 0 0)
(4.876269186295332e-13 0 0)
(-8.023785541757459e-13 0 0)
(-2.561001974856325e-12 0 0)
(-4.015324307606358e-12 0 0)
(-4.13528137285911e-12 0 0)
(-2.735687706797342e-12 0 0)
(-2.227156102264129e-12 0 0)
(-2.919092087225433e-12 0 0)
(-2.86087663871675e-12 0 0)
(-2.898272692284497e-12 0 0)
(-2.474933994586347e-12 0 0)
(-9.48394457113714e-13 0 0)
(-7.023060116039547e-13 0 0)
(-2.902408280510971e-13 0 0)
(7.9545381622306e-13 0 0)
(2.41750466998643e-12 0 0)
(3.993591322632297e-12 0 0)
(5.732222471419684e-12 0 0)
(7.503849934990208e-12 0 0)
(9.345909280601258e-12 0 0)
(1.077066792014232e-11 0 0)
(1.012307794319162e-11 0 0)
(9.276345452723705e-12 0 0)
(1.038814093794202e-11 0 0)
(1.116959698449447e-11 0 0)
(1.060458671738255e-11 0 0)
(9.284104236495558e-12 0 0)
(7.841051290398722e-12 0 0)
(7.791541161208456e-12 0 0)
(7.995852206380722e-12 0 0)
(8.740023393183472e-12 0 0)
(8.704360814847189e-12 0 0)
(7.562067137209891e-12 0 0)
(7.191711737214382e-12 0 0)
(6.338951103334362e-12 0 0)
(5.547038106208453e-12 0 0)
(5.445363963103037e-12 0 0)
(4.383100969146824e-12 0 0)
(2.744420675687453e-12 0 0)
(3.236394829207462e-12 0 0)
(3.155523087136349e-12 0 0)
(2.060199090778214e-12 0 0)
(1.668149611543411e-12 0 0)
(1.168322362743418e-12 0 0)
(1.962903781846709e-12 0 0)
(3.237329100448844e-12 0 0)
(4.32136692354115e-12 0 0)
(4.522095898694694e-12 0 0)
(3.858766933099565e-12 0 0)
(4.725500265253411e-12 0 0)
(4.165707482192809e-12 0 0)
(2.384491661208186e-12 0 0)
(6.823641782965365e-13 0 0)
(-7.998021515012581e-13 0 0)
(-1.698679265338753e-12 0 0)
(-3.746999766691504e-13 0 0)
(6.345238229026025e-13 0 0)
(-4.347155908245409e-13 0 0)
(-2.084595247134284e-12 0 0)
(-3.929200770484024e-12 0 0)
(-4.169978375046814e-12 0 0)
(-3.480649666526441e-12 0 0)
(-2.661792332872211e-12 0 0)
(-2.261062629038249e-12 0 0)
(-2.731305024199562e-12 0 0)
(-1.828087803856663e-12 0 0)
(-5.815488417800115e-13 0 0)
(-6.997853173373336e-13 0 0)
(-9.162768734765102e-13 0 0)
(1.338366581974096e-13 0 0)
(1.410006372325109e-12 0 0)
(2.971349488313828e-12 0 0)
(3.183358681804778e-12 0 0)
(1.848046926411808e-12 0 0)
(1.651622487493061e-12 0 0)
(2.487102690199507e-12 0 0)
(3.513777954819516e-12 0 0)
(4.928129979927399e-12 0 0)
(5.978233757086977e-12 0 0)
(5.107144049414114e-12 0 0)
(3.521541909753531e-12 0 0)
(1.691678888327749e-12 0 0)
(-1.14689401556337e-13 0 0)
(-1.376884856358826e-12 0 0)
(-1.680260064748885e-12 0 0)
(-8.292096424028251e-13 0 0)
(-5.041447418486784e-13 0 0)
(-1.182104553822868e-13 0 0)
(8.684585598505324e-13 0 0)
(1.935104050074319e-12 0 0)
(1.945527574980025e-12 0 0)
(1.75599623261339e-12 0 0)
(3.298966603168726e-12 0 0)
(4.659449678527027e-12 0 0)
(6.030322981587412e-12 0 0)
(6.100662361942834e-12 0 0)
(5.366999175064714e-12 0 0)
(4.254293813084285e-12 0 0)
(2.88690217899336e-12 0 0)
(2.111507995119458e-12 0 0)
(2.236690235620566e-12 0 0)
(2.640920650741364e-12 0 0)
(3.066885806753497e-12 0 0)
(2.829605093573007e-12 0 0)
(2.170648285877159e-12 0 0)
(3.747554029456891e-12 0 0)
(3.939690695938857e-12 0 0)
(2.160207512938441e-12 0 0)
(3.363931477004663e-13 0 0)
(-2.294966948482698e-13 0 0)
(5.693818682636853e-13 0 0)
(6.727960628896359e-13 0 0)
(9.127571846788192e-13 0 0)
(1.942010977005362e-12 0 0)
(3.44243586812356e-12 0 0)
(4.469952848633551e-12 0 0)
(5.067210889368281e-12 0 0)
(6.166880463271518e-12 0 0)
(7.875020956880751e-12 0 0)
(8.912963095538518e-12 0 0)
(8.072383625968289e-12 0 0)
(8.482736143875833e-12 0 0)
(8.968625848069982e-12 0 0)
(9.36679748741706e-12 0 0)
(1.113669205142144e-11 0 0)
(1.227720193155841e-11 0 0)
(1.352029955182844e-11 0 0)
(1.527366738631465e-11 0 0)
(1.630201833842929e-11 0 0)
(1.636719883614052e-11 0 0)
(1.728955315983284e-11 0 0)
(1.688875768001313e-11 0 0)
(1.612726479591189e-11 0 0)
(1.614636371184337e-11 0 0)
(1.699045927612577e-11 0 0)
(1.672706558504697e-11 0 0)
(1.540140762619139e-11 0 0)
(1.418440489971997e-11 0 0)
(1.317079464196496e-11 0 0)
(1.215719615672784e-11 0 0)
(1.076369131155565e-11 0 0)
(1.003959142804103e-11 0 0)
(1.000394754822712e-11 0 0)
(1.013521580094892e-11 0 0)
(9.597969980388678e-12 0 0)
(7.746357413695736e-12 0 0)
(7.017925576791346e-12 0 0)
(6.28244995522256e-12 0 0)
(5.306199090053825e-12 0 0)
(4.634230647228709e-12 0 0)
(3.569375585873957e-12 0 0)
(2.136758875894527e-12 0 0)
(3.694553317447105e-13 0 0)
(3.286154128532564e-13 0 0)
(6.437205839178112e-14 0 0)
(-1.215230968589657e-12 0 0)
(-5.554814061496287e-13 0 0)
(-9.205738364144591e-13 0 0)
(-1.598649173455665e-12 0 0)
(-2.095027238124831e-12 0 0)
(-3.611960446697085e-12 0 0)
(-4.921996171993205e-12 0 0)
(-6.232054269493426e-12 0 0)
(-7.50731205615633e-12 0 0)
(-8.803434920415037e-12 0 0)
(-1.058036837807239e-11 0 0)
(-1.175910109380534e-11 0 0)
(-1.276224712097199e-11 0 0)
(-1.268228361023879e-11 0 0)
(-1.230936548738051e-11 0 0)
(-1.349504713328211e-11 0 0)
(-1.476159578692341e-11 0 0)
(-1.60568932719278e-11 0 0)
(-1.686270591655434e-11 0 0)
(-1.596559942482536e-11 0 0)
(-1.467730743974564e-11 0 0)
)
;

boundaryField
{
    inlet
    {
        type            zeroGradient;
    }
    outlet
    {
        type            characteristicPressureInletOutletVelocity;
        UName           U;
        pName           p;
        TName           T;
        phiName         phi;
        rhoName         rho;
        U               (0 0 0);
        p               101325;
        T               300;
        value           uniform (-1.467730743974564e-11 0 0);
    }
    frontAndBack
    {
        type            empty;
    }
}


// ************************************************************************* //
