/*--------------------------------*- C++ -*----------------------------------*\
| =========                 |                                                 |
| \\      /  F ield         | OpenFOAM: The Open Source CFD Toolbox           |
|  \\    /   O peration     | Version:  v2012                                 |
|   \\  /    A nd           | Website:  www.openfoam.com                      |
|    \\/     M anipulation  |                                                 |
\*---------------------------------------------------------------------------*/
FoamFile
{
    version     2.0;
    format      ascii;
    class       volVectorField;
    location    "0.005";
    object      UMean;
}
// * * * * * * * * * * * * * * * * * * * * * * * * * * * * * * * * * * * * * //

dimensions      [0 1 -1 0 0 0 0];


internalField   nonuniform List<vector> 
1000
(
(-5.129994939638152e-05 0 0)
(2.6349075949435e-05 0 0)
(6.225843444960764e-05 0 0)
(0.0001384186063746852 0 0)
(0.0002274953946995662 0 0)
(0.0003346372164414236 0 0)
(0.0004625834162203725 0 0)
(0.000603748601507321 0 0)
(0.0007612145455801616 0 0)
(0.0009282322814700277 0 0)
(0.001101319852367683 0 0)
(0.001274324946169464 0 0)
(0.001447181243103947 0 0)
(0.001617394585500051 0 0)
(0.001783331274293864 0 0)
(0.001940321601792012 0 0)
(0.002086056203995922 0 0)
(0.002216414621337198 0 0)
(0.002330132396171989 0 0)
(0.002424152117975262 0 0)
(0.002497914874429274 0 0)
(0.002549045112722977 0 0)
(0.002577591051464668 0 0)
(0.002581973824131333 0 0)
(0.002563034844087726 0 0)
(0.002520194675007057 0 0)
(0.002455219787244617 0 0)
(0.002368402609728054 0 0)
(0.002261904993464976 0 0)
(0.002135993622147756 0 0)
(0.001992679357234628 0 0)
(0.001833808385293082 0 0)
(0.001666162864011365 0 0)
(0.001495586127664185 0 0)
(0.001325336886541166 0 0)
(0.001155379554957792 0 0)
(0.0009870525568433735 0 0)
(0.0008221435679031611 0 0)
(0.0006634852542089557 0 0)
(0.0005144751078623927 0 0)
(0.0003787577870666853 0 0)
(0.0002596560070133799 0 0)
(0.0001598440841266782 0 0)
(8.124681098766877e-05 0 0)
(2.514132251280928e-05 0 0)
(-7.627707819895366e-06 0 0)
(-1.662345446656763e-05 0 0)
(-1.728410542832682e-06 0 0)
(3.675254566501733e-05 0 0)
(9.819588105538324e-05 0 0)
(0.000181727554978952 0 0)
(0.000286586867374461 0 0)
(0.000412072261539957 0 0)
(0.0005568564678937148 0 0)
(0.0007167325624259386 0 0)
(0.0008841275667228405 0 0)
(0.001053000781108016 0 0)
(0.001221786026831394 0 0)
(0.00139023450025167 0 0)
(0.001557095256799995 0 0)
(0.001721254914354278 0 0)
(0.001879856354799806 0 0)
(0.002030392697143761 0 0)
(0.0021688884813021 0 0)
(0.002292335213269994 0 0)
(0.002397037382156931 0 0)
(0.002480983856491978 0 0)
(0.002541952431399314 0 0)
(0.002579488251818835 0 0)
(0.002592737855309787 0 0)
(0.002582279116197555 0 0)
(0.00254801201090973 0 0)
(0.002490961859148107 0 0)
(0.002411136889128789 0 0)
(0.002309314347804514 0 0)
(0.002185384277091612 0 0)
(0.002041441780032592 0 0)
(0.001882071051121404 0 0)
(0.001715933910337636 0 0)
(0.001548302491224626 0 0)
(0.001380934790966265 0 0)
(0.001213868008197111 0 0)
(0.001047984214284463 0 0)
(0.0008845703557755679 0 0)
(0.0007256344350388685 0 0)
(0.0005738162175423092 0 0)
(0.0004323203558004795 0 0)
(0.0003046163909189025 0 0)
(0.0001941586067156172 0 0)
(0.0001039548673846251 0 0)
(3.635932328917607e-05 0 0)
(-7.158847812253598e-06 0 0)
(-2.592152681102222e-05 0 0)
(-1.995238247656352e-05 0 0)
(1.036384493180032e-05 0 0)
(6.450957012046546e-05 0 0)
(0.0001421532069327713 0 0)
(0.0002431465792527193 0 0)
(0.0003671782791942477 0 0)
(0.0005121055605332745 0 0)
(0.0006717857033216827 0 0)
(0.0008374319648472963 0 0)
(0.001003958377811707 0 0)
(0.001170350459977641 0 0)
(0.001336474721421194 0 0)
(0.001501334877777682 0 0)
(0.001664098698315543 0 0)
(0.001822572752364479 0 0)
(0.001974746687402727 0 0)
(0.002117286609369565 0 0)
(0.002247283415821011 0 0)
(0.002360949323303721 0 0)
(0.002455510525901642 0 0)
(0.00252796123100508 0 0)
(0.002576853450190469 0 0)
(0.002600810477759348 0 0)
(0.002599982615460465 0 0)
(0.002574268026022652 0 0)
(0.00252450130997808 0 0)
(0.002450601611918854 0 0)
(0.00235299197344804 0 0)
(0.002231565997525057 0 0)
(0.002088831924448204 0 0)
(0.001930645142415505 0 0)
(0.001766278500988781 0 0)
(0.001600720010616626 0 0)
(0.001435382696011333 0 0)
(0.001270270486847265 0 0)
(0.001106107877036757 0 0)
(0.0009438549197181615 0 0)
(0.000785136929638053 0 0)
(0.0006320431861280459 0 0)
(0.0004873138139900981 0 0)
(0.0003540263354062613 0 0)
(0.0002356010029744451 0 0)
(0.0001353132612102842 0 0)
(5.620501501293139e-05 0 0)
(5.717087827427872e-07 0 0)
(-2.99975849272944e-05 0 0)
(-3.485039677812925e-05 0 0)
(-1.385500493401129e-05 0 0)
(3.271339014147443e-05 0 0)
(0.0001047251840621569 0 0)
(0.0002020424632466061 0 0)
(0.0003241725525894892 0 0)
(0.000468179160543169 0 0)
(0.0006267976077562561 0 0)
(0.0007907995756290235 0 0)
(0.0009555265565993336 0 0)
(0.001120121174433369 0 0)
(0.001284509031007652 0 0)
(0.001447858713021997 0 0)
(0.001609516654339778 0 0)
(0.001767683676124085 0 0)
(0.001920707177481363 0 0)
(0.002065745955094146 0 0)
(0.002200203428317886 0 0)
(0.002320532324801073 0 0)
(0.002423821087977452 0 0)
(0.002506724054253994 0 0)
(0.002567079356463324 0 0)
(0.002602766012007639 0 0)
(0.002613096922095234 0 0)
(0.00259737792130929 0 0)
(0.00255595930816876 0 0)
(0.002488575421608269 0 0)
(0.002395559320941019 0 0)
(0.002277055723124698 0 0)
(0.002136074547243437 0 0)
(0.001979339458530112 0 0)
(0.001816536006647054 0 0)
(0.001652619200072921 0 0)
(0.001488890218897786 0 0)
(0.001325325258072279 0 0)
(0.00116253034625484 0 0)
(0.001001258012720519 0 0)
(0.0008428620620099458 0 0)
(0.0006890522712544682 0 0)
(0.0005421850323337225 0 0)
(0.0004049453926828714 0 0)
(0.0002805076738146498 0 0)
(0.0001720771614578029 0 0)
(8.292420525283907e-05 0 0)
(1.584126337339615e-05 0 0)
(-2.68245335010987e-05 0 0)
(-4.357368358308563e-05 0 0)
(-3.342240574652635e-05 0 0)
(4.018047326617756e-06 0 0)
(6.90804097133346e-05 0 0)
(0.0001617872895416105 0 0)
(0.0002814174427854947 0 0)
(0.0004242031123986792 0 0)
(0.0005817607395761088 0 0)
(0.0007443885569586666 0 0)
(0.0009076559757594483 0 0)
(0.001070803711647428 0 0)
(0.001233789340336662 0 0)
(0.001395904427898514 0 0)
(0.001556628000266895 0 0)
(0.001714439036652321 0 0)
(0.001867956059632251 0 0)
(0.002014726242842712 0 0)
(0.002152457794915919 0 0)
(0.002277912860557158 0 0)
(0.002388262661555031 0 0)
(0.002480107445914701 0 0)
(0.002550904735633851 0 0)
(0.002597991752788512 0 0)
(0.002619909561330268 0 0)
(0.002615221535982237 0 0)
(0.002583535352305143 0 0)
(0.002524094371276361 0 0)
(0.002436904498976751 0 0)
(0.002322174364727353 0 0)
(0.002183358457402708 0 0)
(0.002028075022118615 0 0)
(0.001866601621089721 0 0)
(0.001704038274505807 0 0)
(0.001541635267990542 0 0)
(0.001379350641245871 0 0)
(0.001217701585864065 0 0)
(0.001057290328698264 0 0)
(0.000899262920139004 0 0)
(0.0007450444764838035 0 0)
(0.0005966725384312373 0 0)
(0.0004564913539205833 0 0)
(0.0003273851185035968 0 0)
(0.0002123706167173216 0 0)
(0.0001147189320255926 0 0)
(3.744556618051721e-05 0 0)
(-1.66146639909921e-05 0 0)
(-4.526259860847569e-05 0 0)
(-4.667760626933094e-05 0 0)
(-1.962813353575453e-05 0 0)
(3.695471567519977e-05 0 0)
(0.0001235716722652072 0 0)
(0.0002395510259687774 0 0)
(0.0003804841023329002 0 0)
(0.0005368586872613068 0 0)
(0.0006982968837533664 0 0)
(0.0008603499999047335 0 0)
(0.001022296328904768 0 0)
(0.001184113596604089 0 0)
(0.001345195005501315 0 0)
(0.001505109778520905 0 0)
(0.001662557658635776 0 0)
(0.001816363592273288 0 0)
(0.001964395168644383 0 0)
(0.0021046264587663 0 0)
(0.002234131825315731 0 0)
(0.00235024362787052 0 0)
(0.00244965252578343 0 0)
(0.002529644997186849 0 0)
(0.002587244339257011 0 0)
(0.002620403430766871 0 0)
(0.002627020957606122 0 0)
(0.002605921014637622 0 0)
(0.002555687855186315 0 0)
(0.002475752561692527 0 0)
(0.002366099679162356 0 0)
(0.002230333217136967 0 0)
(0.002076801779738333 0 0)
(0.001916561037780054 0 0)
(0.001755154220700456 0 0)
(0.001593877939070535 0 0)
(0.001432685922883044 0 0)
(0.001272020982996047 0 0)
(0.001112375333628246 0 0)
(0.0009547275296137459 0 0)
(0.0008002873863412081 0 0)
(0.0006508228344338266 0 0)
(0.000508389634379953 0 0)
(0.0003755869040370534 0 0)
(0.0002552067253538398 0 0)
(0.0001504040559426443 0 0)
(6.425456454535767e-05 0 0)
(-1.380167378627869e-07 0 0)
(-4.007453491296549e-05 0 0)
(-5.304674065154959e-05 0 0)
(-3.70137199594451e-05 0 0)
(9.901298223546561e-06 0 0)
(8.888678651482042e-05 0 0)
(0.0001996397516118897 0 0)
(0.0003375649322273433 0 0)
(0.0004923217057261612 0 0)
(0.0006526279960591745 0 0)
(0.0008136238594693298 0 0)
(0.0009745335267736204 0 0)
(0.001135341048869868 0 0)
(0.001295527946999376 0 0)
(0.001454730148966066 0 0)
(0.001611826456262542 0 0)
(0.001765797993095217 0 0)
(0.001914780683028691 0 0)
(0.002056973411018172 0 0)
(0.002189742913102186 0 0)
(0.002310602966406437 0 0)
(0.002416407674460008 0 0)
(0.002504400348561455 0 0)
(0.002571454558386185 0 0)
(0.002615115116481077 0 0)
(0.002632771209119557 0 0)
(0.002622551518409543 0 0)
(0.002582378688189474 0 0)
(0.002511007170240224 0 0)
(0.002407949070383305 0 0)
(0.002276525490972839 0 0)
(0.002125380647542193 0 0)
(0.001966421576154819 0 0)
(0.001806047261608673 0 0)
(0.001645765503534418 0 0)
(0.001485538560988512 0 0)
(0.001325744144493346 0 0)
(0.0011667920273531 0 0)
(0.001009521657851046 0 0)
(0.0008549754148664624 0 0)
(0.0007046962394507317 0 0)
(0.0005604992698300235 0 0)
(0.0004247193386033774 0 0)
(0.0002999248881762629 0 0)
(0.0001891001132353504 0 0)
(9.528486072514147e-05 0 0)
(2.169665457062117e-05 0 0)
(-2.863966205731898e-05 0 0)
(-5.271677623119372e-05 0 0)
(-4.782652553148426e-05 0 0)
(-1.136329728830333e-05 0 0)
(5.860556134135304e-05 0 0)
(0.0001624113755830939 0 0)
(0.0002958495132616739 0 0)
(0.0004482984439844759 0 0)
(0.0006074168309321595 0 0)
(0.0007674492723083468 0 0)
(0.0009274235817236775 0 0)
(0.001087320307058692 0 0)
(0.001246702124660679 0 0)
(0.001405256014826817 0 0)
(0.001562007924359878 0 0)
(0.001716064728433137 0 0)
(0.00186578364060512 0 0)
(0.002009552727966753 0 0)
(0.002144998217122647 0 0)
(0.002269816616152115 0 0)
(0.002381051074087418 0 0)
(0.002475979359689066 0 0)
(0.002551435258533118 0 0)
(0.002604708633578397 0 0)
(0.002632834470691236 0 0)
(0.002633397113626245 0 0)
(0.002603752942253168 0 0)
(0.002541998134442179 0 0)
(0.002447016378266609 0 0)
(0.002321427638715305 0 0)
(0.002173575943770267 0 0)
(0.002016100776813524 0 0)
(0.001856693258345517 0 0)
(0.001697320094895412 0 0)
(0.001537975527044692 0 0)
(0.001378979417780975 0 0)
(0.0012206741741342 0 0)
(0.001063781845545728 0 0)
(0.0009092109950137741 0 0)
(0.0007583163862565672 0 0)
(0.0006127129077128826 0 0)
(0.00047449932557017 0 0)
(0.0003460355129526474 0 0)
(0.0002301160987877448 0 0)
(0.000129690841102596 0 0)
(4.79870957795454e-05 0 0)
(-1.178824377358601e-05 0 0)
(-4.630309174582725e-05 0 0)
(-5.23596864014919e-05 0 0)
(-2.677086439303096e-05 0 0)
(3.308957948891941e-05 0 0)
(0.0001283431054083753 0 0)
(0.0002556913385422645 0 0)
(0.0004049111885402489 0 0)
(0.0005626558036702421 0 0)
(0.0007217719523134489 0 0)
(0.0008808730458851155 0 0)
(0.001039918327505478 0 0)
(0.001198545652298799 0 0)
(0.001356485840101105 0 0)
(0.001512889620987788 0 0)
(0.001666966954811335 0 0)
(0.001817260132553352 0 0)
(0.001962317303763012 0 0)
(0.002099990307114869 0 0)
(0.002228147700366318 0 0)
(0.002344023979707402 0 0)
(0.002444975002663264 0 0)
(0.002527867823997032 0 0)
(0.002589855440448505 0 0)
(0.002627754268811299 0 0)
(0.00263876087222806 0 0)
(0.002619797573884249 0 0)
(0.002568390822302068 0 0)
(0.002482750701437146 0 0)
(0.002364501382541669 0 0)
(0.00222107655805889 0 0)
(0.0020654769035627 0 0)
(0.001907030058707911 0 0)
(0.001748509843120176 0 0)
(0.001589994486201538 0 0)
(0.001431754058849426 0 0)
(0.00127407176374762 0 0)
(0.001117568722377861 0 0)
(0.0009630431414596566 0 0)
(0.0008116888864422778 0 0)
(0.0006649532233205687 0 0)
(0.0005247284210018601 0 0)
(0.0003931847037990638 0 0)
(0.000272927250031314 0 0)
(0.0001667855963840749 0 0)
(7.792952982442517e-05 0 0)
(9.640044906073512e-06 0 0)
(-3.45707664699408e-05 0 0)
(-5.118108419566878e-05 0 0)
(-3.65821934177651e-05 0 0)
(1.243535547897375e-05 0 0)
(9.781334983691868e-05 0 0)
(0.000217492691714867 0 0)
(0.0003623327302258063 0 0)
(0.0005183426116647765 0 0)
(0.0006765445986759702 0 0)
(0.0008348111277636692 0 0)
(0.0009930402090407885 0 0)
(0.001150938767357595 0 0)
(0.001308277948595047 0 0)
(0.001464316034481006 0 0)
(0.001618352418639865 0 0)
(0.00176908586875596 0 0)
(0.001915202071825789 0 0)
(0.002054748460702997 0 0)
(0.002185751400832242 0 0)
(0.00230562806448121 0 0)
(0.002411836188490201 0 0)
(0.002501320277741711 0 0)
(0.002571182969150416 0 0)
(0.002618129702865151 0 0)
(0.002639105507553279 0 0)
(0.002630730253986235 0 0)
(0.002590080090841228 0 0)
(0.002514734599246963 0 0)
(0.002405199035565697 0 0)
(0.002267506482382634 0 0)
(0.002114411102329735 0 0)
(0.001956997805770564 0 0)
(0.001799294638970956 0 0)
(0.001641574342183662 0 0)
(0.001484066676103461 0 0)
(0.001327000604256955 0 0)
(0.001170908826364412 0 0)
(0.001016494455012929 0 0)
(0.000864813144934004 0 0)
(0.0007171686923817917 0 0)
(0.0005752722816106078 0 0)
(0.0004411237919587187 0 0)
(0.0003171462654234996 0 0)
(0.0002060347953460246 0 0)
(0.0001108599381170359 0 0)
(3.48996824642028e-05 0 0)
(-1.82633921834013e-05 0 0)
(-4.49196722349416e-05 0 0)
(-4.118377148863399e-05 0 0)
(-3.395400461389844e-06 0 0)
(7.113553244338813e-05 0 0)
(0.000181711218442199 0 0)
(0.0003208294518833127 0 0)
(0.0004745100956314298 0 0)
(0.0006317378497043863 0 0)
(0.0007891950348262487 0 0)
(0.0009466285820641863 0 0)
(0.001103808839021083 0 0)
(0.00126054411009663 0 0)
(0.001416188447338617 0 0)
(0.001570120912140516 0 0)
(0.001721175538715986 0 0)
(0.001868158457690734 0 0)
(0.002009287687252991 0 0)
(0.002142733244159805 0 0)
(0.002266083118871518 0 0)
(0.002376907998292842 0 0)
(0.002472256287672586 0 0)
(0.002549240016688468 0 0)
(0.002604532635641811 0 0)
(0.002634935566628519 0 0)
(0.002636879835271226 0 0)
(0.002607112295628496 0 0)
(0.002542681539241903 0 0)
(0.002443003854203046 0 0)
(0.002312424901887747 0 0)
(0.002162732717675398 0 0)
(0.002006548825299158 0 0)
(0.001849643952511796 0 0)
(0.001692696160215789 0 0)
(0.001535909956057865 0 0)
(0.001379463959719678 0 0)
(0.001223812299420101 0 0)
(0.001069574569279086 0 0)
(0.0009176846869401512 0 0)
(0.000769321447323444 0 0)
(0.000626035797910819 0 0)
(0.0004896741453013886 0 0)
(0.00036248755834053 0 0)
(0.0002470313649456109 0 0)
(0.0001462520861956072 0 0)
(6.337282772147261e-05 0 0)
(1.968202129255837e-06 0 0)
(-3.416789953180156e-05 0 0)
(-4.099253912692579e-05 0 0)
(-1.452544611611657e-05 0 0)
(4.85418306400997e-05 0 0)
(0.0001488175568536973 0 0)
(0.0002807707931600831 0 0)
(0.0004312500123862876 0 0)
(0.0005873394303627828 0 0)
(0.0007439999464112011 0 0)
(0.0009006510199941679 0 0)
(0.001057115282254008 0 0)
(0.001213234826765557 0 0)
(0.001368450695316825 0 0)
(0.001522214550272428 0 0)
(0.001673479960190973 0 0)
(0.001821160621151284 0 0)
(0.001963625690961974 0 0)
(0.002099176145694858 0 0)
(0.00222555860491869 0 0)
(0.002340460710879306 0 0)
(0.002441049654057085 0 0)
(0.002524486094682153 0 0)
(0.002587467163368033 0 0)
(0.002626730866202423 0 0)
(0.002638610071143017 0 0)
(0.00261963038298921 0 0)
(0.002566430753286524 0 0)
(0.002477470433754404 0 0)
(0.002355342802544855 0 0)
(0.002210209610716459 0 0)
(0.002055634234830978 0 0)
(0.001899538393029767 0 0)
(0.00174334621904434 0 0)
(0.001587276526074266 0 0)
(0.001431460369216827 0 0)
(0.001276281586186084 0 0)
(0.001122284770183677 0 0)
(0.0009702947127365924 0 0)
(0.0008213794066844989 0 0)
(0.0006769460457646066 0 0)
(0.000538701643425552 0 0)
(0.0004087356157627323 0 0)
(0.0002894635383718599 0 0)
(0.0001836943628766746 0 0)
(9.456274260409647e-05 0 0)
(2.558123720655443e-05 0 0)
(-1.944687221158404e-05 0 0)
(-3.641376895019363e-05 0 0)
(-2.113428830784644e-05 0 0)
(3.016867620180737e-05 0 0)
(0.0001192419691009706 0 0)
(0.0002426098543866455 0 0)
(0.0003887365777364008 0 0)
(0.0005433559700051956 0 0)
(0.0006992118523788045 0 0)
(0.0008550905056674827 0 0)
(0.001010837274295613 0 0)
(0.001166324784797542 0 0)
(0.001321074474174283 0 0)
(0.001474604713617429 0 0)
(0.001625977052874839 0 0)
(0.001774202822184472 0 0)
(0.001917787415759854 0 0)
(0.002055152043939361 0 0)
(0.002184191117283626 0 0)
(0.002302709288787141 0 0)
(0.002407999933931323 0 0)
(0.002497297323234884 0 0)
(0.0025673599191283 0 0)
(0.002614919827000592 0 0)
(0.002636280525092093 0 0)
(0.002627835154330694 0 0)
(0.002585932287428458 0 0)
(0.002508254009621636 0 0)
(0.002395758297818641 0 0)
(0.002256525098931011 0 0)
(0.002104185492953936 0 0)
(0.001948966712395997 0 0)
(0.001793517168181273 0 0)
(0.001638161663086017 0 0)
(0.00148298723255924 0 0)
(0.001328314700113848 0 0)
(0.001174620457129845 0 0)
(0.0010226298345511 0 0)
(0.0008733113629595794 0 0)
(0.0007279412016552148 0 0)
(0.0005880989522600062 0 0)
(0.0004557216981282369 0 0)
(0.0003330882193154772 0 0)
(0.0002228633852192589 0 0)
(0.0001280724675115609 0 0)
(5.213018306148836e-05 0 0)
(-1.203477606127973e-06 0 0)
(-2.78246686315436e-05 0 0)
(-2.343836896671007e-05 0 0)
(1.605854629020582e-05 0 0)
(9.333345953288785e-05 0 0)
(0.0002068421678013388 0 0)
(0.0003472452390831927 0 0)
(0.0004998233738823492 0 0)
(0.0006548231894353893 0 0)
(0.0008099378578709954 0 0)
(0.0009649647695669971 0 0)
(0.001119802453383441 0 0)
(0.0012740481445495 0 0)
(0.001427281306088573 0 0)
(0.001578663018335429 0 0)
(0.001727294028514113 0 0)
(0.001871804906020313 0 0)
(0.002010727803196161 0 0)
(0.002142096060866317 0 0)
(0.002263829118194236 0 0)
(0.002373349698910283 0 0)
(0.002467980726290387 0 0)
(0.00254456700410364 0 0)
(0.00259987488296938 0 0)
(0.002630228469827768 0 0)
(0.002631957773113685 0 0)
(0.002601225337254711 0 0)
(0.002535123046609597 0 0)
(0.002433203056231776 0 0)
(0.002301278283886269 0 0)
(0.002152089067390776 0 0)
(0.001997921331003173 0 0)
(0.001843208102877854 0 0)
(0.001688564720208921 0 0)
(0.001534043207346894 0 0)
(0.001379908511059826 0 0)
(0.001226574188809577 0 0)
(0.001074673981953652 0 0)
(0.0009250861585852985 0 0)
(0.000778965883610271 0 0)
(0.0006377754734195219 0 0)
(0.0005033078057025187 0 0)
(0.0003777096553766833 0 0)
(0.0002634991564081557 0 0)
(0.000163580552514568 0 0)
(8.124700000671329e-05 0 0)
(2.017999057280025e-05 0 0)
(-1.557147881721937e-05 0 0)
(-2.167618624510896e-05 0 0)
(6.171117951402165e-06 0 0)
(7.133685300672573e-05 0 0)
(0.0001739500981995052 0 0)
(0.0003071518848551014 0 0)
(0.0004568251032883752 0 0)
(0.0006108292445401812 0 0)
(0.0007651859437996423 0 0)
(0.000919491438161688 0 0)
(0.001073663095494396 0 0)
(0.001227368725993088 0 0)
(0.001380244824276644 0 0)
(0.001531543862195042 0 0)
(0.001680450448722838 0 0)
(0.001825709714485352 0 0)
(0.001965957766514415 0 0)
(0.00209935698887608 0 0)
(0.002223937768085746 0 0)
(0.002337248047622138 0 0)
(0.002436704048962615 0 0)
(0.00251924442943028 0 0)
(0.002581686278731349 0 0)
(0.0026203924492456 0 0)
(0.002631661671604977 0 0)
(0.002611536118207994 0 0)
(0.002556689079934448 0 0)
(0.002465617517356552 0 0)
(0.002342152683675146 0 0)
(0.002197575037308968 0 0)
(0.002045474310310568 0 0)
(0.001892287816802725 0 0)
(0.001739141766290036 0 0)
(0.001586086017735453 0 0)
(0.001433365852618376 0 0)
(0.001281371036590365 0 0)
(0.001130719036535962 0 0)
(0.0009822763252487242 0 0)
(0.0008371905654710129 0 0)
(0.0006969148397605821 0 0)
(0.0005632245862137148 0 0)
(0.0004382222869362014 0 0)
(0.0003243226087387636 0 0)
(0.0002242027868435402 0 0)
(0.0001406790112774889 0 0)
(7.6399472583152e-05 0 0)
(3.30828898744294e-05 0 0)
(9.904182451844211e-06 0 0)
(1.621491702572509e-06 0 0)
(1.037341274085271e-07 0 0)
(1.731885639409798e-09 0 0)
(2.34030089218752e-12 0 0)
(-2.902200173828618e-12 0 0)
(-2.958284450627093e-12 0 0)
(-2.953610499670682e-12 0 0)
(-2.990672981591369e-12 0 0)
(-2.732718431255858e-12 0 0)
(-2.572305835225507e-12 0 0)
(-2.545254649237442e-12 0 0)
(-2.005053131617759e-12 0 0)
(-1.466799605697122e-12 0 0)
(-9.01097479948139e-13 0 0)
(-5.596562398210251e-13 0 0)
(-3.067698055894173e-13 0 0)
(2.063445775117039e-14 0 0)
(1.627638691985016e-13 0 0)
(4.664291538100387e-13 0 0)
(6.628685684042742e-13 0 0)
(6.678199852838246e-13 0 0)
(1.003560095292312e-12 0 0)
(1.279281796376704e-12 0 0)
(1.348788970947223e-12 0 0)
(1.31493117707079e-12 0 0)
(1.700773829085563e-12 0 0)
(1.561415930776238e-12 0 0)
(8.145282377051876e-13 0 0)
(4.672213486282262e-13 0 0)
(4.977973930919052e-13 0 0)
(3.184133987916356e-13 0 0)
(-1.31950483286756e-13 0 0)
(-1.899996384054184e-13 0 0)
(-2.454443806358254e-13 0 0)
(-1.349375948110849e-13 0 0)
(-2.178057248169022e-13 0 0)
(-8.598231221317872e-13 0 0)
(-1.128003613623951e-12 0 0)
(-8.144065310455185e-13 0 0)
(-9.307249445904966e-13 0 0)
(-9.483848889636606e-13 0 0)
(-8.409116009934607e-13 0 0)
(-1.072635695943292e-12 0 0)
(-1.268392122643771e-12 0 0)
(-1.140438301481799e-12 0 0)
(-1.180483771107249e-12 0 0)
(-1.435142611768344e-12 0 0)
(-1.551477930186788e-12 0 0)
(-1.911608699358151e-12 0 0)
(-2.057698133773487e-12 0 0)
(-2.056653823155473e-12 0 0)
(-2.506956563808341e-12 0 0)
(-2.321172801617753e-12 0 0)
(-1.779995902891666e-12 0 0)
(-1.370622155503307e-12 0 0)
(-1.290811121007868e-12 0 0)
(-1.167189750211824e-12 0 0)
(-8.660103668467201e-13 0 0)
(-6.342993790974236e-13 0 0)
(-6.01212026820052e-13 0 0)
(-5.200856500890077e-13 0 0)
(-4.863824938572917e-13 0 0)
(-9.289911521181479e-13 0 0)
(-1.250851834419578e-12 0 0)
(-1.388951428722532e-12 0 0)
(-1.519885684117141e-12 0 0)
(-1.676684477689849e-12 0 0)
(-1.899572229130203e-12 0 0)
(-2.134408745113637e-12 0 0)
(-2.23092812908696e-12 0 0)
(-2.094205699204584e-12 0 0)
(-1.862755495880854e-12 0 0)
(-1.766796064054035e-12 0 0)
(-1.880844387407523e-12 0 0)
(-1.672690754261334e-12 0 0)
(-1.404030439049965e-12 0 0)
(-1.334587490431654e-12 0 0)
(-1.246743889200122e-12 0 0)
(-1.312964126360446e-12 0 0)
(-1.137879572313219e-12 0 0)
(-9.370422860580183e-13 0 0)
(-1.005305685828573e-12 0 0)
(-1.19258630217748e-12 0 0)
(-1.209897584328572e-12 0 0)
(-1.181205654216386e-12 0 0)
(-1.234082457779265e-12 0 0)
(-1.084558314747069e-12 0 0)
(-1.156589802577293e-12 0 0)
(-1.218170382781493e-12 0 0)
(-1.223849068406077e-12 0 0)
(-9.832982670517607e-13 0 0)
(-9.499244207291772e-13 0 0)
(-1.095403951143619e-12 0 0)
(-1.082073304025176e-12 0 0)
(-1.139314632919153e-12 0 0)
(-1.192008447006089e-12 0 0)
(-1.322124238874674e-12 0 0)
(-1.251921169900205e-12 0 0)
(-1.150251852976645e-12 0 0)
(-6.379669355105907e-13 0 0)
(-3.640561880202904e-13 0 0)
(-2.78568569551992e-13 0 0)
(-2.832952230625813e-13 0 0)
(-3.797041975765167e-13 0 0)
(-3.281814146617024e-13 0 0)
(-7.52938855615177e-13 0 0)
(-8.569070529161529e-13 0 0)
(-9.698111054299045e-13 0 0)
(-1.080804494621065e-12 0 0)
(-1.286530651621043e-12 0 0)
(-1.409561854969831e-12 0 0)
(-1.305984902448121e-12 0 0)
(-1.495889505256729e-12 0 0)
(-1.318923579491538e-12 0 0)
(-1.19861162206233e-12 0 0)
(-1.134525875183781e-12 0 0)
(-1.027321695230286e-12 0 0)
(-1.069966794630825e-12 0 0)
(-9.136412820968977e-13 0 0)
(-6.118565485295442e-13 0 0)
(-4.936215903942103e-13 0 0)
(-7.432587448341498e-13 0 0)
(-4.721625650578261e-13 0 0)
(-1.975843058208738e-13 0 0)
(1.328496461093898e-13 0 0)
(4.330539809957099e-13 0 0)
(6.188235496889469e-13 0 0)
(7.419536721857244e-13 0 0)
(7.417846464939461e-13 0 0)
(7.786471475584417e-13 0 0)
(5.500674511052062e-13 0 0)
(4.830700844373657e-13 0 0)
(5.494223274368375e-13 0 0)
(6.149023930246652e-13 0 0)
(9.153021303981859e-13 0 0)
(1.041963270616788e-12 0 0)
(9.313509330266165e-13 0 0)
(8.825887709463871e-13 0 0)
(6.935943356490741e-13 0 0)
(5.535299824447983e-13 0 0)
(6.882277704279409e-13 0 0)
(8.292611538813824e-13 0 0)
(8.412588798783856e-13 0 0)
(6.533847144772683e-13 0 0)
(5.810907429745164e-13 0 0)
(7.69568787176998e-13 0 0)
(1.053255643827526e-12 0 0)
(1.570139034082792e-12 0 0)
(2.219607182100864e-12 0 0)
(2.536873585589386e-12 0 0)
(2.210383863501879e-12 0 0)
(2.395358125159753e-12 0 0)
(2.667886737296676e-12 0 0)
(2.632614876594494e-12 0 0)
(2.056071179207791e-12 0 0)
(1.844644163212128e-12 0 0)
(2.209246679457137e-12 0 0)
(2.236660814331372e-12 0 0)
(2.400399109943473e-12 0 0)
(2.450142076523772e-12 0 0)
(2.170936078424996e-12 0 0)
(1.574511942532009e-12 0 0)
(1.264811674875527e-12 0 0)
(1.784586324027154e-12 0 0)
(2.080400946185247e-12 0 0)
(2.445539142562375e-12 0 0)
(2.739842711131542e-12 0 0)
(2.962839493057699e-12 0 0)
(3.149213602070007e-12 0 0)
(2.755501757710021e-12 0 0)
(2.278002177634264e-12 0 0)
(2.024526016882832e-12 0 0)
(2.189891665830242e-12 0 0)
(2.026820983917426e-12 0 0)
(2.150897513221481e-12 0 0)
(2.244412993944205e-12 0 0)
(2.15946359170569e-12 0 0)
(2.122968354255095e-12 0 0)
(1.929854253493497e-12 0 0)
(1.607537118675788e-12 0 0)
(1.066730596139037e-12 0 0)
(9.110304494362771e-13 0 0)
(6.365853324135904e-13 0 0)
(7.819253401973063e-13 0 0)
(1.342975678594157e-12 0 0)
(1.809311036576471e-12 0 0)
(1.911393269570461e-12 0 0)
(1.727971090424257e-12 0 0)
(1.911186772605183e-12 0 0)
(2.294890961056282e-12 0 0)
(2.712571436114832e-12 0 0)
(3.028802651833656e-12 0 0)
(3.38779049229209e-12 0 0)
(3.774478012721852e-12 0 0)
(4.23538444628753e-12 0 0)
(4.73286944830407e-12 0 0)
(4.683220040686886e-12 0 0)
(4.501221442255647e-12 0 0)
(4.485486230523381e-12 0 0)
(4.848673464722001e-12 0 0)
(4.646110213361437e-12 0 0)
(4.059188436810661e-12 0 0)
(3.789592012866895e-12 0 0)
(3.395061115046725e-12 0 0)
(3.106264442148864e-12 0 0)
(2.78092834119554e-12 0 0)
(2.275693747347589e-12 0 0)
(1.560187505153912e-12 0 0)
(1.106118786493871e-12 0 0)
(6.807255507830167e-13 0 0)
(3.729475425182131e-13 0 0)
(1.962284928371443e-13 0 0)
(1.428429593630725e-13 0 0)
(2.370869041771255e-13 0 0)
(3.764465649453355e-13 0 0)
(5.562204587528829e-13 0 0)
(1.9250768275901e-13 0 0)
(9.345396482065533e-14 0 0)
(-7.741011854134622e-14 0 0)
(-3.327027883372396e-13 0 0)
(5.922868501194162e-14 0 0)
(6.208290054245926e-14 0 0)
(-3.365015361587595e-13 0 0)
(-6.99552613346383e-13 0 0)
(-3.548393736518684e-13 0 0)
(-1.231425678407424e-13 0 0)
(2.734498773546565e-14 0 0)
(7.317556763221366e-14 0 0)
(4.555704779707526e-14 0 0)
(3.149086087057186e-14 0 0)
(-1.040967116231571e-13 0 0)
(-3.971467882291605e-13 0 0)
(-9.779989714349322e-13 0 0)
(-1.370934757587178e-12 0 0)
(-1.540934974703411e-12 0 0)
(-1.506675598536115e-12 0 0)
(-1.41790425638488e-12 0 0)
(-1.133150727996778e-12 0 0)
(-6.887557415434002e-13 0 0)
(-6.56026397257738e-13 0 0)
(-4.701100791336361e-13 0 0)
(-6.733077917070457e-14 0 0)
(4.035811641730545e-13 0 0)
(5.47957061519417e-13 0 0)
(9.618405370711777e-13 0 0)
(1.405528689426303e-12 0 0)
(1.931610937466809e-12 0 0)
(1.926131537354006e-12 0 0)
(1.166657268121498e-12 0 0)
(1.23137318073497e-12 0 0)
(1.172517070214838e-12 0 0)
(8.069932481322965e-13 0 0)
(5.146235788856691e-13 0 0)
(4.503563276073369e-13 0 0)
(4.988572344579563e-13 0 0)
(6.453292810932675e-13 0 0)
(6.740559136244914e-13 0 0)
(5.776113762132279e-13 0 0)
(5.630394284599412e-13 0 0)
(2.586063417825522e-13 0 0)
(-1.130774386878751e-13 0 0)
(-4.458571828002167e-13 0 0)
(-2.924633090721607e-13 0 0)
(-4.070072598864045e-13 0 0)
(-9.513015924546272e-13 0 0)
(-1.226857692335951e-12 0 0)
(-1.299649334904273e-12 0 0)
(-1.170568682427528e-12 0 0)
(-1.007233416740325e-12 0 0)
(-6.827419503835811e-13 0 0)
(-4.159905791651687e-13 0 0)
(-3.06888157955685e-13 0 0)
(-2.549889096614732e-13 0 0)
(-2.04898317027519e-13 0 0)
(-4.006963403445694e-14 0 0)
(-9.286722120678606e-15 0 0)
(2.958151747942655e-13 0 0)
(4.969032927107937e-13 0 0)
(5.280208335278209e-13 0 0)
(5.866496386642954e-13 0 0)
(7.490245984651928e-13 0 0)
(7.988765932008303e-13 0 0)
(8.833314767279389e-13 0 0)
(1.271671450109677e-12 0 0)
(1.445489465988783e-12 0 0)
(1.488580530696289e-12 0 0)
(1.556353550673895e-12 0 0)
(1.707490012352015e-12 0 0)
(1.439723409849108e-12 0 0)
(1.476916862699223e-12 0 0)
(1.537465017828437e-12 0 0)
(1.508726068183682e-12 0 0)
(1.493645012833975e-12 0 0)
(1.325852349270711e-12 0 0)
(1.393500127971946e-12 0 0)
(1.455788718181286e-12 0 0)
(1.825685747356897e-12 0 0)
(1.794272183356421e-12 0 0)
(1.42813689078212e-12 0 0)
(1.350192033696985e-12 0 0)
(9.933078793661557e-13 0 0)
(5.738646415550848e-13 0 0)
(3.738502722015688e-13 0 0)
(3.824654520662267e-13 0 0)
)
;

boundaryField
{
    inlet
    {
        type            calculated;
        value           uniform (-5.129994939638152e-05 0 0);
    }
    outlet
    {
        type            calculated;
        value           uniform (3.824654520662267e-13 0 0);
    }
    frontAndBack
    {
        type            empty;
    }
}


// ************************************************************************* //
