/*--------------------------------*- C++ -*----------------------------------*\
| =========                 |                                                 |
| \\      /  F ield         | OpenFOAM: The Open Source CFD Toolbox           |
|  \\    /   O peration     | Version:  v2012                                 |
|   \\  /    A nd           | Website:  www.openfoam.com                      |
|    \\/     M anipulation  |                                                 |
\*---------------------------------------------------------------------------*/
FoamFile
{
    version     2.0;
    format      ascii;
    class       volScalarField;
    location    "0.02";
    object      rho;
}
// * * * * * * * * * * * * * * * * * * * * * * * * * * * * * * * * * * * * * //

dimensions      [1 -3 0 0 0 0 0];


internalField   nonuniform List<scalar> 
1000
(
1.176213908061029
1.176244504363013
1.176210827667065
1.176107277061302
1.176066394074591
1.175995929824089
1.175936907145577
1.175893619905833
1.17587033905445
1.175828134022871
1.17581405102329
1.175801158860157
1.17580893320715
1.175819759625907
1.175841673805089
1.175887587804969
1.175919224281283
1.175981095150975
1.176059206304533
1.17611975922511
1.176202583749332
1.176290127770157
1.176376754242147
1.176462829848779
1.176548732978675
1.176634347915313
1.176712140604149
1.176781807411778
1.17685033251351
1.176902085254247
1.176938134322075
1.176960107259098
1.176981869821905
1.176982326359123
1.176980814810426
1.176967095497801
1.176938187928082
1.17691493962196
1.176864496790107
1.176807218283235
1.176753762063461
1.176678072916112
1.176606855877345
1.176530448276878
1.176450907445481
1.176373887986545
1.176293858253336
1.176222449248424
1.17614184553667
1.176069669517616
1.176003334846753
1.175933032819932
1.175880300934038
1.175823192110867
1.175791471566368
1.175767070546253
1.175746709972557
1.175737636008543
1.175741934304195
1.175748314155937
1.175767924083925
1.175794934683341
1.17582905856797
1.175884288056866
1.175943121010261
1.17600775660297
1.176090863800913
1.176169429619915
1.176253311767686
1.176347114890205
1.176430417398859
1.176515594180763
1.176598180508219
1.176666694794878
1.176739244126345
1.176801751719948
1.176840696029168
1.176868541102735
1.176891945936697
1.176896068061742
1.176896566416269
1.176885742630968
1.176867167908103
1.176846662790293
1.176805450701929
1.176759574295646
1.176711464155262
1.176643258671843
1.176576936774294
1.176501987692014
1.176421555471638
1.176340666055654
1.176261852500606
1.176183515688013
1.176105593707297
1.176035064868633
1.175964654729306
1.175903139527737
1.17584296622577
1.175786257375275
1.175751182457909
1.175725755885441
1.175705911186797
1.175691356111937
1.175697318378733
1.175701456337565
1.175715251852148
1.17573969897973
1.175767681706498
1.175817328595522
1.17586812562814
1.175927214071959
1.176003259863543
1.176075823016552
1.176158585262816
1.17624610055901
1.176334459412306
1.176422011231611
1.176499395107591
1.176581230487925
1.176650676180337
1.176718064122167
1.176760585990491
1.176798104468672
1.176817950675864
1.176831155060734
1.176835480535949
1.176826128744759
1.176810546919226
1.17679245656391
1.176758706367464
1.176713297987043
1.176673154418707
1.176614824636709
1.176541571531927
1.176481704911524
1.176401474745264
1.176319054496137
1.176242758147735
1.17615996293227
1.176082868755017
1.176003217323202
1.175933794939414
1.175868572395217
1.17580843070296
1.175747839699591
1.175714886151361
1.175684475791239
1.175661918571755
1.175650239122227
1.175646329616238
1.175649112271455
1.175661490071632
1.175683500006965
1.175704513066265
1.175749021879755
1.175798834762483
1.175847407678954
1.175921952609445
1.175993703157848
1.176065683394085
1.176155693099579
1.176245195491322
1.176328276737106
1.176415594386681
1.176501091208978
1.176577997217325
1.176646854442196
1.176709746638136
1.17674152434504
1.176772175930247
1.176785690917985
1.1767914688812
1.176786634659229
1.176770748304807
1.176758543291937
1.176729462219904
1.176684436495135
1.176645073495952
1.176592262368192
1.17652524256747
1.176463725439926
1.176388745159455
1.176307498843245
1.176227386583038
1.176149261045883
1.176066240948033
1.175987547973259
1.175911761013272
1.175839925318732
1.175773927127966
1.175712209334318
1.175667631542791
1.175638647899516
1.175610267673184
1.175600082642341
1.175595023036147
1.175592129755203
1.175603936576468
1.175624564686406
1.175639929740364
1.175673054609647
1.175727260262291
1.175768321368021
1.175831289557003
1.175907275620582
1.17596934221894
1.176055650396056
1.176144575509288
1.176222664009572
1.176313005515475
1.176394964659609
1.176471672255601
1.176543926942876
1.176614752682279
1.176658711486257
1.176686927838569
1.176709596314546
1.17671956527381
1.17671589940816
1.176706082448462
1.176691681476075
1.176673821441353
1.176635509906157
1.176596700310964
1.176557394927565
1.17649369988892
1.176435499408026
1.176369800270882
1.176291905279741
1.176216964807039
1.176138843825455
1.17605777152777
1.175976710444613
1.175900571378598
1.175826218300995
1.175757419134757
1.175698087509812
1.1756393024865
1.175606483411237
1.175586651692473
1.175568625589746
1.175561669245917
1.175564677766918
1.175570722883816
1.175588177479815
1.175610321169012
1.175636839442455
1.175681500449732
1.175726086931699
1.175783199693766
1.17585132236168
1.175915056393312
1.175991775313375
1.176071725247842
1.176154378047335
1.176236808758385
1.176315843351405
1.176396978096468
1.17647662291253
1.17653366261221
1.176606210980261
1.17662984483983
1.17666022951434
1.176673753385496
1.176678121269515
1.176672053266361
1.176659476165064
1.176645125913045
1.176620883112613
1.176577944553064
1.176544135377487
1.176492154449542
1.176426753506543
1.176376638712149
1.176300728928779
1.176227945612837
1.176156321492112
1.176073894535732
1.175999643700052
1.175925418787476
1.175841340233178
1.17578422963927
1.175713728653845
1.175651587298342
1.17561305266341
1.175594228361706
1.175573050652745
1.175564687346853
1.175564215074094
1.175569045759702
1.175583094640759
1.175596978863223
1.175623550046401
1.175663299402543
1.175700889318103
1.175758509039932
1.175817605217439
1.175876105741643
1.175953405679858
1.176032166122533
1.176110886481406
1.176192666106077
1.17627381300994
1.176360751545088
1.176426675308997
1.176504793511268
1.17657424987778
1.176620385085956
1.176649852827077
1.176669642370247
1.176683451869808
1.176681336502535
1.17667139585431
1.176661816011981
1.176641073788431
1.176604940018977
1.176572504934395
1.176525272123291
1.176466160994972
1.176412642950433
1.176342538658176
1.176268618548572
1.17619769878564
1.176120508289217
1.176042801308505
1.175964799209654
1.175891063204009
1.175819317052355
1.175744629394138
1.175692757356736
1.175630542831757
1.17561047353046
1.175587290077662
1.17557438856086
1.175573646032693
1.175575051139881
1.175586079585157
1.175598940651757
1.17561806793216
1.175652704193603
1.175690682969765
1.175734121380475
1.175792684503271
1.175850116972533
1.175914163683554
1.175995897934638
1.176068640592561
1.176146526531711
1.176230811301682
1.176310673015381
1.176385195471064
1.176463127289525
1.176529960476099
1.176593215873799
1.176628442460202
1.176651426568062
1.176668554755145
1.176670408088702
1.176666416831472
1.17665402060723
1.176631373360013
1.176603562938087
1.176571295098754
1.176522877088531
1.17647009970972
1.176416766616654
1.17634936354015
1.176277741135399
1.176206469807634
1.176131611164724
1.176051409779401
1.175976204672999
1.175896787365903
1.175823766969355
1.175753251412916
1.175691223559604
1.175624372356128
1.175590367772813
1.175567001149148
1.175551071390423
1.175545250568656
1.175545177243752
1.175552006030748
1.175569042814012
1.175589450415639
1.175614598259663
1.175656865784851
1.175698536099064
1.17574814033981
1.175810848811327
1.175870986766978
1.175940398637969
1.176017492898659
1.176097769587165
1.176175021577115
1.1762517847878
1.176333470916289
1.176406867483161
1.176468315116557
1.176543782501788
1.17658732764886
1.176611284929766
1.17663648047847
1.176645562021929
1.176640923488864
1.176631316956749
1.176618186889393
1.17659579272913
1.176558546499798
1.176524913934317
1.176481570237253
1.176418184195732
1.176362780732582
1.176297142556778
1.176225310584496
1.17614906838116
1.176073320939793
1.176000185088899
1.175918031814853
1.175847331378667
1.175777943622688
1.175705099787401
1.175651129185789
1.175594372344885
1.175570648380976
1.175554599533754
1.175543852601115
1.175537775375048
1.175545792930949
1.175564750693901
1.175574243609236
1.175597245589918
1.175641835554662
1.175670141334144
1.175719749714133
1.175784178618505
1.175831183075746
1.175901659862753
1.175979386291052
1.176046216080407
1.176125062754469
1.176206994268933
1.176280146703094
1.176357551363023
1.176436494800566
1.176493685251812
1.176560986546492
1.176590333985935
1.176619397120748
1.176631760133752
1.176637604847936
1.176631314019177
1.176620714000653
1.176603721691465
1.176574433550514
1.176542983469145
1.176499755455759
1.176446769150683
1.176391942623357
1.176325193253092
1.176256342042829
1.176182859063086
1.176107503317287
1.176030032522668
1.175952594107819
1.175875428004653
1.175801728041818
1.1757331038789
1.175673185323966
1.175610255291081
1.175579832395022
1.175560626310567
1.175542712046052
1.175539617772618
1.175545741545363
1.175552293570771
1.17556991093284
1.175590254138505
1.175613689868225
1.175659012047708
1.175697176104692
1.175744995201366
1.17580753954557
1.17586434900756
1.175932674663385
1.176009755839271
1.176083284586115
1.176158791237808
1.1762388361337
1.176319262985838
1.176386617570883
1.176461027833388
1.176525550844747
1.176572903822861
1.176603019629515
1.176624036522188
1.176635946465392
1.176631463258411
1.17661930031593
1.176606692615015
1.176579679855605
1.176542177290248
1.176507241892825
1.17645609781913
1.176393056236166
1.176334437465773
1.176267441013233
1.176192803753182
1.176115902475747
1.176038596971182
1.175960424829116
1.175881918397577
1.175809779676643
1.175740537967432
1.175670151439003
1.175614374307184
1.17556638553566
1.175535572636891
1.175523491243039
1.175511377562224
1.175507415696978
1.175518462387435
1.175535377774636
1.175548394666206
1.175575203486284
1.175617486686926
1.175650782676098
1.175697949523681
1.175763803296324
1.17581538138896
1.175879382696014
1.175959537876237
1.176025648776102
1.176100549667058
1.176181091077972
1.176255044164879
1.176330005184872
1.176397477976734
1.176463100559273
1.176520461620013
1.176556732950708
1.176578124580335
1.176595811283461
1.176597730672857
1.176592778269103
1.176579745033538
1.176558084616214
1.176531122934066
1.176495904570914
1.176448630257876
1.176400426684606
1.176344997881455
1.176278499246527
1.176211203950453
1.176138331596289
1.176062008220956
1.175986037989663
1.175910316377046
1.175836156341972
1.17576221341708
1.175692174375373
1.175638482699176
1.175576088789036
1.175551579231319
1.175528259868557
1.175517484401069
1.175515428044434
1.175522029206151
1.175531556890796
1.175551507375028
1.175575192680524
1.175601147868102
1.175648518227566
1.17568905587635
1.175739319175907
1.175800726865263
1.17585690962917
1.175926855479583
1.175999670499506
1.176071399815509
1.176146471145999
1.176223036101885
1.176298049573946
1.176369010735482
1.176437091167853
1.176503933790657
1.176547230575755
1.176581552234232
1.176604619076272
1.176615314679851
1.176612696145106
1.176604263028394
1.176588168899584
1.176562430471026
1.176527905855693
1.176487052034251
1.176439361237965
1.176380952275196
1.176318510681899
1.176253979315733
1.176181917185169
1.176107770984322
1.176030286063326
1.175954767513937
1.17587755044612
1.175803972868927
1.175734997337505
1.175671369353016
1.175611344034415
1.175567047152595
1.175547239697889
1.175525288592368
1.175521324414329
1.175525996584269
1.175534381620847
1.175554648913772
1.175574919488592
1.175604530570495
1.175645542631192
1.17567866949961
1.175731132784807
1.175789102242802
1.175839410544645
1.175908921528233
1.175978269512143
1.176046421671623
1.176121418370448
1.17619682827446
1.176272604450946
1.176345019600401
1.176415186495645
1.17648445648403
1.176538246738856
1.176573291998368
1.176606706394925
1.176618949811341
1.176622674115017
1.176618050714033
1.176601213652424
1.176583998388856
1.176552621355379
1.176507692145663
1.176465256489309
1.176406349484763
1.176337575724014
1.176277153194417
1.176204065656658
1.176124758676622
1.176050805272344
1.175972523022993
1.175894208922075
1.175820542665466
1.175748695984589
1.175675287194573
1.175618547455715
1.175564312969699
1.175538172278212
1.175511671177673
1.175500239519474
1.175499607229769
1.17550592854959
1.175518707087378
1.175542152845328
1.175563410988877
1.175599483237883
1.175639855322406
1.175684754354835
1.175740813117718
1.175796956410962
1.175857433573751
1.175925741629293
1.175995435326759
1.17606845193048
1.176141865891379
1.17621847354056
1.176287740703073
1.176357433950921
1.176421711048145
1.176483369250145
1.176523486445845
1.176556294867773
1.176577212781595
1.176585914464672
1.176584641592045
1.176575892198437
1.17655797643763
1.176532894634188
1.176494525175773
1.176453378053331
1.176403253981033
1.176340450502655
1.176278350356281
1.176209806309439
1.176139889445514
1.176064752547385
1.175984691677467
1.175916306257136
1.175843465366861
1.175764214181789
1.175709886987282
1.175639646603458
1.175582255786548
1.175547963882225
1.175520861196942
1.175503917936035
1.175504103215282
1.175500336529699
1.175512182468083
1.175540547609814
1.175555801530705
1.175586085673755
1.175639869412889
1.175671382429607
1.175720662993272
1.175786597597554
1.175837473318908
1.175902840797717
1.17597456236175
1.17604318442876
1.176113121631496
1.176184215987693
1.176267360212221
1.176326055574296
1.176399052941145
1.176466470585111
1.176518604598723
1.176550703074296
1.176586347562838
1.176594959984396
1.176602862714546
1.176597864899283
1.176582935745903
1.176562636752286
1.176535768334138
1.176488684562781
1.176443101410225
1.176390008663786
1.176317815621552
1.176253686356143
1.176184784168447
1.176102628407893
1.176028193043806
1.175950969250966
1.175877135530442
1.175804742439057
1.175736298293718
1.175671493495763
1.175612355513532
1.175563646228656
1.175541350756398
1.175515718898057
1.175502719201364
1.175504748923384
1.175508323150734
1.175529448384846
1.175548232199787
1.175575035645798
1.175618889825144
1.175657659124333
1.175711069466934
1.175768304328684
1.175823286590097
1.175887821109995
1.175953893879162
1.17602249907575
1.176093318243964
1.176165823996507
1.17624182484477
1.17631158509186
1.17638183090698
1.176449198617607
1.17651509475189
1.176564225548355
1.176595600059618
1.1766280678234
1.176639188226183
1.176638695527864
1.17663655876901
1.176617424692387
1.17659892831262
1.176559843623735
1.176514691678674
1.176468415786432
1.176403285549607
1.176337232689024
1.176268429648978
1.176194118679448
1.176114741087593
1.176035660557549
1.175959432230673
1.175881559590157
1.17581244290176
1.17574381063984
1.175679314183624
1.175625531347727
1.175582997346669
1.175553806569987
1.175528848705924
1.175517554022357
1.175513507637195
1.175516677433502
1.175528352649358
1.175550885451603
1.175573392957426
1.175606022870427
1.175649601742683
1.175688084101483
1.175741534298244
1.17579494993598
1.175848482512516
1.175910938486639
1.175966071154255
1.176028227552045
1.1760921984566
1.176149584402775
1.176211294783681
1.176273812192419
1.176322619304069
1.176373778803427
1.176414872376987
1.176444087865291
1.176464571685269
1.176476881924021
1.176484776350395
1.176475990317819
1.176458774918336
1.176439663669253
1.17640824851482
1.176367246462827
1.176325188280618
1.176275613949173
1.176213929975855
1.176156392720219
1.176095441660828
1.176024123231902
1.175959580233951
1.17589057501719
1.175823792128604
1.175765182002881
1.17570348849084
1.175648108337058
1.175596653825613
1.175565114333299
1.175538074333839
1.175514344018745
1.175508517381394
1.175500714264548
1.175509174748129
1.175516233472329
1.175538601252472
1.175559489935256
1.175594188166994
1.175635199759876
1.175676282753718
1.175731266116776
1.175784409140692
1.175839513439621
1.175904152369031
1.175963215263313
1.176022673061271
1.176088912336066
1.176150419632863
1.176207920945825
1.176263901613941
1.176320963899924
1.176359028795069
1.17639400304607
1.176416866632406
1.17643233615599
1.176440383771227
1.176435901743633
1.176426158842349
1.176402740923356
1.176383671559229
1.176348398119246
1.176302766167828
1.176268002043227
1.176210328396696
1.176151531564912
1.176102437243185
1.17603473345567
1.17597004108554
1.175911195499859
1.175842735800602
1.175782787614305
1.175722686454689
1.175667095145609
1.175619023667847
1.175572552804832
1.175546133892329
1.175529859890207
1.17551568166494
1.175511435860333
1.175515350332109
1.175522670175011
1.175541256870961
1.175561680745995
1.175586383912853
1.17562806940892
1.175667256360063
1.175713710843833
1.17577018016307
1.17582670966271
1.175885946882797
1.175948751367167
1.176011743731208
1.176070114040744
1.176128890449119
1.176189158610914
1.176244030013334
1.176292234877707
1.176346640789365
1.176380879575573
1.176412966894301
1.176435085156793
1.176446051985675
1.176454527605626
1.176446341058619
1.176429792484701
1.176409409552084
1.176378941720908
1.176337928013298
1.176293526136325
1.176240269089711
1.176181278793992
1.176122750634736
1.176058034734676
1.175991127050583
1.175921325212798
1.175855168456976
1.175787721835933
1.175720754068583
1.175665914740391
1.175606524539643
1.175556136079103
1.17552272428738
1.175502735989566
1.175478747730394
1.175469872008161
1.175473134959262
1.175476201522958
1.175490527231279
1.175510955182556
1.175533894873807
1.17556641493113
1.175605947364149
1.175646118704435
1.175698641731659
1.17575668665985
1.175810581718588
1.175871383714055
1.175936921427763
1.175998548542053
1.17606082961157
1.176123182266918
1.1761817665707
1.176233801549176
1.176279320339392
1.176321905043662
1.176344403405809
1.176371681131242
1.176387058036206
1.176392775848319
1.176394954844063
1.176382478436867
1.176364185062827
1.17634805021861
1.176308035455896
1.176263220026925
1.176230494357496
1.176175224620042
1.176111071133771
1.176063359111508
1.175993882130553
1.175922244539152
1.17586469811191
1.175792003921651
1.175729039538557
1.175672049039577
1.175607822691114
1.17556071216
1.175519061786844
1.175492210377679
1.175469002818582
1.175460441959469
1.175455602875451
1.175463852838382
1.175473199932484
1.175494135255202
1.175519096425959
1.175541320524891
1.175580630874967
1.175623916090308
1.175658495971392
1.1757080743301
1.175771959873089
1.175812142753915
1.175864530210757
1.175969940052103
)
;

boundaryField
{
    inlet
    {
        type            calculated;
        value           uniform 1.176271021779363;
    }
    outlet
    {
        type            calculated;
        value           uniform 1.175977555761101;
    }
    frontAndBack
    {
        type            empty;
    }
}


// ************************************************************************* //
