/*--------------------------------*- C++ -*----------------------------------*\
| =========                 |                                                 |
| \\      /  F ield         | OpenFOAM: The Open Source CFD Toolbox           |
|  \\    /   O peration     | Version:  v2012                                 |
|   \\  /    A nd           | Website:  www.openfoam.com                      |
|    \\/     M anipulation  |                                                 |
\*---------------------------------------------------------------------------*/
FoamFile
{
    version     2.0;
    format      ascii;
    class       volScalarField;
    location    "0.02";
    object      T;
}
// * * * * * * * * * * * * * * * * * * * * * * * * * * * * * * * * * * * * * //

dimensions      [0 0 0 1 0 0 0];


internalField   nonuniform List<scalar> 
1000
(
299.987836445714
299.9795516176183
299.9720898728683
299.9630017141603
299.9594825949464
299.952782002729
299.9472361995103
299.9431312084906
299.9416059821401
299.9379669453465
299.9372630945889
299.9368050490917
299.9380202088085
299.9396737045204
299.942117389878
299.946964950746
299.950319695608
299.956658736982
299.9646018013548
299.9707302018198
299.9790989330836
299.9879348252495
299.9966712886411
300.0053573578357
300.0140425341685
300.0227165381107
300.0306083118606
300.0376872749745
300.0446651486109
300.0499442445221
300.0536293486935
300.0558789700081
300.0581106427732
300.0581789582275
300.0580508254932
300.0566681845961
300.0537301074131
300.0513683925954
300.0462286087252
300.0403905910075
300.0349397164845
300.0272172218563
300.0199482331498
300.0121467696271
300.0040237598321
299.9961572377389
299.9879835749167
299.9806904090742
299.9724595528403
299.9650899603769
299.9583176156892
299.9511411835133
299.9457592293073
299.9399307668606
299.9366941511185
299.9342035437966
299.9321279910336
299.9312027646635
299.9316410402727
299.9322940679806
299.934296061292
299.9370536586808
299.940537155564
299.9461750239468
299.9521804187724
299.9587776810164
299.967260465845
299.9752793066497
299.9838404760724
299.9934141088344
300.0019156817683
300.0106082217004
300.0190361528146
300.0260278536103
300.0334309833453
300.0398093201729
300.0437831195557
300.0466243271501
300.0490123733802
300.049432948546
300.0494838043818
300.0483794228765
300.0464841955687
300.0443919033093
300.04018684273
300.0355057477283
300.0305964340734
300.0236366661604
300.0168687388255
300.0092200615489
300.00101174192
299.9927563297235
299.9847124583559
299.9767170133414
299.9687635735394
299.9615644721702
299.954377264077
299.9480978086296
299.9419551039431
299.9361659575682
299.9325852486475
299.9299894269978
299.9279635032686
299.9264775265902
299.9270862239358
299.9275087049256
299.928917132797
299.9314129671462
299.9342696036689
299.9393380031443
299.9445236007926
299.9505552831889
299.9583180288739
299.9657248607626
299.9741723380433
299.9831047848594
299.9921228823112
300.0010582408009
300.0089556041108
300.0173069187423
300.0243936021271
300.0312700963302
300.035609040957
300.0394373986031
300.041462466414
300.0428098013349
300.0432511497176
300.0422970004257
300.0407071743235
300.0388612617611
300.0354174871396
300.0307841467549
300.0266877587596
300.0207354179894
300.0132602956886
300.0071507031204
299.9989627921351
299.9905511394796
299.9827640812778
299.9743134726019
299.9664444248469
299.9583140741412
299.951227617368
299.9445696267883
299.9384300932308
299.9322445234589
299.9288803357439
299.9257757376485
299.9234728134028
299.9222804353217
299.9218813083506
299.9221654256713
299.9234291891661
299.925676308979
299.9278215203888
299.9323655213476
299.9374508805791
299.9424093418605
299.9500191716259
299.9573434133692
299.9646906692799
299.9738781686954
299.9830133517338
299.9914928478808
300.0004043899347
300.0091296525673
300.0169779432798
300.0240046160128
300.0304223352967
300.0336650215885
300.0367927179036
300.0381717869551
300.0387613434625
300.0382681094991
300.0366471928187
300.0354018101019
300.0324343828628
300.0278400265222
300.0238232809039
300.0184340378826
300.0115948912996
300.0053168446372
299.9976646737414
299.9893727382737
299.9811961640952
299.9732221154377
299.9647481110609
299.9567155185626
299.9489792503677
299.9416460666229
299.9349085710962
299.9286078715562
299.9240568658724
299.9210978274606
299.9182003419274
299.9171604908669
299.9166439600087
299.9163485790726
299.9175540426904
299.9196601862843
299.921228838701
299.9246106052908
299.9301447724878
299.9343365476987
299.9407646553128
299.9485217943097
299.9548573689706
299.9636673227262
299.9727441866169
299.9807144541957
299.9899350169403
299.9982997382376
300.0061281856734
300.0135018732311
300.0207295279195
300.0252153660464
300.0280947005244
300.0304078479875
300.0314250641848
300.0310510369505
300.0300493682687
300.0285798847922
300.0267573537358
300.0228479743596
300.0188876591067
300.014876467197
300.0083764621537
300.0024368841526
299.9957316741028
299.9877817388013
299.9801329499681
299.9721592407586
299.9638840376701
299.9556096333141
299.9478373688067
299.940247157275
299.9332236512337
299.9271664567482
299.9211649345426
299.9178142659289
299.9157894927827
299.9139491250908
299.9132389075177
299.9135460581819
299.9141632986658
299.9159454131444
299.9182062367539
299.9209135888319
299.9254732857645
299.9300251657717
299.9358556836544
299.9428101290086
299.949316209965
299.9571475234276
299.9653084655596
299.9737449263318
299.9821583664219
299.9902248984916
299.9985054596032
300.0066336106099
300.0124546624951
300.0198581475965
300.0222699380714
300.0253705415452
300.0267505715838
300.0271962689308
300.0265771059989
300.0252937387988
300.0238293568759
300.0213554854032
300.016973861028
300.0135235707442
300.0082187685543
300.001544519127
299.9964297660956
299.988682363675
299.9812538646383
299.9739432598404
299.9655298370063
299.9579506583881
299.9503738419225
299.9417908438615
299.9359607080478
299.9287632548513
299.9224191364866
299.918484940565
299.9165630742585
299.91440087553
299.9135469919213
299.9134987940196
299.9139920306815
299.9154264254825
299.9168439574975
299.9195567817866
299.9236150373766
299.9274525690079
299.9333350693935
299.9393680766971
299.9453398585237
299.9532308158937
299.9612704319575
299.9693055600081
299.9776528504331
299.9859350702024
299.9948080720758
300.0015361757146
300.0095083384927
300.0165964048232
300.0213044250972
300.024311465514
300.0263308741824
300.0277400118913
300.0275241835774
300.0265098684754
300.025532300312
300.0234156598153
300.0197284433671
300.0164184685762
300.0115983211946
300.0055659804733
300.0001040931386
299.9929493230709
299.9854049189833
299.9781663820669
299.9702875997791
299.9623557902669
299.9543935623659
299.9468665559154
299.9395423946034
299.9319176557534
299.9266220251048
299.9202703283097
299.9182213334626
299.9158543898957
299.9145371726387
299.9144613418945
299.9146048141024
299.9157308268391
299.9170439316861
299.9189967114028
299.9225329287804
299.9264103290255
299.9308449215432
299.9368235798115
299.942686614076
299.9492245634452
299.9575679278562
299.964993151105
299.9729430326971
299.9815457548767
299.9896967092615
299.9973024834762
300.0052558323407
300.0120762880184
300.0185315003903
300.0221262525641
300.0244716765533
300.0262194975003
300.026408634946
300.0260013668504
300.0247364052005
300.0224254028832
300.0195874953043
300.016294564786
300.0113535448078
300.0059675177869
300.0005245095724
299.9936454823789
299.9863355393767
299.9790611762859
299.9714204452203
299.9632340273785
299.9555573577805
299.9474503900161
299.9399961697557
299.9327974108271
299.9264649046596
299.9196398282014
299.9161680830776
299.91378241142
299.9121559950687
299.9115616992332
299.9115542202014
299.9122514404373
299.913990918383
299.9160744920898
299.9186419650404
299.9229573522574
299.9272115333462
299.9322756141292
299.9386774467365
299.944816512236
299.9519021194243
299.9597717499905
299.967965858748
299.9758509681432
299.9836858982126
299.9920229539575
299.9995137120658
300.0057847515853
300.0134863172308
300.0179301128595
300.0203748661425
300.022945988921
300.0238726931736
300.0233993816897
300.0224191428345
300.0210792315924
300.0187939745612
300.0149931710957
300.0115609219106
300.0071374660301
300.0006687849596
299.9950143485197
299.9883151307366
299.9809837257296
299.973201771038
299.9654700447314
299.9580047188774
299.9496185213695
299.9424011937382
299.9353176735119
299.9278810233636
299.9223710238448
299.9165764028705
299.9141542190204
299.9125156899788
299.9114184565378
299.9107979153174
299.9116165389262
299.913552176239
299.9145213425853
299.9168697306394
299.9214223366372
299.9243120730094
299.9293766095618
299.9359542436239
299.9407526346163
299.947947079585
299.9558813943478
299.9627030939369
299.9707511475067
299.9791137460462
299.9865800488447
299.9944800624095
300.0025367558952
300.0083732891591
300.0152414457989
300.0182363242789
300.0212021254834
300.0224637224008
300.0230601552001
300.0224182407903
300.0213365654391
300.019602549092
300.016613808629
300.013404324002
300.0089928202242
300.0035854124087
299.9979899489709
299.9911775518337
299.9841503650256
299.9766501514538
299.968958612685
299.9610508177953
299.9531460718772
299.9452688402836
299.937745161228
299.9307394156397
299.9246221810231
299.9181973819419
299.9150912990746
299.913130381313
299.9113013553271
299.9109854310627
299.9116106808419
299.9122796572451
299.9140784123971
299.9161554019171
299.9185480402063
299.9231753313263
299.9270715223961
299.9319533459112
299.9383384716344
299.944137738522
299.9511124934606
299.9589808531298
299.966486211812
299.974193200196
299.9823631611569
299.9905717478591
299.9974459345099
300.0050398901739
300.0116246449799
300.0164570207081
300.0195302775272
300.0216749783173
300.0228902967735
300.0224328455654
300.0211917258133
300.0199051182535
300.0171485210604
300.0133215099447
300.0097562669481
300.0045367564837
299.9981030940439
299.992120457784
299.9852825285041
299.9776646828774
299.9698153207377
299.9619244412601
299.9539448888768
299.9459307924464
299.9385665320751
299.9314977799384
299.9243118328471
299.9186173093839
299.9137177923088
299.910571782765
299.9093383127316
299.90810150164
299.9076969363812
299.9088248655994
299.9105520052502
299.9118809834603
299.9146180963298
299.9189352126084
299.9223345029251
299.9271497911046
299.9338729616587
299.9391383425219
299.9456717769309
299.9538541637906
299.9606025306904
299.9682479318148
299.9764687831895
299.9840168680007
299.9916676022505
299.9985537810934
300.0052509032312
300.0111048008995
300.0148062869688
300.0169892789986
300.0187941628955
300.0189900484841
300.0184846859854
300.0171546925666
300.0149443063946
300.0121928653864
300.0085987368597
300.0037742550276
299.9988547662373
299.9931976972476
299.9864107605533
299.9795421953984
299.9721041204027
299.9643136514341
299.9565588758292
299.9488291858469
299.9412586934025
299.9337100464923
299.9265596920902
299.9210781221901
299.9147079215304
299.9122055268851
299.9098246316581
299.9087244527968
299.9085145055009
299.9091885068259
299.9101613080879
299.9121982828924
299.9146165266391
299.9172664208386
299.9221028313028
299.9262413652886
299.9313727576584
299.9376418502782
299.9433771516327
299.9505173408342
299.9579502449364
299.9652719612731
299.9729345781415
299.9807494068775
299.9884055792637
299.9956479039171
300.0025959652812
300.0094175186591
300.0138360083643
300.0173384936401
300.0196924207838
300.0207838477517
300.0205166513364
300.0196561239313
300.0180137521785
300.0153871810891
300.011864014814
300.0076947592366
300.0028276295106
299.9968666686801
299.9904938482681
299.9839074567788
299.976552379305
299.9689842241272
299.9610749688043
299.9533662697379
299.9454838016749
299.9379726029383
299.930931006901
299.924435084747
299.9183068168446
299.9137842389918
299.9117619080142
299.9095206974889
299.9091159528478
299.9095930099481
299.9104491463573
299.9125184610124
299.9145880500265
299.9176112745157
299.9217985084516
299.9251804339393
299.9305365021697
299.9364545979536
299.9415902335958
299.9486861313379
299.9557651461591
299.962721833565
299.9703769512042
299.9780739295593
299.9858080523696
299.9931988717524
300.0003599454808
300.0074292732079
300.0129186673381
300.0164950578729
300.0199048804691
300.0211542873677
300.0215343286634
300.021062526799
300.0193444395735
300.0175876222593
300.0143856559646
300.0098007066936
300.0054699017022
299.9994580925186
299.9924392197915
299.9862722322748
299.9788125216143
299.9707177150485
299.9631690166913
299.9551782306628
299.9471838676326
299.9396636869063
299.9323290050626
299.9248345618334
299.9190417612951
299.9135045752981
299.9108356258593
299.9081298366175
299.906962658063
299.9068981053962
299.9075435239334
299.9088482484871
299.9112421136786
299.913412520035
299.9170954665688
299.9212173072989
299.9258011115991
299.9315242909088
299.9372558404351
299.9434295889638
299.9504026344448
299.9575168624446
299.9649700354786
299.9724635053913
299.9802827187657
299.9873524492578
299.9944653978973
300.001025358121
300.0073178809009
300.0114119336033
300.0147600474897
300.0168947109096
300.0177826718871
300.0176527820323
300.0167599488062
300.0149316845532
300.0123720747165
300.0084564643837
300.0042572612039
299.9991416852156
299.9927321104471
299.9863940344078
299.979397952598
299.9722616134366
299.9645922056932
299.9564198531659
299.9494391073188
299.9420032818877
299.9339127001178
299.9283664973806
299.9211953962058
299.915336017623
299.9118348781421
299.9090676681322
299.9073377440515
299.9073567006557
299.906972078246
299.9081815855606
299.9110777828697
299.9126351476848
299.9157270359934
299.9212183559297
299.9244355274536
299.9294665801347
299.9361979664166
299.9413915328765
299.948064411376
299.9553857909455
299.9623904268491
299.9695291174305
299.9767856917256
299.9852718301124
299.9912624862119
299.9987124833932
300.0055928226105
300.010913251735
300.0141889274457
300.0178264103554
300.0187052891528
300.0195117119542
300.0190017324156
300.01747829328
300.0154068121332
300.0126648684877
300.0078599566658
300.0032079980078
299.9977894608278
299.9904215228949
299.9838762416866
299.9768435773078
299.9684578848119
299.9608599488469
299.9529771095757
299.945440009906
299.9380497521348
299.9310624023178
299.9244463457395
299.9184086867258
299.9134355974708
299.9111592344888
299.9085422340384
299.9072149489597
299.9074221742536
299.907787123188
299.9099440840345
299.9118619053278
299.914598467924
299.919075987422
299.9230340231045
299.9284867990451
299.9343300093958
299.9399428597675
299.9465307573485
299.9532755368751
299.9602785490267
299.967507301356
299.9749079996177
299.9826651646967
299.9897851164189
299.9969543988113
300.0038296782206
300.0105545762377
300.0155684058336
300.0187701325931
300.0220833096685
300.0232181064958
300.0231678518151
300.0229498192215
300.0209973100817
300.0191097529552
300.015121291141
300.0105135916048
300.0057908482175
299.9991440310179
299.992402783917
299.9853804628242
299.9777958675906
299.9696938177398
299.9616217326928
299.9538405500955
299.9458912453062
299.9388354528197
299.9318288964431
299.9252443705496
299.9197534839579
299.9154109060451
299.9124305615284
299.909882376449
299.9087291792164
299.9083160478538
299.9086396914981
299.909831754343
299.9121323990205
299.9144303682379
299.9177617812692
299.9222110678181
299.9261397642557
299.9315965542431
299.9370496944475
299.9425145132711
299.9488902161149
299.9545181487993
299.960862851957
299.967392637141
299.9732501013519
299.9795487647222
299.9859296082209
299.9909110252177
299.9961323528972
300.0003262580913
300.003307917968
300.0053983755835
300.0066546944159
300.0074603290673
300.0065636975183
300.004806855736
300.0028564179629
299.9996503048706
299.9954657556339
299.9911732587702
299.986113523525
299.9798177490828
299.9739449844665
299.9677235623737
299.9604437711694
299.9538553393031
299.9468111988302
299.9399937150681
299.9340103499731
299.9277120300831
299.9220580795136
299.9168048201227
299.9135847300146
299.9108239413943
299.9084010618711
299.9078061692842
299.9070094487219
299.9078733104085
299.9085940011917
299.9108778015995
299.9130105108093
299.9165531227785
299.9207402701423
299.9249345554284
299.9305479076195
299.9359732103539
299.9415985370701
299.9481970988846
299.954226247663
299.960295534051
299.9670568703504
299.9733350037957
299.9792040980482
299.9849178052585
299.9907417450166
299.9946266746505
299.9981961152986
300.0005295351187
300.0021082861511
300.0029295879443
300.0024721865968
300.0014778796198
299.9990879636262
299.9971417464989
299.9935417497674
299.9888845753128
299.9853363004679
299.9794498119589
299.9734485391238
299.968437295988
299.9615264843526
299.9549228641175
299.948915834206
299.941927246964
299.9358073475696
299.9296716332685
299.9239962145817
299.9190883591028
299.9143438349454
299.911646506568
299.9099849349629
299.9085373326079
299.908103840863
299.9085035293824
299.9092508943318
299.9111486308064
299.9132338983254
299.9157559955229
299.9200120102219
299.9240127438943
299.9287553421455
299.934520315914
299.9402911815191
299.9463383403732
299.9527494961368
299.9591796190109
299.9651377779146
299.9711372285306
299.9772887521427
299.9828893027802
299.9878093121976
299.9933620483438
299.9968564406366
300.0001312292369
300.0023885382226
300.0035077860068
300.0043727539865
300.0035372918537
300.0018484541507
299.999768238169
299.9966587558262
299.9924729297356
299.9879411593783
299.9825054554364
299.9764845420602
299.9705105044787
299.9639046735456
299.9570750210761
299.9499496180041
299.9431961431994
299.9363107949486
299.9294740663784
299.9238754183629
299.917811924278
299.9126673976327
299.9092560603086
299.9072152392719
299.9047659520335
299.9038597165196
299.9041929018978
299.904505972074
299.9059686722385
299.9080544044207
299.9103965490653
299.9137168047117
299.917753023396
299.9218543906739
299.9272167029054
299.933142782522
299.9386450450998
299.9448522633481
299.9515428282731
299.9578339581458
299.9641915208395
299.9705559697557
299.9765351981869
299.9818452946633
299.9864896387575
299.9908341795464
299.9931286405466
299.9959099277663
299.9974757414467
299.9980569714872
299.9982775692653
299.9970029377014
299.995137098644
299.9934956697876
299.9894223465238
299.98486537335
299.9815499084107
299.975941845323
299.9694350371447
299.9646109770916
299.9575661488808
299.9502925797081
299.9444400724558
299.9370174302272
299.930538876155
299.9246122538635
299.9178858423385
299.9128673171831
299.9082877743709
299.9053061414625
299.9026468382583
299.9014436581675
299.900616174946
299.900984509543
299.901600336437
299.9035226237029
299.9059842706397
299.9083736344016
299.912808081272
299.9179619735639
299.9227343843538
299.929179354625
299.9381019447536
299.9424312339492
299.9534471837316
299.9598460567188
)
;

boundaryField
{
    inlet
    {
        type            fixedValue;
        value           uniform 300;
    }
    outlet
    {
        type            inletOutlet;
        inletValue      uniform 300;
        value           uniform 299.9635834645846;
    }
    frontAndBack
    {
        type            empty;
    }
}


// ************************************************************************* //
