/*--------------------------------*- C++ -*----------------------------------*\
| =========                 |                                                 |
| \\      /  F ield         | OpenFOAM: The Open Source CFD Toolbox           |
|  \\    /   O peration     | Version:  v2012                                 |
|   \\  /    A nd           | Website:  www.openfoam.com                      |
|    \\/     M anipulation  |                                                 |
\*---------------------------------------------------------------------------*/
FoamFile
{
    version     2.0;
    format      ascii;
    class       volVectorField;
    location    "0.02";
    object      U;
}
// * * * * * * * * * * * * * * * * * * * * * * * * * * * * * * * * * * * * * //

dimensions      [0 1 -1 0 0 0 0];


internalField   nonuniform List<vector> 
1000
(
(0.03759060060183128 0 0)
(0.01496083952215544 0 0)
(0.01015302818063836 0 0)
(-0.01048296087334194 0 0)
(-0.01191975506521191 0 0)
(-0.02170617825538904 0 0)
(-0.03277787440196513 0 0)
(-0.032212195656766 0 0)
(-0.03316437465140602 0 0)
(-0.03318697992311942 0 0)
(-0.02863589983072121 0 0)
(-0.02194354420556667 0 0)
(-0.0133837847529279 0 0)
(-0.003509735966003402 0 0)
(0.007835942656531696 0 0)
(0.0249630678178559 0 0)
(0.03623745071092985 0 0)
(0.05497109285462318 0 0)
(0.07574050796219384 0 0)
(0.08966890645065309 0 0)
(0.1120484561532275 0 0)
(0.1296993627672127 0 0)
(0.1457366507537829 0 0)
(0.1639914844074437 0 0)
(0.1779944997810452 0 0)
(0.1914813029750383 0 0)
(0.2025098350561803 0 0)
(0.2140050041698136 0 0)
(0.2220125317425165 0 0)
(0.2270975246700864 0 0)
(0.2273952794140079 0 0)
(0.2275652061372412 0 0)
(0.2269571260677906 0 0)
(0.2203346328986663 0 0)
(0.2164156152673053 0 0)
(0.2088075804113838 0 0)
(0.1998702185380506 0 0)
(0.1922886091497297 0 0)
(0.1782757705588978 0 0)
(0.1650145561887411 0 0)
(0.1513309306328396 0 0)
(0.1318953948941583 0 0)
(0.1155272861729869 0 0)
(0.09948407983542658 0 0)
(0.08046727660862703 0 0)
(0.06420291723026952 0 0)
(0.04808527718549716 0 0)
(0.03111415964015908 0 0)
(0.01810674093394304 0 0)
(0.0042164881114483 0 0)
(-0.007704567710919432 0 0)
(-0.01522617713199968 0 0)
(-0.0257397213914735 0 0)
(-0.03005676884105377 0 0)
(-0.03022536857156606 0 0)
(-0.02907194581570842 0 0)
(-0.02560628274848892 0 0)
(-0.01938624772458353 0 0)
(-0.01017687225797202 0 0)
(-0.002810019228920271 0 0)
(0.007942253740103367 0 0)
(0.02181451429215222 0 0)
(0.03330402010979355 0 0)
(0.0501159530360307 0 0)
(0.06787591766408546 0 0)
(0.08426427498486251 0 0)
(0.1050745372940832 0 0)
(0.1226035512804794 0 0)
(0.1407304644763117 0 0)
(0.1591215372155955 0 0)
(0.1751229920490954 0 0)
(0.189421630009466 0 0)
(0.202119672864116 0 0)
(0.2151867671474072 0 0)
(0.223345000073484 0 0)
(0.2311150789068881 0 0)
(0.2343731170081406 0 0)
(0.2329361229080471 0 0)
(0.2319177632565629 0 0)
(0.2269421547999186 0 0)
(0.2212721085093804 0 0)
(0.2138795479857084 0 0)
(0.2062292169641376 0 0)
(0.1985938967202509 0 0)
(0.1872189204609604 0 0)
(0.17541949892571 0 0)
(0.1637419136899437 0 0)
(0.1456371183981156 0 0)
(0.1307270258554169 0 0)
(0.114868572116253 0 0)
(0.09445121460747423 0 0)
(0.07780568143134554 0 0)
(0.06088192876146759 0 0)
(0.04363366996257997 0 0)
(0.02936501058645498 0 0)
(0.01576441281317273 0 0)
(0.004193454133298966 0 0)
(-0.006308166042205005 0 0)
(-0.01487268961478035 0 0)
(-0.0209275691336575 0 0)
(-0.02340937878145993 0 0)
(-0.02123399982425581 0 0)
(-0.0194376445614379 0 0)
(-0.014305143117362 0 0)
(-0.005210648777075708 0 0)
(0.002571363552098522 0 0)
(0.01274235577474672 0 0)
(0.02381600925744995 0 0)
(0.0348694904001403 0 0)
(0.05155868735377814 0 0)
(0.06598845165967142 0 0)
(0.08077686874368618 0 0)
(0.1010212711966516 0 0)
(0.117966145784733 0 0)
(0.1354537300168482 0 0)
(0.1558780204931066 0 0)
(0.172447881410431 0 0)
(0.1880934650748496 0 0)
(0.2044065285150911 0 0)
(0.2161717314202205 0 0)
(0.226198550229041 0 0)
(0.2353420176363743 0 0)
(0.2390662694208268 0 0)
(0.2415534904273 0 0)
(0.2391132936044452 0 0)
(0.2365858492163072 0 0)
(0.2305833999638465 0 0)
(0.2244102308300767 0 0)
(0.2164021010742508 0 0)
(0.2085978681883223 0 0)
(0.1992171362703944 0 0)
(0.1858261838556866 0 0)
(0.1749235518856824 0 0)
(0.1614028485777541 0 0)
(0.1430814655037737 0 0)
(0.1291452517933038 0 0)
(0.1108403785396555 0 0)
(0.09204854805205882 0 0)
(0.07412199065267872 0 0)
(0.05592800905301783 0 0)
(0.03877949372735679 0 0)
(0.02360144687711705 0 0)
(0.009045623439184605 0 0)
(-0.002878073833346594 0 0)
(-0.01219657784039823 0 0)
(-0.01941463946785574 0 0)
(-0.02312617669988965 0 0)
(-0.02371894434988708 0 0)
(-0.01991176680914469 0 0)
(-0.0165908630474257 0 0)
(-0.009584170438484418 0 0)
(-0.001545888010138688 0 0)
(0.008527787543172814 0 0)
(0.01888694924117913 0 0)
(0.02941974963885595 0 0)
(0.04427302221432289 0 0)
(0.0587200858456437 0 0)
(0.07300795959619095 0 0)
(0.09112338198106215 0 0)
(0.1072448749361068 0 0)
(0.1243487957006756 0 0)
(0.144169428079693 0 0)
(0.1589748175969942 0 0)
(0.1764668750825461 0 0)
(0.1929805765734543 0 0)
(0.2050086238090749 0 0)
(0.2172290264505324 0 0)
(0.2290332157943903 0 0)
(0.2342237789687028 0 0)
(0.2373880194468723 0 0)
(0.2351859112335141 0 0)
(0.2333613006509222 0 0)
(0.2274464546213631 0 0)
(0.2223993455296606 0 0)
(0.213570668802409 0 0)
(0.2073663479163473 0 0)
(0.1986750134502465 0 0)
(0.1860399757474098 0 0)
(0.1767597319290671 0 0)
(0.1646056037181418 0 0)
(0.1477655833266975 0 0)
(0.1348067686198406 0 0)
(0.1173961441356322 0 0)
(0.1005954098851874 0 0)
(0.08398399756802251 0 0)
(0.06483895353811238 0 0)
(0.04866985467883557 0 0)
(0.03176142281970768 0 0)
(0.01685582474582163 0 0)
(0.003882069704494519 0 0)
(-0.006675962698580603 0 0)
(-0.01606941215061635 0 0)
(-0.02088466664065756 0 0)
(-0.02152826628701034 0 0)
(-0.01902573418523265 0 0)
(-0.01568742482824019 0 0)
(-0.008368887998265117 0 0)
(-0.00118915096899654 0 0)
(0.007290469914509028 0 0)
(0.01842623337241674 0 0)
(0.02753964377386928 0 0)
(0.03850398674174358 0 0)
(0.05655502943052965 0 0)
(0.06801304237016993 0 0)
(0.08318075818515008 0 0)
(0.1029463921065398 0 0)
(0.1172653826733263 0 0)
(0.1352165473753749 0 0)
(0.1533531954564284 0 0)
(0.1695731456690392 0 0)
(0.1852726580928588 0 0)
(0.2005018492575284 0 0)
(0.214354626883228 0 0)
(0.2255773654777861 0 0)
(0.23546873344904 0 0)
(0.2401293544145639 0 0)
(0.2403135469069651 0 0)
(0.2392177306383113 0 0)
(0.2347673537806424 0 0)
(0.2284879391301327 0 0)
(0.2213131396695755 0 0)
(0.2139522951176972 0 0)
(0.2064895651141389 0 0)
(0.1942121154975948 0 0)
(0.1837706369481946 0 0)
(0.1734747281600649 0 0)
(0.1566346777113744 0 0)
(0.1432249450352482 0 0)
(0.12919148019891 0 0)
(0.1103688888880538 0 0)
(0.09393997307824116 0 0)
(0.07663377043459617 0 0)
(0.05872454913633653 0 0)
(0.04250928957102061 0 0)
(0.02612244912841219 0 0)
(0.01182659252124774 0 0)
(-6.771675235015731e-05 0 0)
(-0.01153907292666458 0 0)
(-0.01938846650907421 0 0)
(-0.020837130811761 0 0)
(-0.01933214865888645 0 0)
(-0.01779963909260491 0 0)
(-0.01056432919910183 0 0)
(-0.003153189464997475 0 0)
(0.004087760611316794 0 0)
(0.01335960060202885 0 0)
(0.02316930230517675 0 0)
(0.0336691746488705 0 0)
(0.0484708744125206 0 0)
(0.06155884042411985 0 0)
(0.0752218171296523 0 0)
(0.09164290107213456 0 0)
(0.1074262253024414 0 0)
(0.1240490672523868 0 0)
(0.1426112766930877 0 0)
(0.1586144240267208 0 0)
(0.1747070719385403 0 0)
(0.1918737919352756 0 0)
(0.2057091002605712 0 0)
(0.2158846135689862 0 0)
(0.2310604074033553 0 0)
(0.2377027112779232 0 0)
(0.240098887548154 0 0)
(0.2397414476851619 0 0)
(0.236932182766337 0 0)
(0.2304531030773825 0 0)
(0.2234221786485526 0 0)
(0.2153606909728031 0 0)
(0.2077186391187612 0 0)
(0.198580831920582 0 0)
(0.1851679792558303 0 0)
(0.1756052020780131 0 0)
(0.1618171547342045 0 0)
(0.1443216946848887 0 0)
(0.1323210915647046 0 0)
(0.1151721087368792 0 0)
(0.09675963256118734 0 0)
(0.08058897882435144 0 0)
(0.0630515308101252 0 0)
(0.04510543759279972 0 0)
(0.02747582796606661 0 0)
(0.01448693241464141 0 0)
(-0.002747887459608874 0 0)
(-0.01266427021718654 0 0)
(-0.02437821439763362 0 0)
(-0.02817860628494456 0 0)
(-0.02831006578862095 0 0)
(-0.02591344468511501 0 0)
(-0.02084768626379956 0 0)
(-0.01447106731332479 0 0)
(-0.006346140294504828 0 0)
(0.003594052436138644 0 0)
(0.01173005334977725 0 0)
(0.02401326510481849 0 0)
(0.03781414136532006 0 0)
(0.04858494578339868 0 0)
(0.06528195380977433 0 0)
(0.07940507513972297 0 0)
(0.09261279230406233 0 0)
(0.1123088727293133 0 0)
(0.1267997710028245 0 0)
(0.1416032799896617 0 0)
(0.1604167736330386 0 0)
(0.1745390859970239 0 0)
(0.1873516878901578 0 0)
(0.2043217823974692 0 0)
(0.2131247215377374 0 0)
(0.2237748607733334 0 0)
(0.229763428324244 0 0)
(0.2285796572993741 0 0)
(0.2274710588136232 0 0)
(0.2230790732230529 0 0)
(0.2156269247262247 0 0)
(0.2072669946837027 0 0)
(0.1997955226508132 0 0)
(0.1905799472462363 0 0)
(0.178238948836365 0 0)
(0.168084080594594 0 0)
(0.1550921217732221 0 0)
(0.1395648494703411 0 0)
(0.1264475336189481 0 0)
(0.1108845073785066 0 0)
(0.09444927742469733 0 0)
(0.07847720163910611 0 0)
(0.0610020506632913 0 0)
(0.04456971025743963 0 0)
(0.02835743797741773 0 0)
(0.01139603899983526 0 0)
(-0.00337780280692258 0 0)
(-0.01390569727571683 0 0)
(-0.02916157006447604 0 0)
(-0.03594191147365196 0 0)
(-0.03735426747782956 0 0)
(-0.03590612100046039 0 0)
(-0.03352371145725286 0 0)
(-0.02589882944147548 0 0)
(-0.01899529907463956 0 0)
(-0.00963284733899474 0 0)
(0.0003320189913620631 0 0)
(0.009846000898396129 0 0)
(0.02369609050745427 0 0)
(0.03799692289735646 0 0)
(0.05037537315817658 0 0)
(0.06579064157138501 0 0)
(0.08124343160524278 0 0)
(0.09634151449412687 0 0)
(0.1120530524604253 0 0)
(0.1282922390496437 0 0)
(0.1435774906153124 0 0)
(0.1582107474341692 0 0)
(0.1724238338928316 0 0)
(0.1868928483920975 0 0)
(0.1974400020503955 0 0)
(0.2086926668803029 0 0)
(0.2173172834242806 0 0)
(0.2182205059829116 0 0)
(0.2180418262575579 0 0)
(0.21630053590747 0 0)
(0.2093680894359327 0 0)
(0.2027713550167483 0 0)
(0.1956239771930557 0 0)
(0.1865776988676761 0 0)
(0.1770434314578328 0 0)
(0.1683543614433938 0 0)
(0.1550465725166477 0 0)
(0.1427429017767071 0 0)
(0.1305189605072207 0 0)
(0.1150354503713588 0 0)
(0.1011498570259284 0 0)
(0.08490591751352872 0 0)
(0.06786108185998364 0 0)
(0.05334471844352475 0 0)
(0.03630250217859345 0 0)
(0.02138674037269951 0 0)
(0.006871063209606797 0 0)
(-0.006360489118629004 0 0)
(-0.01803183790748077 0 0)
(-0.02784002100492262 0 0)
(-0.03086884245844577 0 0)
(-0.03135270023308585 0 0)
(-0.02971674638308488 0 0)
(-0.02231630728361381 0 0)
(-0.0164898521612052 0 0)
(-0.008054459416793169 0 0)
(0.002621183800293622 0 0)
(0.01215745473190142 0 0)
(0.02387196696267415 0 0)
(0.03828439151330685 0 0)
(0.04986726672847801 0 0)
(0.06506542708412975 0 0)
(0.08050347988080722 0 0)
(0.09396845346561462 0 0)
(0.11072976447287 0 0)
(0.1271712731803679 0 0)
(0.1408650192136068 0 0)
(0.156351212015648 0 0)
(0.1722304412637568 0 0)
(0.184913599039452 0 0)
(0.1979729154947386 0 0)
(0.2112282345227362 0 0)
(0.2199488192019332 0 0)
(0.2264960364167371 0 0)
(0.2256147255482788 0 0)
(0.2258323165526161 0 0)
(0.2210726761454716 0 0)
(0.2137566982192478 0 0)
(0.2061280141186708 0 0)
(0.1989563764794497 0 0)
(0.1892180461848325 0 0)
(0.1762695533464187 0 0)
(0.166445719059348 0 0)
(0.1540152102669453 0 0)
(0.1367471274142756 0 0)
(0.1254399370378304 0 0)
(0.110850229822309 0 0)
(0.09205568874123335 0 0)
(0.07821817119337227 0 0)
(0.06228481896154958 0 0)
(0.04374857112387437 0 0)
(0.03008861355381457 0 0)
(0.013897689396006 0 0)
(-0.000861911072131329 0 0)
(-0.01063483836538866 0 0)
(-0.02513972804911569 0 0)
(-0.03183810168463314 0 0)
(-0.03234640097165353 0 0)
(-0.03217099651419036 0 0)
(-0.0276361047222913 0 0)
(-0.02208299684023274 0 0)
(-0.01435243113409877 0 0)
(-0.004446928597655171 0 0)
(0.004470136890658272 0 0)
(0.0149581057849475 0 0)
(0.03035082325009771 0 0)
(0.04160074346016639 0 0)
(0.05631619537080185 0 0)
(0.07252406777983145 0 0)
(0.08608221231181112 0 0)
(0.1016481132666897 0 0)
(0.1166356122564076 0 0)
(0.1324735647603722 0 0)
(0.1472067772049071 0 0)
(0.1601071165448813 0 0)
(0.1749169953693026 0 0)
(0.1876555663266483 0 0)
(0.1957461547672812 0 0)
(0.2090779137830779 0 0)
(0.2155850888958721 0 0)
(0.2175525462093203 0 0)
(0.2174537602206345 0 0)
(0.214795159825092 0 0)
(0.2085661083490994 0 0)
(0.2013567756057421 0 0)
(0.1936536730427602 0 0)
(0.1849494582507881 0 0)
(0.1732745678107727 0 0)
(0.1633152700997246 0 0)
(0.1500502714158551 0 0)
(0.1352953087664183 0 0)
(0.1227401022276172 0 0)
(0.107479200919734 0 0)
(0.09265867928812979 0 0)
(0.07737521074792059 0 0)
(0.06019874876400019 0 0)
(0.04590010242148999 0 0)
(0.03030721732119128 0 0)
(0.01527948134534262 0 0)
(0.001803849343435843 0 0)
(-0.01107021561206892 0 0)
(-0.02278285124539836 0 0)
(-0.03265333707255361 0 0)
(-0.03619464355880161 0 0)
(-0.03539251785506538 0 0)
(-0.03473954161834605 0 0)
(-0.02888332611041755 0 0)
(-0.02131171003226481 0 0)
(-0.01376780028875016 0 0)
(-0.003339370957631159 0 0)
(0.006716296028589018 0 0)
(0.0189501296308132 0 0)
(0.03476430394416123 0 0)
(0.04645764757507604 0 0)
(0.06225768695879549 0 0)
(0.07873724137964423 0 0)
(0.09232553538386083 0 0)
(0.1090285349708936 0 0)
(0.1247493357013056 0 0)
(0.1381914362001081 0 0)
(0.1525918923176436 0 0)
(0.166583337762953 0 0)
(0.1773315066778289 0 0)
(0.1900604595339043 0 0)
(0.1986924556698919 0 0)
(0.2076740875696166 0 0)
(0.2119607977356921 0 0)
(0.2116320523350536 0 0)
(0.2118046071109949 0 0)
(0.2069008202475292 0 0)
(0.2002703921337437 0 0)
(0.193463044361265 0 0)
(0.1863411234958659 0 0)
(0.1778856433751971 0 0)
(0.1657291895661262 0 0)
(0.1557909440409002 0 0)
(0.1445705187831478 0 0)
(0.1286917354549751 0 0)
(0.1166680159025597 0 0)
(0.1033972559168843 0 0)
(0.08592183037196852 0 0)
(0.07287852162371894 0 0)
(0.05773979960120654 0 0)
(0.04158691000384306 0 0)
(0.02888473565585858 0 0)
(0.01345451195431932 0 0)
(0.0001141441547442037 0 0)
(-0.008733037236297723 0 0)
(-0.02102034654738218 0 0)
(-0.02725517072082509 0 0)
(-0.02674968630786279 0 0)
(-0.02711705745504764 0 0)
(-0.02215636811889482 0 0)
(-0.01652034532256705 0 0)
(-0.008080075829378646 0 0)
(0.001281136329467333 0 0)
(0.01015395005543372 0 0)
(0.02061681420573598 0 0)
(0.03579296811697277 0 0)
(0.04792046879710166 0 0)
(0.06156319747425962 0 0)
(0.07871539011602503 0 0)
(0.09187225802745957 0 0)
(0.1074751406454523 0 0)
(0.1230675512834591 0 0)
(0.1371565142746523 0 0)
(0.1523754791957075 0 0)
(0.1653663983713771 0 0)
(0.1780076008710939 0 0)
(0.1897800633821084 0 0)
(0.1999610827349514 0 0)
(0.2090319584801332 0 0)
(0.216780028509776 0 0)
(0.2177349469693081 0 0)
(0.2171626989629238 0 0)
(0.2158930571679603 0 0)
(0.2095588635794977 0 0)
(0.2032709359158001 0 0)
(0.1954284699243215 0 0)
(0.1864861907418865 0 0)
(0.1765835625975094 0 0)
(0.1660414897626634 0 0)
(0.152340211114026 0 0)
(0.1386002698605345 0 0)
(0.1251213000203184 0 0)
(0.1093339452794909 0 0)
(0.09476236877783804 0 0)
(0.07937431330508118 0 0)
(0.06209982144244231 0 0)
(0.0477189737116154 0 0)
(0.03337082681275096 0 0)
(0.01803044642058996 0 0)
(0.006155176790302284 0 0)
(-0.004160197732519436 0 0)
(-0.0172608665878431 0 0)
(-0.02416085597548346 0 0)
(-0.02574078867364103 0 0)
(-0.02668471815314397 0 0)
(-0.02426825773784555 0 0)
(-0.01877983358462773 0 0)
(-0.01225042424880569 0 0)
(-0.004657502671934824 0 0)
(0.005561853788996921 0 0)
(0.01579532462991472 0 0)
(0.02799265165523385 0 0)
(0.04366711978497535 0 0)
(0.05620768971522222 0 0)
(0.07241758412277079 0 0)
(0.08889194223552761 0 0)
(0.1026418432015485 0 0)
(0.1191757198663268 0 0)
(0.1351755598585393 0 0)
(0.148366360089718 0 0)
(0.1623012604962936 0 0)
(0.1755849476931239 0 0)
(0.1865130847264766 0 0)
(0.1967332581451432 0 0)
(0.2052635680281191 0 0)
(0.2121341580408341 0 0)
(0.215055193933855 0 0)
(0.2143098105417579 0 0)
(0.2132502086624459 0 0)
(0.2083291152583003 0 0)
(0.2008986381965387 0 0)
(0.1933667267685732 0 0)
(0.1869819190780415 0 0)
(0.1779356858253955 0 0)
(0.1663610731787248 0 0)
(0.1568798641427146 0 0)
(0.1440349404711719 0 0)
(0.1277996760529154 0 0)
(0.1153172712277033 0 0)
(0.1012059822936894 0 0)
(0.08320556556171198 0 0)
(0.06858743487206539 0 0)
(0.05431312709256506 0 0)
(0.03772820937534115 0 0)
(0.02460589608555425 0 0)
(0.01140308206366615 0 0)
(-0.001629646112318513 0 0)
(-0.01161395008843114 0 0)
(-0.02119455484974132 0 0)
(-0.02637373421912503 0 0)
(-0.02636180261949137 0 0)
(-0.02740116781083528 0 0)
(-0.02265700669157952 0 0)
(-0.01656426725038712 0 0)
(-0.01031181202921822 0 0)
(-0.00159530437156988 0 0)
(0.007615958101924678 0 0)
(0.01875315005563533 0 0)
(0.03209260137496297 0 0)
(0.04477057778477598 0 0)
(0.06152128014065202 0 0)
(0.07692712412707242 0 0)
(0.09176827570493663 0 0)
(0.1091851817604848 0 0)
(0.1245609408564169 0 0)
(0.139657959440892 0 0)
(0.1541226099179613 0 0)
(0.1666355131523423 0 0)
(0.178879589646926 0 0)
(0.189685142831535 0 0)
(0.1979468338309683 0 0)
(0.2058356605971148 0 0)
(0.2096515729129863 0 0)
(0.2119800052447704 0 0)
(0.209805936638085 0 0)
(0.2063641597341395 0 0)
(0.200019495260116 0 0)
(0.1941718201601799 0 0)
(0.1854037944113754 0 0)
(0.1803466854048288 0 0)
(0.1700048451501595 0 0)
(0.1582079595872802 0 0)
(0.1505599335840128 0 0)
(0.1365101902502893 0 0)
(0.1226159783384418 0 0)
(0.1114258629698132 0 0)
(0.09504597665365291 0 0)
(0.08071180523133921 0 0)
(0.06566306875435271 0 0)
(0.0504045474083539 0 0)
(0.03687665362740108 0 0)
(0.02302860565332869 0 0)
(0.01065596311055771 0 0)
(0.001855882779221388 0 0)
(-0.008907923071204298 0 0)
(-0.01595052501787165 0 0)
(-0.01607612752445244 0 0)
(-0.01596487805892832 0 0)
(-0.01377282772412499 0 0)
(-0.007842603065728877 0 0)
(-0.001760514953906511 0 0)
(0.006139777042202877 0 0)
(0.01671142583854041 0 0)
(0.02472450909927753 0 0)
(0.03831864475093544 0 0)
(0.05090908111316245 0 0)
(0.06373630372553581 0 0)
(0.08143682099186712 0 0)
(0.09556650495480794 0 0)
(0.1112685875690801 0 0)
(0.1279935494249571 0 0)
(0.1428851924880782 0 0)
(0.1572297440243951 0 0)
(0.1707917606429383 0 0)
(0.1834655288983562 0 0)
(0.1949451787761922 0 0)
(0.2044975361923151 0 0)
(0.2127739661635721 0 0)
(0.2192840483998011 0 0)
(0.2213478334420554 0 0)
(0.2203375965955557 0 0)
(0.2195834446609537 0 0)
(0.2141414605052369 0 0)
(0.2064750623487203 0 0)
(0.2001733247405291 0 0)
(0.1925766517609362 0 0)
(0.1847149416321057 0 0)
(0.1737672371795835 0 0)
(0.1629690592201867 0 0)
(0.151810750795363 0 0)
(0.1364225942223853 0 0)
(0.1236690847175144 0 0)
(0.11050287908698 0 0)
(0.09286750208444197 0 0)
(0.07661684202209582 0 0)
(0.06309637959656103 0 0)
(0.04602818492115109 0 0)
(0.03054280353039457 0 0)
(0.02077212673979518 0 0)
(0.004872511421509958 0 0)
(-0.003179301198127878 0 0)
(-0.01086179856063711 0 0)
(-0.01496021473470274 0 0)
(-0.01394051271155868 0 0)
(-0.01435088508048498 0 0)
(-0.008618573060536061 0 0)
(-0.002991312147719663 0 0)
(0.003925435313101563 0 0)
(0.01380887780146001 0 0)
(0.02119414795682255 0 0)
(0.03088813724033121 0 0)
(0.04632478236464241 0 0)
(0.05643978532500944 0 0)
(0.07210097486953687 0 0)
(0.08984996218556356 0 0)
(0.1027911738253969 0 0)
(0.120569613542233 0 0)
(0.1372979334041641 0 0)
(0.1511864820519349 0 0)
(0.1667912487044624 0 0)
(0.1812781783219074 0 0)
(0.1901670809360231 0 0)
(0.2031899547326599 0 0)
(0.2101567498220845 0 0)
(0.2165512887281995 0 0)
(0.2201007202074826 0 0)
(0.2188972653329158 0 0)
(0.2175700591471005 0 0)
(0.2125948237561737 0 0)
(0.2058598651006122 0 0)
(0.1982000094765607 0 0)
(0.1913271201027532 0 0)
(0.1831771356470364 0 0)
(0.1739703038009587 0 0)
(0.1627602123219045 0 0)
(0.1519384764424896 0 0)
(0.1392363033871747 0 0)
(0.1258294180103588 0 0)
(0.1133395613109721 0 0)
(0.09767497536400674 0 0)
(0.08346586586544823 0 0)
(0.06777044789539011 0 0)
(0.0528828844825909 0 0)
(0.03850290310897476 0 0)
(0.02382191534090309 0 0)
(0.01135812748201388 0 0)
(0.001149766029953764 0 0)
(-0.009345443105586458 0 0)
(-0.01374245583447831 0 0)
(-0.01482379845265186 0 0)
(-0.01317150680013741 0 0)
(-0.01000454808033433 0 0)
(-0.002624064335574145 0 0)
(0.002939614093222342 0 0)
(0.01317812110636612 0 0)
(0.02067658772071941 0 0)
(0.02942876138644419 0 0)
(0.04325775198599992 0 0)
(0.05245068747739553 0 0)
(0.06768158260356615 0 0)
(0.08436482949306516 0 0)
(0.09724338322549363 0 0)
(0.1148169115397369 0 0)
(0.1323220247532048 0 0)
(0.1476345756220014 0 0)
(0.1628935572388111 0 0)
(0.1781824577948979 0 0)
(0.190928209728765 0 0)
(0.2025552083206072 0 0)
(0.2126460521956183 0 0)
(0.2200922042608314 0 0)
(0.2251893895740022 0 0)
(0.2266517136844743 0 0)
(0.2264230027234746 0 0)
(0.2211948478056715 0 0)
(0.2167854466566415 0 0)
(0.2087744533918486 0 0)
(0.2026083476969791 0 0)
(0.1941702081909311 0 0)
(0.1883664600256699 0 0)
(0.1771990798844863 0 0)
(0.1681870288955045 0 0)
(0.160832925803334 0 0)
(0.1465956894007975 0 0)
(0.1356464147841872 0 0)
(0.1258606063883317 0 0)
(0.1112372353743363 0 0)
(0.09826643540724785 0 0)
(0.08668034900023124 0 0)
(0.07372089418787663 0 0)
(0.0613779813775026 0 0)
(0.04993473925711697 0 0)
(0.03918043986282586 0 0)
(0.03064131487986065 0 0)
(0.02218881973573558 0 0)
(0.01857403309381967 0 0)
(0.01873888637082598 0 0)
(0.01916727418041166 0 0)
(0.02258925447662752 0 0)
(0.02931609334922083 0 0)
(0.0356192375997194 0 0)
(0.04372315451259601 0 0)
(0.05277266851277095 0 0)
(0.05986904249117028 0 0)
(0.06961344478822892 0 0)
(0.08149541808956623 0 0)
(0.0898415557371479 0 0)
(0.1030527829484566 0 0)
(0.116137084318259 0 0)
(0.1270891927659882 0 0)
(0.1404822125503169 0 0)
(0.1536183579937226 0 0)
(0.1647816562280043 0 0)
(0.1760127955375231 0 0)
(0.1866708444182711 0 0)
(0.1946608871998093 0 0)
(0.1999692948743179 0 0)
(0.2070441961577341 0 0)
(0.2100491440753389 0 0)
(0.2093597911136683 0 0)
(0.2091301086829389 0 0)
(0.2049634263831616 0 0)
(0.2012143762559181 0 0)
(0.1967249327721058 0 0)
(0.1915425659640185 0 0)
(0.1852051494593059 0 0)
(0.1794802731801851 0 0)
(0.1720151220577093 0 0)
(0.1641879076525523 0 0)
(0.1573814761201829 0 0)
(0.1487860259371905 0 0)
(0.1387741102183017 0 0)
(0.1295752960169883 0 0)
(0.1190590590354457 0 0)
(0.1077804799897037 0 0)
(0.09674548856112276 0 0)
(0.08621663394082402 0 0)
(0.07575901821265693 0 0)
(0.06513098430094791 0 0)
(0.0562110076853471 0 0)
(0.04896264106263826 0 0)
(0.0423704521035784 0 0)
(0.0378579086383191 0 0)
(0.03900022071519807 0 0)
(0.03835201522012591 0 0)
(0.04204668150118096 0 0)
(0.0463597787126484 0 0)
(0.05408668580784366 0 0)
(0.05935314559146859 0 0)
(0.06915163085586493 0 0)
(0.07653180390986893 0 0)
(0.08568162969726703 0 0)
(0.09673587265025987 0 0)
(0.1069068037096777 0 0)
(0.1179234029637386 0 0)
(0.1293201503631137 0 0)
(0.1408407458049187 0 0)
(0.1528221195970945 0 0)
(0.1645671421757869 0 0)
(0.1765632745274653 0 0)
(0.1868473706254407 0 0)
(0.1961513565117567 0 0)
(0.2049756726966989 0 0)
(0.2114164686722122 0 0)
(0.2164397421084992 0 0)
(0.2189414975353765 0 0)
(0.2192844984236013 0 0)
(0.2185656646693493 0 0)
(0.2142307681384794 0 0)
(0.211507396456609 0 0)
(0.2058547307698309 0 0)
(0.2011067504212321 0 0)
(0.1938073106264273 0 0)
(0.1887832014456969 0 0)
(0.1813440240285724 0 0)
(0.1714351855551239 0 0)
(0.1642406715459513 0 0)
(0.1527598730104425 0 0)
(0.1423811350491743 0 0)
(0.1322159532347797 0 0)
(0.1194276021386831 0 0)
(0.1074425680360237 0 0)
(0.09549222793264349 0 0)
(0.08355646238061115 0 0)
(0.07200334035393213 0 0)
(0.06230783251049101 0 0)
(0.05258144062393511 0 0)
(0.04413925253943954 0 0)
(0.03863039612402221 0 0)
(0.03716101288130438 0 0)
(0.0382165273926356 0 0)
(0.03870240623345188 0 0)
(0.04323842504249371 0 0)
(0.04879344186583377 0 0)
(0.05475633138048665 0 0)
(0.06290140870933343 0 0)
(0.07085395389614915 0 0)
(0.07975114339223655 0 0)
(0.09171843688929443 0 0)
(0.1006448818250088 0 0)
(0.1118849232859107 0 0)
(0.1238042630081398 0 0)
(0.1332601549640595 0 0)
(0.1451678296944707 0 0)
(0.1567602824022644 0 0)
(0.1671032260393732 0 0)
(0.1786318691480105 0 0)
(0.1897347676281377 0 0)
(0.1982212883116447 0 0)
(0.2059696220738199 0 0)
(0.2140509943199815 0 0)
(0.2170651436595191 0 0)
(0.2167914657591397 0 0)
(0.2166709471037093 0 0)
(0.2123502317089274 0 0)
(0.2083820286567827 0 0)
(0.2028388094971882 0 0)
(0.1971083146513639 0 0)
(0.1907414512551134 0 0)
(0.1850271795114878 0 0)
(0.1792347521923192 0 0)
(0.1717627064518339 0 0)
(0.1641066824753689 0 0)
(0.156324123336256 0 0)
(0.1451873749247245 0 0)
(0.1370141859334479 0 0)
(0.1271627002975843 0 0)
(0.1141541042727882 0 0)
(0.1051934360441126 0 0)
(0.09402716851431202 0 0)
(0.08341288002042367 0 0)
(0.07515049481266241 0 0)
(0.06388186090413341 0 0)
(0.05770602936507033 0 0)
(0.0517616080493668 0 0)
(0.04889393740789012 0 0)
(0.04901211432940815 0 0)
(0.05082540412770415 0 0)
(0.05317664748537469 0 0)
(0.05988914724798581 0 0)
(0.06591973418393426 0 0)
(0.07300558009431796 0 0)
(0.08168257522921028 0 0)
(0.09097893031824066 0 0)
(0.09924461050122949 0 0)
(0.11075660920157 0 0)
(0.1219987156971725 0 0)
(0.1316944640523594 0 0)
(0.1444369868497117 0 0)
(0.155713210234428 0 0)
(0.1662601836036713 0 0)
(0.1775614012853542 0 0)
(0.1874404457987964 0 0)
(0.1973371536897059 0 0)
(0.2062832052452192 0 0)
(0.2137977127640264 0 0)
(0.2210705598772222 0 0)
(0.2282416948012734 0 0)
(0.2303455528166235 0 0)
(0.2298581500021112 0 0)
(0.2302743791869848 0 0)
(0.225756627610681 0 0)
(0.2209590277527704 0 0)
(0.2145202226146341 0 0)
(0.2076999848226153 0 0)
(0.2018475845292612 0 0)
(0.1952689463356548 0 0)
(0.1870813870091895 0 0)
(0.1784651061179727 0 0)
(0.1699584111367672 0 0)
(0.1602586060309719 0 0)
(0.1491344518582924 0 0)
(0.1389751234430817 0 0)
(0.1280868584709651 0 0)
(0.1163399680871671 0 0)
(0.1052039531558025 0 0)
(0.09560390184794017 0 0)
(0.08461051553322443 0 0)
(0.07532336613063478 0 0)
(0.06836580110855675 0 0)
(0.05991720547012652 0 0)
(0.0556845057194183 0 0)
(0.0562896554434901 0 0)
(0.05583624865769034 0 0)
(0.05892380349659088 0 0)
(0.06374920446196895 0 0)
(0.0695185060233323 0 0)
(0.07626184037654185 0 0)
(0.08455612888194196 0 0)
(0.09137311353969231 0 0)
(0.1018738359373445 0 0)
(0.1124831860162198 0 0)
(0.1210678082298315 0 0)
(0.1332617727733493 0 0)
(0.1456684328362614 0 0)
(0.1525280431233599 0 0)
(0.1671396351157802 0 0)
(0.1766802809722321 0 0)
(0.1918709129770054 0 0)
)
;

boundaryField
{
    inlet
    {
        type            zeroGradient;
    }
    outlet
    {
        type            pressureInletOutletVelocity;
        value           uniform (0.1918709129770054 0 0);
    }
    frontAndBack
    {
        type            empty;
    }
}


// ************************************************************************* //
