/*--------------------------------*- C++ -*----------------------------------*\
| =========                 |                                                 |
| \\      /  F ield         | OpenFOAM: The Open Source CFD Toolbox           |
|  \\    /   O peration     | Version:  v2012                                 |
|   \\  /    A nd           | Website:  www.openfoam.com                      |
|    \\/     M anipulation  |                                                 |
\*---------------------------------------------------------------------------*/
FoamFile
{
    version     2.0;
    format      ascii;
    class       volScalarField;
    location    "0.02";
    object      p;
}
// * * * * * * * * * * * * * * * * * * * * * * * * * * * * * * * * * * * * * //

dimensions      [1 -1 -2 0 0 0 0];


internalField   nonuniform List<scalar> 
1000
(
101310.8047505238
101313.2737189697
101306.2837770129
101300.6513563913
101294.4668555711
101288.973589164
101284.2656897123
101280.2171183776
101276.7716593259
101274.4401938167
101273.6497878635
101273.6937904988
101274.1703878264
101275.3687000349
101277.5665944111
101280.8096375329
101284.9751484401
101289.8841701443
101295.3837225796
101301.3622667422
101307.7277931581
101314.3852795096
101321.227913681
101328.139678418
101335.0013335776
101341.6951199988
101348.1144516412
101354.184119417
101359.8739721318
101365.1682524197
101369.9171327044
101373.5731236616
101375.4472139216
101375.8602315269
101375.8690922302
101375.5578112158
101374.7302578737
101373.1465485693
101370.6123700942
101367.0350350827
101362.4552247571
101357.0273338903
101350.9608237839
101344.457682165
101337.677892837
101330.740611746
101323.7452638196
101316.7908608004
101309.9800125588
101303.4036961268
101297.1166252927
101291.1381198342
101285.5384823616
101280.6600770278
101277.2334888989
101275.6985904159
101275.4343544154
101275.5124490858
101275.8635955456
101276.6811836941
101278.1513968244
101280.4522999092
101283.7075071116
101287.9483124086
101293.0997609981
101298.9995195055
101305.4394552504
101312.2111594944
101319.1379615369
101326.0863448595
101332.9612966215
101339.6963327666
101346.249971411
101352.6048967432
101358.739204481
101364.5426742182
101369.6484496603
101373.2868974504
101374.9190133518
101375.2634461149
101375.3063481357
101375.0695913497
101374.4436022044
101373.2459222017
101371.3061038788
101368.4838519781
101364.6992149614
101359.9527886321
101354.3327229197
101348.0028895853
101341.1734136849
101334.0631926435
101326.8658467902
101319.7274646042
101312.7400800437
101305.947238012
101299.3587190774
101292.9948756553
101287.0038970316
101281.866914686
101278.4156847543
101276.9721743237
101276.7084487101
101276.7394791367
101277.0223428587
101277.6857192087
101278.8769924872
101280.7486178401
101283.4330644892
101287.0161589685
101291.5165130751
101296.8766490244
101302.9674192418
101309.6058401843
101316.5837473454
101323.7013781194
101330.797144773
101337.7641905857
101344.5524129916
101351.1558096228
101357.5597368393
101363.6310577828
101368.9671088845
101372.7804555814
101374.5043803021
101374.9006980608
101374.990519694
101374.8211917423
101374.3361712226
101373.3744258716
101371.7887617953
101369.4445598906
101366.2387415262
101362.1173083237
101357.0901379562
101351.2379446831
101344.7068060011
101337.6896034094
101330.3966891425
101323.0217892298
101315.7145847168
101308.5686935504
101301.6284750654
101294.9371497109
101288.664521361
101283.3022643811
101279.6811652174
101278.1505300491
101277.8396672734
101277.8137109064
101278.0293465052
101278.5685218862
101279.5628400566
101281.1432516806
101283.4341610553
101286.5322619156
101290.4903384697
101295.3060811855
101300.9166029073
101307.2006720066
101313.9908796828
101321.0964297661
101328.3328865736
101335.5488978019
101342.6418887958
101349.5596433814
101356.2592835255
101362.5937010983
101368.1671456494
101372.2282049018
101374.1606766727
101374.6423473946
101374.7719364169
101374.6683609885
101374.2989059807
101373.5218807676
101372.2025767754
101370.215365709
101367.4541060779
101363.8440347493
101359.3555182683
101354.0146363082
101347.9066989471
101341.1708094765
101333.9841328247
101326.5364035325
101319.002442787
101311.5229916143
101304.1981882644
101297.1194414508
101290.4914435752
101284.8222068504
101280.9439964611
101279.2563600891
101278.8759150022
101278.8046366614
101278.9650287938
101279.3983829908
101280.2316586347
101281.5816790725
101283.5641212716
101286.2772475479
101289.7884478653
101294.1243162153
101299.263579341
101305.1339880824
101311.6155488048
101318.5524599717
101325.7738894858
101333.1176064241
101340.4484218072
101347.6689830033
101354.6971593053
101361.3618192011
101367.2555864549
101371.6462587649
101373.8651988
101374.4638682352
101374.6167017629
101374.5730444175
101374.2969339673
101373.6701480218
101372.5664621452
101370.8678725688
101368.4697171294
101365.288009173
101361.2712667386
101356.4111729965
101350.7486972243
101344.3746666057
101337.4232062518
101330.0561796531
101322.4423347636
101314.7397646778
101307.0857771972
101299.616061738
101292.5734053204
101286.4951076139
101282.2443401361
101280.3114308393
101279.8448271289
101279.7384890179
101279.8457551772
101280.190429149
101280.8885941051
101282.047605492
101283.7748439226
101286.1671701416
101289.2993542916
101293.214837037
101297.9190961088
101303.3751728632
101309.5026872668
101316.1828763258
101323.271592708
101330.6173268101
101338.0766831654
101345.5261477412
101352.8545903569
101359.8734641304
101366.1566507036
101370.9653554119
101373.5660870225
101374.3302012145
101374.4954650271
101374.5085442547
101374.3092772145
101373.8073336929
101372.8847956936
101371.4294940756
101369.338470339
101366.5233685253
101362.9203179029
101358.4991711845
101353.2696233507
101347.284266999
101340.6373735362
101333.4566558825
101325.8891667766
101318.0888899222
101310.2087264163
101302.4101213086
101294.9558240905
101288.404101294
101283.6659977691
101281.3643514062
101280.7628720344
101280.6340332653
101280.690259181
101280.9586160011
101281.5396923467
101282.5348876777
101284.0449196444
101286.1636291825
101288.9689156438
101292.5143454043
101296.8232087584
101301.8839167036
101307.647159593
101314.0269660156
101320.9080581627
101328.1587419055
101335.6428177512
101343.2277948469
101350.7849194904
101358.1224746283
101364.8145262885
101370.1116183053
101373.211325223
101374.2274399179
101374.4174107446
101374.4780214017
101374.3388220454
101373.9438367854
101373.1761494751
101371.9301865524
101370.1050479085
101367.6098528095
101364.3730184328
101360.3500365838
101355.5285504695
101349.9320733598
101343.6216535787
101336.6925576137
101329.2652968374
101321.4774571963
101313.4805727681
101305.4459408936
101297.6362214412
101290.6024380286
101285.2906723811
101282.4832463246
101281.6603975823
101281.5179898948
101281.5214860273
101281.7238275425
101282.2015105956
101283.0511288726
101284.3688890075
101286.2465751865
101288.7637566328
101291.9800664554
101295.9303705162
101300.6209687468
101306.0261445089
101312.0869410476
101318.7147592017
101325.8001697773
101333.2216343342
101340.8497762456
101348.5492833645
101356.1366755931
101363.2145467778
101369.035460743
101372.7266761898
101374.1121603293
101374.3639488334
101374.454212718
101374.3684482405
101374.0664283144
101373.434834523
101372.3724110593
101370.7812257917
101368.5692143296
101365.6594621314
101361.9976586012
101357.5560125806
101352.3363954542
101346.373193438
101339.7332719229
101332.511017152
101324.8232159855
101316.8101125082
101308.6411552787
101300.563760255
101293.0873898525
101287.1570260482
101283.7118997396
101282.5572118068
101282.3708708291
101282.3330858976
101282.4794602044
101282.8656268946
101283.5855639647
101284.730675223
101286.391639141
101288.6495125249
101291.5682531352
101295.1909045273
101299.5367737673
101304.5979832959
101310.3370526968
101316.6880371104
101323.562374916
101330.8555675233
101338.4487967585
101346.2077732307
101353.9612390491
101361.3636452339
101367.6994745749
101372.0418292549
101373.9415449146
101374.3247248762
101374.4266134161
101374.3874401679
101374.1632154127
101373.6499764189
101372.7506368111
101371.3698669245
101369.4138939464
101366.8009118235
101363.4694436148
101359.3809461146
101354.5214234291
101348.9045090729
101342.5735898729
101335.5997479747
101328.0785706774
101320.1335551815
101311.9238640901
101303.6748618408
101295.8308941935
101289.2859576725
101285.1162853073
101283.489441588
101283.1932652584
101283.1322760977
101283.2318332601
101283.5364966841
101284.1402145263
101285.12967434
101286.5937499171
101288.6151182716
101291.2615367043
101294.5822356194
101298.606205006
101303.3393288848
101308.7613309746
101314.8250819719
101321.4602298033
101328.5787537801
101336.0753145062
101343.8226547791
101351.6611475759
101359.3049690353
101366.1134305625
101371.1206112198
101373.6648793328
101374.3011001482
101374.4022875216
101374.4016468772
101374.2416501257
101373.8310561234
101373.0765370769
101371.8854968355
101370.1632819937
101367.8237355969
101364.7989206802
101361.0415611172
101356.5255757234
101351.2486408261
101345.2351894015
101338.536531154
101331.2289045847
101323.4170286394
101315.2445440781
101306.9155206362
101298.8033856457
101291.7006020077
101286.760611327
101284.5138206915
101284.0096508578
101283.9324688766
101283.9924312532
101284.2279029574
101284.728640187
101285.5772583146
101286.8603636425
101288.662690835
101291.0561728789
101294.0952379508
101297.8162594291
101302.2357986051
101307.3473786324
101313.1196048637
101319.4979680452
101326.4092088881
101333.7618253298
101341.4401810152
101349.2962745535
101357.0944650927
101364.3004331011
101369.955540354
101373.2216258718
101374.2567250377
101374.3787233222
101374.4085575783
101374.3007789003
101373.9792053472
101373.3522373628
101372.3320795659
101370.824502959
101368.7387024053
101365.999826496
101362.5531183819
101358.3634080193
101353.4161372198
101347.7204780486
101341.3111171578
101334.247295387
101326.6157402114
101318.5426646799
101310.2105527557
101301.9267158578
101294.3546677699
101288.653236121
101285.6715973371
101284.8198385678
101284.7233069513
101284.7440996246
101284.9211720388
101285.3308357553
101286.0521716692
101287.16961694
101288.7692309465
101290.9268224338
101293.7015125011
101297.1357947311
101301.2549518071
101306.0639547926
101311.5447148585
101317.6561962453
101324.3378417983
101331.5115613798
101339.0752833776
101346.8921278326
101354.7629051004
101362.269254847
101368.5280561885
101372.5477014709
101374.1379194653
101374.3673285477
101374.4017762974
101374.3310159486
101374.0836415624
101373.5673957056
101372.7003908307
101371.3893410977
101369.5394717531
101367.0696133178
101363.9181027573
101360.0417786014
101355.4158872563
101350.0369476376
101343.9256607442
101337.1271425715
101329.7121438775
101321.7882014604
101313.5167042189
101305.1540099408
101297.2331889138
101290.819864422
101287.0097643178
101285.6633876838
101285.4789679204
101285.4786326615
101285.6076883053
101285.9416271338
101286.5534780041
101287.5230826736
101288.9367629131
101290.8743600401
101293.400102248
101296.561970946
101300.3923717769
101304.9058770244
101310.0960165687
101315.9340351748
101322.3710883947
101329.3406243192
101336.7530091965
101344.485327696
101352.3656459265
101360.0699972047
101366.8511072763
101371.6242701121
101373.8898579269
101374.3665218336
101374.388154294
101374.346841143
101374.1575629784
101373.7345745269
101373.0000685268
101371.864945384
101370.2330804841
101368.0171436617
101365.1476267036
101361.5733998615
101357.261104158
101352.1968960768
101346.3893730208
101339.8708362879
101332.6979612261
101324.9609566486
101316.8004530735
101308.4340165023
101300.2816513251
101293.2505865802
101288.58466401
101286.6087389397
101286.2289477827
101286.2121278226
101286.3034142776
101286.57008916
101287.0844900557
101287.9206195372
101289.1631918719
101290.8953748101
101293.1861847888
101296.0884642119
101299.6406744204
101303.8656864811
101308.7672750032
101314.3278219242
101320.5091181932
101327.2548187607
101334.4879978031
101342.1006817786
101349.9386982289
101357.7439464667
101364.933756459
101370.435936159
101373.4531050815
101374.3235717695
101374.3727273932
101374.3469793103
101374.1966588955
101373.850446194
101373.2298864284
101372.2515889152
101370.8193752594
101368.8407299626
101366.2391351923
101362.9561205345
101358.9500010071
101354.1970931176
101348.6948540644
101342.4641640557
101335.5499464093
101328.026441611
101320.014126287
101311.7030438066
101303.4268721549
101295.910889768
101290.4067537033
101287.6798639652
101286.9566507068
101286.9100882259
101286.9733588208
101287.1843292323
101287.6167553744
101288.3368761114
101289.425257129
101290.9674320174
101293.0374218609
101295.6928991973
101298.9775477071
101302.9212588966
101307.5369772732
101312.8176047029
101318.7352494751
101325.2432811712
101332.2762008138
101339.7390888897
101347.4932093825
101355.3268533959
101362.8020494151
101368.961020494
101372.7550417166
101374.1767059163
101374.3569558274
101374.314678028
101374.1964717241
101373.9092451894
101373.3822510168
101372.5383885205
101371.2839537354
101369.5238358411
101367.1753718405
101364.1721970634
101360.4640526255
101356.0182303574
101350.8222713833
101344.8863936313
101338.244341311
101330.9562468983
101323.1243109368
101314.9146603711
101306.5975099425
101298.7341286868
101292.4638950475
101288.8931856616
101287.6815391857
101287.5401996734
101287.5901489657
101287.7523673849
101288.1139585281
101288.7326836641
101289.6836951825
101291.0523731974
101292.9170097579
101295.3400640037
101298.3698560406
101302.042034638
101306.3771115137
101311.3771172932
101317.0241144903
101323.281208913
101330.0929704388
101337.3779131909
101345.0149275689
101352.8228723601
101360.4600554558
101367.1522507051
101371.7433150557
101373.8444552585
101374.2474325623
101374.2202360092
101374.120030187
101373.8744571362
101373.4206395429
101372.6866129959
101371.5864676992
101370.0235911833
101367.9091836563
101365.1699358588
101361.7481782661
101357.6026810152
101352.7113650068
101347.0740062032
101340.7137144848
101333.6786056361
101326.0526556389
101317.9780868445
101309.684757339
101301.6096933533
101294.6860102192
101290.1941328844
101288.3463139676
101287.9996263612
101288.0316028815
101288.1549544974
101288.4579090487
101288.9901143812
101289.8191667393
101291.0276854206
101292.69791014
101294.8979674444
101297.6811330489
101301.0880930907
101305.1456376362
101309.8636499939
101315.233228795
101321.2265754744
101327.7979442684
101334.8797990256
101342.3677471159
101350.09984195
101357.8033409456
101364.898072186
101370.2759113898
101373.1246746425
101373.9353978804
101373.9777954857
101373.8784460686
101373.6659130978
101373.2698785606
101372.6300714846
101371.6692604692
101370.2938189267
101368.4125992334
101365.9468053317
101362.8312856416
101359.0164194229
101354.4721398283
101349.1905467993
101343.1867472947
101336.4992594584
101329.1962780747
101321.3977753217
101313.303689251
101305.2599485434
101297.9932167126
101292.7669183761
101290.2800062912
101289.6295969771
101289.6079605932
101289.7144350879
101289.9677501238
101290.4309082699
101291.1550138551
101292.2153362685
101293.6939037691
101295.6624129754
101298.178718407
101301.2884230063
101305.0237014806
101309.4003474359
101314.4160461208
101320.0503822799
101326.2662135653
101333.0082107543
101340.1901385464
101347.6767019772
101355.2517477982
101362.4774877389
101368.4316743083
101372.0371462619
101373.4078587679
101373.5750714098
101373.4922280799
101373.310891454
101372.9587913149
101372.390185198
101371.5431899176
101370.3341045766
101368.6708721433
101366.4685658634
101363.6538747584
101360.167622256
101355.9693095926
101351.0409164319
101345.3882003309
101339.0401364018
101332.0506367741
101324.5155297194
101316.6007405514
101308.5808673602
101301.005032346
101294.9647952773
101291.5649675287
101290.4052544387
101290.2501113865
101290.3375860777
101290.5425184084
101290.9501162832
101291.5937166758
101292.5365221611
101293.8561213868
101295.6279309705
101297.9172930294
101300.7788650985
101304.2539697178
101308.3661771936
101313.1190945796
101318.4968226882
101324.4660433369
101330.9779918858
101337.9616614958
101345.3037379706
101352.8218903815
101360.1782213404
101366.6565115086
101371.126408152
101373.1431433432
101373.5979056281
101373.5750286441
101373.4147910733
101373.0973721389
101372.574157325
101371.7997847685
101370.705627662
101369.2079041834
101367.2213816084
101364.6643191436
101361.4632771055
101357.5622074133
101352.9308459248
101347.5672467303
101341.4958899336
101334.7655738019
101327.4569797132
101319.7085058877
101311.7485894879
101304.0014530757
101297.3474718926
101293.0208413748
101291.2653175334
101290.8914072496
101290.8941083522
101291.0637529382
101291.4204196694
101292.0080997507
101292.8706506597
101294.0724247512
101295.6821944084
101297.7656134408
101300.3854670049
101303.5976407228
101307.4415496356
101311.9326654573
101317.0613408478
101322.7955543161
101329.0856849457
101335.8652123259
101343.035655024
101350.4446827902
101357.8374444815
101364.6638467777
101369.896155599
101372.6779126737
101373.5526005362
101373.6548853986
101373.5451983544
101373.2831919103
101372.8003358817
101372.0726563556
101371.0525364793
101369.6749399608
101367.8649774584
101365.5425938281
101362.6257780165
101359.0388970506
101354.7260377072
101349.6637063227
101343.8669492011
101337.385721004
101330.299225382
101322.7320340234
101314.8816087225
101307.0738333642
101299.9933019061
101294.8283811102
101292.3101812262
101291.6014688296
101291.498378649
101291.5863241545
101291.866322855
101292.388971383
101293.1910520077
101294.3178734884
101295.8179945525
101297.741070272
101300.1426833419
101303.0867775152
101306.6364624548
101310.8365045136
101315.6985579985
101321.1973108314
101327.2779491751
101333.8683094236
101340.8744475859
101348.1579263884
101355.5124831315
101362.5329915474
101368.3549047077
101371.9767515958
101373.363836052
101373.624076981
101373.6454775936
101373.4822583307
101373.0951109604
101372.4300429109
101371.4506982455
101370.1217577205
101368.4064297543
101366.2560765992
101363.5992820641
101360.344260805
101356.3973291798
101351.6889802439
101346.1967866202
101339.9594797327
101333.0698508068
101325.6638642445
101317.931668218
101310.1369776647
101302.7903620601
101296.9377837114
101293.5643303299
101292.3973696641
101292.2087082322
101292.2037379844
101292.3666858476
101292.7532703621
101293.4270343979
101294.4556965524
101295.8935880806
101297.7665388366
101300.078512568
101302.8358985157
101306.0726560201
101309.8657678921
101314.3265055611
101319.5427440838
101325.4921171658
101331.9920869253
101338.8867411916
101345.8207459233
101353.7796050551
)
;

boundaryField
{
    inlet
    {
        type            uniformFixedValue;
        uniformValue    sine;
        uniformValueCoeffs
        {
            frequency       constant 3000;
            scale           constant 50;
            level           constant 101325;
        }
        value           uniform 101323.6421297957;
    }
    outlet
    {
        type            pressureOutletNSCBC;
        pInf            101325;
        gamma           1.4;
        etaAc           1;
        fieldInf        1;
        lInf            2.25;
        value           uniform 101357.5238575559;
    }
    frontAndBack
    {
        type            empty;
    }
}


// ************************************************************************* //
