/*--------------------------------*- C++ -*----------------------------------*\
| =========                 |                                                 |
| \\      /  F ield         | OpenFOAM: The Open Source CFD Toolbox           |
|  \\    /   O peration     | Version:  v2012                                 |
|   \\  /    A nd           | Website:  www.openfoam.com                      |
|    \\/     M anipulation  |                                                 |
\*---------------------------------------------------------------------------*/
FoamFile
{
    version     2.0;
    format      ascii;
    class       volScalarField;
    location    "0.02";
    object      pMean;
}
// * * * * * * * * * * * * * * * * * * * * * * * * * * * * * * * * * * * * * //

dimensions      [1 -1 -2 0 0 0 0];


internalField   nonuniform List<scalar> 
1000
(
101325.0519166597
101325.0046283558
101325.0133591279
101325.0217273521
101325.0324121432
101325.0452634863
101325.058084906
101325.0745690548
101325.0916462909
101325.1105385006
101325.1297389988
101325.1488648063
101325.1680963245
101325.1869318004
101325.2053163196
101325.2228020404
101325.239108365
101325.2539197481
101325.2669576734
101325.2780996091
101325.2870659613
101325.2939993085
101325.2981944278
101325.3002091767
101325.2997383446
101325.2970010263
101325.2919669003
101325.2848144282
101325.2755564102
101325.2644101413
101325.2514425049
101325.2369794968
101325.2214292488
101325.2054759683
101325.1898866112
101325.1740388844
101325.15839908
101325.1430865818
101325.1284452726
101325.1147549203
101325.1024634083
101325.0918198128
101325.0831863883
101325.0766492666
101325.0726704586
101325.070557024
101325.0712548828
101325.0741937329
101325.0796681886
101325.0874412916
101325.097512003
101325.1096676399
101325.1238312249
101325.1398082533
101325.1572460695
101325.175554114
101325.1939361804
101325.2129761704
101325.2315351868
101325.249979945
101325.268084613
101325.2856375316
101325.3022731178
101325.3177632706
101325.3316374241
101325.3437248928
101325.3536310149
101325.3615172348
101325.3666116908
101325.3696027531
101325.3699175207
101325.3680862562
101325.3638435054
101325.3574624937
101325.3488535741
101325.3381642587
101325.3255064586
101325.3112358787
101325.2960650702
101325.2801896693
101325.2650878281
101325.249617807
101325.2342391631
101325.219207228
101325.2046196973
101325.1907848083
101325.1780309163
101325.1666907284
101325.1570993834
101325.149539997
101325.1443568315
101325.1414606623
101325.1410532419
101325.1430290115
101325.1476797759
101325.1546400653
101325.1640348126
101325.1756749144
101325.1894387369
101325.205185616
101325.2223936188
101325.2405496316
101325.2584849472
101325.2773144086
101325.2956223122
101325.3137454436
101325.331698341
101325.3491549646
101325.3659179479
101325.3816867784
101325.3961388612
101325.408966936
101325.4198694575
101325.4286166389
101325.4351805238
101325.4389452639
101325.4402702925
101325.4393359158
101325.4358667992
101325.4301803675
101325.4222166092
101325.4120480165
101325.3998402964
101325.3859143252
101325.3710610338
101325.3554531452
101325.3404947454
101325.3253814475
101325.3101786133
101325.2953609699
101325.2808539043
101325.2670206374
101325.2539962513
101325.2422503197
101325.2319510255
101325.2235764385
101325.2172069211
101325.2135601434
101325.2117278502
101325.2127950539
101325.2164420202
101325.2225889153
101325.2312466414
101325.242341991
101325.2556745382
101325.2710909984
101325.2880421479
101325.3059524013
101325.3238339433
101325.3420435867
101325.3603898887
101325.3783047878
101325.3960970884
101325.4134934834
101325.4303160611
101325.4462492417
101325.4610931374
101325.474472767
101325.4861630839
101325.4957468577
101325.5035230208
101325.5081524453
101325.5107462754
101325.5107206826
101325.5082117343
101325.5032625481
101325.4959767552
101325.4864090912
101325.4746797567
101325.4611831473
101325.446559395
101325.4314715646
101325.4161462037
101325.4015720458
101325.3865905201
101325.3719004584
101325.3575086743
101325.343688451
101325.3305393577
101325.3184840072
101325.3076935681
101325.2986328259
101325.2913726737
101325.2867445394
101325.2837657966
101325.283921815
101325.2863777968
101325.2916793928
101325.299447255
101325.3098830353
101325.3227237522
101325.3377529211
101325.3544634322
101325.3721123741
101325.3901063411
101325.4076012415
101325.4260917829
101325.4439060827
101325.4615041545
101325.478850999
101325.4956886618
101325.5117914578
101325.5268765106
101325.5407273107
101325.5530114887
101325.5634275058
101325.5719739751
101325.5779106381
101325.5815531675
101325.5824670675
101325.5810338766
101325.5769280641
101325.5704159774
101325.5615372455
101325.5503604923
101325.5373376914
101325.5229677549
101325.5083051661
101325.4928328309
101325.4786144416
101325.4638737161
101325.4492413881
101325.4349624563
101325.4211663001
101325.4079925524
101325.3956796207
101325.3845509279
101325.3749051574
101325.3670067191
101325.3612272235
101325.3578213433
101325.3565923947
101325.3579883974
101325.3622877145
101325.3691306101
101325.3787411878
101325.3909566218
101325.4055315576
101325.4219437167
101325.4393934093
101325.4573220776
101325.4746291268
101325.4928931138
101325.5107255607
101325.5281449913
101325.5454437448
101325.5622784169
101325.5785240127
101325.5937926011
101325.6080224592
101325.6207797565
101325.6319541619
101325.6410590738
101325.6484680225
101325.6527285076
101325.6548485845
101325.6544122579
101325.651344648
101325.6456579964
101325.6375409437
101325.6270445187
101325.6145223755
101325.6005165021
101325.5860323588
101325.5709880312
101325.5564118351
101325.5421388053
101325.5276174187
101325.5134414419
101325.4996691608
101325.4864936253
101325.4740369163
101325.4626183406
101325.4525243463
101325.4440715603
101325.4373993193
101325.4333902149
101325.430869919
101325.4314283643
101325.4346085963
101325.4405436193
101325.4492093587
101325.4606590373
101325.4746895588
101325.4907124346
101325.5079952451
101325.5256958482
101325.5433154125
101325.5606863946
101325.5788510534
101325.5962241445
101325.6134590458
101325.6302668186
101325.646622369
101325.6621042347
101325.6765836318
101325.6897850812
101325.7015380164
101325.7113265572
101325.7196368869
101325.7247561378
101325.7281020729
101325.7285912138
101325.7266351331
101325.7218732592
101325.7145977759
101325.7048638562
101325.6929413264
101325.679388729
101325.6650291179
101325.6505714712
101325.6354452326
101325.621682067
101325.6073562677
101325.5932206725
101325.579470858
101325.5662999554
101325.5537876272
101325.542114228
101325.5316805166
101325.5227080476
101325.5154393704
101325.510469165
101325.5073594847
101325.5069048146
101325.5089441366
101325.5139348403
101325.5216496063
101325.5322067817
101325.5455399047
101325.561114096
101325.5781646257
101325.5956802025
101325.6134924604
101325.6303460582
101325.6486382753
101325.6660586857
101325.6831631031
101325.6999830546
101325.7163921212
101325.732085996
101325.7467960773
101325.7603703277
101325.7725841207
101325.7831215638
101325.7918398581
101325.7985432387
101325.8024844915
101325.8040084699
101325.8031027964
101325.7993940472
101325.7930047993
101325.7840793139
101325.7728891521
101325.7598530772
101325.7457637171
101325.7315651714
101325.716604096
101325.7027309649
101325.688781479
101325.6746532433
101325.6609963599
101325.6477633402
101325.6352548993
101325.623427049
101325.6126852339
101325.6032780548
101325.5955637413
101325.5895962277
101325.586298839
101325.5844700531
101325.5856656055
101325.5896209653
101325.596415687
101325.6060043727
101325.6184977596
101325.6335087069
101325.6502399348
101325.6676464892
101325.6853033894
101325.702487848
101325.7199235894
101325.7377520925
101325.7548152823
101325.7716804901
101325.7880806803
101325.8039770821
101325.8189458771
101325.832797847
101325.84543462
101325.8565961604
101325.865836559
101325.8736751934
101325.8781899348
101325.8809327421
101325.8809678228
101325.8783652929
101325.8729741513
101325.8649088376
101325.8545032607
101325.8420947582
101325.8284049769
101325.8142679993
101325.8000113959
101325.7853599816
101325.7719992787
101325.7580426995
101325.7444242634
101325.7311536524
101325.7186169102
101325.7067300183
101325.6957287893
101325.6859571677
101325.6777729775
101325.6711893494
101325.6671682472
101325.664501903
101325.6649383789
101325.6677726229
101325.6736404858
101325.6822826208
101325.6938307689
101325.7081104542
101325.7244403709
101325.741723205
101325.7591841901
101325.77674555
101325.7934039889
101325.8115473727
101325.8287024545
101325.8454991879
101325.8619485551
101325.877928946
101325.8931806954
101325.9073254132
101325.9203076625
101325.931946659
101325.941909715
101325.9501717046
101325.9561085323
101325.959581648
101325.9605367402
101325.9590111751
101325.9546821152
101325.947554719
101325.9379551338
101325.926270202
101325.9130991852
101325.899109928
101325.8852820339
101325.8704766112
101325.8572421781
101325.8436095134
101325.8299506884
101325.8167469478
101325.8040877617
101325.7922049432
101325.7810502256
101325.7709412377
101325.7623063002
101325.7553423326
101325.7502708866
101325.7476477649
101325.7467184883
101325.7486875483
101325.7535803888
101325.7612814748
101325.7718873312
101325.7852848321
101325.8010804123
101325.8181786533
101325.8355351447
101325.8530791094
101325.8699237791
101325.8873755021
101325.9049516893
101325.9217319785
101325.9382996507
101325.9542974413
101325.9698129884
101325.9842833748
101325.9975856448
101326.0096189726
101326.0202562245
101326.0289277783
101326.0362253113
101326.0401070032
101326.0422232734
101326.0416732339
101326.0384379859
101326.032371572
101326.0236238456
101326.0126847627
101326.0001130529
101325.986483981
101325.972722687
101325.9586605638
101325.9445408245
101325.9315583899
101325.9180411279
101325.9048884676
101325.892154263
101325.8801985117
101325.8689995705
101325.8586400947
101325.8495934533
101325.8422129716
101325.8364729812
101325.8333727687
101325.8314212681
101325.8327501441
101325.8365623377
101325.8433553275
101325.8530306235
101325.8654979993
101325.8805818477
101325.8973828778
101325.9147440002
101325.9320386294
101325.9494096585
101325.9659314551
101325.9839599288
101326.0008557198
101326.0174155258
101326.0335172693
101326.0491331402
101326.0639885645
101326.077614884
101326.0900406204
101326.1011512559
101326.1105357678
101326.1183277169
101326.1234923295
101326.1264201027
101326.126747872
101326.124611725
101326.1196061536
101326.1118566663
101326.1016417285
101326.0897603595
101326.0766073744
101326.0628786947
101326.0494418508
101326.0349769737
101326.022251203
101326.0090169353
101325.9958205157
101325.9831341248
101325.9710094831
101325.9598081715
101325.9492818443
101325.939925081
101325.9320270909
101325.9259395994
101325.9217893716
101325.9199662469
101325.919953636
101325.9228824151
101325.9287508326
101325.9374609031
101325.9490536286
101325.963242014
101325.9796351779
101325.9968196299
101326.0140476779
101326.0315509666
101326.0481210686
101326.0655418182
101326.0828983468
101326.0994750533
101326.1157412019
101326.1314151001
101326.1465428997
101326.1606072392
101326.1733344667
101326.1849012555
101326.1949674719
101326.2031342386
101326.2097506694
101326.2130167153
101326.214472684
101326.2133393688
101326.2094273838
101326.2027684923
101326.1933844777
101326.1821653225
101326.1695294202
101326.1561546716
101326.1428105357
101326.1290873413
101326.1154398217
101326.1029120148
101326.0898363495
101326.0771952297
101326.0649854841
101326.053635502
101326.0431731174
101326.0333568548
101326.0253322709
101326.0186827177
101326.0138334948
101326.0116644839
101326.0105780117
101326.0128780856
101326.0177087453
101326.025532751
101326.0361993392
101326.0495860233
101326.0652222572
101326.0824127845
101326.0994597819
101326.116798312
101326.1340122682
101326.1504518459
101326.1683461033
101326.1850522338
101326.201359714
101326.2171944731
101326.2324223514
101326.2470025752
101326.2599278834
101326.2722468198
101326.2826171207
101326.2914838779
101326.2986870762
101326.3032152926
101326.3054472692
101326.3052110656
101326.3024211883
101326.296813383
101326.2884976658
101326.2777949592
101326.2660463189
101326.2527236202
101326.2396460675
101326.226597487
101326.2126017699
101326.2003360387
101326.1875527746
101326.1748723614
101326.1627215299
101326.1511825269
101326.1406944019
101326.1307440318
101326.1223911978
101326.1153031523
101326.1100468251
101326.106867982
101326.105961912
101326.1068879146
101326.110875069
101326.117828644
101326.1275574894
101326.1401645624
101326.1549640688
101326.1719194345
101326.1887920986
101326.2061102785
101326.2234977318
101326.2400682669
101326.2573032337
101326.2745425847
101326.2909221569
101326.3069678099
101326.3223300066
101326.3371500886
101326.3507987277
101326.3630135959
101326.3743862405
101326.3837282206
101326.3913503619
101326.3973799586
101326.3999114735
101326.4008259473
101326.3990652357
101326.3945676693
101326.3873322921
101326.3774830776
101326.366181625
101326.353559198
101326.3404880983
101326.3278377598
101326.3145502751
101326.301364159
101326.2893265785
101326.2767832128
101326.2646582374
101326.2530727511
101326.2423329838
101326.2326970885
101326.2233562219
101326.216718946
101326.2106044899
101326.2068015282
101326.2055967499
101326.2055010395
101326.2088656451
101326.2147950273
101326.2237187148
101326.2354184101
101326.249631792
101326.2657728998
101326.2830318876
101326.2999025528
101326.3175099083
101326.334487571
101326.3508908825
101326.3686916869
101326.3852449337
101326.4013522407
101326.4169645968
101326.4318917174
101326.4462102474
101326.4584918702
101326.470822102
101326.4805470212
101326.4888156817
101326.4954899598
101326.4993869322
101326.5010130689
101326.5001712332
101326.4968591601
101326.4906755236
101326.4819563949
101326.4709754851
101326.459347451
101326.4463961447
101326.4339455983
101326.4212949864
101326.4079641377
101326.3960565815
101326.3839035472
101326.3717680672
101326.3602798449
101326.349375287
101326.3397168698
101326.3303400247
101326.323233402
101326.3170771497
101326.3124965191
101326.3104511771
101326.3107019523
101326.3126223269
101326.3178324483
101326.3259565329
101326.3368342754
101326.3504147871
101326.3659055708
101326.3830563863
101326.4001143789
101326.4173451309
101326.4349683291
101326.4515285577
101326.4686102012
101326.4858885585
101326.5021751085
101326.5181056794
101326.533292225
101326.5479380324
101326.5611638565
101326.5733346442
101326.5842636564
101326.5930523305
101326.600213858
101326.6059582297
101326.6077469459
101326.608306981
101326.6060263132
101326.6011275295
101326.5935140267
101326.5835200232
101326.5722400768
101326.5600863252
101326.5475895866
101326.5358113538
101326.523003072
101326.510331947
101326.4990421574
101326.4871136277
101326.4756960007
101326.464857499
101326.454932523
101326.446116952
101326.4377285301
101326.4319445326
101326.4271715979
101326.4239776919
101326.4240986105
101326.4249638804
101326.4294783416
101326.4363990091
101326.4464014584
101326.4589007125
101326.4737107828
101326.4898649318
101326.5067697681
101326.5235830314
101326.5407431398
101326.5575677954
101326.5734549458
101326.5909384675
101326.607109393
101326.6227333702
101326.6379002291
101326.6522911574
101326.6660495628
101326.6777337327
101326.6893819224
101326.698925936
101326.7058069665
101326.7121480977
101326.715592451
101326.7164504852
101326.7151113787
101326.7113693738
101326.7048650927
101326.6960117072
101326.6852195319
101326.6737774272
101326.6619399335
101326.6498686567
101326.6385205788
101326.6256258828
101326.6142599589
101326.6030511108
101326.5917048043
101326.5810753631
101326.5710697639
101326.562328191
101326.5538597493
101326.5478850266
101326.5428350722
101326.539131082
101326.5380024804
101326.5397303546
101326.5422382099
101326.5486290685
101326.5576209299
101326.5693479766
101326.5834424651
101326.5991925643
101326.615731393
101326.6327571456
101326.649430703
101326.6669095314
101326.6829802292
101326.6991900525
101326.7163188536
101326.7320908577
101326.7474670584
101326.7621283537
101326.7761075166
101326.7886870675
101326.8001879993
101326.8102848839
101326.8187976138
101326.8245354908
101326.8300859207
101326.8309691145
101326.8310821805
101326.8280717727
101326.8228030336
101326.8148484822
101326.8049904843
101326.7936466689
101326.7822451141
101326.7705866985
101326.7590318142
101326.7475869661
101326.7347202544
101326.7245134147
101326.7133367629
101326.7025212154
101326.6925592018
101326.6834163733
101326.6754502687
101326.6680427
101326.6631404942
101326.6598537452
101326.6569316946
101326.6581550759
101326.6609526842
101326.6659256924
101326.6740477706
101326.6849955482
101326.6983613883
101326.7137917495
101326.7300228406
101326.7468349622
101326.7639252794
101326.7804152668
101326.7982360855
101326.8133499904
101326.8302498042
101326.8467703349
101326.8621523651
101326.8771827549
101326.8913676393
101326.9046427159
101326.9160827047
101326.9272242719
101326.9362926561
101326.9429491328
101326.9480211282
101326.9520965322
101326.9513399176
101326.9499502853
101326.9455050128
101326.9386576495
101326.9295597136
101326.9190300425
101326.9073990863
101326.8963102935
101326.8848247681
101326.873828092
101326.8622690004
101326.849756948
101326.8399950567
101326.8292824023
101326.8191600357
101326.8100523654
101326.8017342806
101326.7944768269
101326.7887541477
101326.7847659054
101326.7830797502
101326.781364178
101326.7848608797
101326.7885537844
101326.7962694643
101326.806110367
101326.8188211205
101326.8335962618
101326.8499175447
101326.8662896502
101326.8833382652
101326.9003439451
101326.9168313853
101326.9346175055
101326.9487952936
101326.9666273504
101326.9825368335
101326.9973035651
101327.0120580141
101327.0255566038
101327.037845636
101327.0485990443
101327.0585791945
101327.0668348258
101327.0716883866
101327.0759349102
101327.0783257837
101327.076237884
101327.0734501422
101327.0674415513
101327.059255559
101327.0492406034
101327.038464712
101327.0268474405
101327.0160056944
101327.004853195
101326.9940837551
101326.9831506615
101326.9704110134
101326.961280994
101326.9511582581
101326.9418906304
101326.9337115903
101326.9259115499
101326.9198946423
101326.9156353036
101326.9130356926
101326.9128153088
101326.9126424005
101326.9179181636
101326.9229196631
101326.9334100899
101326.9448281092
101326.9590482506
101326.9748016648
101326.9914995853
101327.0081288748
101327.0251075216
101327.0420894462
101327.0585027862
101327.0763358574
101327.0898039104
101327.1078390832
101327.1234251309
101327.1373775984
101327.1525777126
101327.1640132374
101327.1760121873
101327.186136465
101327.1944445721
101327.2019524361
101327.2051307548
101327.2080527199
101327.2087891139
101327.210732014
)
;

boundaryField
{
    inlet
    {
        type            calculated;
        value           uniform 101324.9999999997;
    }
    outlet
    {
        type            calculated;
        value           uniform 101327.2038357256;
    }
    frontAndBack
    {
        type            empty;
    }
}


// ************************************************************************* //
