/*--------------------------------*- C++ -*----------------------------------*\
| =========                 |                                                 |
| \\      /  F ield         | OpenFOAM: The Open Source CFD Toolbox           |
|  \\    /   O peration     | Version:  v2012                                 |
|   \\  /    A nd           | Website:  www.openfoam.com                      |
|    \\/     M anipulation  |                                                 |
\*---------------------------------------------------------------------------*/
FoamFile
{
    version     2.0;
    format      ascii;
    class       volScalarField;
    location    "0.02";
    object      rho;
}
// * * * * * * * * * * * * * * * * * * * * * * * * * * * * * * * * * * * * * //

dimensions      [1 -3 0 0 0 0 0];


internalField   nonuniform List<scalar> 
1000
(
1.176302970491569
1.176326789167428
1.176272137861263
1.176225408985027
1.176170795097104
1.176121835928663
1.176080653639453
1.176045710531831
1.176015933982941
1.175995312901755
1.175987727967165
1.175986963790884
1.175989653387675
1.175998878984922
1.176016723644463
1.176043346024702
1.17607772511816
1.176118396748941
1.176164087286907
1.176213857336354
1.176266928526889
1.176322494735731
1.176379642102411
1.176437368106912
1.176494640442053
1.176550450246075
1.176603899138121
1.176654362683462
1.176701596728677
1.176745479813971
1.176784781823976
1.176814973699457
1.176830366849102
1.176833681987638
1.176833632473287
1.176830887296115
1.1768239110338
1.176810716909757
1.176789664723326
1.17675998629287
1.176722020197789
1.176677041629632
1.17662678113234
1.17657290836848
1.176516745499097
1.176459275835237
1.176401318223927
1.176343688266332
1.17628723356928
1.176232708512017
1.176180569280654
1.176130979500881
1.176084525358014
1.176044048965099
1.176015611946876
1.176002864584892
1.176000662430378
1.17600130124246
1.176004205098438
1.176010985614701
1.17602318282043
1.17604227006681
1.176069271911437
1.176104447151374
1.176147173036422
1.176196102382016
1.17624950857953
1.176305663101956
1.176363100947765
1.176420715248289
1.176477718620055
1.176533560345011
1.176587897005469
1.176640585454142
1.176691444374329
1.176739560121181
1.176781891282859
1.176812057211557
1.176825589311536
1.176828445567257
1.176828802054853
1.17682684022273
1.176821651121016
1.176811721857167
1.17679563943815
1.176772240625785
1.17674086238673
1.176701509459903
1.176654912457254
1.17660242980337
1.176545803471303
1.176486848268548
1.176427169534116
1.176367978590033
1.176310038614871
1.176253710750188
1.176199076170214
1.176146303724948
1.176096622403773
1.176054022334955
1.176025401555622
1.176013430529822
1.176011243428121
1.176011500723519
1.176013846448064
1.176019347772033
1.176029226935773
1.176044748188401
1.176067009987393
1.176096723918313
1.176134044093168
1.17617849358068
1.176229001109606
1.176284049019932
1.176341910937995
1.176400930283783
1.176459767145026
1.176517535523834
1.176573820063644
1.176628571084114
1.176681667261226
1.176732004853901
1.176776245587514
1.176807861314286
1.176822153928565
1.176825439673389
1.176826184343248
1.17682478047533
1.176820759290815
1.176812785705745
1.176799639330619
1.176780203990432
1.176753624944427
1.17671945429658
1.176677773677632
1.1766292519897
1.176575100081771
1.176516916934153
1.176456446496138
1.176395294989761
1.176334703544286
1.176275448500599
1.17621789778682
1.176162409914031
1.1761103931417
1.176065925048539
1.176035895645979
1.176023202144565
1.176020624148999
1.176020408872858
1.176022197110222
1.17602666845905
1.176034914285147
1.176048020513639
1.176067018746628
1.176092710730231
1.176125534010811
1.176165469195581
1.176211994504002
1.176264104331901
1.176320410203578
1.176379329801332
1.176439333665314
1.17649916677346
1.176557978643235
1.176615336396475
1.176670884612245
1.176723403723267
1.176769612781321
1.176803282302985
1.176819303942081
1.176823297318436
1.176824371684411
1.17682351294663
1.176820449871147
1.176814007744145
1.176803069700115
1.176786594125125
1.176763700919249
1.176733770072642
1.176696555675554
1.176652273681313
1.176601631103283
1.17654578098536
1.176486192022684
1.176424437238442
1.176361966119894
1.17629994567561
1.176239206317671
1.176180506136975
1.176125542712365
1.176078529117219
1.176046367637741
1.176032372171864
1.17602921713245
1.176028625997998
1.176029956092198
1.176033549850364
1.176040460136271
1.176051655723405
1.176068095854885
1.176090595312335
1.176119712800903
1.176155668655409
1.176198286214058
1.176246966068899
1.176300712905695
1.176358234534576
1.176418114219151
1.176479006649346
1.176539790842725
1.176599659622696
1.176657932085825
1.176713189474541
1.176762054452306
1.176798456809871
1.176816853504128
1.176821816881593
1.176823083958906
1.176822721980362
1.176820432790002
1.176815236251451
1.176806085846709
1.176792003189446
1.176772120469808
1.176745741241421
1.176712438489135
1.176672143019553
1.176625194230273
1.176572344886721
1.176514706779214
1.176453621759971
1.176390488864512
1.176326618890928
1.176263150390778
1.17620120859314
1.176142806944604
1.176092401373702
1.17605715047671
1.176041121033335
1.176037251488464
1.176036369606242
1.176037259127704
1.176040117450589
1.176045907254176
1.176055518801528
1.17606984254398
1.176089681659516
1.17611565608354
1.176148125888833
1.176187136281918
1.176232380523882
1.176283191792839
1.176338585005271
1.17639736464472
1.176458274231212
1.176520124660943
1.176581891771797
1.176642654164954
1.176700848653053
1.176752942483435
1.176792810784764
1.17681437285698
1.176820707896106
1.17682207802961
1.176822186437246
1.176820534331407
1.176816372828325
1.176808724281048
1.176796658687477
1.176779322381292
1.176755982717825
1.176726110000732
1.176689454074807
1.176646095067147
1.176596468742443
1.176541356433537
1.176481816786181
1.17641906887403
1.176354389334774
1.176289045934611
1.176224377399933
1.176162562652494
1.176108231439362
1.176068939338611
1.176049852067515
1.176044864024775
1.176043795551697
1.176044261801025
1.176046487226691
1.176051306015021
1.176059559040859
1.17607208150729
1.17608965156395
1.176112915118269
1.176142316240558
1.176178047880319
1.17622001370298
1.176267804548505
1.176320707243428
1.17637776563043
1.176437887487429
1.176499943314235
1.176562834449933
1.176625493310223
1.176686330366668
1.176741814341604
1.176785731934428
1.176811430951114
1.176819855278995
1.176821430248314
1.176821932728085
1.176820778636953
1.176817503895079
1.176811139180646
1.176800809180439
1.176785677307952
1.176764990007588
1.176738153670293
1.176704799105939
1.176664823638478
1.17661842195104
1.176566099915535
1.176508647126268
1.176447062536771
1.176382486748176
1.176316176110969
1.176249550966753
1.176184789411475
1.176126461043103
1.176082411928445
1.176059130392289
1.176052306583713
1.176051125592848
1.176051154559666
1.176052832523474
1.176056793874365
1.1760638396356
1.176074767607879
1.176090338895984
1.176111213272314
1.176137885139314
1.176170643464433
1.176209540283444
1.176254362098902
1.176304619756894
1.176359578310846
1.176418330126575
1.176479867220775
1.176543116694148
1.176606956520682
1.176669865403885
1.176728548523147
1.176776809258431
1.176807412427544
1.176818899119942
1.176820986606236
1.176821734938293
1.176821023865446
1.17681851987622
1.176813283482664
1.176804475176926
1.176791282989905
1.176772943569744
1.176748819125709
1.17671845922343
1.176681633247948
1.176638356470327
1.176588913712626
1.176533859078597
1.176473974875532
1.1764102291937
1.176343784699719
1.176276046326106
1.176209065673424
1.17614706758631
1.176097888906361
1.176069319162638
1.176059743490761
1.176058198171638
1.176057884805267
1.176059098643869
1.176062301054944
1.176068271379633
1.176077767592936
1.176091541638429
1.176110265638629
1.176134469877959
1.176164511161146
1.17620054941028
1.176242519078679
1.176290109113794
1.176342772421295
1.176399774383304
1.17646024827411
1.17652320869403
1.176587542041281
1.176651828295199
1.176713202510759
1.176765732612357
1.176801734364825
1.176817484452503
1.176820661278172
1.176821505993505
1.176821181201407
1.176819322194498
1.176815067053362
1.176807610845185
1.176796163186209
1.176779946574549
1.176758282684077
1.176730661688209
1.176696763852339
1.17665647291495
1.176609901651263
1.17655740950156
1.176499585534778
1.176437222029101
1.176371342737011
1.176303267231609
1.176234864171728
1.176169818310052
1.176115543545399
1.176080965469393
1.176067474334621
1.176065018175388
1.176064512385971
1.176065337980067
1.176067864491064
1.176072871017916
1.17608107642907
1.176093217709
1.176109980427879
1.176131926394742
1.176159463739344
1.176192832701725
1.176232081873497
1.176277042880624
1.176327324657443
1.176382343573506
1.176441369514356
1.176503528807007
1.176567766110422
1.176632757782857
1.176696133993241
1.176752582961738
1.176794096830697
1.176815190796926
1.176820465528726
1.176821304434517
1.176821299107346
1.176819972598638
1.17681656846153
1.176810312929264
1.176800438289076
1.17678615975041
1.176766762931293
1.176741684466438
1.176710532240102
1.176673089814494
1.176629337681446
1.176579478141305
1.176523936319613
1.176463344043847
1.17639856932505
1.17633080297536
1.176261737000281
1.176194467960745
1.176135567622517
1.176094601723845
1.176075969557308
1.176071788555745
1.176071148488298
1.17607164573249
1.176073598444258
1.176077750961673
1.176084788387966
1.176095428909181
1.176110375168518
1.176130223616412
1.176155425503034
1.17618628231526
1.176222931205758
1.176265318247746
1.176313182861677
1.176366072787685
1.176423380300241
1.176484346438003
1.176548012178329
1.176613150223166
1.176677806750983
1.176737551784202
1.176784437726383
1.176811516190089
1.17682009793372
1.176821109380259
1.17682135671735
1.176820463139875
1.176817797048693
1.176812599013842
1.176804141130178
1.176791642135657
1.176774349125703
1.176751641426584
1.176723064921188
1.176688327837925
1.176647309251905
1.176600084947762
1.176546942229403
1.176488371980323
1.176425093008205
1.176358151575258
1.176289060633877
1.176220368394904
1.176157577155259
1.176110297152775
1.176085571158729
1.176078507688931
1.176077707163862
1.176077879583868
1.176079347999504
1.176082745253817
1.17608872714268
1.176097993868844
1.176111259069363
1.176129151347489
1.17615216088562
1.176180639940623
1.176214798005994
1.176254676103154
1.176300124001457
1.176350801170829
1.176406205207163
1.176465688342476
1.176528403999964
1.176593217053697
1.176658475850993
1.17672071174391
1.176772603106366
1.176805929285848
1.176819113402773
1.17682101536723
1.176821300956141
1.176820714290156
1.176818663363333
1.176814383296696
1.176807195170935
1.176796325551954
1.176780988636711
1.176760511386012
1.176734382443681
1.176702243802306
1.176663890026771
1.176619292009775
1.176568621106902
1.176512251086795
1.176450768271081
1.176385064032029
1.176316476351401
1.176247130840231
1.176181447959923
1.176128264849498
1.176096668789504
1.176085503592864
1.176083974234772
1.176083971448038
1.176085041669219
1.176087810945497
1.176092884887309
1.176100925592857
1.17611264888192
1.176128716809284
1.176149661922537
1.176175882002948
1.176207645628767
1.176245073456267
1.176288111615676
1.17633652141841
1.176389897583202
1.176447688006346
1.176509149222014
1.17657326186006
1.176638600205653
1.176702478158018
1.176758700252553
1.176798273859684
1.176817057340618
1.176821009236857
1.176821188581061
1.176820846055662
1.176819276790532
1.176815769897229
1.176809680289996
1.17680026924906
1.176786739790944
1.176768367814216
1.176744576937095
1.176714943107131
1.176679189561858
1.176637201296615
1.176589049327619
1.176535001178254
1.176475526457952
1.176411372839895
1.176343706140033
1.176274330236558
1.176206727888403
1.176148422548257
1.176109729616954
1.176093343782135
1.176090194259513
1.176090054771737
1.176090811783033
1.17609302324952
1.176097289051439
1.176104222867145
1.176114527191309
1.17612889167292
1.176147888579449
1.176171956017778
1.176201412800171
1.17623644841724
1.176277093967373
1.176323203125152
1.176374458803747
1.176430393530541
1.176490369197329
1.176553490299286
1.176618478347798
1.176683193282861
1.176742804251921
1.176788422229898
1.176813436960541
1.176820653782672
1.176821061317331
1.176820847840852
1.176819601564839
1.176816731197699
1.176811586289268
1.176803475456793
1.176791601280375
1.17677519668167
1.176753627180252
1.17672640788199
1.176693193013358
1.176653786004422
1.176608165521579
1.17655650440231
1.176499174815289
1.176436792017509
1.176370354681819
1.176301438413654
1.176232810033513
1.176170483996868
1.176124840324176
1.176102227029024
1.176096229602605
1.176095843469543
1.17609636815317
1.176098117672312
1.176101703669007
1.176107675441822
1.176116701086942
1.176129489880376
1.176146655602728
1.176168676429282
1.176195914494564
1.176228617522499
1.176266892667546
1.176310680851365
1.176359750547715
1.176413714838009
1.176472030354733
1.176533909812728
1.176598202681029
1.176663153491925
1.176725130993691
1.176776194607798
1.176807650158236
1.176819436836595
1.176820931241942
1.17682058072575
1.176819600702515
1.176817219375353
1.176812850196243
1.176805853935655
1.1767954536961
1.176780860893446
1.17676139011404
1.176736491031508
1.176705746806077
1.176668886063266
1.176625805271192
1.176576588876292
1.176521516361954
1.176461086001834
1.176396144906724
1.17632807032578
1.176259102752808
1.176193896461345
1.176141900183092
1.176112289475742
1.176102241625586
1.176101069533859
1.176101483749433
1.176102828980925
1.176105827556541
1.176110958473831
1.176118844941701
1.176130194969726
1.176145657766007
1.176165751212375
1.176190875906712
1.176221327331681
1.176257275408259
1.176298736770363
1.176345562443907
1.17639744624788
1.176453928301352
1.176514332693477
1.176577655015906
1.176642393200946
1.176705714177448
1.176761199029426
1.176799262869415
1.176816682953957
1.176820023937965
1.176819798458039
1.176818967674153
1.17681693168527
1.17681316919271
1.176807083553795
1.176797962496691
1.176785004997355
1.176767474776947
1.176744763949365
1.176716394252586
1.176682023677957
1.176641468949252
1.176594727951128
1.176541992003479
1.176483659743934
1.176420427156914
1.176353473243098
1.176284703791568
1.176217742695695
1.176160328046173
1.176123078578402
1.176107755169889
1.176104880184563
1.176105145358084
1.176106168279279
1.176108680596603
1.176113094025035
1.176119969115385
1.176129990988233
1.17614384159718
1.176162085833556
1.176185165404196
1.176213417580189
1.176247064362025
1.176286187516275
1.176330713010526
1.176380410092523
1.176434899183904
1.176493620033315
1.176555706821367
1.176619816592108
1.176683687880388
1.17674251054277
1.1767870976409
1.176810716174257
1.176817437686392
1.176817789195332
1.176816965515026
1.176815203455708
1.176811920028333
1.176806615539043
1.176798649670804
1.176787246162688
1.176771649282647
1.176751205670997
1.176725375053125
1.176693745874692
1.176656068655883
1.176612277659844
1.176562497870138
1.176507048358881
1.176446494261842
1.176381830071204
1.176314713437377
1.17624801276042
1.176187753955339
1.17614441455571
1.176123791470184
1.176118397829977
1.176118218407658
1.176119101370038
1.17612120203369
1.176125042857887
1.176131047630677
1.176139840524385
1.176152101744905
1.176168425799005
1.17618929237771
1.176215079542012
1.176246053963748
1.176282346440521
1.176323937578249
1.176370657866373
1.176422199080167
1.176478102193445
1.1765376519374
1.17659972631587
1.176662533010006
1.176722442280088
1.176771808094612
1.176801700470628
1.176813064743815
1.176814451065014
1.176813764232393
1.176812260813983
1.176809341633439
1.176804627449218
1.176797605195406
1.176787580908939
1.176773791328817
1.176755532282091
1.176732195864574
1.176703291316585
1.176668482689413
1.176627620358982
1.176580751808839
1.176528116998963
1.176470162643168
1.176407683025609
1.176342053726396
1.176275551580958
1.176212730109634
1.176162641422986
1.176134447985009
1.176124830877115
1.176123544327037
1.176124269729375
1.176125969170207
1.176129349248108
1.1761346864117
1.176142504769563
1.17615344771665
1.176168140616997
1.176187125265033
1.176210854821186
1.176239671830053
1.176273771590754
1.176313183826958
1.176357776485793
1.176407273058673
1.176461268953449
1.176519175164963
1.17658005193161
1.176642387325755
1.176703379736479
1.176757091157332
1.17679415046807
1.176810870801661
1.176814641128739
1.176814451463969
1.176813122977608
1.176810491336186
1.176806153485827
1.176799733336554
1.176790661905477
1.176778244547678
1.176761774566059
1.176740574182734
1.176714034403068
1.176681690378773
1.176643290988975
1.176598819860034
1.176548479691437
1.17649267479894
1.176432073867238
1.176367824200595
1.176301819808854
1.176237578396689
1.176182400638044
1.176146521773137
1.17613196385622
1.176128863144615
1.176128885545237
1.176130292353444
1.176133250071079
1.176138123498735
1.176145276323445
1.176155242179712
1.176168591340522
1.176185868196229
1.176207593320437
1.176234230037764
1.176266105053251
1.176303346488264
1.176345874140156
1.176393422257364
1.176445579148429
1.176501793005044
1.176561247041655
1.176622678052025
1.176683972919537
1.176740570869579
1.176783951420442
1.176807014443739
1.176814266278405
1.17681511429873
1.176814204913563
1.176812032686008
1.176808029444822
1.176801996422291
1.176793538826641
1.176782117433652
1.176767111311154
1.17674785667179
1.176723673476544
1.17669393452215
1.176658176051083
1.176616203049071
1.176568140004416
1.176514400821103
1.176455641924458
1.176392895954503
1.176327800035777
1.176263056348114
1.176204341906688
1.176161511722686
1.176140629295878
1.176134752199346
1.176133897309637
1.176134626613819
1.176136948548346
1.176141282687811
1.176147934046828
1.176157278339682
1.176169718219372
1.176185665413979
1.176205580784672
1.176229994497582
1.176259429765167
1.176294257647934
1.176334574591221
1.17638017047912
1.176430590554658
1.176485236207206
1.176543328258083
1.176603718667083
1.176664697131789
1.176722904723877
1.176771173786039
1.176801201818127
1.176812701713537
1.176814859227669
1.176815036588176
1.176813683336663
1.176810473673906
1.17680495999853
1.176796840894506
1.176785823546241
1.176771602895367
1.176753775594518
1.17673174932743
1.176704762748011
1.176672038649412
1.176633000263519
1.176587461233739
1.176535742283895
1.176478612256899
1.176417197994014
1.17635307607249
1.176288433916112
1.17622750669103
1.176178969930829
1.176150995697356
1.176141324705126
1.176139766037918
1.176139739138851
1.176141122170696
1.17614437228968
1.176150018109823
1.176158620089772
1.176170617884333
1.176186206689274
1.176205409170419
1.176228297461866
1.17625519163553
1.176286730004698
1.176323734801702
1.176366726226703
1.176415245371218
1.17646765987371
1.176523498047612
1.176581863082569
1.176651962277827
)
;

boundaryField
{
    inlet
    {
        type            calculated;
        value           uniform 1.176395950917642;
    }
    outlet
    {
        type            calculated;
        value           uniform 1.176684525633209;
    }
    frontAndBack
    {
        type            empty;
    }
}


// ************************************************************************* //
