/*--------------------------------*- C++ -*----------------------------------*\
| =========                 |                                                 |
| \\      /  F ield         | OpenFOAM: The Open Source CFD Toolbox           |
|  \\    /   O peration     | Version:  v2012                                 |
|   \\  /    A nd           | Website:  www.openfoam.com                      |
|    \\/     M anipulation  |                                                 |
\*---------------------------------------------------------------------------*/
FoamFile
{
    version     2.0;
    format      ascii;
    class       volScalarField;
    location    "0.02";
    object      T;
}
// * * * * * * * * * * * * * * * * * * * * * * * * * * * * * * * * * * * * * //

dimensions      [0 0 0 1 0 0 0];


internalField   nonuniform List<scalar> 
1000
(
299.98570134858
299.9869377082519
299.9801774707813
299.9754160882213
299.9710304038757
299.96724918195
299.9638100703904
299.9607320884299
299.9581224053688
299.9564767950056
299.9560704129626
299.9563956582363
299.957121231713
299.9583172692698
299.9602754023986
299.963090040163
299.9666581431636
299.9708230326712
299.9754563796888
299.9804673561085
299.9857819189116
299.9913242030117
299.9970109363449
300.0027542342834
300.0084643027522
300.0140497909648
300.0194242883539
300.0245244441812
300.0293233367968
300.0338053697919
300.037840787932
300.0409639802696
300.0425861672242
300.0429633593424
300.0430022085118
300.0427808115285
300.0421101411876
300.0407867336564
300.0386536059531
300.0356321886078
300.0317564355064
300.0271580602818
300.0220156889465
300.0165013896583
300.0107515436937
300.0048681120925
299.9989366151086
299.9930422103366
299.9872725803121
299.9817047695093
299.9763845132031
299.9713273591533
299.9665920716403
299.9624677947474
299.9595723764771
299.9582777473768
299.9580568276162
299.9581251893503
299.9584245399122
299.9591165874045
299.9603599414564
299.9623061487757
299.965059919777
299.9686478148205
299.973006541146
299.9779987981392
299.9834484537337
299.9891790980221
299.9950411512424
300.0009215307601
300.0067397220031
300.0124393509092
300.0179852193624
300.0233626119152
300.0285529671582
300.0334630394582
300.0377825154746
300.0408604087812
300.0422409143855
300.0425321131386
300.042568201577
300.0423676532179
300.0418379020976
300.0408246339632
300.0391835941929
300.0367960627925
300.033594352447
300.0295788881853
300.0248241521925
300.0194686949616
300.0136902220107
300.0076738936316
300.0015835175338
299.9955427123062
299.9896293775462
299.9838803915939
299.9783040622376
299.9729176453071
299.9678466056512
299.9634982581619
299.9605767773574
299.9593548247414
299.9591315811921
299.9591578594104
299.95939732651
299.9599589005323
299.9609673377843
299.9625516813211
299.9648240415482
299.967857028486
299.9716663389966
299.976203251094
299.9813583775529
299.9869767762133
299.9928822164749
299.9989056087049
300.0049101993534
300.0108055729918
300.0165493525305
300.0221364808215
300.0275545899932
300.0326910677034
300.0372053068192
300.0404312485905
300.0418895937957
300.0422248576818
300.042300845044
300.0421576089656
300.0417473149876
300.0409337346712
300.0395923415408
300.0376092343698
300.0348971780239
300.0314104400612
300.0271573103515
300.0222059985467
300.0166800175795
300.010742497118
300.0045713770011
299.9983305610633
299.9921467116263
299.9860990690857
299.9802251984322
299.9745617071188
299.9692523545562
299.9647133808229
299.9616481406708
299.9603524454086
299.9600892996926
299.9600673324178
299.9602498775819
299.9607063012304
299.9615480025766
299.962885824053
299.9648250550703
299.96744751418
299.9707978355725
299.9748740039749
299.9796227197814
299.9849413006763
299.9906879934636
299.9967012741825
300.0028250304169
300.0089311748282
300.0149329183701
300.0207860970249
300.026454455106
300.03181356294
300.0365286656755
300.0399641806066
300.0415989515722
300.0420064220012
300.0421160514131
300.0420284389167
300.0417159090408
300.0410585940689
300.0399425324929
300.0382614349458
300.0359254839584
300.0328713917498
300.0290740331478
300.0245554031356
300.0193876016488
300.0136882462385
300.0076071752823
300.0013048888403
299.9949292974952
299.988599500367
299.9824002575146
299.9764089571795
299.9707988890007
299.9660001247248
299.9627172751726
299.9612886905632
299.9609666470221
299.9609063158318
299.9610420972827
299.9614089420443
299.9621143176065
299.9632571100789
299.9649352253888
299.9672318164863
299.9702038899532
299.973873905756
299.9782237951487
299.9831923367843
299.9886779022719
299.9945485704475
300.0006597214094
300.0068740403779
300.0130771216878
300.0191865967723
300.0251329922604
300.030771551246
300.0357576833867
300.0394720600929
300.0413491752271
300.0418556220147
300.0419849157309
300.0419479913482
300.0417144273932
300.0411842082734
300.0402505517712
300.0388136226991
300.0367848612566
300.0340931854012
300.0306949963249
300.0265831981438
300.0217923815332
300.0163993165779
300.0105174140598
300.0042835717863
299.9978405373872
299.9913220700487
299.9848443663016
299.978522277932
299.9725613303308
299.9674163816978
299.9638182054611
299.962182010164
299.9617870371935
299.9616970283822
299.9617878373302
299.9620796138146
299.9626706161348
299.9636517168681
299.9651138025998
299.9671388448547
299.9697901042837
299.9731043090524
299.9770860411865
299.9817039546268
299.9868899490426
299.9925434437707
299.9985423887532
300.0047585240671
300.011070480388
300.0173737355848
300.0235742669374
300.0295125736889
300.0348282025088
300.038896246434
300.041096344517
300.0417427488859
300.0418825580777
300.0418936296068
300.0417250712535
300.0413004620805
300.0405200484806
300.0392889341579
300.0375200052775
300.0351384901837
300.0320903176747
300.0283499318411
300.0239254711986
300.0188613595485
300.0132372835715
300.0071612334881
300.0007575806068
299.9941565843438
299.9874876151374
299.9808873033484
299.9745780541659
299.9690324591411
299.9650218095019
299.963073495343
299.9625643525944
299.9624552968197
299.9625028990329
299.9627300713194
299.9632219554572
299.9640643830246
299.9653426028761
299.9671360340329
299.9695105912548
299.9725115804706
299.9761586681769
299.9804419875921
299.9853197388446
299.9907190925927
299.9965424237981
300.0026782286969
300.0090112104727
300.0154292332453
300.0218233469533
300.0280313551348
300.0336929472509
300.0381741881765
300.040796404716
300.0416559849412
300.0418166958127
300.0418679755193
300.0417502282519
300.0414161002618
300.0407666828264
300.0397126618908
300.0381686687196
300.0360578010998
300.0333194705016
300.0299159795119
300.0258368175791
300.0211018106755
300.0157625363159
300.0098995255529
300.0036146794305
299.9970243638394
299.9902567712726
299.9834568487012
299.9768469044844
299.9708933776753
299.9663972002777
299.964020769556
299.9633242406187
299.963203698213
299.9632066643633
299.9633779535615
299.9637823134033
299.9645015081005
299.9656169693723
299.9672063780349
299.9693370666546
299.972059482084
299.9754030953202
299.9793731872529
299.9839479312916
299.9890773632427
299.9946864333464
300.0006824719053
300.0069625762186
300.0134172302741
300.01993191869
300.0263513979148
300.0323394736862
300.0372639016492
300.0403865225109
300.0415585689515
300.0417715732596
300.0418479364324
300.041775390743
300.0415199057388
300.0409856162852
300.0400868622833
300.0387407888729
300.0368694968495
300.0344078929529
300.0313099938873
300.0275522384768
300.0231361486197
300.0180907466807
300.0124725317674
300.0063612922517
299.9998557815375
299.9930746209091
299.9861611726755
299.9793248210366
299.9729967995449
299.967977080519
299.9650608773601
299.9640834538934
299.9639257226716
299.9638937433835
299.9640176540729
299.9643445440995
299.9649539619182
299.9659232752322
299.9673292313022
299.9692404253686
299.9717109696217
299.9747772626196
299.9784556005407
299.9827392605562
299.9875964580135
299.9929713156605
299.9987888193302
300.0049604775296
300.0113856963878
300.0179508112317
300.0245109036653
300.0307736324324
300.0361337312129
300.0398072138292
300.0414142739794
300.0417384260336
300.0418246213609
300.0417914876004
300.0416018119612
300.0411676440755
300.0404068517111
300.0392387839733
300.0375841000005
300.0353735733019
300.0325551639182
300.0290962208892
300.024984847975
300.0202325138187
300.0148758536636
300.0089749345565
300.0026105634934
299.995887177182
299.9889394158447
299.9819579796211
299.9753189591723
299.9697791329883
299.9662496630156
299.9648725747775
299.9646218695677
299.9645702470123
299.9646545255008
299.96491242251
299.9654234603489
299.9662610150997
299.9675003082642
299.9692113093578
299.9714513506452
299.9742620723807
299.9776679719432
299.9816739792956
299.9862628744933
299.9913947058656
299.9970098681382
300.0030338089795
300.0093773313534
300.0159327087428
300.0225648492963
300.0290319234783
300.0347919413914
300.0390278797099
300.0411802033469
300.0417184111587
300.0418040124425
300.0418034745151
300.0416681317193
300.0413207959068
300.040682515243
300.0396749529376
300.0382180260944
300.0362388316512
300.0336798698496
300.0305011076745
300.0266804304931
300.0222158114423
300.0171278522056
300.0114598898075
300.0052763549215
299.9986657850811
299.9917496710032
299.9847006719024
299.9778348283644
299.9718229379762
299.96764148133
299.9657396364211
299.9653128692781
299.9652475387805
299.9652982993225
299.9654976253036
299.9659214901549
299.9666398230563
299.9677259276133
299.9692515174969
299.9712774629062
299.9738498080175
299.9769993045917
299.9807399247757
299.9850661322651
299.9899512947928
299.9953492150158
300.0011978297414
300.0074196451224
300.0139167582398
300.0205639013183
300.027161686127
300.0332580847269
300.0380422006731
300.0408051596085
300.0416807941833
300.0417839994933
300.0418092401694
300.0417180694084
300.0414460398641
300.040915661077
300.0400526589915
300.0387773122309
300.0370127890981
300.0346957450233
300.031779823804
300.02823522725
300.0240495828809
300.0192305844479
300.0138075057139
300.0078303933907
300.0013725553284
299.9945407237866
299.9874892743366
299.9804782668662
299.9740693164647
299.9692434151603
299.9667195669572
299.965998576214
299.9659168660906
299.9659344690987
299.9660843598987
299.9664311315687
299.967041721496
299.9679875981409
299.9693415983562
299.9711678757718
299.9735164505793
299.9764232593326
299.9799096607939
299.983979812287
299.9886183460416
299.9937904687871
299.9994448658018
300.005515389077
300.0119156068951
300.0185296511836
300.0251889600113
300.0315395861277
300.0368344809864
300.0402349413383
300.0415801759144
300.0417742434448
300.0418033861973
300.0417435300631
300.041534269126
300.0410975561861
300.0403641158122
300.0392550264546
300.0376901012633
300.0356006547947
300.0329344932232
300.0296550630393
300.0257413716033
300.0211904119497
300.0160196275079
300.0102671139054
300.0039926571798
299.9972871782734
299.9902871879886
299.9832096028757
299.9765055981655
299.9710772224516
299.9678521511345
299.9667124863463
299.9665563809458
299.9665560988161
299.9666653435714
299.9669480150783
299.9674659276664
299.9682866605604
299.9694832742426
299.9711233381244
299.973261198564
299.9759374412766
299.9791794585427
299.9829995384752
299.987392150508
299.9923328968515
299.9977803753681
300.003678200176
300.0099504595074
300.0164930930287
300.0231605874093
300.0296788363468
300.0354156802173
300.0394536235826
300.0413701899138
300.0417734187778
300.0417917197144
300.041756773654
300.0415966583862
300.041238836396
300.0406174844323
300.0396572237387
300.0382767280617
300.0364021038461
300.0339745250032
300.0309507021396
300.0273023677067
300.0230177525255
300.0181040630543
300.0125885539301
300.0065191003536
299.9999719557333
299.9930660543113
299.9859854664689
299.9790856436874
299.9731345168244
299.9691850879911
299.9675125438453
299.9671910632782
299.9671768266282
299.9672540994671
299.9674798329389
299.9679152559503
299.9686230054816
299.9696747825057
299.9711409740945
299.9730799823815
299.9755365111419
299.9785430824673
299.982119012919
299.9862674467404
299.9909734148168
299.9962045169669
300.0019130041958
300.0080337151242
300.014475226093
300.0211070415639
300.0277107655205
300.0337934639351
300.03844818397
300.0410005619353
300.0417369241862
300.041778507206
300.0417567274421
300.0416295679099
300.0413366944526
300.0408117363627
300.0399841453913
300.0387725517949
300.0370986784175
300.0348977731754
300.032120341346
300.0287310768223
300.024709890699
300.0200545683994
300.014782703777
300.0089322286049
300.002565881678
299.9957855353725
299.9887519549673
299.9817475071947
299.9753860767493
299.9707272248262
299.9684190409536
299.9678068680774
299.9677674549991
299.9678210123776
299.9679995929538
299.968365626301
299.9689751778785
299.9698964379007
299.971201797629
299.9729538977724
299.9752015337071
299.9779816517408
299.9813195148772
299.9852260327256
299.9896951430241
299.9947031792475
300.0002106138984
300.0061619534816
300.0124768156333
300.0190377576175
300.0256656209297
300.0319898646641
300.037200284143
300.040409865928
300.0416125112768
300.0417649914353
300.0417292275795
300.0416292337885
300.041386258973
300.04094045269
300.0402265884726
300.0391653914345
300.0376763914848
300.0356896415319
300.0331489729238
300.0300118310791
300.0262504971876
300.0218543718487
300.0168320311964
300.0112119497443
300.0050449276461
299.998417366921
299.9914697827356
299.9844308128992
299.9777754923378
299.9724682888897
299.9694458863547
299.9684202793038
299.968300640836
299.9683429212461
299.9684802336992
299.9687863067147
299.9693100300581
299.9701150124376
299.9712735165505
299.9728518003206
299.9749027134215
299.9774671299145
299.9805751897115
299.984244211385
299.9884758627582
299.9932549046642
299.9985500504694
300.0043143266497
300.0104787150896
300.0169406808103
300.0235469169949
300.0300083188066
300.0356699258415
300.0395538119805
300.0413312630066
300.0416721567839
300.0416491502775
300.0415643831553
300.0413566445197
300.0409727419889
300.0403517945807
300.0394211219901
300.0380989858136
300.0363102504336
300.0339928761646
300.0310980438136
300.0275908303225
300.0234525023061
300.0186828054209
300.0133012188692
300.0073483752066
300.0008952521302
299.9940621277786
299.9870434710681
299.9802091350665
299.9743489532859
299.9705468830957
299.9689827935939
299.9686893370029
299.968716403598
299.9688208156996
299.9690772540507
299.9695277413181
299.9702294908449
299.9712524295796
299.9726661588326
299.9745283280134
299.9768840090196
299.9797676092224
299.9832017651541
299.9871947947919
299.9917391098774
299.9968111235781
300.0023720583188
300.0083646984471
300.0147006487978
300.0212428336189
300.0277604670783
300.0337627276784
300.0383122612267
300.0407221794765
300.0414080037903
300.0414438693216
300.0413598255258
300.0411800355506
300.0408450132411
300.0403037700899
300.0394909681553
300.0383273967014
300.0367359367564
300.034649910875
300.0320141750121
300.0287867129261
300.0249420392765
300.0204734112386
300.0153935420243
300.0097349470886
300.0035552516241
299.9969559017588
299.9901060357854
299.9832983867306
299.9771480044545
299.9727243911411
299.9706193735738
299.9700688364285
299.9700505219233
299.9701406466131
299.9703550643522
299.9707471021403
299.9713600139443
299.9722575059018
299.9735090015371
299.9751751742061
299.9773049744952
299.9799369754057
299.9830983757343
299.9868025009534
299.9910473425928
299.9958155672253
300.0010756819919
300.0067808033256
300.0128578998064
300.019192441245
300.0256015085579
300.0317147143238
300.0367519047375
300.0398019948945
300.0409615443155
300.0411029961635
300.0410329151657
300.0408795147084
300.0405816576557
300.0401006462463
300.039384126937
300.0383612869372
300.0369542402007
300.0350911262744
300.0327099029175
300.0297604750903
300.0262085377038
300.0220387913912
300.0172560439062
300.0118847396694
300.0059704198669
299.999594097479
299.9928961182687
299.9861088284746
299.9796969754716
299.9745845313777
299.9717068231751
299.9707251942399
299.9705938738802
299.9706679156753
299.9708413785388
299.9711863856073
299.9717311523963
299.9725291718709
299.9736461109995
299.9751457938775
299.9770835114323
299.9795055037439
299.9824467157179
299.9859270581977
299.9899495376611
299.9945006452241
299.9995521261926
300.0050626530207
300.0109720792174
300.0171844684334
300.0235455082249
300.0297693039122
300.0352499638536
300.0390313619656
300.0407374185634
300.0411221211612
300.0411027678699
300.040967214953
300.0406986953691
300.0402560824203
300.0396009992946
300.0386753861893
300.0374083594339
300.0357278026734
300.0335645462227
300.0308564332747
300.0275560086576
300.0236376186356
300.0190995568221
300.0139624668698
300.0082675640879
300.0020830432632
299.9955259499775
299.9887895517608
299.9822328614006
299.9766010563131
299.972938928572
299.9714529929545
299.9711365003673
299.9711387863653
299.9712823797508
299.9715842757592
299.9720817083546
299.9728117965606
299.9738290045611
299.9751915341507
299.9769549425036
299.9791723522352
299.9818910380951
299.9851443251496
299.9889452644925
299.9932856403255
299.9981382965751
300.0034611818989
300.0091979463861
300.0152652024979
300.021534015283
300.027788737908
300.0335639928022
300.0379904224139
300.0403436639783
300.0410836011161
300.0411701277576
300.0410773380633
300.040855694314
300.0404472229911
300.0398316408086
300.0389686619613
300.0378032620229
300.0362720772239
300.0343073677144
300.0318397305485
300.0288051474599
300.0251562702178
300.0208731655197
300.0159684967678
300.0104844577047
300.0044879915279
299.9980844398622
299.9914408477887
299.9848329827906
299.9788402775503
299.974468679378
299.9723372101598
299.9717373310854
299.9716500714319
299.9717245110639
299.9719615109888
299.9724038970898
299.9730828000064
299.9740365651827
299.9753062859985
299.9769339798916
299.9789666763301
299.9814584745169
299.98446275846
299.98801737649
299.9921321430638
299.9967855808481
300.0019312437512
300.0075080063763
300.0134363203814
300.0195990039543
300.0258215127797
300.0317610945208
300.0366864042331
300.0397503769029
300.0409238060449
300.041143975389
300.0411620960687
300.0410240323337
300.0406965059999
300.040133829013
300.0393052382836
300.0381808413809
300.0367295031141
300.0349100772694
300.0326621645896
300.0299081533703
300.026568831045
300.0225854112371
300.0179388923752
300.0126619996951
300.0068332267205
300.0005676120426
299.9940259726775
299.9874312437108
299.9812152017034
299.9762628028799
299.9734073732208
299.9724180517543
299.972256874909
299.9722490163039
299.9723788391332
299.9726947531751
299.9732501117862
299.9741025079526
299.975300692726
299.9768713529488
299.9788204165473
299.981148370219
299.983874100239
299.9870627158026
299.9908339267109
299.9953151525509
300.0005570531832
300.0064352959874
300.0126084411983
300.0182531623352
300.0239390739284
)
;

boundaryField
{
    inlet
    {
        type            fixedValue;
        value           uniform 300;
    }
    outlet
    {
        type            temperatureOutletNSCBC;
        pInf            101325;
        gamma           1.4;
        etaAc           1;
        fieldInf        1;
        lInf            2.25;
        value           uniform 300.0267195650543;
    }
    frontAndBack
    {
        type            empty;
    }
}


// ************************************************************************* //
