/*--------------------------------*- C++ -*----------------------------------*\
| =========                 |                                                 |
| \\      /  F ield         | OpenFOAM: The Open Source CFD Toolbox           |
|  \\    /   O peration     | Version:  v2012                                 |
|   \\  /    A nd           | Website:  www.openfoam.com                      |
|    \\/     M anipulation  |                                                 |
\*---------------------------------------------------------------------------*/
FoamFile
{
    version     2.0;
    format      ascii;
    class       volVectorField;
    location    "0.02";
    object      U;
}
// * * * * * * * * * * * * * * * * * * * * * * * * * * * * * * * * * * * * * //

dimensions      [0 1 -1 0 0 0 0];


internalField   nonuniform List<vector> 
1000
(
(-0.01290429901622011 0 0)
(-0.04452298171560414 0 0)
(-0.05234568270249464 0 0)
(-0.06765242723496333 0 0)
(-0.08169284419790324 0 0)
(-0.09452958546115088 0 0)
(-0.1054340732871656 0 0)
(-0.1148155730881194 0 0)
(-0.1228396064707592 0 0)
(-0.1283801872547166 0 0)
(-0.1302391805347257 0 0)
(-0.1302314554083558 0 0)
(-0.1294678814697757 0 0)
(-0.1270157641083698 0 0)
(-0.1222253075310156 0 0)
(-0.1149398943454319 0 0)
(-0.1054240269251747 0 0)
(-0.0940840126921457 0 0)
(-0.08126990846154955 0 0)
(-0.06723891765495266 0 0)
(-0.05221006599327609 0 0)
(-0.03641991978789889 0 0)
(-0.02014300628475006 0 0)
(-0.003682261504418791 0 0)
(0.01264971630637629 0 0)
(0.02854626232025916 0 0)
(0.04373508299911291 0 0)
(0.0580290541678557 0 0)
(0.07135801566203992 0 0)
(0.08371039201970562 0 0)
(0.09476215248496346 0 0)
(0.1031476567679718 0 0)
(0.1072473698401894 0 0)
(0.1080451166756591 0 0)
(0.1077697523704812 0 0)
(0.1070566305252227 0 0)
(0.1052193058697947 0 0)
(0.101675676207407 0 0)
(0.09592108084690795 0 0)
(0.08769410413783593 0 0)
(0.0770637257927955 0 0)
(0.06438314627242674 0 0)
(0.05014733267177351 0 0)
(0.03484033160369687 0 0)
(0.01885054278009433 0 0)
(0.002472440759340774 0 0)
(-0.01404393552252378 0 0)
(-0.03044837943179497 0 0)
(-0.04648388866036372 0 0)
(-0.06192862552746351 0 0)
(-0.07665740715399151 0 0)
(-0.09063229076270331 0 0)
(-0.1037066088830738 0 0)
(-0.1151078049001925 0 0)
(-0.1230508705718091 0 0)
(-0.1264419520140859 0 0)
(-0.1269344930113675 0 0)
(-0.126811461777343 0 0)
(-0.1262009966895333 0 0)
(-0.1246299415375798 0 0)
(-0.1215868076894249 0 0)
(-0.1166008495402593 0 0)
(-0.1093294487624533 0 0)
(-0.09965980903219178 0 0)
(-0.08774455808256652 0 0)
(-0.07395760923858297 0 0)
(-0.05879416272478401 0 0)
(-0.04276050087532796 0 0)
(-0.02629559230698935 0 0)
(-0.009741412753022134 0 0)
(0.006648677500533295 0 0)
(0.02268956900077385 0 0)
(0.03826106831484532 0 0)
(0.05330879169397996 0 0)
(0.06777395500444931 0 0)
(0.0814020424550083 0 0)
(0.09332405164872833 0 0)
(0.1016416765494502 0 0)
(0.1051215098435432 0 0)
(0.1056954381844745 0 0)
(0.1053700180742117 0 0)
(0.1047456928156447 0 0)
(0.1033043271847992 0 0)
(0.1006347108127275 0 0)
(0.09629037011523198 0 0)
(0.08989233458317543 0 0)
(0.08121003554392978 0 0)
(0.07021448965748378 0 0)
(0.05709689156146348 0 0)
(0.04224062933920836 0 0)
(0.02614977188470247 0 0)
(0.009357206159927405 0 0)
(-0.007659693463371052 0 0)
(-0.02453559796364155 0 0)
(-0.04103650660909374 0 0)
(-0.05705050412602367 0 0)
(-0.07255330174080199 0 0)
(-0.08749771966945175 0 0)
(-0.1015431277224147 0 0)
(-0.1135589978532435 0 0)
(-0.1214985109887914 0 0)
(-0.1245981495406223 0 0)
(-0.125048200787841 0 0)
(-0.1248521396023701 0 0)
(-0.1243174165929978 0 0)
(-0.1230320762255025 0 0)
(-0.120610615508373 0 0)
(-0.1166456874651269 0 0)
(-0.1107714039447299 0 0)
(-0.1027373265327156 0 0)
(-0.09246087474320192 0 0)
(-0.08005151332460526 0 0)
(-0.06580235761584578 0 0)
(-0.05014853813365437 0 0)
(-0.03359789458461474 0 0)
(-0.01664804735616932 0 0)
(0.0002882571891188579 0 0)
(0.01692635101114364 0 0)
(0.03311901608799066 0 0)
(0.04883032088210918 0 0)
(0.06401195023960343 0 0)
(0.07834376406938573 0 0)
(0.09084749939042462 0 0)
(0.09959212034346406 0 0)
(0.1032970271302768 0 0)
(0.1039273735246643 0 0)
(0.1036350100693745 0 0)
(0.1030678552266624 0 0)
(0.1018623385164969 0 0)
(0.0996770302361383 0 0)
(0.09612964888333279 0 0)
(0.09085992721004987 0 0)
(0.08357936059996154 0 0)
(0.07412054583064538 0 0)
(0.06247647647834613 0 0)
(0.04881940104673343 0 0)
(0.03348879439606643 0 0)
(0.01694675431180162 0 0)
(-0.0002938588846981464 0 0)
(-0.01775419416353448 0 0)
(-0.03505929163441394 0 0)
(-0.05197115574119379 0 0)
(-0.06837374288040247 0 0)
(-0.08415777146416352 0 0)
(-0.0989237561155982 0 0)
(-0.1114901669636749 0 0)
(-0.1198038732401659 0 0)
(-0.1230936342514082 0 0)
(-0.1236393937628093 0 0)
(-0.1233904952437547 0 0)
(-0.1229325871066061 0 0)
(-0.1218393703381913 0 0)
(-0.1198144692025405 0 0)
(-0.1165057438463475 0 0)
(-0.1115691567812747 0 0)
(-0.1047265471849528 0 0)
(-0.09580796568507757 0 0)
(-0.08478160027855554 0 0)
(-0.07177017573327897 0 0)
(-0.05704815409083109 0 0)
(-0.04101369571462162 0 0)
(-0.02413372358038673 0 0)
(-0.00687080085067576 0 0)
(0.01038451303576008 0 0)
(0.02735612321534928 0 0)
(0.04389011436891627 0 0)
(0.05985990796920469 0 0)
(0.07489627796697101 0 0)
(0.08802296057792196 0 0)
(0.09740609281913008 0 0)
(0.1016262615063676 0 0)
(0.1023987614017275 0 0)
(0.102195457289985 0 0)
(0.1016642726636667 0 0)
(0.100629954201239 0 0)
(0.0987853318635446 0 0)
(0.09579526523305339 0 0)
(0.09133284817670802 0 0)
(0.08510404161545194 0 0)
(0.07688734414561155 0 0)
(0.06657357162011811 0 0)
(0.05419452794614213 0 0)
(0.03993321475552111 0 0)
(0.0241120493188624 0 0)
(0.007155332009087371 0 0)
(-0.01047335461201605 0 0)
(-0.02834027043476735 0 0)
(-0.04609152486269827 0 0)
(-0.0634710361087485 0 0)
(-0.08024651326561748 0 0)
(-0.09592104518843471 0 0)
(-0.1092521973497502 0 0)
(-0.1181973537182869 0 0)
(-0.1218748055717881 0 0)
(-0.1225232154853199 0 0)
(-0.1222912029232421 0 0)
(-0.1218596667641373 0 0)
(-0.1209054850163212 0 0)
(-0.1191693785934893 0 0)
(-0.1163408145985276 0 0)
(-0.1121048897314986 0 0)
(-0.1061822979489296 0 0)
(-0.09836637874112748 0 0)
(-0.08855029210696282 0 0)
(-0.07674774977842841 0 0)
(-0.06310415663751801 0 0)
(-0.04789160651333464 0 0)
(-0.03148158861358493 0 0)
(-0.01429465511781388 0 0)
(0.003258599141777468 0 0)
(0.02082490006521833 0 0)
(0.0381376190233604 0 0)
(0.05496793706188181 0 0)
(0.07087605720224242 0 0)
(0.0848453202554534 0 0)
(0.09508766885566883 0 0)
(0.1000254666026786 0 0)
(0.1010410713690553 0 0)
(0.1009355244649938 0 0)
(0.1004273103805791 0 0)
(0.0995241090240816 0 0)
(0.09793130701168806 0 0)
(0.0953596251795195 0 0)
(0.09151518480334897 0 0)
(0.08611488587421126 0 0)
(0.07891615337095241 0 0)
(0.06975409779171167 0 0)
(0.05857137226374282 0 0)
(0.04543526614623247 0 0)
(0.03054148889827802 0 0)
(0.01420029931093137 0 0)
(-0.003200586661661671 0 0)
(-0.02124795523618783 0 0)
(-0.03954822390772683 0 0)
(-0.05775397727819043 0 0)
(-0.075521609800244 0 0)
(-0.09225115435634483 0 0)
(-0.1066145520861143 0 0)
(-0.1165004295347978 0 0)
(-0.1207873475875227 0 0)
(-0.1215887931025222 0 0)
(-0.1214236720154192 0 0)
(-0.1210050211768296 0 0)
(-0.1201523244515728 0 0)
(-0.1186289360383311 0 0)
(-0.1161629635257815 0 0)
(-0.1124717825828669 0 0)
(-0.1072854332614477 0 0)
(-0.1003813041775928 0 0)
(-0.09161013291951536 0 0)
(-0.08091553153007251 0 0)
(-0.06834898562616937 0 0)
(-0.05407620213538625 0 0)
(-0.03836756035647571 0 0)
(-0.02156759099059678 0 0)
(-0.004050959786015747 0 0)
(0.01381577097945252 0 0)
(0.03170457294017206 0 0)
(0.04931309051654779 0 0)
(0.06614924171967951 0 0)
(0.08114099482882216 0 0)
(0.09247758541405922 0 0)
(0.09838621422688788 0 0)
(0.09978440673087305 0 0)
(0.09979287897743676 0 0)
(0.09930770923836078 0 0)
(0.09852065234932876 0 0)
(0.09712352460703505 0 0)
(0.09487714949840705 0 0)
(0.09151855011351107 0 0)
(0.08678302591666903 0 0)
(0.08042476605447609 0 0)
(0.07224955876175089 0 0)
(0.0621435161167368 0 0)
(0.05009178329038091 0 0)
(0.03618910751785571 0 0)
(0.02063971026505613 0 0)
(0.003738819403301611 0 0)
(-0.01416178300574614 0 0)
(-0.03268463934148165 0 0)
(-0.05144700943416285 0 0)
(-0.07004178285483577 0 0)
(-0.08781302922455203 0 0)
(-0.1033735289497264 0 0)
(-0.1144968383580778 0 0)
(-0.1197056389047841 0 0)
(-0.1207987356354662 0 0)
(-0.1207260067495849 0 0)
(-0.1203267050643251 0 0)
(-0.1195658530898422 0 0)
(-0.1182146128834568 0 0)
(-0.1160354315240101 0 0)
(-0.112775827927005 0 0)
(-0.1081830182502647 0 0)
(-0.1020336693279728 0 0)
(-0.09415748571320781 0 0)
(-0.0844537811414324 0 0)
(-0.07290658078240268 0 0)
(-0.05959683464656419 0 0)
(-0.04470416777039404 0 0)
(-0.02849120982531306 0 0)
(-0.01127303263942341 0 0)
(0.006611412584207007 0 0)
(0.02481965880610405 0 0)
(0.04300813316320934 0 0)
(0.0606715676874975 0 0)
(0.07673347230588902 0 0)
(0.08934496890356751 0 0)
(0.09652286347215179 0 0)
(0.09856804582767881 0 0)
(0.09869924444388466 0 0)
(0.09828981687641665 0 0)
(0.09759591285082848 0 0)
(0.09636419313687936 0 0)
(0.09437608311249988 0 0)
(0.0914035834054101 0 0)
(0.08720747469376881 0 0)
(0.0815482432086628 0 0)
(0.0742168519151875 0 0)
(0.06506362073079497 0 0)
(0.05401674124770592 0 0)
(0.04109444516401533 0 0)
(0.02641181326504898 0 0)
(0.01017534635748507 0 0)
(-0.007337219150238036 0 0)
(-0.02579605646934458 0 0)
(-0.04482777281106408 0 0)
(-0.06400478361637273 0 0)
(-0.08266855572431581 0 0)
(-0.0994472023025315 0 0)
(-0.1120277625837144 0 0)
(-0.1185032444725735 0 0)
(-0.1201099130456993 0 0)
(-0.1201633560788306 0 0)
(-0.1197979066623868 0 0)
(-0.1191341111432893 0 0)
(-0.1179330456228647 0 0)
(-0.1159935512767159 0 0)
(-0.1130893381143951 0 0)
(-0.1089862515289501 0 0)
(-0.103466783842562 0 0)
(-0.09635243019317705 0 0)
(-0.08751771357167246 0 0)
(-0.07690237440749591 0 0)
(-0.06452426740934795 0 0)
(-0.05048748289362197 0 0)
(-0.03497802522315687 0 0)
(-0.01824503216380528 0 0)
(-0.0005804163911101314 0 0)
(0.01769160646748366 0 0)
(0.03621913796238375 0 0)
(0.05451942005393871 0 0)
(0.07158284574698874 0 0)
(0.08554776819373588 0 0)
(0.094238317829221 0 0)
(0.09725580572511465 0 0)
(0.09757185681397169 0 0)
(0.09727587304628621 0 0)
(0.09666896499470677 0 0)
(0.09559361992005644 0 0)
(0.09383557280676863 0 0)
(0.09119107914703048 0 0)
(0.08744609470068572 0 0)
(0.08237410967694785 0 0)
(0.07576424685184872 0 0)
(0.06744839894375455 0 0)
(0.05731750117439893 0 0)
(0.04533333837021009 0 0)
(0.03153918535671016 0 0)
(0.01606339336050618 0 0)
(-0.000889768981388879 0 0)
(-0.01905078330361887 0 0)
(-0.03808269073128637 0 0)
(-0.05756830332363595 0 0)
(-0.07688746916077444 0 0)
(-0.09477492919887104 0 0)
(-0.1089128861819049 0 0)
(-0.1169664324496301 0 0)
(-0.119419464214215 0 0)
(-0.1196451190490047 0 0)
(-0.1193401103181415 0 0)
(-0.1187807850256552 0 0)
(-0.1177242008463454 0 0)
(-0.115997047526316 0 0)
(-0.1133989766788704 0 0)
(-0.1097138355950734 0 0)
(-0.1047321748423556 0 0)
(-0.09827399378442603 0 0)
(-0.09020123377744181 0 0)
(-0.08042617453720892 0 0)
(-0.06892234841280014 0 0)
(-0.05573533723137384 0 0)
(-0.04098573199406103 0 0)
(-0.02485936838068605 0 0)
(-0.007594045359423214 0 0)
(0.01052306264337503 0 0)
(0.02915300432332943 0 0)
(0.04785351931459658 0 0)
(0.06574542231983581 0 0)
(0.08102979946604441 0 0)
(0.09139181196624789 0 0)
(0.09575252562351554 0 0)
(0.09641733670564148 0 0)
(0.09624709606315747 0 0)
(0.09573567126242874 0 0)
(0.09481927946410737 0 0)
(0.09327512164703751 0 0)
(0.09091851378781741 0 0)
(0.08755886374716398 0 0)
(0.08298800344609399 0 0)
(0.07700121017988014 0 0)
(0.0694216847544806 0 0)
(0.0601161731680387 0 0)
(0.04900676910933484 0 0)
(0.03608260309051934 0 0)
(0.02140795758034243 0 0)
(0.005120867945631999 0 0)
(-0.01257111689806793 0 0)
(-0.03138112271525798 0 0)
(-0.05092354447806878 0 0)
(-0.07063969272908056 0 0)
(-0.08943318744572662 0 0)
(-0.1050961985375262 0 0)
(-0.1149504521165676 0 0)
(-0.1186198550218071 0 0)
(-0.1191322896274721 0 0)
(-0.1189190161634002 0 0)
(-0.1184585419823505 0 0)
(-0.1175537782732092 0 0)
(-0.1160313893877894 0 0)
(-0.1137111083985577 0 0)
(-0.1103943338453073 0 0)
(-0.1058814343346365 0 0)
(-0.09999577155232213 0 0)
(-0.0925946179141186 0 0)
(-0.08357410231585305 0 0)
(-0.07287782342353025 0 0)
(-0.06050802890049484 0 0)
(-0.04653263405193959 0 0)
(-0.03108259111160645 0 0)
(-0.01434350969402422 0 0)
(0.003443750966761723 0 0)
(0.02197140572102489 0 0)
(0.04083693072269988 0 0)
(0.05931330244101974 0 0)
(0.07578918379626284 0 0)
(0.08785970126579393 0 0)
(0.0938835013262645 0 0)
(0.09519331137328069 0 0)
(0.09516334811507374 0 0)
(0.09475738848735424 0 0)
(0.09400012292528984 0 0)
(0.09265827959645412 0 0)
(0.09056452582738882 0 0)
(0.08754851548835264 0 0)
(0.08341819859504918 0 0)
(0.07797605640877062 0 0)
(0.07104372729209328 0 0)
(0.06247608463240345 0 0)
(0.05217000584953217 0 0)
(0.04007500430263907 0 0)
(0.02620438023411557 0 0)
(0.01064025882523213 0 0)
(-0.006466898801386719 0 0)
(-0.02488677637082811 0 0)
(-0.04428100949371455 0 0)
(-0.06415256979446789 0 0)
(-0.0835844724676941 0 0)
(-0.100611759646527 0 0)
(-0.1123823480724561 0 0)
(-0.1176230559751338 0 0)
(-0.1186453778587373 0 0)
(-0.1185515653158831 0 0)
(-0.1181924128077056 0 0)
(-0.1174420217873604 0 0)
(-0.1161206776442697 0 0)
(-0.1140612108304509 0 0)
(-0.1110812629683626 0 0)
(-0.1069896245370065 0 0)
(-0.1016125931157831 0 0)
(-0.0948066499813207 0 0)
(-0.08646052682540441 0 0)
(-0.07649987025799826 0 0)
(-0.06489683481842927 0 0)
(-0.05167918634546985 0 0)
(-0.03693257168970501 0 0)
(-0.02079546353707477 0 0)
(-0.003461518268687991 0 0)
(0.01480210127924028 0 0)
(0.03363399599618166 0 0)
(0.05244472567794694 0 0)
(0.06989644872166724 0 0)
(0.08360437245468227 0 0)
(0.09145879347046733 0 0)
(0.09380582372571918 0 0)
(0.09395574300462155 0 0)
(0.09367806380148816 0 0)
(0.09308310340220786 0 0)
(0.09194972816863287 0 0)
(0.0901138104584399 0 0)
(0.08741861921400852 0 0)
(0.08368582362516826 0 0)
(0.07872825540812699 0 0)
(0.07237263017047098 0 0)
(0.06446973688270098 0 0)
(0.05490035799929643 0 0)
(0.04358592415633994 0 0)
(0.03050133128887386 0 0)
(0.01568331460444146 0 0)
(-0.0007672980357949128 0 0)
(-0.01867376470457751 0 0)
(-0.03775126879888195 0 0)
(-0.05756801237808458 0 0)
(-0.07737313062007903 0 0)
(-0.09552177326896832 0 0)
(-0.1091737035229397 0 0)
(-0.1162421697433359 0 0)
(-0.1180948662921389 0 0)
(-0.1181658276007765 0 0)
(-0.1179165247057929 0 0)
(-0.1173269624870876 0 0)
(-0.1162104150686651 0 0)
(-0.1144077746677194 0 0)
(-0.1117480239866071 0 0)
(-0.1080473143433385 0 0)
(-0.103134299517575 0 0)
(-0.09686606732379305 0 0)
(-0.08912872339155586 0 0)
(-0.07983811370558057 0 0)
(-0.06894705857621358 0 0)
(-0.05645460825840332 0 0)
(-0.04241089164101201 0 0)
(-0.02691521271961701 0 0)
(-0.01011864703702722 0 0)
(0.007756752233498387 0 0)
(0.02639435341024859 0 0)
(0.04530896358643818 0 0)
(0.06345349767503823 0 0)
(0.07863497109570965 0 0)
(0.08838348891169016 0 0)
(0.09219430320573001 0 0)
(0.09267810012750657 0 0)
(0.09251814423342559 0 0)
(0.09208674082175686 0 0)
(0.09116151931129869 0 0)
(0.08957735692095026 0 0)
(0.08718750870251772 0 0)
(0.08382634054569436 0 0)
(0.079314585232823 0 0)
(0.07348310508141255 0 0)
(0.06618271444928277 0 0)
(0.05728716251011207 0 0)
(0.04670092890272412 0 0)
(0.0343713973659418 0 0)
(0.02029943420471934 0 0)
(0.004544742248580892 0 0)
(-0.01276465263945449 0 0)
(-0.0314010336073937 0 0)
(-0.05099387443490456 0 0)
(-0.07092277135361431 0 0)
(-0.08988084287340552 0 0)
(-0.1052633745977046 0 0)
(-0.1143438115266508 0 0)
(-0.117431838189154 0 0)
(-0.1177851604187553 0 0)
(-0.1176193912280967 0 0)
(-0.117188635927037 0 0)
(-0.1162702584837462 0 0)
(-0.1147146290575721 0 0)
(-0.1123612022777214 0 0)
(-0.1090306406727682 0 0)
(-0.1045517526774392 0 0)
(-0.09878149602481263 0 0)
(-0.09160544112825221 0 0)
(-0.08293444925834599 0 0)
(-0.07270898716065777 0 0)
(-0.06090783938286419 0 0)
(-0.04755453165844554 0 0)
(-0.03271784630969003 0 0)
(-0.01651209485459957 0 0)
(0.0008862162838354716 0 0)
(0.01920634544981882 0 0)
(0.03803519796637468 0 0)
(0.05657743176912557 0 0)
(0.07299974195395442 0 0)
(0.08460708989786839 0 0)
(0.09012175271448152 0 0)
(0.09126166185074223 0 0)
(0.09123101490747708 0 0)
(0.09095167994005725 0 0)
(0.09023565826047682 0 0)
(0.08890250313086481 0 0)
(0.0868104462008179 0 0)
(0.08380257531168059 0 0)
(0.07970415800305039 0 0)
(0.07435046860235375 0 0)
(0.06759780286700263 0 0)
(0.05932015750322555 0 0)
(0.04941183007744576 0 0)
(0.03779992592708697 0 0)
(0.02445767675306789 0 0)
(0.00941177047693815 0 0)
(-0.007251211033476304 0 0)
(-0.02535729255634478 0 0)
(-0.04459629158593986 0 0)
(-0.06445452034967807 0 0)
(-0.08392088460379442 0 0)
(-0.1007695822055261 0 0)
(-0.1119113003992018 0 0)
(-0.1165649207119927 0 0)
(-0.1174221593417931 0 0)
(-0.1173407919756846 0 0)
(-0.1170568987872397 0 0)
(-0.1163397580856113 0 0)
(-0.115030370056042 0 0)
(-0.1129766876028123 0 0)
(-0.1100038004124459 0 0)
(-0.1059393354845897 0 0)
(-0.1006383650459001 0 0)
(-0.09398565225470959 0 0)
(-0.08588963661877694 0 0)
(-0.07628363341779074 0 0)
(-0.06513303340136345 0 0)
(-0.05244206353542843 0 0)
(-0.03825590081045115 0 0)
(-0.02265976224005227 0 0)
(-0.0057925903293872 0 0)
(0.01211813764749046 0 0)
(0.03072354481248221 0 0)
(0.04941805259493175 0 0)
(0.06676585908451738 0 0)
(0.0800952811139711 0 0)
(0.08744380522963274 0 0)
(0.08962447198125494 0 0)
(0.08978817532212956 0 0)
(0.08963119847531414 0 0)
(0.0891248186584082 0 0)
(0.08804123150978344 0 0)
(0.08624396600645468 0 0)
(0.08358043017735427 0 0)
(0.07988123372287173 0 0)
(0.07498335507628487 0 0)
(0.06874538349076482 0 0)
(0.06104294175383599 0 0)
(0.05176660145109905 0 0)
(0.04083157968271452 0 0)
(0.02819117244088482 0 0)
(0.01384629197459607 0 0)
(-0.002148858945587857 0 0)
(-0.01966691087626441 0 0)
(-0.03845769733162443 0 0)
(-0.05809248513088107 0 0)
(-0.07777953029887986 0 0)
(-0.09573264348234907 0 0)
(-0.1088837856394855 0 0)
(-0.1153863023424555 0 0)
(-0.1170527960731364 0 0)
(-0.1170903192973606 0 0)
(-0.1169402356395804 0 0)
(-0.1164068287838859 0 0)
(-0.1153318844235341 0 0)
(-0.1135659746157227 0 0)
(-0.1109403516698173 0 0)
(-0.1072791695874696 0 0)
(-0.1024315130074439 0 0)
(-0.09627897891246257 0 0)
(-0.08872762459254011 0 0)
(-0.07970552542980999 0 0)
(-0.06916877430714852 0 0)
(-0.05710837203447492 0 0)
(-0.04355282003735712 0 0)
(-0.02856706055237806 0 0)
(-0.01226025835117949 0 0)
(0.005184881601857042 0 0)
(0.0234758579331471 0 0)
(0.0421198864944111 0 0)
(0.06003783596815226 0 0)
(0.0748945132655482 0 0)
(0.08414068056004728 0 0)
(0.08767965381093999 0 0)
(0.08816044227786111 0 0)
(0.08815074335195174 0 0)
(0.08782642103019471 0 0)
(0.08698783680431282 0 0)
(0.08548008645646145 0 0)
(0.08315451348861498 0 0)
(0.07984361447205549 0 0)
(0.07538159809999283 0 0)
(0.0696273575433794 0 0)
(0.06246122181235522 0 0)
(0.05377558095548505 0 0)
(0.0434788196105156 0 0)
(0.0315094694774854 0 0)
(0.01784858372668388 0 0)
(0.002525541193473456 0 0)
(-0.01436946162924048 0 0)
(-0.03264255136717915 0 0)
(-0.05193762144424646 0 0)
(-0.07162088154021377 0 0)
(-0.09033015021349257 0 0)
(-0.1053078330385281 0 0)
(-0.1138263131422153 0 0)
(-0.11665021842398 0 0)
(-0.1169426524088462 0 0)
(-0.1168916845571149 0 0)
(-0.1165236541691063 0 0)
(-0.1156741901204678 0 0)
(-0.1141836457157143 0 0)
(-0.1118907356669253 0 0)
(-0.1086181526476064 0 0)
(-0.1042084267845204 0 0)
(-0.0985384225291609 0 0)
(-0.09151119411374155 0 0)
(-0.08305010001565945 0 0)
(-0.07310330614592545 0 0)
(-0.06165089863163146 0 0)
(-0.04870877403347353 0 0)
(-0.03432814913791133 0 0)
(-0.01859622196094573 0 0)
(-0.001658226177315495 0 0)
(0.01623629954720946 0 0)
(0.03467787941825565 0 0)
(0.05287213710851205 0 0)
(0.06895136700324267 0 0)
(0.08004211198876447 0 0)
(0.08516074264278106 0 0)
(0.0862417655623387 0 0)
(0.08637486973794817 0 0)
(0.08619496822231985 0 0)
(0.08559825556402997 0 0)
(0.08437075926575772 0 0)
(0.08236848379923703 0 0)
(0.07942859107112051 0 0)
(0.07538341485915656 0 0)
(0.07008941707164111 0 0)
(0.0634288181930726 0 0)
(0.05529614450732748 0 0)
(0.04559695699225044 0 0)
(0.03426017406231443 0 0)
(0.02125175294097476 0 0)
(0.006582929045252618 0 0)
(-0.009683377300108868 0 0)
(-0.02740223616365021 0 0)
(-0.04627996696911317 0 0)
(-0.06579685079215078 0 0)
(-0.08493031433156964 0 0)
(-0.1014185798843125 0 0)
(-0.1120920504910478 0 0)
(-0.1164341994341947 0 0)
(-0.117239011560626 0 0)
(-0.1172599324473484 0 0)
(-0.1170426223190826 0 0)
(-0.1164033133662823 0 0)
(-0.1151718130260173 0 0)
(-0.1131958353049491 0 0)
(-0.1102987114169419 0 0)
(-0.1063168056041779 0 0)
(-0.1011211997853069 0 0)
(-0.09461133768405923 0 0)
(-0.08670523262985021 0 0)
(-0.07734197979012823 0 0)
(-0.06649017103414047 0 0)
(-0.054153592572357 0 0)
(-0.04037159553786971 0 0)
(-0.02521731110302061 0 0)
(-0.008811500170519048 0 0)
(0.008637637739624641 0 0)
(0.02678935662370514 0 0)
(0.04502612158205279 0 0)
(0.06193342753481371 0 0)
(0.07479952540684805 0 0)
(0.08168959082495938 0 0)
(0.0837855468948305 0 0)
(0.08400781271299519 0 0)
(0.08399945410808955 0 0)
(0.08361742949717689 0 0)
(0.08266937326679248 0 0)
(0.0810013093581825 0 0)
(0.0784488882654919 0 0)
(0.07484400792991186 0 0)
(0.07004009096454458 0 0)
(0.06392100648005879 0 0)
(0.05638863458355744 0 0)
(0.04735369184794486 0 0)
(0.03674134730266485 0 0)
(0.0245058696248704 0 0)
(0.01064353867176718 0 0)
(-0.004801083068857865 0 0)
(-0.02171512327795341 0 0)
(-0.03985930703117844 0 0)
(-0.05880376584061295 0 0)
(-0.07775392621968097 0 0)
(-0.09494089428117281 0 0)
(-0.1072923211499036 0 0)
(-0.1131551807061548 0 0)
(-0.1146855217116283 0 0)
(-0.1147309696171033 0 0)
(-0.1146738273407708 0 0)
(-0.1142235779390542 0 0)
(-0.1132412199849148 0 0)
(-0.1115759518997055 0 0)
(-0.1090535512833445 0 0)
(-0.1055090792417684 0 0)
(-0.1008148725243009 0 0)
(-0.09487431098999688 0 0)
(-0.08760680471930969 0 0)
(-0.07894646892410945 0 0)
(-0.06885073269669063 0 0)
(-0.05730832141821605 0 0)
(-0.0443433878119069 0 0)
(-0.03001593084788051 0 0)
(-0.01442632453365501 0 0)
(0.002255958393886811 0 0)
(0.01974263474384725 0 0)
(0.03753764258267795 0 0)
(0.05461517155410815 0 0)
(0.06878512427293193 0 0)
(0.07740280122058765 0 0)
(0.08069460127303284 0 0)
(0.08117608132497159 0 0)
(0.08131466804356473 0 0)
(0.08110737381480561 0 0)
(0.08044178572388114 0 0)
(0.07910954189121756 0 0)
(0.07694860744315508 0 0)
(0.07378364094926172 0 0)
(0.06946282415405268 0 0)
(0.0638741455714306 0 0)
(0.05692880022029196 0 0)
(0.04854381575559856 0 0)
(0.03864217551906441 0 0)
(0.02716495567321614 0 0)
(0.01408630846278171 0 0)
(-0.0005741417899029212 0 0)
(-0.01673840026860369 0 0)
(-0.03422717773045118 0 0)
(-0.05268557290608672 0 0)
(-0.07147756971187028 0 0)
(-0.08930239469389128 0 0)
(-0.1035535000663207 0 0)
(-0.1115205534645063 0 0)
(-0.1141397791668754 0 0)
(-0.1144524178286341 0 0)
(-0.1144817088089975 0 0)
(-0.1142055264024491 0 0)
(-0.1134759243279844 0 0)
(-0.1121172839752484 0 0)
(-0.1099538941952596 0 0)
(-0.1068070879225345 0 0)
(-0.1025381261705862 0 0)
(-0.09705181692702089 0 0)
(-0.09027605226305618 0 0)
(-0.08214919705637157 0 0)
(-0.07262312676149851 0 0)
(-0.06167187936246309 0 0)
(-0.04929954263674338 0 0)
(-0.03554579337262683 0 0)
(-0.02049018439907859 0 0)
(-0.004274453290847506 0 0)
(0.01284898515022879 0 0)
(0.03046518790730719 0 0)
(0.04779077628437657 0 0)
(0.06309272284921376 0 0)
(0.07361666734615294 0 0)
(0.07834165774244153 0 0)
(0.07946466686463198 0 0)
(0.07957719532757794 0 0)
(0.07953248286775157 0 0)
(0.07910330792459305 0 0)
(0.07808826490092428 0 0)
(0.07630584630846247 0 0)
(0.07355979338970024 0 0)
(0.06967626143144881 0 0)
(0.0645313546994145 0 0)
(0.05804358302065867 0 0)
(0.05015048171998963 0 0)
(0.04079263463169844 0 0)
(0.02991313910431219 0 0)
(0.01747044930876333 0 0)
(0.003457328907206388 0 0)
(-0.01208205906833247 0 0)
(-0.0290179840165859 0 0)
(-0.0470609931798603 0 0)
(-0.06568730487882338 0 0)
(-0.08389286994625807 0 0)
(-0.09953239403330237 0 0)
(-0.1095896983383794 0 0)
(-0.1135555578443702 0 0)
(-0.114367678863863 0 0)
(-0.1143189149715676 0 0)
(-0.1141981823551509 0 0)
(-0.1136777388740012 0 0)
(-0.1126135580602072 0 0)
(-0.1108140541159526 0 0)
(-0.1080732683961179 0 0)
(-0.1042239559903917 0 0)
(-0.09915843288924298 0 0)
(-0.09281352501067623 0 0)
(-0.08514846039516272 0 0)
(-0.07613196098623137 0 0)
(-0.06573987995081616 0 0)
(-0.05396132154116566 0 0)
(-0.04081006946831654 0 0)
(-0.0263343065392068 0 0)
(-0.01063470566277616 0 0)
(0.006085666179290239 0 0)
(0.02346665662397077 0 0)
(0.04087724485527096 0 0)
(0.05697057365729273 0 0)
(0.06928213107385173 0 0)
(0.07574479047130778 0 0)
(0.07764763769118499 0 0)
(0.07780065525029749 0 0)
(0.07781840681785013 0 0)
(0.07754701459413919 0 0)
(0.07682455045364556 0 0)
(0.07543508920428761 0 0)
(0.07315070980185119 0 0)
(0.06975475747762028 0 0)
(0.06508824182812907 0 0)
(0.05905594918866624 0 0)
(0.05160661775844671 0 0)
(0.04271241087155397 0 0)
(0.03235403114962875 0 0)
(0.02050938978044903 0 0)
(0.007156070979753137 0 0)
(-0.007705757544118358 0 0)
(-0.02401238548558899 0 0)
(-0.04155606167393882 0 0)
(-0.0599068044244442 0 0)
(-0.07827737063960115 0 0)
(-0.09496795378795825 0 0)
(-0.1070738605843882 0 0)
(-0.1128307460958143 0 0)
(-0.1142342263136862 0 0)
(-0.1142710180356954 0 0)
(-0.1141253922078677 0 0)
(-0.113713434579907 0 0)
(-0.1128899242170976 0 0)
(-0.1114530147963056 0 0)
(-0.1091695060533178 0 0)
(-0.1058173260961202 0 0)
(-0.1012341719081297 0 0)
(-0.09532837873256811 0 0)
(-0.08806798490239956 0 0)
(-0.07946207823868154 0 0)
(-0.06953451703324053 0 0)
(-0.05829869826609226 0 0)
(-0.0457542351473072 0 0)
(-0.03190935446290442 0 0)
(-0.01681001284587318 0 0)
(-0.0005911645393374874 0 0)
(0.01645337665754682 0 0)
(0.03381643640000812 0 0)
(0.05047835919413195 0 0)
(0.06428364571842592 0 0)
(0.07273552808545572 0 0)
(0.07580420982400821 0 0)
(0.0762850177134816 0 0)
(0.07611631637284239 0 0)
(0.07586784412715711 0 0)
(0.07527342947829786 0 0)
(0.07418983084622781 0 0)
(0.07239150747215266 0 0)
(0.06960206917399173 0 0)
(0.06556228178988219 0 0)
(0.0600876017126528 0 0)
(0.05309053362356921 0 0)
(0.04457038162923492 0 0)
(0.03458042160862677 0 0)
(0.02318472152176841 0 0)
(0.01041606398632993 0 0)
(-0.003736870799312 0 0)
(-0.01929739491967507 0 0)
(-0.03619597659037706 0 0)
(-0.05412454110036701 0 0)
(-0.07245636625138401 0 0)
(-0.08987551362988441 0 0)
(-0.1037578158885457 0 0)
(-0.1116254929637815 0 0)
(-0.114143408952331 0 0)
(-0.1144383464309146 0 0)
(-0.1142217386570677 0 0)
(-0.113812974124651 0 0)
(-0.1130111678902227 0 0)
(-0.1117233757533691 0 0)
(-0.109797356670064 0 0)
(-0.1070172735688697 0 0)
(-0.1031405522127526 0 0)
(-0.09793729779318877 0 0)
(-0.09123066512978216 0 0)
(-0.08294769646032372 0 0)
(-0.07316968374717646 0 0)
(-0.06212708216860861 0 0)
(-0.0500725699440299 0 0)
(-0.03704800315687783 0 0)
(-0.02286872935285953 0 0)
(-0.007124433159841964 0 0)
(0.00908412808811198 0 0)
(0.02832213137374811 0 0)
)
;

boundaryField
{
    inlet
    {
        type            zeroGradient;
    }
    outlet
    {
        type            velocityOutletNSCBCx;
        pInf            101325;
        gamma           1.4;
        etaAc           1;
        fieldInf        (-1 0 0);
        lInf            2.25;
        value           uniform (0.03593630772401231 0 0);
    }
    frontAndBack
    {
        type            empty;
    }
}


// ************************************************************************* //
