/*--------------------------------*- C++ -*----------------------------------*\
| =========                 |                                                 |
| \\      /  F ield         | OpenFOAM: The Open Source CFD Toolbox           |
|  \\    /   O peration     | Version:  v2012                                 |
|   \\  /    A nd           | Website:  www.openfoam.com                      |
|    \\/     M anipulation  |                                                 |
\*---------------------------------------------------------------------------*/
FoamFile
{
    version     2.0;
    format      ascii;
    class       volVectorField;
    location    "0.02";
    object      UMean;
}
// * * * * * * * * * * * * * * * * * * * * * * * * * * * * * * * * * * * * * //

dimensions      [0 1 -1 0 0 0 0];


internalField   nonuniform List<vector> 
1000
(
(-0.001054595316763693 0 0)
(-0.001034504097297252 0 0)
(-0.001025625265028732 0 0)
(-0.001002892000229452 0 0)
(-0.0009777890366499025 0 0)
(-0.0009529410125105746 0 0)
(-0.0009193338885685503 0 0)
(-0.0008844405300943833 0 0)
(-0.0008424608781218308 0 0)
(-0.0007986352313700553 0 0)
(-0.0007528735816741756 0 0)
(-0.0007077218860307466 0 0)
(-0.0006627936377415919 0 0)
(-0.0006185002892927234 0 0)
(-0.0005757361873819695 0 0)
(-0.0005351335912328105 0 0)
(-0.0004978288185834349 0 0)
(-0.0004643076387854872 0 0)
(-0.0004353978431129524 0 0)
(-0.0004113427790261066 0 0)
(-0.0003927474487343227 0 0)
(-0.0003793377350892822 0 0)
(-0.0003729448922514495 0 0)
(-0.0003722454538144661 0 0)
(-0.0003773335935569351 0 0)
(-0.0003885676231543537 0 0)
(-0.0004054517938391065 0 0)
(-0.0004279397466635916 0 0)
(-0.0004556067900746412 0 0)
(-0.0004881978342865966 0 0)
(-0.0005252810525173451 0 0)
(-0.0005662961932787558 0 0)
(-0.0006099831503781149 0 0)
(-0.0006549030224598429 0 0)
(-0.0006993746232303418 0 0)
(-0.0007437961646819934 0 0)
(-0.0007881324742090554 0 0)
(-0.0008313275911430929 0 0)
(-0.0008729817433483949 0 0)
(-0.0009119772904820436 0 0)
(-0.0009473830718468084 0 0)
(-0.000978453584293751 0 0)
(-0.001004385159809731 0 0)
(-0.001024953321489603 0 0)
(-0.001038976621500024 0 0)
(-0.001048390409434387 0 0)
(-0.001050999378672049 0 0)
(-0.001047248928129187 0 0)
(-0.001037622841780617 0 0)
(-0.001021941026186549 0 0)
(-0.001000622969934709 0 0)
(-0.0009738635265869683 0 0)
(-0.0009419812325617399 0 0)
(-0.000905352493857617 0 0)
(-0.0008649477814910216 0 0)
(-0.0008221469691977334 0 0)
(-0.0007790370972767766 0 0)
(-0.0007347961840801317 0 0)
(-0.0006911683441944721 0 0)
(-0.0006482992025277985 0 0)
(-0.0006062423474454805 0 0)
(-0.0005659943296399055 0 0)
(-0.0005280760807567493 0 0)
(-0.0004933117881591951 0 0)
(-0.0004626020357513961 0 0)
(-0.0004365823171734517 0 0)
(-0.0004160231407212158 0 0)
(-0.0004006111767926779 0 0)
(-0.0003922230688380883 0 0)
(-0.0003897722437933241 0 0)
(-0.000392988195633584 0 0)
(-0.0004025009743491575 0 0)
(-0.0004176664083244725 0 0)
(-0.0004386626228907646 0 0)
(-0.0004650692353711056 0 0)
(-0.0004968940738615941 0 0)
(-0.0005335250463012699 0 0)
(-0.0005743903423137953 0 0)
(-0.0006174555459665113 0 0)
(-0.0006624369195765271 0 0)
(-0.000705831016596738 0 0)
(-0.0007500798509520753 0 0)
(-0.0007939092689447495 0 0)
(-0.0008370389434082855 0 0)
(-0.0008789052176071798 0 0)
(-0.0009188794899964968 0 0)
(-0.0009558669099812966 0 0)
(-0.0009892111127594229 0 0)
(-0.001017885173959456 0 0)
(-0.001041469041066823 0 0)
(-0.001058820520923573 0 0)
(-0.001070529456592323 0 0)
(-0.001076402205622407 0 0)
(-0.001075322631033221 0 0)
(-0.001068221243162634 0 0)
(-0.00105494129915864 0 0)
(-0.0010357958882567 0 0)
(-0.001010835946930554 0 0)
(-0.0009804888251154105 0 0)
(-0.000944990944754538 0 0)
(-0.0009056499189135984 0 0)
(-0.000863754943328752 0 0)
(-0.0008221125634133153 0 0)
(-0.0007784811990864476 0 0)
(-0.0007363457621857641 0 0)
(-0.000694167744954913 0 0)
(-0.0006529960248265931 0 0)
(-0.0006131203087196866 0 0)
(-0.0005753018289394199 0 0)
(-0.0005401077163062014 0 0)
(-0.0005083435200161891 0 0)
(-0.0004807959602799541 0 0)
(-0.0004581447119177749 0 0)
(-0.0004409942879346988 0 0)
(-0.0004293125029506863 0 0)
(-0.0004252333748921331 0 0)
(-0.0004264894738187244 0 0)
(-0.0004340899998301107 0 0)
(-0.0004476988591762333 0 0)
(-0.0004673099309935419 0 0)
(-0.0004925137055579924 0 0)
(-0.0005234278327401451 0 0)
(-0.0005593217482449032 0 0)
(-0.0005996346785121956 0 0)
(-0.0006422459738218793 0 0)
(-0.0006868436933994694 0 0)
(-0.0007299675143931075 0 0)
(-0.0007742621481832226 0 0)
(-0.0008175325858965637 0 0)
(-0.0008608545251324176 0 0)
(-0.0009027930906569579 0 0)
(-0.000943420079148263 0 0)
(-0.0009815197637122338 0 0)
(-0.001016460350364133 0 0)
(-0.001047328308972704 0 0)
(-0.001073409532929115 0 0)
(-0.00109414591355583 0 0)
(-0.001108126247394082 0 0)
(-0.001117609812463496 0 0)
(-0.00111966217277728 0 0)
(-0.001115185579662268 0 0)
(-0.001104485045029789 0 0)
(-0.001087492110759975 0 0)
(-0.001064483726290806 0 0)
(-0.001035692695954589 0 0)
(-0.001001635637293596 0 0)
(-0.0009634251115831457 0 0)
(-0.0009227164478150154 0 0)
(-0.0008816520510934048 0 0)
(-0.0008398268566227694 0 0)
(-0.0007983017584858498 0 0)
(-0.0007566772871715462 0 0)
(-0.0007163832854722283 0 0)
(-0.0006768503717549453 0 0)
(-0.0006392344613695591 0 0)
(-0.0006039603188223261 0 0)
(-0.0005715674833102252 0 0)
(-0.0005430000180995796 0 0)
(-0.0005187263689921672 0 0)
(-0.0004999270752820386 0 0)
(-0.0004856078424138826 0 0)
(-0.0004794609704674623 0 0)
(-0.0004785544445313196 0 0)
(-0.0004839154415068732 0 0)
(-0.0004957313992117323 0 0)
(-0.0005137453559004028 0 0)
(-0.0005377453255588947 0 0)
(-0.0005675304932508165 0 0)
(-0.0006026701599540682 0 0)
(-0.0006422637104847192 0 0)
(-0.0006846586735273114 0 0)
(-0.0007283083786378542 0 0)
(-0.0007725909405967695 0 0)
(-0.0008158321303573505 0 0)
(-0.0008590619120697703 0 0)
(-0.0009024317246348075 0 0)
(-0.0009445508312007225 0 0)
(-0.0009856068757659313 0 0)
(-0.001024620936771119 0 0)
(-0.001060865917364585 0 0)
(-0.001093501313512319 0 0)
(-0.001121745093078622 0 0)
(-0.001145171655046513 0 0)
(-0.001162003748375403 0 0)
(-0.001174517798339378 0 0)
(-0.001179824145697449 0 0)
(-0.001178221527038365 0 0)
(-0.001170314604319911 0 0)
(-0.001155772459846111 0 0)
(-0.001134984955812442 0 0)
(-0.001107895881919968 0 0)
(-0.00107543045607904 0 0)
(-0.001038370608918733 0 0)
(-0.0009989005661441195 0 0)
(-0.0009581431827840014 0 0)
(-0.0009185196719315601 0 0)
(-0.0008766943902549127 0 0)
(-0.0008362580290164333 0 0)
(-0.0007964753922723506 0 0)
(-0.0007575327990954208 0 0)
(-0.0007200671899303911 0 0)
(-0.0006848104410512478 0 0)
(-0.0006521166771497843 0 0)
(-0.0006227752694274844 0 0)
(-0.0005973279396201333 0 0)
(-0.0005768631674830953 0 0)
(-0.0005609896803817003 0 0)
(-0.0005519119580596211 0 0)
(-0.0005491920875214276 0 0)
(-0.0005522968876991914 0 0)
(-0.000562060386234259 0 0)
(-0.0005782483060862645 0 0)
(-0.0006007537425238002 0 0)
(-0.0006292553351318187 0 0)
(-0.0006634653852374826 0 0)
(-0.0007023086031912332 0 0)
(-0.000744428260837476 0 0)
(-0.0007874263838869668 0 0)
(-0.0008323738474447518 0 0)
(-0.0008746211464847141 0 0)
(-0.000918386500369996 0 0)
(-0.0009614799944350925 0 0)
(-0.001004009077868029 0 0)
(-0.001045308746333649 0 0)
(-0.001085040818455285 0 0)
(-0.001122455563762618 0 0)
(-0.001156551148681654 0 0)
(-0.001186742040541684 0 0)
(-0.001212261165643182 0 0)
(-0.001232410139041843 0 0)
(-0.001246413908479444 0 0)
(-0.0012555508368024 0 0)
(-0.001257068515582495 0 0)
(-0.00125207856976403 0 0)
(-0.00124021859208103 0 0)
(-0.001221862847696616 0 0)
(-0.00119686864686523 0 0)
(-0.001166066802015156 0 0)
(-0.001130366458716672 0 0)
(-0.001091947569274951 0 0)
(-0.001051957899919263 0 0)
(-0.001013258633472944 0 0)
(-0.0009721109126990111 0 0)
(-0.0009328338311884672 0 0)
(-0.0008932021922872516 0 0)
(-0.0008550379211869476 0 0)
(-0.0008176885259642997 0 0)
(-0.0007825019749063909 0 0)
(-0.0007496653063684637 0 0)
(-0.0007197782727275865 0 0)
(-0.0006934759944932775 0 0)
(-0.0006714782836254174 0 0)
(-0.0006546192100877007 0 0)
(-0.0006423180486061215 0 0)
(-0.0006381063956588396 0 0)
(-0.0006391480221058423 0 0)
(-0.0006466400830729217 0 0)
(-0.0006607817693912533 0 0)
(-0.0006815096496424564 0 0)
(-0.0007086205243099266 0 0)
(-0.0007415563096176818 0 0)
(-0.0007796435754694537 0 0)
(-0.0008212263049610826 0 0)
(-0.000864182829119933 0 0)
(-0.0009083721238124409 0 0)
(-0.000951650775481499 0 0)
(-0.0009950476088431287 0 0)
(-0.001037836275347944 0 0)
(-0.001080738008355703 0 0)
(-0.001122284645757461 0 0)
(-0.001162557174510232 0 0)
(-0.00120093018018347 0 0)
(-0.001236351768341137 0 0)
(-0.001268236467101297 0 0)
(-0.001295634803718057 0 0)
(-0.001318533948034474 0 0)
(-0.001334493190514395 0 0)
(-0.001346901323781345 0 0)
(-0.001351551989479571 0 0)
(-0.001349391939201391 0 0)
(-0.001340388429002122 0 0)
(-0.001324641801856044 0 0)
(-0.001302046376472308 0 0)
(-0.001273104710519632 0 0)
(-0.001238979134999766 0 0)
(-0.001201549277084337 0 0)
(-0.001162728532400786 0 0)
(-0.001123835780834659 0 0)
(-0.001085307538357453 0 0)
(-0.001045588893010369 0 0)
(-0.001006628316663864 0 0)
(-0.0009689677690765576 0 0)
(-0.0009320028664802485 0 0)
(-0.0008968137188740335 0 0)
(-0.0008638594142869899 0 0)
(-0.0008337000557168141 0 0)
(-0.0008066737047713499 0 0)
(-0.0007835437551126969 0 0)
(-0.0007653741716572363 0 0)
(-0.0007511694394491309 0 0)
(-0.0007449907061450548 0 0)
(-0.0007440764140697364 0 0)
(-0.0007492281810508299 0 0)
(-0.0007612937672513187 0 0)
(-0.0007800080206475494 0 0)
(-0.0008054646150437115 0 0)
(-0.0008369866218859056 0 0)
(-0.0008740843883800197 0 0)
(-0.0009150078235584958 0 0)
(-0.0009580440570625914 0 0)
(-0.001001228409619625 0 0)
(-0.001046187184843177 0 0)
(-0.001088245903969356 0 0)
(-0.001131489867027111 0 0)
(-0.001174375955731448 0 0)
(-0.001216408402081117 0 0)
(-0.001257027051080038 0 0)
(-0.001296162628076756 0 0)
(-0.001332848638659779 0 0)
(-0.001366204445771421 0 0)
(-0.001395451326525702 0 0)
(-0.001420351764342895 0 0)
(-0.001439166930925596 0 0)
(-0.001453397434208742 0 0)
(-0.001461500168956982 0 0)
(-0.001462214487523648 0 0)
(-0.001456226986994215 0 0)
(-0.001443143317388347 0 0)
(-0.001423171746582986 0 0)
(-0.001396471211371926 0 0)
(-0.001364040386307585 0 0)
(-0.001327829240357237 0 0)
(-0.001290057630378193 0 0)
(-0.001251374720661512 0 0)
(-0.001214639306896481 0 0)
(-0.001174607652516106 0 0)
(-0.001136885712820927 0 0)
(-0.001099371056981252 0 0)
(-0.001063015775550278 0 0)
(-0.001027858492829784 0 0)
(-0.0009948136634471087 0 0)
(-0.0009644794929220726 0 0)
(-0.0009369365891143927 0 0)
(-0.000913004860202512 0 0)
(-0.0008933140411515424 0 0)
(-0.0008784678055150227 0 0)
(-0.0008687440059947798 0 0)
(-0.0008667492783830282 0 0)
(-0.0008698819361966536 0 0)
(-0.000879854941251717 0 0)
(-0.0008963917660581613 0 0)
(-0.0009200143290789678 0 0)
(-0.0009499967992219114 0 0)
(-0.0009858019376863876 0 0)
(-0.001025977351249508 0 0)
(-0.001068775348992135 0 0)
(-0.001111759698598207 0 0)
(-0.001156657300777263 0 0)
(-0.001198926768422839 0 0)
(-0.001242485556912099 0 0)
(-0.001285030710879598 0 0)
(-0.001327562375588491 0 0)
(-0.001368579150616415 0 0)
(-0.001408276721989723 0 0)
(-0.001445972228902182 0 0)
(-0.001480785989426939 0 0)
(-0.001511717088093962 0 0)
(-0.001538295802286877 0 0)
(-0.001560159593637709 0 0)
(-0.001575373775016538 0 0)
(-0.001586995244219526 0 0)
(-0.001590789394813345 0 0)
(-0.001587631782949356 0 0)
(-0.001577377923928241 0 0)
(-0.001560105148882933 0 0)
(-0.001535908153815469 0 0)
(-0.001505433567840821 0 0)
(-0.001470627908916304 0 0)
(-0.001433719081383423 0 0)
(-0.001396058595769414 0 0)
(-0.00135907838292067 0 0)
(-0.001321467683092374 0 0)
(-0.001283623879805791 0 0)
(-0.001246376740377609 0 0)
(-0.001210518382231512 0 0)
(-0.0011756138110801 0 0)
(-0.001142417656989689 0 0)
(-0.001111838468726319 0 0)
(-0.001084067663197213 0 0)
(-0.001059422331810296 0 0)
(-0.001038534057816252 0 0)
(-0.001022759368874359 0 0)
(-0.001010584857794985 0 0)
(-0.001007146131241944 0 0)
(-0.001008443883901773 0 0)
(-0.00101610577401544 0 0)
(-0.001030599228573361 0 0)
(-0.0010520503345245 0 0)
(-0.001080325604665831 0 0)
(-0.001114696532344029 0 0)
(-0.001153896002789396 0 0)
(-0.001196178402544993 0 0)
(-0.001239469628630417 0 0)
(-0.00128308567182734 0 0)
(-0.001327573744662754 0 0)
(-0.001369790211607029 0 0)
(-0.001412605572297286 0 0)
(-0.001455304943154083 0 0)
(-0.001496858714510491 0 0)
(-0.001536960719954716 0 0)
(-0.001575416485121688 0 0)
(-0.001611565710114553 0 0)
(-0.001644079210894624 0 0)
(-0.001672363981484792 0 0)
(-0.001696357523894121 0 0)
(-0.001713811878274252 0 0)
(-0.001727758020850834 0 0)
(-0.001734692311921072 0 0)
(-0.001734210973692616 0 0)
(-0.001726982027276386 0 0)
(-0.001712347869128985 0 0)
(-0.00169086892667117 0 0)
(-0.001662650143784862 0 0)
(-0.001629434059106728 0 0)
(-0.001593461664961428 0 0)
(-0.001556870467907654 0 0)
(-0.001519664702578199 0 0)
(-0.001484473164416511 0 0)
(-0.001445897304646938 0 0)
(-0.001409653962692364 0 0)
(-0.001373989230266952 0 0)
(-0.001339525932718931 0 0)
(-0.001306318474962042 0 0)
(-0.001275448259129169 0 0)
(-0.00124740629020149 0 0)
(-0.00122236201928517 0 0)
(-0.001200545499480625 0 0)
(-0.001183356856533531 0 0)
(-0.001170414243009498 0 0)
(-0.001163717535087463 0 0)
(-0.001163956024107312 0 0)
(-0.001169563249632843 0 0)
(-0.001182062689529935 0 0)
(-0.001201280887606882 0 0)
(-0.0012276456929685 0 0)
(-0.001260429169972416 0 0)
(-0.001298450970864984 0 0)
(-0.001340052465905315 0 0)
(-0.001383381040053029 0 0)
(-0.001426503833233514 0 0)
(-0.001471704938069686 0 0)
(-0.001513475257762019 0 0)
(-0.001556866452721991 0 0)
(-0.001599303115105003 0 0)
(-0.001641388594505249 0 0)
(-0.001682013650030962 0 0)
(-0.001720998453631492 0 0)
(-0.001758158404753605 0 0)
(-0.001792310453569547 0 0)
(-0.001822265963681802 0 0)
(-0.001847871196291631 0 0)
(-0.001868492196071011 0 0)
(-0.001882858260110784 0 0)
(-0.001893476698381483 0 0)
(-0.001895980073008734 0 0)
(-0.001891624362938858 0 0)
(-0.001879853759153926 0 0)
(-0.001861042471606577 0 0)
(-0.001835368533290417 0 0)
(-0.001804037403987999 0 0)
(-0.001769218107064515 0 0)
(-0.001733392182820151 0 0)
(-0.001696997057321463 0 0)
(-0.001661878910554093 0 0)
(-0.001625227427938598 0 0)
(-0.001589139945689045 0 0)
(-0.001553532929387461 0 0)
(-0.001519513352794857 0 0)
(-0.001486517380030796 0 0)
(-0.001455353734872365 0 0)
(-0.001426934205055344 0 0)
(-0.001401656280988263 0 0)
(-0.001379244873698844 0 0)
(-0.001360672721537204 0 0)
(-0.001347162121963773 0 0)
(-0.001337391988317956 0 0)
(-0.001336619375263308 0 0)
(-0.001340455106278345 0 0)
(-0.001350703201495065 0 0)
(-0.001367891116833929 0 0)
(-0.001392005868175691 0 0)
(-0.001423090164489667 0 0)
(-0.001459784984308745 0 0)
(-0.001500600273111041 0 0)
(-0.001543539129110724 0 0)
(-0.001587035540499786 0 0)
(-0.001630924784852655 0 0)
(-0.001675086878217259 0 0)
(-0.00171722696988361 0 0)
(-0.001759829693000697 0 0)
(-0.001802215021998703 0 0)
(-0.001843395095755222 0 0)
(-0.001882904277720338 0 0)
(-0.001920756798612907 0 0)
(-0.001956288063599139 0 0)
(-0.001988084880886666 0 0)
(-0.00201511132536345 0 0)
(-0.00203823023384797 0 0)
(-0.002054175621026337 0 0)
(-0.002067541464078667 0 0)
(-0.002073062958530878 0 0)
(-0.00207129344345945 0 0)
(-0.002062556818065218 0 0)
(-0.002046397130609097 0 0)
(-0.002023401735921701 0 0)
(-0.001994205313684169 0 0)
(-0.001960776712607059 0 0)
(-0.001925626633915605 0 0)
(-0.001890301883400988 0 0)
(-0.00185476494665192 0 0)
(-0.001820809295809224 0 0)
(-0.001783811700966613 0 0)
(-0.001749047663355833 0 0)
(-0.001715232914483365 0 0)
(-0.001682542776587563 0 0)
(-0.001651370671007957 0 0)
(-0.001622433243815548 0 0)
(-0.001596815374376176 0 0)
(-0.001574099814215146 0 0)
(-0.001554374410362035 0 0)
(-0.001539722435825033 0 0)
(-0.001528853074049457 0 0)
(-0.001525090834135008 0 0)
(-0.00152784853397834 0 0)
(-0.00153601212909872 0 0)
(-0.001551223121529982 0 0)
(-0.001573127570995945 0 0)
(-0.001602178736978709 0 0)
(-0.001637448109123136 0 0)
(-0.001677195113110832 0 0)
(-0.001719752923387811 0 0)
(-0.001763339372607604 0 0)
(-0.00180660002691083 0 0)
(-0.001851791732320797 0 0)
(-0.001893291688257013 0 0)
(-0.001936487959532053 0 0)
(-0.001978685123037749 0 0)
(-0.002020403935669264 0 0)
(-0.002060553743417887 0 0)
(-0.002098880382850115 0 0)
(-0.002135429640399339 0 0)
(-0.002168917305716226 0 0)
(-0.002197697955364251 0 0)
(-0.002222404877268747 0 0)
(-0.002241546456096954 0 0)
(-0.002255045939223157 0 0)
(-0.002264366022695811 0 0)
(-0.002265508909758949 0 0)
(-0.0022596456097411 0 0)
(-0.002246386370317817 0 0)
(-0.002225938613630949 0 0)
(-0.002199238234247396 0 0)
(-0.002167295740819114 0 0)
(-0.0021333772689447 0 0)
(-0.002098538589013936 0 0)
(-0.002063602180119078 0 0)
(-0.002029950233903364 0 0)
(-0.001994657647123981 0 0)
(-0.001959976940176787 0 0)
(-0.00192613164094895 0 0)
(-0.001893818877743385 0 0)
(-0.001862768555116618 0 0)
(-0.001833501018806125 0 0)
(-0.001807230393723861 0 0)
(-0.001784370377706876 0 0)
(-0.001764021613193633 0 0)
(-0.00174769589019036 0 0)
(-0.00173663080940141 0 0)
(-0.001729337118085571 0 0)
(-0.001731360529094772 0 0)
(-0.001737692578186289 0 0)
(-0.001750668835068832 0 0)
(-0.001770522115572927 0 0)
(-0.001797303075454562 0 0)
(-0.001830908248368283 0 0)
(-0.001869472874750104 0 0)
(-0.001911555685502045 0 0)
(-0.001954829890227583 0 0)
(-0.001998365949940893 0 0)
(-0.002042424567684549 0 0)
(-0.00208629825113614 0 0)
(-0.002128206421797809 0 0)
(-0.002170553892804991 0 0)
(-0.002212639687995213 0 0)
(-0.002253344040793724 0 0)
(-0.002292334767319847 0 0)
(-0.002329281814075097 0 0)
(-0.002364596916585222 0 0)
(-0.002394797939714123 0 0)
(-0.002420897593418505 0 0)
(-0.002443067566090406 0 0)
(-0.002457584471245441 0 0)
(-0.002469918845396085 0 0)
(-0.00247400260362448 0 0)
(-0.002470724784333471 0 0)
(-0.002460477810174366 0 0)
(-0.002442735302151632 0 0)
(-0.002418420329399413 0 0)
(-0.002388642265434244 0 0)
(-0.002355356449108652 0 0)
(-0.002321766950478106 0 0)
(-0.00228750238171851 0 0)
(-0.002253397031972863 0 0)
(-0.002220758419994456 0 0)
(-0.002185072817368527 0 0)
(-0.002151989274530926 0 0)
(-0.002119829391688753 0 0)
(-0.002089006428469011 0 0)
(-0.002059748342784318 0 0)
(-0.002032660396646475 0 0)
(-0.002009724794339473 0 0)
(-0.00198847437537844 0 0)
(-0.00197119029861646 0 0)
(-0.001959242193820528 0 0)
(-0.001950517242605445 0 0)
(-0.001949607828912889 0 0)
(-0.001954896894931279 0 0)
(-0.00196577810019946 0 0)
(-0.001983609914256394 0 0)
(-0.002008270860919206 0 0)
(-0.002039693029286716 0 0)
(-0.002077316075592839 0 0)
(-0.002117792673450752 0 0)
(-0.002161997119050534 0 0)
(-0.002205040827602232 0 0)
(-0.002248425401143505 0 0)
(-0.002293370905985799 0 0)
(-0.002334703214012364 0 0)
(-0.002377597608295516 0 0)
(-0.002419516056112553 0 0)
(-0.00246076916233705 0 0)
(-0.002500456379867651 0 0)
(-0.00253789655681815 0 0)
(-0.002574116498173673 0 0)
(-0.002606171190371605 0 0)
(-0.002633786816187992 0 0)
(-0.00265774527857824 0 0)
(-0.00267549276079758 0 0)
(-0.002687785642191973 0 0)
(-0.002695771048220924 0 0)
(-0.00269536480699032 0 0)
(-0.002687927659489867 0 0)
(-0.002673103762769781 0 0)
(-0.002651164174012295 0 0)
(-0.002623719399443895 0 0)
(-0.002591365084785775 0 0)
(-0.002559203194462986 0 0)
(-0.002525303283123784 0 0)
(-0.00249158833076582 0 0)
(-0.002459182754230378 0 0)
(-0.002425338267858445 0 0)
(-0.002392042992519898 0 0)
(-0.002359838464215711 0 0)
(-0.0023293026102067 0 0)
(-0.00230009535211679 0 0)
(-0.002272733325270237 0 0)
(-0.002248526330595124 0 0)
(-0.002228080939069394 0 0)
(-0.002208952272381715 0 0)
(-0.002195919044617993 0 0)
(-0.002186920897338199 0 0)
(-0.002182283869479879 0 0)
(-0.002186934261080241 0 0)
(-0.002195877030375287 0 0)
(-0.00221142215649331 0 0)
(-0.002233998729236304 0 0)
(-0.002263256859924424 0 0)
(-0.002299141700702881 0 0)
(-0.00233889159588996 0 0)
(-0.002382228817306955 0 0)
(-0.002425806796648992 0 0)
(-0.002469011683525436 0 0)
(-0.002512785925497947 0 0)
(-0.002556673505940427 0 0)
(-0.002597964371930915 0 0)
(-0.002640162314651287 0 0)
(-0.002681771821839354 0 0)
(-0.002721981553008962 0 0)
(-0.00276027982572109 0 0)
(-0.002796254903190286 0 0)
(-0.002831298052893157 0 0)
(-0.002859156075010885 0 0)
(-0.002885262451737151 0 0)
(-0.002905676373084088 0 0)
(-0.002919042922023778 0 0)
(-0.002929834654594987 0 0)
(-0.002932361465370762 0 0)
(-0.002927470917722169 0 0)
(-0.002915547100658041 0 0)
(-0.002896329987458754 0 0)
(-0.002870792013834946 0 0)
(-0.002840646867337706 0 0)
(-0.002808047680995315 0 0)
(-0.002775955098840435 0 0)
(-0.002742521458650756 0 0)
(-0.002709600984532622 0 0)
(-0.002678429713947392 0 0)
(-0.002643762809075433 0 0)
(-0.002612417686845957 0 0)
(-0.002581822976487588 0 0)
(-0.002552742631710106 0 0)
(-0.002525384252786975 0 0)
(-0.002499969063608179 0 0)
(-0.002479729295862605 0 0)
(-0.002459461281309275 0 0)
(-0.002445098837319414 0 0)
(-0.002435366110527323 0 0)
(-0.002429334970848245 0 0)
(-0.002430620519824879 0 0)
(-0.002438587006712558 0 0)
(-0.002451958855145016 0 0)
(-0.002472401083673542 0 0)
(-0.002499572330061959 0 0)
(-0.002533199614577496 0 0)
(-0.002572402498553027 0 0)
(-0.002613719969125847 0 0)
(-0.002658175294387921 0 0)
(-0.00270136089811074 0 0)
(-0.002744253239280221 0 0)
(-0.002789050738400341 0 0)
(-0.002829902633051598 0 0)
(-0.002872466572133267 0 0)
(-0.002913784368583851 0 0)
(-0.00295453657792339 0 0)
(-0.002993484529407871 0 0)
(-0.003029870974219833 0 0)
(-0.003065568346733026 0 0)
(-0.003095655591485722 0 0)
(-0.003122022726941449 0 0)
(-0.003145641255689105 0 0)
(-0.003161509778430376 0 0)
(-0.003172082554342326 0 0)
(-0.003178483427662305 0 0)
(-0.003176284813532036 0 0)
(-0.003167001792074924 0 0)
(-0.003150527230887713 0 0)
(-0.003127131396127168 0 0)
(-0.00309885536473861 0 0)
(-0.003066715738930514 0 0)
(-0.003035183870795029 0 0)
(-0.003002937203555661 0 0)
(-0.002969536382222883 0 0)
(-0.002938376660939326 0 0)
(-0.002905697335821153 0 0)
(-0.002873491934955162 0 0)
(-0.002842723009485021 0 0)
(-0.00281372803483451 0 0)
(-0.002786166518950459 0 0)
(-0.002760308792712403 0 0)
(-0.002738277052863376 0 0)
(-0.002718977272921286 0 0)
(-0.002701947805017544 0 0)
(-0.00269184859509771 0 0)
(-0.002684453700821499 0 0)
(-0.002682092740564445 0 0)
(-0.002689041325878534 0 0)
(-0.002700304429678304 0 0)
(-0.002718080250393607 0 0)
(-0.002742960409036927 0 0)
(-0.002774364590913436 0 0)
(-0.002811662772011788 0 0)
(-0.002852329959077811 0 0)
(-0.00289561684147675 0 0)
(-0.002939480616181855 0 0)
(-0.002981588850195779 0 0)
(-0.003025209361869692 0 0)
(-0.003068653470822695 0 0)
(-0.003109015622467683 0 0)
(-0.003150695967259401 0 0)
(-0.003191575578639091 0 0)
(-0.003230921551173344 0 0)
(-0.003268198808887397 0 0)
(-0.003303010785962261 0 0)
(-0.003336745033932907 0 0)
(-0.003363449171586702 0 0)
(-0.003387925266928216 0 0)
(-0.003407302872656553 0 0)
(-0.003419216567289291 0 0)
(-0.003427920653079466 0 0)
(-0.003429232104117154 0 0)
(-0.00342269762701881 0 0)
(-0.003409547410544694 0 0)
(-0.003389361781195223 0 0)
(-0.00336345149526719 0 0)
(-0.003333888813433179 0 0)
(-0.003303013126929147 0 0)
(-0.003272411878977009 0 0)
(-0.003241243082650609 0 0)
(-0.003209762126750779 0 0)
(-0.003180957406601679 0 0)
(-0.003147865033122395 0 0)
(-0.003119018810356617 0 0)
(-0.003090616625907268 0 0)
(-0.003064065893872103 0 0)
(-0.003039134441272714 0 0)
(-0.003016194565731578 0 0)
(-0.00299843422662352 0 0)
(-0.002981036248452514 0 0)
(-0.002968616279372052 0 0)
(-0.002963116983677436 0 0)
(-0.002958981266920341 0 0)
(-0.002962358526134287 0 0)
(-0.002973211034953032 0 0)
(-0.002988946810157992 0 0)
(-0.003011649371817611 0 0)
(-0.003040932582003811 0 0)
(-0.003076096156135141 0 0)
(-0.003115849591139711 0 0)
(-0.003157578419437606 0 0)
(-0.003200799264061508 0 0)
(-0.003244349529567694 0 0)
(-0.003285548485780445 0 0)
(-0.003329991529020114 0 0)
(-0.003370244239460698 0 0)
(-0.003411488889252327 0 0)
(-0.003451914213588484 0 0)
(-0.003491663443336283 0 0)
(-0.003529437099671264 0 0)
(-0.003564405063087675 0 0)
(-0.003598785247198899 0 0)
(-0.003627166493990416 0 0)
(-0.00365220999715366 0 0)
(-0.003674657873520685 0 0)
(-0.003689116171359195 0 0)
(-0.003697601908231458 0 0)
(-0.003703030921608578 0 0)
(-0.003699567159644124 0 0)
(-0.003689031272101789 0 0)
(-0.003671817862093582 0 0)
(-0.003648304331378859 0 0)
(-0.003620289851937545 0 0)
(-0.00359028352293286 0 0)
(-0.003559700375779212 0 0)
(-0.003530221502193807 0 0)
(-0.003498525040270822 0 0)
(-0.003469288193222744 0 0)
(-0.003439895690194703 0 0)
(-0.003408863292101854 0 0)
(-0.003380970816465865 0 0)
(-0.003354612915556062 0 0)
(-0.003329723705981471 0 0)
(-0.003306592474092071 0 0)
(-0.003287030462997438 0 0)
(-0.003270548368225442 0 0)
(-0.003256834097413268 0 0)
(-0.003248590201388539 0 0)
(-0.003245702377347742 0 0)
(-0.003245142085290433 0 0)
(-0.003254724311504097 0 0)
(-0.003268991480618105 0 0)
(-0.003289032320694975 0 0)
(-0.003316326486865027 0 0)
(-0.003349772353986637 0 0)
(-0.003387990439561224 0 0)
(-0.003429635053631379 0 0)
(-0.003471978664414387 0 0)
(-0.003515394418179052 0 0)
(-0.003558320071137985 0 0)
(-0.003600026733890806 0 0)
(-0.003644783152049408 0 0)
(-0.003682632178055979 0 0)
(-0.003724351653920185 0 0)
(-0.003764219465607149 0 0)
(-0.003802793754618332 0 0)
(-0.003839056372612666 0 0)
(-0.003872446984552543 0 0)
(-0.003904694227345771 0 0)
(-0.003930846037636953 0 0)
(-0.003952672786453822 0 0)
(-0.003972720036240094 0 0)
(-0.003982107997377997 0 0)
(-0.003987887075781461 0 0)
(-0.003988639722017948 0 0)
(-0.003980785360197876 0 0)
(-0.003966279687512831 0 0)
(-0.003945404439516668 0 0)
(-0.003919077686340719 0 0)
(-0.003890205913762153 0 0)
(-0.003860001671520915 0 0)
(-0.003830154946098905 0 0)
(-0.003801444197303167 0 0)
(-0.003769486679373613 0 0)
(-0.003742815983476734 0 0)
(-0.003711787592753197 0 0)
(-0.003683872929668353 0 0)
(-0.003657328593202646 0 0)
(-0.00363277998106727 0 0)
(-0.003609795517747756 0 0)
(-0.003588745960501969 0 0)
(-0.003572475664613485 0 0)
(-0.00355768897042316 0 0)
(-0.003547601235764961 0 0)
(-0.003543983490600927 0 0)
(-0.00354348409189515 0 0)
(-0.003547421073962673 0 0)
(-0.003561827844742305 0 0)
(-0.003580390875936504 0 0)
(-0.003605072705349572 0 0)
(-0.003636730329862298 0 0)
(-0.003673714653960678 0 0)
(-0.003713974178527962 0 0)
(-0.003756976238650561 0 0)
(-0.003799180607930142 0 0)
(-0.003842863082978869 0 0)
(-0.003885159933695592 0 0)
(-0.003927399769169697 0 0)
(-0.003971220661059079 0 0)
(-0.004008718579786602 0 0)
(-0.004049815388153383 0 0)
(-0.004089018965738656 0 0)
(-0.004126095134559389 0 0)
(-0.004160647110184003 0 0)
(-0.00419248282098884 0 0)
(-0.00422145630397837 0 0)
(-0.004245544508034713 0 0)
(-0.004264348863744212 0 0)
(-0.004281198007089339 0 0)
(-0.004285842359589516 0 0)
(-0.004289133015873193 0 0)
(-0.004285040416843891 0 0)
(-0.004272629366047922 0 0)
(-0.004254439412673843 0 0)
(-0.004230528468486487 0 0)
(-0.00420236058679213 0 0)
(-0.004173834228478578 0 0)
(-0.00414343747889016 0 0)
(-0.004114313355583024 0 0)
(-0.004086316632456325 0 0)
(-0.004055040904153249 0 0)
(-0.004030854589546952 0 0)
(-0.003997164651796802 0 0)
(-0.003973493614579471 0 0)
(-0.003948353871549203 0 0)
(-0.00392558955705441 0 0)
(-0.003905030380986139 0 0)
(-0.003886143992205634 0 0)
(-0.003872546023963731 0 0)
(-0.003861322586089741 0 0)
(-0.003854275016636791 0 0)
(-0.003855357303832206 0 0)
(-0.003857311817655773 0 0)
(-0.003866082141525883 0 0)
(-0.003884839803582494 0 0)
(-0.003908062061462323 0 0)
(-0.003937273060625267 0 0)
(-0.003972813923455954 0 0)
(-0.004012300111078513 0 0)
(-0.004053985215275621 0 0)
(-0.004097560834435271 0 0)
(-0.004139537658212436 0 0)
(-0.004182930955841989 0 0)
(-0.004225792522385025 0 0)
(-0.004266943376176701 0 0)
(-0.004310677556095236 0 0)
(-0.004346894341669198 0 0)
(-0.004388657258085868 0 0)
(-0.004426089522761354 0 0)
(-0.004462034870779646 0 0)
(-0.004493820630209289 0 0)
(-0.004524138411364967 0 0)
(-0.004549849663981189 0 0)
(-0.004571684788163092 0 0)
(-0.00458711448073207 0 0)
(-0.004600252807473273 0 0)
(-0.004600546505233988 0 0)
(-0.004601028350004736 0 0)
(-0.004592187919847823 0 0)
(-0.004575425179251504 0 0)
(-0.004554122586515831 0 0)
(-0.004527724240621572 0 0)
(-0.004499267291755499 0 0)
(-0.004471107666258627 0 0)
(-0.004441497250481837 0 0)
(-0.004412318667366623 0 0)
(-0.004385249492194292 0 0)
(-0.004355147311036645 0 0)
(-0.004332116765916564 0 0)
(-0.004295939821811629 0 0)
(-0.004278994275256982 0 0)
(-0.004254601046968032 0 0)
(-0.004234688624143421 0 0)
(-0.004213692952800433 0 0)
(-0.00420042294562095 0 0)
(-0.004187156386725557 0 0)
(-0.004180669658001468 0 0)
(-0.00417661309077862 0 0)
(-0.004182246923674719 0 0)
(-0.004184615807588966 0 0)
(-0.004202726417089119 0 0)
(-0.004221118325310876 0 0)
)
;

boundaryField
{
    inlet
    {
        type            calculated;
        value           uniform (-0.001054595316763693 0 0);
    }
    outlet
    {
        type            calculated;
        value           uniform (-0.004235797456073703 0 0);
    }
    frontAndBack
    {
        type            empty;
    }
}


// ************************************************************************* //
