/*--------------------------------*- C++ -*----------------------------------*\
| =========                 |                                                 |
| \\      /  F ield         | OpenFOAM: The Open Source CFD Toolbox           |
|  \\    /   O peration     | Version:  v2012                                 |
|   \\  /    A nd           | Website:  www.openfoam.com                      |
|    \\/     M anipulation  |                                                 |
\*---------------------------------------------------------------------------*/
FoamFile
{
    version     2.0;
    format      ascii;
    class       volScalarField;
    location    "0.011";
    object      p;
}
// * * * * * * * * * * * * * * * * * * * * * * * * * * * * * * * * * * * * * //

dimensions      [1 -1 -2 0 0 0 0];


internalField   nonuniform List<scalar> 
1000
(
101303.7612280389
101309.409025466
101304.5745254073
101294.5962278598
101292.104384175
101286.5589853402
101281.9314452791
101281.6304444792
101276.5272418373
101276.1966779568
101276.4406425494
101276.47492695
101277.7045929856
101279.3626193154
101281.1153241024
101286.1024833259
101289.4482184178
101294.9003199058
101301.2811821954
101306.3420502617
101313.1151344183
101319.5686564954
101326.2010316896
101332.9963557131
101339.332171984
101345.8951999247
101351.7079928889
101357.1071894844
101362.2403969797
101366.3711543305
101371.6709179371
101372.9276388638
101372.8438179433
101372.7717929006
101372.7307249807
101371.0453462798
101370.4856033514
101368.7655481706
101364.4148165333
101362.3637172436
101356.865382416
101350.8996936045
101345.7753714869
101338.2212223044
101331.949490302
101325.2278537847
101318.2772347085
101312.0020677321
101305.4962281775
101299.413727311
101293.7067556475
101288.4309432474
101283.2688958094
101278.0278474978
101277.5512292322
101277.6603850657
101277.6756723253
101278.1689720818
101279.3944090802
101279.668912582
101282.3636436633
101285.186040706
101286.8236252758
101292.9131212796
101297.1598199732
101302.2375072719
101310.0358669892
101315.7326515706
101323.1450242047
101330.2426444674
101336.6304238254
101343.4477030486
101349.3498160694
101355.210642011
101360.5862207893
101366.6552635964
101371.6876541713
101371.843496986
101371.8248768422
101371.86109045
101370.9819748592
101370.8913382524
101369.4391654009
101367.3785942222
101366.2684972521
101362.0705322466
101358.7541132077
101354.7619949403
101348.1663611173
101343.1491261615
101336.0507288815
101328.8540687012
101322.1099912581
101314.5403740027
101307.8860658804
101301.2868527392
101295.0156805302
101289.707918315
101282.5828195706
101278.8192991211
101278.6863229831
101278.5409914264
101279.0174814416
101279.1594223376
101279.752433341
101281.2777777786
101282.0776247454
101284.7600671518
101287.550073926
101290.3491605516
101295.600536249
101299.8646106437
101305.777678199
101312.4772910943
101318.6915705707
101326.3131741179
101333.2714351208
101340.3548472737
101347.3591400048
101353.685080636
101359.5662413562
101366.5750827225
101370.9095647541
101371.0498107486
101370.9121004292
101370.9070833301
101370.5278075767
101369.6258130121
101369.4171786448
101367.3355999786
101365.3070571171
101363.7467658357
101359.1523741511
101356.003720496
101351.4064785045
101345.1418359354
101339.9402248626
101332.7654053295
101325.8234080589
101318.7084114678
101311.0642929338
101304.1675175356
101296.9766709964
101290.7106981673
101282.5165845451
101279.3175119899
101279.2631295903
101279.4063713087
101279.4534869075
101279.8544377646
101280.6238637181
101281.0752569896
101282.8946449279
101284.5042738168
101286.7850180668
101290.2958248961
101293.4973683874
101298.438637032
101303.3356941306
101309.1678346278
101315.9034606664
101322.2401823105
101329.8405453387
101336.9009107768
101343.9919857587
101351.4499023638
101357.5712795498
101366.0487668008
101370.3236927349
101370.3619601144
101370.4259799554
101370.1236976832
101370.0028840937
101369.4264847837
101368.1122662756
101367.8191296212
101365.5217978597
101363.0157062582
101361.2002983752
101356.4775530604
101352.9615222888
101348.3555933892
101341.727488896
101336.5285056961
101329.4186112302
101321.9997875781
101315.0807007
101307.1993582322
101299.7243368122
101292.8772046927
101283.3847836441
101279.8419224055
101279.8382889849
101279.8965489949
101279.8937536474
101280.5660045367
101280.7799498105
101281.4504498771
101283.3472865259
101284.1414957557
101286.6595359587
101289.807639034
101292.348145007
101297.1536298359
101301.5627964793
101306.6544121378
101313.0597919595
101319.1263109297
101326.1768482746
101333.4537791085
101340.7060005827
101348.3289359452
101355.1953120117
101364.3528510857
101369.6800335407
101369.7863166307
101369.89610843
101369.6581015774
101369.3911629709
101369.1766207088
101367.9200815468
101367.2683447024
101365.7845161442
101363.1223818657
101361.6280756543
101357.8203744489
101353.8600177468
101350.3070408861
101344.1029025722
101338.8372151585
101332.6338764565
101325.1419478012
101318.3564140701
101310.5416677855
101302.6355239292
101295.5764474617
101285.3811124521
101280.6010632007
101280.484487992
101280.3665680719
101280.7148645366
101280.840318571
101281.2047667921
101282.3850366503
101282.8689588253
101284.6861541386
101286.8856526126
101288.4498119835
101292.4420143665
101295.7086852543
101299.4781133123
101305.4002597677
101310.125409266
101316.3983994491
101323.397120765
101329.9072681999
101337.6811677821
101345.131628134
101352.4141510678
101361.1377879659
101368.8143831754
101369.2689998545
101369.3168565019
101369.1115746335
101369.0363415703
101368.5107199646
101367.7260330602
101367.1306753232
101365.3785165905
101363.7639302674
101361.8055011004
101358.2768093074
101355.5562356275
101351.0952167826
101346.2522871308
101341.4052439322
101334.6462406312
101328.5593867861
101321.4197614353
101313.513135444
101306.1701817112
101298.2671324794
101288.959515566
101281.4726542077
101281.0067942755
101280.9710883477
101281.1962402528
101281.3130399285
101281.4748732704
101282.7115087818
101283.1010926577
101284.4406720263
101286.8241814341
101288.1285389955
101291.5599011345
101294.8580080304
101298.3223457402
101303.5759031296
101308.1293497296
101314.2258978448
101320.575185468
101326.9706668139
101334.7197309664
101341.8560487824
101349.5588556896
101357.2724382313
101367.102871312
101368.7477749737
101368.8297268525
101368.7850549516
101368.5249026275
101368.1120566464
101367.7356345348
101366.5224534695
101365.5800389567
101363.9711578519
101361.6233344618
101359.4407754971
101355.9549867143
101352.3615437781
101348.0673792358
101342.8024693619
101337.3878089817
101331.0042693522
101324.1951654684
101316.9006451045
101309.2208875482
101301.3281503288
101293.287859243
101283.0945996947
101281.5183854024
101281.524560667
101281.607145995
101281.8144684781
101281.8904809116
101282.9940351092
101283.4386235816
101284.5153975467
101286.7971644666
101287.8971260997
101290.8873015319
101294.2140757601
101297.0589771283
101302.0625121075
101306.5350140977
101311.8287292259
101318.2407775586
101324.3315853742
101331.5866048911
101338.8309592461
101346.4817606691
101353.8362779147
101363.9119816483
101368.1003294989
101368.1004963573
101368.1388229749
101368.0071698541
101367.4367142753
101367.4474434278
101366.4520831551
101365.124288281
101364.3580951577
101361.7746980333
101359.7664204268
101357.2004276206
101352.9349061756
101349.6806071762
101344.6333864959
101339.1228642644
101333.7033529736
101326.7188053791
101319.9090313827
101312.521383204
101304.3869192798
101297.1666735109
101286.4067117588
101282.0384956594
101282.0208007511
101281.9297034523
101282.2386013713
101282.366059645
101282.8580780497
101283.7658977471
101284.657411678
101286.1508746395
101287.9215528556
101290.5678245463
101292.8892622302
101296.5370060924
101300.9037941462
101304.6534009
101310.5791016409
101316.0465649685
101321.8992104883
101329.2287523506
101335.9050562366
101343.4193596492
101350.848532292
101359.767927099
101366.9979856102
101367.4970580586
101367.494115334
101367.3307422616
101367.3759367873
101366.6527378842
101366.2946880265
101365.6528810049
101363.738819799
101362.8166391061
101360.1971020728
101357.2036869592
101354.6090337402
101350.0372863304
101346.0313028386
101341.224605099
101335.2070654244
101329.5042495692
101322.5927753355
101315.4271706807
101307.9596755842
101300.3052736477
101291.3933406032
101283.1492171242
101282.5612825579
101282.3371492007
101282.5384648357
101282.470186782
101283.0827445582
101283.9137708705
101284.4294676883
101286.2477787773
101288.2144314705
101289.8080977067
101293.3597858044
101296.2690721907
101299.577282317
101304.456211307
101308.6048870232
101313.8948569844
101319.8781672838
101325.5500546721
101332.6311874177
101339.5830467105
101346.7528148854
101354.2571947747
101363.5942274682
101366.7176132871
101367.0000948909
101366.9580287952
101366.9783241449
101366.8015938172
101366.2917529237
101365.5354363636
101364.6706057618
101363.4117433795
101361.3975199923
101359.4218970035
101356.8650233557
101353.0746426209
101349.2404593315
101344.7513413429
101339.2037553352
101333.0502565886
101326.4988225036
101318.4191389859
101310.719737824
101302.239480608
101293.8057920171
101283.3330672971
101279.6920406925
101277.283154607
101276.3249866467
101276.0344684804
101275.9475082902
101275.6750944501
101275.6819829444
101276.2197325812
101277.2702168716
101278.3000693142
101280.1428431663
101282.9449855409
101285.7609193826
101289.614211903
101294.255982719
101299.7260797714
101305.6443662055
101312.4423943861
101320.3583285013
101328.2568929965
101336.9214478326
101346.5921634098
101355.48453091
101363.4450897492
101368.0344203789
101371.1429501162
101372.5083028909
101373.6317760113
101374.4530904467
101374.9294349916
101375.0015952043
101374.5381971489
101373.5227744423
101372.0364603779
101369.8409223326
101366.5180115398
101362.7387572095
101358.0270350913
101352.0089081378
101345.9857328504
101338.6956406146
101330.6893921407
101322.8420718601
101313.6653635166
101304.6596609907
101296.8542406611
101287.2831443001
101283.7822762788
101280.8166722772
101279.2840145638
101278.7044892041
101278.8160468338
101278.8233149601
101279.2112477154
101280.0504736802
101280.8572616428
101282.3087473426
101284.3890220219
101286.7126373114
101289.9697112126
101294.3455250153
101298.8262508837
101304.5058873801
101311.3045013523
101317.783756732
101325.3504143712
101334.3006307235
101341.6679016545
101350.3569785461
101359.924703628
101365.7557644615
101369.5161086784
101372.8076212226
101374.4401765781
101375.0164049747
101375.4328692984
101375.3823329979
101374.8978369631
101373.5576636899
101371.820424111
101370.0245922514
101367.3569660661
101363.6649490757
101359.6838254629
101354.8050651284
101348.2182219555
101341.7435266716
101334.493064047
101326.1557744814
101317.9911596323
101309.7630365647
101300.6080006623
101293.1170581465
101285.7110883858
101282.0948007544
101280.0395918571
101278.3874069482
101278.0561822302
101278.6820491581
101279.1906235367
101280.1778796404
101281.6388196159
101282.8651420559
101284.8909722344
101287.4611281011
101289.6607512636
101293.5293022111
101298.1387457838
101302.7555394609
101308.6327206534
101315.7705368791
101322.9046743548
101330.7804593317
101338.672102675
101346.900482165
101354.6434528432
101362.9968757702
101367.8320060925
101371.6351256992
101374.281957507
101375.6688840343
101375.8972838773
101376.3211086206
101375.6148819411
101374.0694278736
101372.6075777513
101370.5183497853
101367.4416125856
101364.4026500996
101360.7905168401
101355.8196172248
101350.2154176742
101344.1903222703
101337.1553324823
101329.7719938714
101321.5686537626
101313.2684371689
101305.2701805779
101297.4963127804
101288.7954167633
101284.732812354
101280.9539796068
101279.0222930256
101278.1081996178
101277.967431408
101278.6394850439
101279.6950632965
101281.1981277002
101282.8747873487
101285.0457399919
101287.5072465242
101290.211202805
101293.5995267934
101297.518257603
101302.2616748875
101307.4936124273
101313.4693343867
101320.3986915037
101327.888591483
101335.7633421925
101343.5886768252
101351.1802458807
101359.38386985
101365.9765942078
101370.1061121213
101373.8625338146
101375.5136489047
101376.5730778844
101377.2642330979
101376.7348407861
101375.7220546137
101373.9576718564
101371.9505558138
101368.6712681826
101365.6374530391
101362.0502090374
101357.476340638
101352.2053796484
101346.5595694978
101340.3534768829
101332.8064731185
101325.5499138792
101317.5972908975
101309.0618582761
101301.252902113
101294.0128193629
101286.4198079749
101282.6886144912
101280.1140081568
101278.3058390647
101277.6165638648
101278.0436358606
101278.8582861188
101280.1090723792
101281.9832595412
101284.1002609821
101286.7775099418
101290.0739841287
101293.019885149
101296.7081469797
101301.3187330891
101305.8209983256
101311.5089676564
101317.7572712505
101324.5196481044
101332.2544500314
101339.5797809413
101347.4423130083
101355.0603296888
101363.2078390315
101367.8793434316
101371.9445312741
101374.521316791
101376.1281597985
101376.548893757
101376.7891327603
101376.2355784987
101374.5664969558
101372.595825901
101370.2927401406
101366.5800426674
101362.8158081114
101358.9213034858
101353.834042095
101348.8295754802
101342.5281964833
101335.9851947365
101329.2024964439
101321.4713098623
101313.9032580763
101306.3620884389
101298.6050497601
101290.2128324041
101285.9378097009
101282.3186234523
101280.0070435311
101278.707282313
101278.1411073115
101278.910614168
101279.6825431813
101281.2936931487
101283.7524568451
101285.9192110625
101289.1964144809
101292.7634891063
101296.1583683739
101300.6699719222
101305.3420360648
101310.2769666577
101315.8898703834
101322.2458024501
101329.1165989105
101336.2995432988
101343.9172277137
101351.3082588069
101358.7048177167
101365.7659636191
101370.2643999862
101373.3624789091
101375.502652133
101376.6070167404
101377.1019454957
101376.8533495944
101375.9383717025
101373.6597486141
101371.4935129565
101368.3833056234
101364.1035038236
101360.1981069869
101355.3586229072
101349.6692706226
101343.8611444011
101337.7068742127
101330.7158953981
101323.5593605195
101316.1372130107
101308.5707883576
101301.1510410684
101294.0498283351
101286.9464171436
101283.3031614674
101280.5685006082
101278.516923305
101277.8165987599
101278.072259102
101278.849519378
101279.7125794696
101281.8070156761
101284.4843777151
101287.2050152844
101291.2064027038
101294.9248178835
101298.9961829621
101303.8255115609
101308.6283709688
101314.0401608518
101319.7786554541
101325.9951744221
101332.9067497698
101339.7880381047
101346.9500386605
101354.1856946348
101362.1518325417
101366.6427503468
101371.2568408859
101373.7999616411
101375.521400978
101376.3088435792
101376.6853125363
101375.9590996477
101374.4864437568
101372.4362241845
101369.5582838559
101365.6845580314
101361.5520566216
101357.1421255612
101351.7802078389
101346.1603073018
101339.759343459
101333.0929300283
101326.3508172783
101318.9822045782
101311.5025082503
101304.2184413851
101296.5324057728
101290.0966667418
101283.810731763
101281.2288982058
101278.7943337233
101276.9794400764
101276.8323395844
101277.2802768022
101278.2351831192
101279.6500300676
101282.1160173755
101284.6773950986
101288.0683756449
101292.3412016042
101296.1825709443
101301.0794590322
101306.5164600799
101311.401528139
101317.2698653505
101323.5925174389
101329.2676353345
101335.7582486537
101343.2667451326
101349.0294420853
101356.1114269502
101363.188471205
101367.3517359657
101370.7263525953
101373.4631326124
101374.6943328967
101375.7650160321
101375.4849367012
101373.9743009938
101372.8548582753
101370.1175724381
101366.1757726987
101362.5310129319
101357.7412746754
101352.4178478297
101346.8091509253
101340.3538635681
101334.0566406429
101327.3786810925
101319.7495226424
101313.065764702
101305.7003501047
101298.3609308057
101291.86465256
101284.7119782895
101281.351594373
101278.7709950161
101275.9944303287
101275.4962360827
101275.7360578162
101276.729687809
101277.3060811953
101279.3201401602
101282.1099408384
101284.8692451683
101288.7233900483
101292.5376110432
101297.3646156166
101302.2975278582
101307.6162123134
101313.703483988
101319.2452660362
101326.0222202033
101332.1837694543
101338.1696031071
101345.2622256178
101352.004747413
101357.9292943426
101363.8155763906
101367.6194867113
101370.8346643501
101373.0790602462
101374.6857561499
101374.9985174602
101374.5171492962
101373.5043621475
101370.6840232414
101368.4791078467
101364.2492757963
101359.3006025135
101354.5426397397
101348.9774960023
101342.6754399116
101335.9123496616
101329.4882005981
101322.5964211911
101315.3198001289
101308.6081322154
101301.2425807048
101294.078960411
101288.6590962109
101282.1204906098
101279.8694134359
101277.2067877672
101275.573824355
101275.4148590138
101276.0870598929
101277.242197264
101278.5102829575
101281.1859511283
101283.9924829268
101287.1469470212
101291.6445387031
101295.6744929454
101300.3700344811
101306.0275826039
101311.1999332474
101317.1718102233
101323.4440816406
101329.9224727595
101336.6296091062
101342.5589065564
101348.7965692926
101355.0017657507
101360.716529752
101364.5705071618
101368.1329747047
101369.6159903328
101372.2794261791
101373.2263205135
101372.8091838897
101373.1407267227
101371.3172052133
101368.4997133319
101365.9166809493
101361.0404852069
101355.5391098762
101350.7755396955
101344.4442153408
101337.237743917
101331.0613217439
101323.7826312443
101316.5835872211
101309.9736654564
101302.2276884508
101295.7430053906
101289.4220921932
101283.2031283795
101279.2530321292
101276.0425277425
101274.8772258034
101273.3021825743
101273.2505804954
101274.4026453514
101276.0635949448
101277.6735328709
101280.2624207114
101283.8562623003
101287.1381602728
101291.4338273308
101296.3425389149
101301.2718852004
101306.824562357
101312.62201293
101318.575322058
101324.6702086679
101331.3746534743
101337.7071284764
101344.0065365634
101350.8490043983
101356.2144405883
101361.9048784158
101364.5341951649
101367.4508334134
101369.0863892499
101370.3524395858
101370.4297398893
101370.6092244493
101370.3869656204
101368.7671536789
101366.373617656
101362.9415355384
101357.8790744697
101353.0933331926
101346.4884152887
101339.7747915607
101332.6604742677
101324.8139684171
101317.87231535
101310.7125190791
101303.1871307875
101297.1659645801
101290.3362644572
101284.299199622
101278.965434704
101276.1763232492
101273.699061641
101271.2743988436
101271.4136750807
101271.893423526
101273.3809151637
101274.8532645963
101277.3166052526
101280.9230263452
101283.858827808
101287.8506051419
101293.1551607284
101297.2985202026
101302.3973197742
101309.604415761
101313.600195482
101320.2829383782
101329.649991406
)
;

boundaryField
{
    inlet
    {
        type            uniformFixedValue;
        uniformValue    sine;
        uniformValueCoeffs
        {
            frequency       constant 3000;
            scale           constant 50;
            level           constant 101325;
        }
        value           uniform 101312.8819131453;
    }
    outlet
    {
        type            waveTransmissive;
        gamma           1.4;
        fieldInf        101325;
        lInf            2.25;
        value           uniform 101331.2603015529;
    }
    frontAndBack
    {
        type            empty;
    }
}


// ************************************************************************* //
