/*--------------------------------*- C++ -*----------------------------------*\
| =========                 |                                                 |
| \\      /  F ield         | OpenFOAM: The Open Source CFD Toolbox           |
|  \\    /   O peration     | Version:  v2012                                 |
|   \\  /    A nd           | Website:  www.openfoam.com                      |
|    \\/     M anipulation  |                                                 |
\*---------------------------------------------------------------------------*/
FoamFile
{
    version     2.0;
    format      ascii;
    class       volScalarField;
    location    "0.011";
    object      pMean;
}
// * * * * * * * * * * * * * * * * * * * * * * * * * * * * * * * * * * * * * //

dimensions      [1 -1 -2 0 0 0 0];


internalField   nonuniform List<scalar> 
1000
(
101325.0334376937
101325.020607957
101325.0106885738
101325.0330040666
101325.0480447952
101325.0686638715
101325.0881819818
101325.1266047393
101325.1377489014
101325.1810067582
101325.2111269232
101325.2389502917
101325.2680166595
101325.3167114388
101325.3304848906
101325.3535281912
101325.4031421797
101325.4195902589
101325.4252424348
101325.4531868888
101325.4766588921
101325.4784791612
101325.4670734644
101325.4897081265
101325.4899652386
101325.4699326892
101325.4432432797
101325.4540668083
101325.4378168512
101325.3820761199
101325.3727628869
101325.3638547024
101325.3062357568
101325.2647201342
101325.271439879
101325.2223613594
101325.1711481517
101325.1648046156
101325.1434549745
101325.0936556476
101325.0719795471
101325.0659777126
101325.0371147022
101325.0178399784
101325.0112356156
101325.009473821
101325.0047038552
101324.9998578119
101325.0157843108
101325.0280870912
101325.0336355905
101325.0591730866
101325.0873838232
101325.0970224467
101325.1383627052
101325.1755309251
101325.1918342814
101325.2275212963
101325.2695557856
101325.2839282384
101325.3177884829
101325.3571110178
101325.3707976814
101325.3941030755
101325.4340591537
101325.4438442783
101325.4486829726
101325.4754384299
101325.4877284872
101325.4743384396
101325.477508304
101325.4812350601
101325.4642256874
101325.4447936361
101325.4355528092
101325.4115688504
101325.3804233931
101325.3559096302
101325.3269374061
101325.2897406579
101325.2607875393
101325.2378301653
101325.199760634
101325.1700011354
101325.1481229616
101325.117560945
101325.088791774
101325.0709321715
101325.0476204876
101325.0297300144
101325.022833497
101325.00454184
101325.0025169561
101325.0097459486
101325.0089979947
101325.0133132514
101325.0362418461
101325.0521238167
101325.0692448929
101325.0997020949
101325.1277871375
101325.1566178816
101325.1917885089
101325.2186286609
101325.2453297204
101325.2832972608
101325.3085370953
101325.3311611251
101325.3670198737
101325.3896753188
101325.4072446901
101325.4356824093
101325.4542460172
101325.4546148717
101325.4761457519
101325.4873821201
101325.4717569004
101325.4779300541
101325.4784722174
101325.4489771358
101325.4349422913
101325.4294605868
101325.3876565358
101325.3565991015
101325.344376963
101325.3012552896
101325.2628049403
101325.2522206632
101325.2166912636
101325.1724592514
101325.1642678382
101325.1343629741
101325.0924730727
101325.0834998102
101325.0672003306
101325.0311873779
101325.0250467196
101325.0251750674
101324.9988094005
101325.0021968375
101325.0172942708
101325.0105174752
101325.0182492143
101325.0534496087
101325.0616730578
101325.0815153133
101325.1282743674
101325.1445004815
101325.1756485887
101325.2153500958
101325.2362348014
101325.2613700825
101325.3061662815
101325.3228605998
101325.3422288762
101325.3885898782
101325.3996399959
101325.4138311599
101325.4480026344
101325.4595970813
101325.4574884136
101325.481659437
101325.4865576776
101325.466281506
101325.4760885325
101325.4702250567
101325.437466517
101325.4239343317
101325.415293353
101325.3656739272
101325.3382833534
101325.3244406882
101325.2788722405
101325.2495981187
101325.2324800562
101325.1955047577
101325.1594914522
101325.1534754601
101325.1136553661
101325.0830210919
101325.0791134122
101325.0506857498
101325.0268582228
101325.0274636715
101325.0146206132
101324.9990314212
101325.0144429913
101325.0141514309
101325.0135993632
101325.0416400803
101325.0597610089
101325.0731717782
101325.1113436133
101325.1441861168
101325.1653030704
101325.1973842909
101325.2321812149
101325.2546673227
101325.2828296045
101325.3184524972
101325.3382933982
101325.3637715458
101325.3921300343
101325.4132114616
101325.4309843364
101325.4455880928
101325.4630395092
101325.4714398568
101325.4763572073
101325.4739369533
101325.4781471988
101325.4655503393
101325.4490484233
101325.4358518006
101325.4154880833
101325.3764542414
101325.3544771832
101325.3267167712
101325.2897051842
101325.2658522445
101325.2414645886
101325.2032920901
101325.1782449152
101325.1591845317
101325.1252879143
101325.0984168375
101325.0856816585
101325.0604968218
101325.0397746831
101325.0315471146
101325.0195780013
101325.0074426413
101325.0137046878
101325.0128900612
101325.0167008321
101325.0328622692
101325.0521065986
101325.0699991532
101325.10175612
101325.1329800401
101325.1590652311
101325.1884903559
101325.2189896203
101325.2476052691
101325.2725023883
101325.3043307273
101325.329436351
101325.3535259047
101325.3809923625
101325.4009505093
101325.4214946348
101325.4394915782
101325.4556155121
101325.4631066103
101325.4730542729
101325.4748110053
101325.4749160289
101325.4665231829
101325.4569098502
101325.4406394785
101325.4188286127
101325.3918956415
101325.3621688336
101325.3338259661
101325.3040066685
101325.2747078088
101325.2493593149
101325.2179875906
101325.1906687835
101325.1652555006
101325.1416669798
101325.1093932631
101325.0925980183
101325.0732948849
101325.0505669777
101325.0353367002
101325.0276268718
101325.0177449944
101325.0091479347
101325.0161543738
101325.0196311919
101325.0278214471
101325.0452753066
101325.0653458721
101325.0940928423
101325.1206097496
101325.1534976443
101325.1761942344
101325.2119489158
101325.2347740542
101325.265380879
101325.2927144844
101325.3191532958
101325.3432817248
101325.369900381
101325.3937527455
101325.4095364999
101325.4349508119
101325.4436701571
101325.4598565601
101325.4672135944
101325.4710835634
101325.4721139665
101325.4683870474
101325.460384703
101325.4401706189
101325.4296291718
101325.3993472604
101325.3703024678
101325.341819645
101325.3159626732
101325.2842875505
101325.2571528554
101325.2294339622
101325.2009020346
101325.1761994533
101325.1476873333
101325.1248675036
101325.1016266051
101325.0801650835
101325.0592220514
101325.0473002198
101325.0317084655
101325.0191725509
101325.0194892815
101325.0154981112
101325.017697167
101325.0273469554
101325.0439315763
101325.0541733974
101325.085938502
101325.1158510209
101325.1395867463
101325.1695079267
101325.2003489062
101325.224588063
101325.253900099
101325.2855692905
101325.3069296019
101325.3312515296
101325.362812509
101325.3828751194
101325.3997088109
101325.4225767116
101325.4404860463
101325.4492562849
101325.4630283231
101325.4676100191
101325.4690030981
101325.4680247333
101325.4637692424
101325.4460288128
101325.4297006626
101325.4116969987
101325.3798312574
101325.3523391993
101325.3246969209
101325.2961199492
101325.2664095829
101325.2415669252
101325.2141520773
101325.1846606782
101325.1603813614
101325.1360106194
101325.1133413369
101325.0889309181
101325.0719793679
101325.0542246592
101325.0403907562
101325.0283310648
101325.022511061
101325.0212451087
101325.0167268031
101325.0287922489
101325.038767387
101325.0545881165
101325.0729552149
101325.109701309
101325.1314404646
101325.1607443684
101325.1901048148
101325.216360933
101325.2457938094
101325.2722539288
101325.298788206
101325.3224780163
101325.3529150914
101325.3710006308
101325.3920217358
101325.4160509248
101325.4323758546
101325.4420519835
101325.4554151807
101325.4677518047
101325.4635039484
101325.4664069117
101325.4625934854
101325.4505274363
101325.4331020441
101325.4190930738
101325.387323017
101325.3589767639
101325.336497408
101325.3045561318
101325.2763021519
101325.2523919812
101325.2238340145
101325.1939844798
101325.1735894896
101325.1468320775
101325.1187820435
101325.1029040546
101325.0818107962
101325.060144779
101325.0464967562
101325.0380237023
101325.0265334853
101325.0218142025
101325.0243011433
101325.0264687388
101325.0380309364
101325.0535741474
101325.0680811064
101325.0958251724
101325.1293217839
101325.1514177429
101325.1773459517
101325.2113387506
101325.2331324581
101325.2602010059
101325.2894570838
101325.3134057054
101325.3361232014
101325.3645137076
101325.3849535472
101325.402017334
101325.4238211474
101325.4389933479
101325.4505132631
101325.4576135737
101325.4656048252
101325.4644477532
101325.4608190003
101325.4521343196
101325.4394102019
101325.4214058151
101325.3981721228
101325.368268619
101325.3423282292
101325.3152528011
101325.283653773
101325.2601438214
101325.2337306942
101325.2044930832
101325.1800808832
101325.1601284047
101325.1308003269
101325.1122804662
101325.0945948839
101325.0750713756
101325.0605944296
101325.0492261978
101325.0416376338
101325.0324125833
101325.0354248277
101325.0350293512
101325.0407055594
101325.0545995825
101325.0687833613
101325.085085277
101325.1130534514
101325.1389156927
101325.1544349227
101325.1810762262
101325.205097343
101325.2209786153
101325.2423119545
101325.2655758309
101325.2739174139
101325.2931879973
101325.3135107706
101325.3166773552
101325.3313788922
101325.3417383689
101325.3415696667
101325.3461288049
101325.3481293246
101325.3394829212
101325.3316819667
101325.328321629
101325.3092396303
101325.2898208288
101325.275318962
101325.2492134129
101325.22247177
101325.198079631
101325.1790038901
101325.1517028109
101325.1347357184
101325.1169748672
101325.096204179
101325.0810980948
101325.0700506868
101325.0531038515
101325.0401361787
101325.0339324641
101325.0243172291
101325.0178160475
101325.0137541838
101325.0171703747
101325.0131674809
101325.0268866862
101325.033477716
101325.0460841351
101325.0616251047
101325.0874203554
101325.1080120376
101325.1354643797
101325.1594241146
101325.1874129113
101325.2117637304
101325.2339069788
101325.2568133812
101325.2738741251
101325.29538503
101325.3130338039
101325.3252285047
101325.3407101069
101325.3528450036
101325.3633468167
101325.3637332477
101325.3770849786
101325.3727432207
101325.3683992574
101325.365206307
101325.360659863
101325.3375948907
101325.3339994854
101325.3134260919
101325.2820265716
101325.2658448812
101325.2469392872
101325.211854807
101325.1912453757
101325.1777423196
101325.1531003394
101325.1368952444
101325.1172170285
101325.1062556364
101325.0938878806
101325.0791614826
101325.0708639863
101325.0621795104
101325.055474301
101325.0506831253
101325.0523243931
101325.0500418013
101325.0569403152
101325.0669033371
101325.0801237976
101325.0910154019
101325.1129729001
101325.1355587799
101325.1564876319
101325.1867422203
101325.21055245
101325.2352092175
101325.2622062336
101325.2832644981
101325.3061357347
101325.3222230772
101325.3434016118
101325.3570745903
101325.3704308354
101325.3843144975
101325.3933703896
101325.4028719653
101325.4047558356
101325.4105331061
101325.4066012532
101325.4071270832
101325.3939242094
101325.3905428892
101325.3747960987
101325.3531088486
101325.340598251
101325.3150432433
101325.2888265521
101325.2700732071
101325.2471215155
101325.2181826594
101325.2068700146
101325.1894988047
101325.1633940187
101325.151306273
101325.1447735828
101325.1292951259
101325.1120791938
101325.1140568845
101325.1040509162
101325.0936464089
101325.0949297553
101325.0995754644
101325.0952216666
101325.1072974459
101325.1191210786
101325.1287196117
101325.14689761
101325.1707985387
101325.1873200617
101325.2175138155
101325.2451848849
101325.2693933739
101325.2869715618
101325.3231895578
101325.3395232787
101325.3584747116
101325.3763126578
101325.398393281
101325.4085487974
101325.4194552199
101325.4368126068
101325.4393908823
101325.448397652
101325.451077875
101325.4525253566
101325.4470621267
101325.4521815104
101325.433659833
101325.4238081648
101325.4164011978
101325.3926868128
101325.3676071241
101325.3556110748
101325.3287636209
101325.2999105109
101325.285397301
101325.2660509634
101325.2418045271
101325.2261535782
101325.2144475611
101325.1993927997
101325.1822805178
101325.1790184198
101325.1704880229
101325.159326744
101325.1560335085
101325.1549348277
101325.1511454982
101325.1558189274
101325.1631688773
101325.1682225622
101325.1848237247
101325.1968499051
101325.2176521411
101325.2360320276
101325.2647733436
101325.2904071836
101325.3127589459
101325.3370674804
101325.3637743403
101325.3915607805
101325.4032183078
101325.4276015457
101325.4431493341
101325.4596084785
101325.4733120339
101325.480616406
101325.4910002926
101325.5052275437
101325.4972395997
101325.5041265306
101325.5076309591
101325.4962579725
101325.4920576945
101325.4887617682
101325.4675332831
101325.4521986727
101325.4360206905
101325.413136707
101325.3882880046
101325.3689286559
101325.346000953
101325.3223845513
101325.3061996828
101325.2909842756
101325.2665150826
101325.2598335931
101325.2459472458
101325.2321661537
101325.2295789341
101325.2182131758
101325.2115516233
101325.2136470403
101325.2126204753
101325.206075262
101325.219672435
101325.2264230391
101325.2363176074
101325.249667341
101325.2714647196
101325.2873083313
101325.3110803263
101325.3409673333
101325.3624491342
101325.3891177446
101325.4153525402
101325.4394549057
101325.4588278099
101325.4793936846
101325.5003571501
101325.5161902344
101325.5252505131
101325.54142561
101325.5559477056
101325.5545143773
101325.5605817901
101325.5718284779
101325.5630138453
101325.5595450608
101325.5625666778
101325.5508632002
101325.5349662581
101325.5270306738
101325.508765221
101325.4826317215
101325.4628904939
101325.4458985035
101325.4176888145
101325.3951418069
101325.3837755721
101325.3591150504
101325.3418295833
101325.3288080045
101325.320290014
101325.3011011623
101325.2979000125
101325.291557279
101325.2818273688
101325.2778165389
101325.281655554
101325.2770706683
101325.2773910933
101325.2917654742
101325.2978852194
101325.3068515305
101325.3264193488
101325.3435944613
101325.3617102943
101325.3888223947
101325.4113217057
101325.4362305812
101325.4642931647
101325.4882256554
101325.5050859309
101325.5301905861
101325.550253546
101325.5600072877
101325.5764009793
101325.5952415787
101325.5975259696
101325.6096737516
101325.6134560867
101325.6171287904
101325.6168995496
101325.6197965201
101325.6044023132
101325.6088882072
101325.5963107255
101325.5787576008
101325.5666548696
101325.54839293
101325.5223125226
101325.5057444531
101325.4794847176
101325.4571758397
101325.4413868139
101325.4208787716
101325.3957440328
101325.3916407067
101325.374312708
101325.3593303308
101325.3486105795
101325.349929973
101325.3362562371
101325.3299460666
101325.3351425637
101325.3293632094
101325.3307849671
101325.3393593272
101325.344709857
101325.3579158797
101325.368026468
101325.3862709938
101325.404132848
101325.4265819626
101325.4464989267
101325.4722721318
101325.5013557501
101325.5233164601
101325.5397252646
101325.5684016725
101325.5805151792
101325.6070664731
101325.607516904
101325.6282153012
101325.6404769833
101325.6417802889
101325.6504807727
101325.6541865896
101325.6527691645
101325.6474760559
101325.6538929403
101325.6386585201
101325.6256157001
101325.6269571027
101325.6005028729
101325.5870071834
101325.5662020209
101325.5394541269
101325.5194777325
101325.4977481501
101325.469778456
101325.4557039579
101325.4426025892
101325.4112484234
101325.403894473
101325.3985844473
101325.3763899473
101325.3652512403
101325.3750247648
101325.3551999794
101325.3498065517
101325.3592609639
101325.3519699229
101325.3508910677
101325.3686420205
101325.3706060146
101325.3771238464
101325.3972076397
101325.4165613952
101325.4253282758
101325.4490667064
101325.4796372625
101325.4945237588
101325.5129681717
101325.5492582879
101325.5629186742
101325.5725617499
101325.6031806276
101325.6118253005
101325.6167220385
101325.6312757284
101325.6447038218
101325.6370771303
101325.6477654506
101325.6469271865
101325.6408589053
101325.6329966041
101325.6425112713
101325.618478748
101325.6073188994
101325.6046816185
101325.5795731182
101325.5530630623
101325.5410255053
101325.5179644244
101325.478974093
101325.4719882687
101325.4466599089
101325.4236644987
101325.4073694002
101325.4000311831
101325.3716707792
101325.3651846083
101325.3657857161
101325.3440615053
101325.3429146559
101325.344285149
101325.3383329003
101325.3311472558
101325.3397385656
101325.3490991058
101325.34411559
101325.3627285827
101325.3777536079
101325.3870013532
101325.3960635242
101325.4348451296
101325.44346591
101325.4622698372
101325.4939444231
101325.5119114688
101325.5326501288
101325.5563665083
101325.5695930567
101325.5843522533
101325.6023155185
101325.6062114553
101325.6170409774
101325.6262311975
101325.6204425452
101325.6260874213
101325.629970746
101325.6137061863
101325.6083798406
101325.6189463365
101325.592189447
101325.5808066339
101325.5723488252
101325.5505738161
101325.5216915321
101325.5096886229
101325.4865482982
101325.4445665921
101325.4372344382
101325.4159678735
101325.3903719122
101325.3732929021
101325.3706350638
101325.3382609735
101325.3405200649
101325.3343796147
101325.3169836188
101325.3160027457
101325.3183122195
101325.3080106052
101325.3112068325
101325.316299937
101325.3200774613
101325.3249263372
101325.3446590107
101325.3497050834
101325.360149366
101325.3841324416
101325.4005735565
101325.4196640901
101325.4390163785
101325.4628464871
101325.4763511335
101325.5001037266
101325.5223579764
101325.5264450045
101325.5399644227
101325.560928525
101325.5564067634
101325.5614646654
101325.5719131818
101325.5673429173
101325.5549419785
101325.5653792302
101325.5513425393
101325.5332324299
101325.5389939821
101325.5220113045
101325.5037098057
101325.4829433687
101325.4669130725
101325.4427286699
101325.4208518332
101325.390721816
101325.367174242
101325.3513521341
101325.3196154513
101325.3052243513
101325.287668067
101325.2746382154
101325.2620676617
101325.2526551613
101325.2367439863
101325.250760507
101325.2308513896
101325.2234079341
101325.2390947473
101325.2344024831
101325.2168131366
101325.2560545384
101325.2539885528
101325.2524177327
101325.2724413979
101325.2911080282
101325.2932781153
101325.3245541707
101325.3371132759
101325.3544928044
101325.3822954238
101325.3881911605
101325.4023604165
101325.4355062661
101325.4318472293
101325.4377818007
101325.4540774162
101325.4613810215
101325.4650009337
101325.4372087607
101325.4686324101
101325.4540714268
101325.4197460019
101325.4286580074
101325.4237437703
)
;

boundaryField
{
    inlet
    {
        type            calculated;
        value           uniform 101325.0032116014;
    }
    outlet
    {
        type            calculated;
        value           uniform 101325.4214643966;
    }
    frontAndBack
    {
        type            empty;
    }
}


// ************************************************************************* //
