/*--------------------------------*- C++ -*----------------------------------*\
| =========                 |                                                 |
| \\      /  F ield         | OpenFOAM: The Open Source CFD Toolbox           |
|  \\    /   O peration     | Version:  v2012                                 |
|   \\  /    A nd           | Website:  www.openfoam.com                      |
|    \\/     M anipulation  |                                                 |
\*---------------------------------------------------------------------------*/
FoamFile
{
    version     2.0;
    format      ascii;
    class       volScalarField;
    location    "0.011";
    object      rho;
}
// * * * * * * * * * * * * * * * * * * * * * * * * * * * * * * * * * * * * * //

dimensions      [1 -3 0 0 0 0 0];


internalField   nonuniform List<scalar> 
1000
(
1.176238028536421
1.176289832828036
1.176252551029242
1.176169173216772
1.176146257850609
1.176097603669519
1.176057478108604
1.1760536913127
1.176011405961534
1.176008270148283
1.176009486009278
1.176008968861515
1.176018743525039
1.17603228051332
1.176046755928081
1.176088191582634
1.176116014211273
1.176161352846532
1.176214435249908
1.176256602953323
1.176312978948861
1.176366674937261
1.176421800871151
1.176478225151523
1.176530799377551
1.176585226529286
1.176633419570861
1.176678160262233
1.176720646028135
1.176754821546384
1.176798687269149
1.176809081679627
1.176808382647703
1.176807726528117
1.17680736656461
1.176793400122789
1.176788770007582
1.176774530620827
1.17673847769556
1.176721491073154
1.17667591845367
1.17662646581959
1.176583985268069
1.176521352235493
1.176469349381113
1.176413612829638
1.176355974228885
1.176303934232091
1.176249980265588
1.17619953745469
1.176152209716955
1.176108457725631
1.176065649574992
1.17602218592182
1.17601823419361
1.176019140906398
1.176019269481789
1.176023361687191
1.176033524764641
1.176035801635452
1.176058148776546
1.176081554247782
1.176095134461725
1.176145632042862
1.176180847630628
1.176222954261174
1.176287620014246
1.176334858833318
1.176396322297559
1.176455174585947
1.176508140246169
1.1765646658748
1.17661360263594
1.176662196245246
1.176706765718081
1.176757084171614
1.176798806706853
1.176800098726559
1.176799944326945
1.176800244507319
1.176792955956248
1.176792204505993
1.176780164831699
1.176763080897458
1.176753877350207
1.176719072097514
1.17669157551403
1.176658476669203
1.176603790250724
1.176562190667646
1.176503334072566
1.176443661366095
1.17638774056671
1.176324972858352
1.17626979400759
1.176215070896171
1.176163067040102
1.176119051793121
1.176059964691053
1.176028753998444
1.176027651220194
1.176026446002358
1.176030397495757
1.176031574593763
1.176036492413787
1.17604914194876
1.176055775022893
1.176078020117209
1.176101157001811
1.176124369248199
1.176167916797329
1.176203276850393
1.176252310464663
1.176307865180536
1.176359394850451
1.176422592568108
1.17648028886206
1.176539021727442
1.176597097189807
1.176649547285018
1.176698308851533
1.176756418921266
1.17679235528322
1.176793517996426
1.176792376197656
1.176792334506614
1.176789189939148
1.176781711609616
1.176779981821757
1.176762723679514
1.176745905128429
1.176732968974601
1.176694876539812
1.176668770711774
1.176630654220466
1.176578711694077
1.176535582936073
1.176476092017819
1.17641853045803
1.176359533353917
1.176296147319907
1.176238957265458
1.176179327290511
1.176127366319861
1.176059413904147
1.17603288417975
1.176032433139752
1.176033620954062
1.176034011597225
1.176037336602147
1.176043717326941
1.17604746065025
1.176062548558789
1.176075896891156
1.176094810676357
1.176123924737696
1.176150474088393
1.176191449813874
1.176232058427408
1.176280420479586
1.176336273318913
1.176388817698103
1.176451838603359
1.176510380921116
1.176569176723865
1.176631012690105
1.176681766400339
1.176752053135268
1.17678749573343
1.176787812927893
1.176788343746985
1.176785837462886
1.17678483578344
1.176780056919805
1.176769160861422
1.176766730472357
1.176747683460009
1.176726905459718
1.176711854001701
1.176672697075094
1.1766435450497
1.17660535623132
1.176550399552495
1.176507292159799
1.176448339107762
1.176386823030781
1.176329450017606
1.176264096078536
1.1762021101415
1.176145330464798
1.176066611679978
1.176037230995044
1.176037200833632
1.176037683936216
1.176037660699793
1.176043235593525
1.176045009772293
1.176050570143061
1.176066300286961
1.176072886536682
1.176093768148541
1.176119874434129
1.176140942171335
1.17618079197428
1.176217354909275
1.176259576633979
1.176312691413332
1.176362995648438
1.176421458250885
1.176481796844255
1.176541929336025
1.17660513424519
1.176662065284054
1.176737990877689
1.176782157704744
1.176783038842985
1.176783949123081
1.176781975783633
1.176779762612039
1.176777983851111
1.176767566022455
1.176762162517966
1.176749860230299
1.17672778849699
1.176715399283107
1.1766838293531
1.176650993336221
1.176621535037526
1.176570094090969
1.176526433729446
1.176474998162384
1.176412876445383
1.176356611311239
1.176291810323529
1.176226249970914
1.176167713146501
1.176083165975587
1.176043525453887
1.176042558671814
1.176041580791055
1.176044469132347
1.176045509478696
1.176048531795035
1.176058319613803
1.176062332704871
1.176077402410671
1.176095642370974
1.176108613676384
1.176141719668635
1.176168808882753
1.17620006718008
1.176249175802738
1.176288358244612
1.176340374974325
1.176398408221387
1.176452389516961
1.176516848083779
1.176578623566164
1.176639005308533
1.176711334445778
1.176774980095725
1.176778749241623
1.176779146027803
1.176777444024032
1.176776820260362
1.176772462399256
1.176765956650622
1.176761020618521
1.176746493617507
1.176733107140088
1.176716869897482
1.176687613232202
1.176665056683087
1.176628069429041
1.176587915090526
1.176547726355863
1.176491683418402
1.176441213069143
1.176382012265154
1.176316449887168
1.176255560633616
1.176190025198581
1.176112840922979
1.17605075328533
1.17604688995574
1.176046593837453
1.176048460995579
1.176049429591507
1.176050771657659
1.176061026907749
1.176064257673409
1.176075366624421
1.176095132510177
1.176105949312004
1.176134404568967
1.176161754482001
1.176190482829268
1.176234047549962
1.176271806379152
1.176322360224894
1.176375008876055
1.176428039797442
1.176492292973146
1.176551464335686
1.176615331251262
1.176679286853513
1.176760790300714
1.176774428009625
1.176775107460605
1.176774737088306
1.176772580199571
1.176769157340343
1.176766036474556
1.176755978103626
1.176748164615926
1.176734825489545
1.176715359666803
1.176697264032546
1.176668362944982
1.176638569030593
1.176602964960057
1.176559311445015
1.176514415780586
1.176461485679667
1.1764050258181
1.176344539957946
1.176280858195259
1.176215408677682
1.176148735187595
1.176064204250638
1.176051132922182
1.176051184137417
1.176051869020884
1.176053588337132
1.176054218718211
1.176063370355161
1.176067057280593
1.176075986836606
1.176094909027875
1.176104030832728
1.176128827530345
1.176156415207678
1.176180006946221
1.176221498554559
1.176258586233974
1.17630248321556
1.17635565253553
1.176406157443976
1.176466314774192
1.176526382303832
1.176589818633482
1.176650797604675
1.176734335652076
1.176769060778003
1.176769062164601
1.17676937992329
1.176768288407805
1.176763558829359
1.176763647787557
1.176755395368194
1.176744386708896
1.176738034287208
1.17671661533455
1.176699964634341
1.17667868987972
1.176643323580094
1.176616341493606
1.176574493219013
1.176528802751171
1.176483866497982
1.176425952230855
1.176369486303364
1.176308227358448
1.176240774031051
1.176180901217831
1.176091671928326
1.176055446935882
1.1760553001989
1.176054544734098
1.176057106410192
1.176058163421173
1.176062243686909
1.176069772099845
1.176077165311523
1.176089550329993
1.176104234168291
1.176126178940966
1.17614542991053
1.176175679200822
1.176211890694659
1.176242984205541
1.176292121740673
1.176337458786375
1.176385989313265
1.17644676474212
1.176502122810842
1.176564428056629
1.176626025875736
1.176699978436079
1.17675992227468
1.176764060053368
1.176764035661382
1.176762681159637
1.176763055872836
1.176757059911562
1.176754091364742
1.176748770235849
1.176732900818224
1.176725255088341
1.176703536452546
1.176678717710975
1.176657205190151
1.176619299662391
1.176586084729148
1.176546230411931
1.176496335478958
1.176449049565073
1.176391740639281
1.176332323364538
1.176270401612747
1.176206928305398
1.176133026010966
1.176064658858486
1.176059783225771
1.176057924532827
1.176059594030927
1.176059027839579
1.176064107709351
1.17607099929772
1.176075275916903
1.176090354828216
1.176106663806727
1.176119879747974
1.17614933264479
1.176173458170879
1.176200891727074
1.17624134973142
1.176275751988358
1.176319617609027
1.176369231581654
1.176416262667113
1.176474977927629
1.176532620120741
1.176592067891912
1.176654289388343
1.176731702910192
1.176757598679888
1.176759940739251
1.176759591977
1.176759760246482
1.176758295026539
1.176754067989606
1.176747797436432
1.176740627204922
1.176730190057898
1.176713490126333
1.176697110171402
1.176675910946777
1.176644484195306
1.176612694018504
1.17657547322229
1.176529475479898
1.176478453117731
1.176424130244538
1.176357134047308
1.17629328970843
1.176222968714558
1.176153032698163
1.176066184767903
1.176035990002339
1.17601601319595
1.176008067134747
1.176005657873358
1.176004936709695
1.176002677579969
1.176002734735991
1.176007194323499
1.176015905992676
1.176024446590165
1.176039728695388
1.176062966545928
1.176086318721957
1.176118273205922
1.176156765798889
1.176202126897855
1.176251203770456
1.176307574759479
1.176373214426976
1.176438708593441
1.176510552471184
1.176590737231911
1.17666446628541
1.176730467637567
1.176768517429133
1.176794289753974
1.176805609618183
1.17681492409674
1.176821733395379
1.176825682623429
1.176826280886246
1.17682243897621
1.176814020374526
1.176801697723972
1.176783495009929
1.176755945245953
1.176724611661572
1.17668554665842
1.176635649395023
1.176585709303269
1.176525263894661
1.176458878818458
1.176393810171495
1.176317716658715
1.176243038982097
1.176178313164981
1.176098943125594
1.176069911049699
1.176045317666836
1.176032607474641
1.176027801516924
1.176028726662374
1.176028786951398
1.176032004051077
1.176038963676988
1.176045654341605
1.176057691385348
1.17607494278085
1.176094212146512
1.176121222377285
1.176157509490698
1.176194666144039
1.176241764324688
1.176298140372706
1.176351867148892
1.176414609739776
1.176488822848094
1.176549909001269
1.176621953699952
1.176701281272824
1.176749626453685
1.176780802958755
1.176808092301957
1.176821627427877
1.176826404743474
1.176829857532496
1.176829438558567
1.176825421764763
1.176814310747197
1.176799907664029
1.176785018790424
1.176762901970396
1.176732291747986
1.176699284290477
1.176658834030654
1.176604220866215
1.176550536610037
1.176490418906975
1.17642128825837
1.176353587646341
1.17628535881183
1.176209442281595
1.176147323242065
1.176085907452783
1.176055918195359
1.176038874510732
1.176025173071904
1.176022426265339
1.176027616555858
1.176031834164009
1.176040021402769
1.176052136830444
1.176062306626753
1.176079106518746
1.176100420241537
1.176118661328875
1.176150742002384
1.176188966122042
1.176227250862978
1.176275986480236
1.176335174597448
1.176394331038871
1.176459635743325
1.17652507048388
1.17659329579081
1.176657494986791
1.17672675381945
1.176766841551854
1.176798372551036
1.176820316853088
1.176831815495308
1.176833709064565
1.176837222908768
1.176831367833226
1.176818554861161
1.176806434998942
1.176789113720575
1.176763604937324
1.176738409128973
1.17670846110736
1.176667246965533
1.176620781360372
1.17657082528863
1.176512494647069
1.176451274413342
1.176383253578718
1.176314427600847
1.176248103990986
1.176183639807465
1.176111486346623
1.176077796004469
1.17604645867102
1.176030439358363
1.17602285881252
1.176021691467193
1.176027264837073
1.176036018712018
1.17604848346655
1.176062387817721
1.176080391217272
1.176100803935689
1.176123227165128
1.176151325456213
1.176183821877111
1.176223156634388
1.176266541794717
1.176316093883813
1.176373552689433
1.176435658263434
1.176500953433921
1.176565837483082
1.176628781865088
1.176696799558927
1.176751459614916
1.176785696947196
1.176816840667923
1.176830529523443
1.176839312970517
1.176845043121293
1.176840654106929
1.176832257427976
1.176817629409572
1.176800988997035
1.176773800935282
1.176748647932455
1.176718906389262
1.176680984091907
1.176637281723411
1.176590470802944
1.176539013292762
1.176476436522971
1.176416266902095
1.176350324018755
1.176279546840501
1.176214792282794
1.17615475375292
1.176091787058948
1.176060844879801
1.176039493968014
1.176024498927019
1.176018782791721
1.176022324499341
1.176029080385582
1.176039453098181
1.176054995524824
1.176072551551481
1.176094753527062
1.176122090291777
1.176146519698681
1.176177105076115
1.176215338388584
1.176252672954299
1.17629983920981
1.176351651034628
1.176407724511008
1.176471859979965
1.176532598858214
1.176597790594789
1.176660953647016
1.17672850522037
1.176767236267016
1.176800940021189
1.176822303558443
1.176835625431736
1.176839113572
1.17684110532178
1.176836516002498
1.176822678122363
1.176806339754126
1.176787245395036
1.176756463977114
1.176725254855097
1.17669296546478
1.176650786411916
1.17660929311809
1.176557045986444
1.176502794507875
1.176446554502853
1.176382448492545
1.176319693813138
1.176257160699232
1.176192836161536
1.176123242783375
1.176087790982694
1.176057777647677
1.176038607965503
1.176027829115898
1.176023133896973
1.176029515400486
1.176035916990869
1.176049278145618
1.176069668313835
1.176087636894938
1.176114813940417
1.176144394517856
1.176172547021506
1.17620995955519
1.176248702226057
1.176289624234154
1.176336167367031
1.176388870976464
1.176445842786648
1.176505401546315
1.176568563792643
1.176629845392168
1.17669117160179
1.17674971546034
1.176787011409198
1.17681269691305
1.176830440514408
1.176839596459523
1.17684369972789
1.176841638764565
1.176834053016157
1.176815161505254
1.176797201792553
1.176771415689995
1.176735932163528
1.176703552547954
1.176663427915724
1.176616256263608
1.17656809904243
1.176517070923726
1.176459104130109
1.176399763487282
1.176338219003287
1.176275476823815
1.176213949727652
1.176155062766126
1.176096156198764
1.176065943285909
1.176043265041634
1.176026251432055
1.176020443719972
1.176022563894089
1.176029009672337
1.176036167016236
1.176053536029437
1.1760757389892
1.176098300766421
1.176131483144865
1.176162318604919
1.176196080703595
1.176236127650919
1.176275954544657
1.176320830311732
1.176368414398084
1.176419961358609
1.176477270651585
1.176534327644377
1.176593710970626
1.176653703867575
1.176719751882355
1.176756985802413
1.176795240521423
1.176816324988836
1.176830596955678
1.17683712536777
1.176840246570911
1.17683422580971
1.176822016463388
1.176805018553208
1.176781158213566
1.176749041634557
1.176714779102023
1.176678216202541
1.176633759564429
1.176587163263746
1.176534090131605
1.176478814782445
1.176422910784831
1.176361810900229
1.176299788350504
1.176239386737099
1.176175650765236
1.176122281468903
1.176070153531757
1.176048742663115
1.176028552982885
1.176013502106155
1.1760122822216
1.176015996981633
1.176023915997282
1.176035649289725
1.17605609951558
1.176077340668063
1.176105461406557
1.176140894645993
1.176172749645046
1.176213357232196
1.176258442921867
1.176298951256376
1.17634761239349
1.176400039781997
1.17644709702453
1.176500915310523
1.176563172329985
1.1766109529723
1.176669671394732
1.176728347572346
1.176762864896154
1.176790843265321
1.176813533337502
1.176823740866697
1.176832617672347
1.176830295617865
1.176817771264699
1.176808490296332
1.176785796131721
1.176753115123957
1.176722896663694
1.176683184669927
1.176639047306162
1.176592544045551
1.176539020431103
1.176486806523495
1.176431434679305
1.176368174334358
1.176312752096684
1.176251676284807
1.17619081468738
1.176136943830638
1.176077628393154
1.176049761059065
1.176028360343153
1.176005334284398
1.176001202815929
1.176003191641587
1.17601143177604
1.176016211851608
1.176032914484303
1.176056049993829
1.176078932594352
1.176110894166235
1.176142524321756
1.176182552790354
1.176223458856626
1.176267563326017
1.176318040431981
1.176363993362269
1.176420187516353
1.176471277775476
1.176520910152596
1.176579718565434
1.176635623013253
1.176684744404229
1.176733547759303
1.176765085610243
1.176791742162453
1.176810349982648
1.176823670619862
1.17682626363477
1.176822272831087
1.176813876091836
1.176790493168526
1.176772212734766
1.176737143651304
1.176696114040219
1.176656665241844
1.176610523325993
1.176558270581953
1.176502194230574
1.176448927176647
1.176391781581082
1.176331443742361
1.176275789356906
1.176214711569174
1.176155307107315
1.17611036188251
1.176056138391862
1.176037470311652
1.176015389255343
1.176001847028206
1.176000528734394
1.176006103336332
1.176015682897995
1.176026199155052
1.176048388301408
1.176071662576038
1.176097821987619
1.17613511919878
1.176168538158744
1.176207476067971
1.176254390742683
1.176297281321127
1.176346800989224
1.176398810720608
1.176452528546427
1.176508141997765
1.176557304979159
1.176609023857598
1.176660472741201
1.176707854352034
1.17673980758987
1.176769343681622
1.176781639124797
1.176803721221347
1.176811571713527
1.176808113243259
1.176810862058518
1.176795743684666
1.176772384232233
1.176750968793514
1.176710540385704
1.176664927874856
1.176625432246878
1.176572937072994
1.176513184656013
1.176461971881171
1.176401618329226
1.176341923986008
1.17628711349888
1.176222881311463
1.176169107088991
1.176116690092569
1.176065117365244
1.176032359552461
1.176005734833323
1.17599607089963
1.175983008936726
1.175982581043736
1.175992135231657
1.176005909533125
1.176019260810395
1.176040730431048
1.176070533708886
1.176097749931749
1.176133372767587
1.176174078837034
1.176214955456324
1.176261000396122
1.176309074311132
1.176358439774205
1.176408978368833
1.176464570428742
1.17651707710765
1.176569308717666
1.176626042133797
1.176670528083493
1.176717707965707
1.176739507401449
1.17676368921288
1.176777248753262
1.176787745066853
1.176788385895671
1.176789872935518
1.176788029594363
1.176774599693335
1.176754755370804
1.17672630159854
1.176684331648534
1.176644657448554
1.176589901141001
1.176534243133601
1.176475261510898
1.176410204913798
1.176352640850339
1.17629325222629
1.176230809986141
1.176180821337896
1.176124117986941
1.176073994823014
1.176029729627993
1.176006587784032
1.17598618091492
1.175966135573629
1.17596744978814
1.175971868616978
1.175984653435206
1.175997381057556
1.176018447557857
1.176049276084519
1.17607490545067
1.176109561078604
1.176154887135489
1.176189022194264
1.176229383123982
1.176282499670286
1.176313150088081
1.176350236547497
1.17643814711736
)
;

boundaryField
{
    inlet
    {
        type            calculated;
        value           uniform 1.176271021779363;
    }
    outlet
    {
        type            calculated;
        value           uniform 1.176443585910637;
    }
    frontAndBack
    {
        type            empty;
    }
}


// ************************************************************************* //
