/*--------------------------------*- C++ -*----------------------------------*\
| =========                 |                                                 |
| \\      /  F ield         | OpenFOAM: The Open Source CFD Toolbox           |
|  \\    /   O peration     | Version:  v2012                                 |
|   \\  /    A nd           | Website:  www.openfoam.com                      |
|    \\/     M anipulation  |                                                 |
\*---------------------------------------------------------------------------*/
FoamFile
{
    version     2.0;
    format      ascii;
    class       volVectorField;
    location    "0.011";
    object      U;
}
// * * * * * * * * * * * * * * * * * * * * * * * * * * * * * * * * * * * * * //

dimensions      [0 1 -1 0 0 0 0];


internalField   nonuniform List<vector> 
1000
(
(-0.02046683557027663 0 0)
(-0.0486515109352777 0 0)
(-0.04832788555110855 0 0)
(-0.07466653904068175 0 0)
(-0.08190607964991566 0 0)
(-0.09392906117247805 0 0)
(-0.1052722673483185 0 0)
(-0.1061585743677758 0 0)
(-0.1186574853828784 0 0)
(-0.1194857854404955 0 0)
(-0.1188814277084247 0 0)
(-0.1187841191357351 0 0)
(-0.1157909179096352 0 0)
(-0.1117262415180335 0 0)
(-0.1074391470724648 0 0)
(-0.09522838926804224 0 0)
(-0.08702441376561328 0 0)
(-0.07369463469025724 0 0)
(-0.05806644953091212 0 0)
(-0.04566315665616327 0 0)
(-0.02909435813288648 0 0)
(-0.01328539079274155 0 0)
(0.002941379086001897 0 0)
(0.01956885311829196 0 0)
(0.03507867526750697 0 0)
(0.05114298405133187 0 0)
(0.06536918950193464 0 0)
(0.07858088261377394 0 0)
(0.09114221652265796 0 0)
(0.1012549785851614 0 0)
(0.1142093577566121 0 0)
(0.1172942408366447 0 0)
(0.117088543028014 0 0)
(0.1169093125260769 0 0)
(0.1168118411085607 0 0)
(0.1126890826374113 0 0)
(0.1113151786936331 0 0)
(0.1071069980805726 0 0)
(0.09646150137807757 0 0)
(0.09144373181661138 0 0)
(0.07799100287003054 0 0)
(0.06339274769479243 0 0)
(0.05085080857897518 0 0)
(0.03236224519582751 0 0)
(0.01701223117183794 0 0)
(0.0005575256213972401 0 0)
(-0.01645582251027504 0 0)
(-0.03181647157824941 0 0)
(-0.04774227401940455 0 0)
(-0.0626351614724948 0 0)
(-0.0766066916654634 0 0)
(-0.08952525492264479 0 0)
(-0.1021647976603202 0 0)
(-0.1149980065533712 0 0)
(-0.1161640797488007 0 0)
(-0.1158969864218923 0 0)
(-0.1158590232909823 0 0)
(-0.1146513982563967 0 0)
(-0.1116509161328648 0 0)
(-0.1109789107826108 0 0)
(-0.1043804046157404 0 0)
(-0.09746979944458729 0 0)
(-0.09346006761424593 0 0)
(-0.07855023246380639 0 0)
(-0.06815306120478079 0 0)
(-0.0557213866106428 0 0)
(-0.03663026635661578 0 0)
(-0.02268400638618186 0 0)
(-0.004539503079053167 0 0)
(0.01283456565599117 0 0)
(0.02846826187660271 0 0)
(0.04515345434928598 0 0)
(0.0595979563111555 0 0)
(0.07394102969549438 0 0)
(0.08709256145505534 0 0)
(0.1019467273004017 0 0)
(0.1142587528456966 0 0)
(0.1146400233066187 0 0)
(0.1145943886186319 0 0)
(0.1146831683463618 0 0)
(0.1125321525206705 0 0)
(0.1123104203927544 0 0)
(0.1087571953660858 0 0)
(0.1037152295437253 0 0)
(0.1009987901906356 0 0)
(0.0907266459173655 0 0)
(0.0826114361269786 0 0)
(0.07284081699058691 0 0)
(0.05670167752842568 0 0)
(0.04442011935844917 0 0)
(0.02704870649701175 0 0)
(0.009437161409725402 0 0)
(-0.007075015553965092 0 0)
(-0.02560142560031417 0 0)
(-0.04189161861519282 0 0)
(-0.05804829974290707 0 0)
(-0.07340000917650961 0 0)
(-0.08640150468329104 0 0)
(-0.1038455807424665 0 0)
(-0.1130577665685096 0 0)
(-0.1133848781575309 0 0)
(-0.1137407164731122 0 0)
(-0.1125747714036627 0 0)
(-0.1122270822598903 0 0)
(-0.1107742458857727 0 0)
(-0.1070392952255032 0 0)
(-0.1050807778661378 0 0)
(-0.09851274744304019 0 0)
(-0.09168112950710886 0 0)
(-0.08482751076555556 0 0)
(-0.07197045635829752 0 0)
(-0.06153039156267271 0 0)
(-0.04705386844110857 0 0)
(-0.03065313545268899 0 0)
(-0.01544084050902676 0 0)
(0.003216071395031833 0 0)
(0.02024724035384803 0 0)
(0.03758418475423393 0 0)
(0.05472564609192167 0 0)
(0.07020717632877464 0 0)
(0.08459837206462106 0 0)
(0.1017490032579592 0 0)
(0.1123548776644825 0 0)
(0.1126977287875948 0 0)
(0.1123605584985669 0 0)
(0.1123485693937086 0 0)
(0.1114202203407945 0 0)
(0.1092133374433448 0 0)
(0.1087030261691157 0 0)
(0.1036098508402932 0 0)
(0.09864641946173458 0 0)
(0.09482788857179494 0 0)
(0.08358552071980668 0 0)
(0.07588065900549994 0 0)
(0.0646305227624132 0 0)
(0.04929961192883609 0 0)
(0.03656890768681233 0 0)
(0.01900843434246418 0 0)
(0.002016774294656803 0 0)
(-0.01539930516794204 0 0)
(-0.03411178070438921 0 0)
(-0.0509960800268641 0 0)
(-0.06860064263210652 0 0)
(-0.08394262660228159 0 0)
(-0.1040060429622701 0 0)
(-0.1118395086486478 0 0)
(-0.1119728527060926 0 0)
(-0.1116224237055729 0 0)
(-0.1115071438937747 0 0)
(-0.1105246438101183 0 0)
(-0.1086403912134603 0 0)
(-0.1075351641764505 0 0)
(-0.1030801352881773 0 0)
(-0.09913909991115348 0 0)
(-0.09355409651080809 0 0)
(-0.08495847597507095 0 0)
(-0.07712030364639275 0 0)
(-0.06502172043275499 0 0)
(-0.05303320081306207 0 0)
(-0.03875446889808461 0 0)
(-0.02226525755608146 0 0)
(-0.006754546096631437 0 0)
(0.01184994074663869 0 0)
(0.0291307598953796 0 0)
(0.04648524709030886 0 0)
(0.06473962696859203 0 0)
(0.07971195056678092 0 0)
(0.1004631543680395 0 0)
(0.1109207274568667 0 0)
(0.1110141554197887 0 0)
(0.1111710260389801 0 0)
(0.1104316724383842 0 0)
(0.1101363271160911 0 0)
(0.108725986220414 0 0)
(0.105510335029029 0 0)
(0.1047929852135771 0 0)
(0.09917141655407416 0 0)
(0.09303907839384438 0 0)
(0.0885969352071582 0 0)
(0.07703992475443253 0 0)
(0.06843572978705287 0 0)
(0.05716418855686897 0 0)
(0.04094297736562954 0 0)
(0.02821878195204519 0 0)
(0.0108169635194596 0 0)
(-0.007342322488967196 0 0)
(-0.02427950979667247 0 0)
(-0.04357280668166649 0 0)
(-0.06187828033877769 0 0)
(-0.07862745538599493 0 0)
(-0.1018859856954003 0 0)
(-0.1105548356238577 0 0)
(-0.1105644370415236 0 0)
(-0.1104224309314881 0 0)
(-0.1104286892578949 0 0)
(-0.1087825501344976 0 0)
(-0.1082583556330749 0 0)
(-0.1066168323353902 0 0)
(-0.1019723023606073 0 0)
(-0.1000278672894536 0 0)
(-0.09386257016373105 0 0)
(-0.0861538406721447 0 0)
(-0.07993291444529803 0 0)
(-0.06816731980756066 0 0)
(-0.05737227809764125 0 0)
(-0.04490737905336915 0 0)
(-0.02922688371182349 0 0)
(-0.01437659296757623 0 0)
(0.002881662048553391 0 0)
(0.02069305494163792 0 0)
(0.03844296931144305 0 0)
(0.0570975451193592 0 0)
(0.07390529196066095 0 0)
(0.09630946724649633 0 0)
(0.109346639325092 0 0)
(0.1096059210996304 0 0)
(0.1098739480432602 0 0)
(0.1092923789500551 0 0)
(0.1086393997680575 0 0)
(0.108114705291146 0 0)
(0.1050400436927141 0 0)
(0.1034452730745736 0 0)
(0.09981462325932751 0 0)
(0.0933002407128297 0 0)
(0.08964379749559748 0 0)
(0.08032664830725096 0 0)
(0.07063450876765869 0 0)
(0.06193964959218719 0 0)
(0.04675653673517242 0 0)
(0.03386859364269435 0 0)
(0.01868615549128746 0 0)
(0.0003485426630266942 0 0)
(-0.01626116760673003 0 0)
(-0.03539107517611212 0 0)
(-0.05474713610487616 0 0)
(-0.07202788170708491 0 0)
(-0.09699266289023079 0 0)
(-0.1086961619211773 0 0)
(-0.1089819536338766 0 0)
(-0.109270757313864 0 0)
(-0.1084179108280082 0 0)
(-0.108110637426695 0 0)
(-0.1072183064263371 0 0)
(-0.1043284982874117 0 0)
(-0.1031435127231186 0 0)
(-0.09869445535819034 0 0)
(-0.09330820270664608 0 0)
(-0.08947785235104322 0 0)
(-0.07970404604025054 0 0)
(-0.07170564579370906 0 0)
(-0.06247780552861397 0 0)
(-0.04797763390678083 0 0)
(-0.03641095516632629 0 0)
(-0.02105146625516152 0 0)
(-0.003922136026374172 0 0)
(0.0120100875973882 0 0)
(0.03104073075322504 0 0)
(0.04927348407771465 0 0)
(0.06709582176018095 0 0)
(0.08844453840387076 0 0)
(0.1072334702064234 0 0)
(0.1083382122850049 0 0)
(0.1084531138952083 0 0)
(0.1079539383278841 0 0)
(0.1077702928912496 0 0)
(0.1064858634676477 0 0)
(0.1045661545030771 0 0)
(0.1031083802516044 0 0)
(0.09882145545102318 0 0)
(0.09486917724667467 0 0)
(0.09007730394047692 0 0)
(0.08144442588307214 0 0)
(0.07478659442384136 0 0)
(0.06386971824284161 0 0)
(0.05201664523204239 0 0)
(0.04015440982896441 0 0)
(0.02361005745822433 0 0)
(0.008713567087076733 0 0)
(-0.008762545035075297 0 0)
(-0.02811746043969277 0 0)
(-0.04609335851394863 0 0)
(-0.065438362276264 0 0)
(-0.08823051480909086 0 0)
(-0.1065620352650856 0 0)
(-0.1077027251780217 0 0)
(-0.1077904424691522 0 0)
(-0.1072391857337845 0 0)
(-0.1069538542045345 0 0)
(-0.1065580323432447 0 0)
(-0.1035300129221675 0 0)
(-0.1025758643886859 0 0)
(-0.09929538979075289 0 0)
(-0.09345912253603809 0 0)
(-0.0902648273870791 0 0)
(-0.08186303163794273 0 0)
(-0.07378707771918112 0 0)
(-0.06530726702088983 0 0)
(-0.0524453106223101 0 0)
(-0.04129694291815842 0 0)
(-0.02637483359917612 0 0)
(-0.01083041532505092 0 0)
(0.004823976591176729 0 0)
(0.02379194551267156 0 0)
(0.04125806359670518 0 0)
(0.06010932110855466 0 0)
(0.07898602433925904 0 0)
(0.1030414833184468 0 0)
(0.1070660896773772 0 0)
(0.1072668688470093 0 0)
(0.107156957566398 0 0)
(0.1065199344045201 0 0)
(0.1055094785502016 0 0)
(0.1045885788647784 0 0)
(0.1016199482687378 0 0)
(0.09931387149581009 0 0)
(0.09537680797509016 0 0)
(0.08963138618483077 0 0)
(0.0842914109767867 0 0)
(0.07576113130554167 0 0)
(0.06696570428356657 0 0)
(0.0564585414514238 0 0)
(0.04357155472076375 0 0)
(0.03032467011505291 0 0)
(0.01469959647847819 0 0)
(-0.001969884489353915 0 0)
(-0.01981921220093833 0 0)
(-0.03863190968803656 0 0)
(-0.0579490408434201 0 0)
(-0.07763358136074641 0 0)
(-0.1025934542777089 0 0)
(-0.1064521302519024 0 0)
(-0.1064329229476592 0 0)
(-0.1062327549640436 0 0)
(-0.1057237215046085 0 0)
(-0.1055385658876997 0 0)
(-0.1028371068218702 0 0)
(-0.10174798655229 0 0)
(-0.09911288707847912 0 0)
(-0.09352184141900641 0 0)
(-0.09082858284890602 0 0)
(-0.0835130945841055 0 0)
(-0.07536244751450301 0 0)
(-0.06840163656480672 0 0)
(-0.05615029072795995 0 0)
(-0.04520347197213418 0 0)
(-0.03225360614324752 0 0)
(-0.01653932483845031 0 0)
(-0.00163203248470194 0 0)
(0.01612570924963638 0 0)
(0.03386239909731332 0 0)
(0.05255237142759556 0 0)
(0.07064251818856926 0 0)
(0.09519361770512522 0 0)
(0.1054820285639993 0 0)
(0.1054733555330567 0 0)
(0.1055889882666192 0 0)
(0.1052537400562036 0 0)
(0.1038425950906817 0 0)
(0.1038716489522607 0 0)
(0.1014339784266181 0 0)
(0.09819148220317443 0 0)
(0.09631087079346469 0 0)
(0.09001203562081207 0 0)
(0.08512133285157419 0 0)
(0.07881373192406992 0 0)
(0.06838219352354641 0 0)
(0.06040895171121837 0 0)
(0.04806816285923106 0 0)
(0.03459861585767861 0 0)
(0.02129783979265761 0 0)
(0.004204104459300276 0 0)
(-0.01247442136680618 0 0)
(-0.03058311602524563 0 0)
(-0.05053433156322919 0 0)
(-0.06814090628380959 0 0)
(-0.09464704237605255 0 0)
(-0.1049161099015299 0 0)
(-0.105226929997296 0 0)
(-0.1053957332187116 0 0)
(-0.1046422291049154 0 0)
(-0.1043658928394431 0 0)
(-0.1031900202036284 0 0)
(-0.1010085034293079 0 0)
(-0.098818629633929 0 0)
(-0.09517478472001689 0 0)
(-0.09082346928583195 0 0)
(-0.08424584168586473 0 0)
(-0.07850660788581007 0 0)
(-0.06966327060135651 0 0)
(-0.05888252500212647 0 0)
(-0.04975670292475169 0 0)
(-0.03546194012436368 0 0)
(-0.02184462427009866 0 0)
(-0.007730345094630835 0 0)
(0.01022817903138807 0 0)
(0.02663038163686765 0 0)
(0.04492346889534102 0 0)
(0.06342764862403133 0 0)
(0.08524509264194134 0 0)
(0.1029437705236407 0 0)
(0.1042278525909676 0 0)
(0.1041381413545907 0 0)
(0.1036717954540701 0 0)
(0.1037984806903091 0 0)
(0.1018490195774081 0 0)
(0.1007972072258321 0 0)
(0.09903777999172921 0 0)
(0.094212789221995 0 0)
(0.09203010458283158 0 0)
(0.086027271411867 0 0)
(0.07912681698245605 0 0)
(0.07323013180815212 0 0)
(0.06230649131822672 0 0)
(0.05219375994943356 0 0)
(0.04016474570403079 0 0)
(0.02532703169547502 0 0)
(0.01084794030794928 0 0)
(-0.006493597145910667 0 0)
(-0.02432585615590968 0 0)
(-0.04275354657321442 0 0)
(-0.0620441569502078 0 0)
(-0.08305450710911642 0 0)
(-0.1026536284796754 0 0)
(-0.1040842767775162 0 0)
(-0.1037187185472773 0 0)
(-0.1025743777826522 0 0)
(-0.1023774733366409 0 0)
(-0.1009140439904705 0 0)
(-0.09891452472089469 0 0)
(-0.09806605606289048 0 0)
(-0.09437877283742183 0 0)
(-0.09034522115987399 0 0)
(-0.08742980979772404 0 0)
(-0.07949656703147451 0 0)
(-0.07294173465254866 0 0)
(-0.06515146708940357 0 0)
(-0.05262536579744976 0 0)
(-0.04233638440322117 0 0)
(-0.02833375229866372 0 0)
(-0.01264369942725103 0 0)
(0.002639827748962044 0 0)
(0.02084291701767458 0 0)
(0.03819354401640049 0 0)
(0.05707439028318851 0 0)
(0.07463185008379607 0 0)
(0.09827928571799874 0 0)
(0.1051361781072152 0 0)
(0.1051185770262539 0 0)
(0.1038461541767406 0 0)
(0.1035047664047469 0 0)
(0.1021788548611129 0 0)
(0.09988593678352577 0 0)
(0.09741130896044896 0 0)
(0.09416758086934335 0 0)
(0.09046539672481656 0 0)
(0.08473477407444609 0 0)
(0.07816555173209182 0 0)
(0.07077623837935183 0 0)
(0.06097792060877187 0 0)
(0.05104669240543397 0 0)
(0.03958490827148511 0 0)
(0.02567851158617323 0 0)
(0.0128199714516605 0 0)
(-0.002428693983866985 0 0)
(-0.01799671520101429 0 0)
(-0.03385038470731825 0 0)
(-0.05100188549700047 0 0)
(-0.0671864120993535 0 0)
(-0.08585921058976514 0 0)
(-0.09291828895236028 0 0)
(-0.09317388488694969 0 0)
(-0.09008564703463665 0 0)
(-0.0863724191244184 0 0)
(-0.08268004398407296 0 0)
(-0.07864195234337414 0 0)
(-0.07476741112656304 0 0)
(-0.07021152470578677 0 0)
(-0.064690233586785 0 0)
(-0.05951913865694986 0 0)
(-0.05261996888278114 0 0)
(-0.04358805837292524 0 0)
(-0.03556451432283202 0 0)
(-0.02498799410537527 0 0)
(-0.01331871646568023 0 0)
(-0.002591115227298533 0 0)
(0.01084534963665503 0 0)
(0.02476487302030405 0 0)
(0.03719794416009323 0 0)
(0.05163479155157557 0 0)
(0.06625350880802545 0 0)
(0.076710098502226 0 0)
(0.09192375499822129 0 0)
(0.1017791951455253 0 0)
(0.1020438234103109 0 0)
(0.09898966556237014 0 0)
(0.09316738333351778 0 0)
(0.08625517863393489 0 0)
(0.07965637789092518 0 0)
(0.0736600435009899 0 0)
(0.0668992513233195 0 0)
(0.0608482029063321 0 0)
(0.05509952756077121 0 0)
(0.04834375938624453 0 0)
(0.04139582604415744 0 0)
(0.03402548861371552 0 0)
(0.02422538116673917 0 0)
(0.01515479722685177 0 0)
(0.004417059740503197 0 0)
(-0.009048641549587287 0 0)
(-0.01997292911764846 0 0)
(-0.03409998998921487 0 0)
(-0.04869862372849505 0 0)
(-0.06166833301495648 0 0)
(-0.07588673348988739 0 0)
(-0.09122115327122744 0 0)
(-0.1018192545815932 0 0)
(-0.1045974025602112 0 0)
(-0.1039255468277248 0 0)
(-0.1000639059524517 0 0)
(-0.09492589288010651 0 0)
(-0.08878857501982126 0 0)
(-0.08273045519237218 0 0)
(-0.07648615532204783 0 0)
(-0.0702527192738493 0 0)
(-0.06418268793340982 0 0)
(-0.05759423410569448 0 0)
(-0.04999603021314411 0 0)
(-0.04191787000184628 0 0)
(-0.03261650063404289 0 0)
(-0.02077034575216238 0 0)
(-0.00816400050295733 0 0)
(0.002750661240083259 0 0)
(0.01624382424253462 0 0)
(0.0314735418593162 0 0)
(0.04447541507595507 0 0)
(0.05701632388006049 0 0)
(0.07193638204166548 0 0)
(0.08248298303325786 0 0)
(0.09439090282589015 0 0)
(0.09969173891823215 0 0)
(0.1000014529471867 0 0)
(0.09622594581854101 0 0)
(0.08968507805776581 0 0)
(0.08314659049736815 0 0)
(0.07628568530183863 0 0)
(0.06848780050019655 0 0)
(0.06176419979340917 0 0)
(0.05478921776984354 0 0)
(0.04718572081948463 0 0)
(0.04105937474959755 0 0)
(0.03508604354160161 0 0)
(0.02678073506386974 0 0)
(0.01809037467786897 0 0)
(0.00686559583582064 0 0)
(-0.004103072007053538 0 0)
(-0.01612016216628611 0 0)
(-0.03011635901055265 0 0)
(-0.04243445493559082 0 0)
(-0.05709781325710007 0 0)
(-0.07106121034242761 0 0)
(-0.08068051991392526 0 0)
(-0.09543816647587312 0 0)
(-0.1041017349553474 0 0)
(-0.1034215609133727 0 0)
(-0.1030683922010566 0 0)
(-0.09913919929936409 0 0)
(-0.09271609468832384 0 0)
(-0.08636301714247969 0 0)
(-0.07990802953831187 0 0)
(-0.07277096557732396 0 0)
(-0.06605417773655053 0 0)
(-0.05932229064863252 0 0)
(-0.05134698797435724 0 0)
(-0.04345040407701749 0 0)
(-0.03615844992273556 0 0)
(-0.02532338450565615 0 0)
(-0.0145686376420953 0 0)
(-0.003472803898678751 0 0)
(0.01032399607860959 0 0)
(0.02309462904854714 0 0)
(0.03674865395783625 0 0)
(0.05069369541477134 0 0)
(0.06346276045908665 0 0)
(0.07505974782402942 0 0)
(0.08597237119809173 0 0)
(0.09559656416212947 0 0)
(0.09802163112944999 0 0)
(0.09731295204628049 0 0)
(0.09267299701043254 0 0)
(0.08577330645076137 0 0)
(0.07885199709949751 0 0)
(0.07168739208329486 0 0)
(0.06460132782889109 0 0)
(0.05602446779909268 0 0)
(0.04803632137598695 0 0)
(0.04199140166689807 0 0)
(0.03416063859763029 0 0)
(0.02687355286460181 0 0)
(0.02054992413489182 0 0)
(0.01077263009373691 0 0)
(0.0003837313939237242 0 0)
(-0.01007687839833704 0 0)
(-0.02263125350718602 0 0)
(-0.03647114736155636 0 0)
(-0.04949310454530866 0 0)
(-0.0639652124694792 0 0)
(-0.07695904342328132 0 0)
(-0.08808471664171576 0 0)
(-0.09864905858415005 0 0)
(-0.1037357047196738 0 0)
(-0.1040557343271382 0 0)
(-0.10070098257395 0 0)
(-0.09649208115481886 0 0)
(-0.0903245383692565 0 0)
(-0.08307558768975434 0 0)
(-0.07614991296588984 0 0)
(-0.06834646876426234 0 0)
(-0.06163173099888117 0 0)
(-0.05403536227365517 0 0)
(-0.0448610179851049 0 0)
(-0.03766961013299031 0 0)
(-0.02926229642102203 0 0)
(-0.01936569783835169 0 0)
(-0.009139411268101591 0 0)
(0.002611386166329493 0 0)
(0.01549897043872113 0 0)
(0.02851474083859834 0 0)
(0.04167979029637212 0 0)
(0.05525122091126849 0 0)
(0.06708700850991042 0 0)
(0.07850884372748633 0 0)
(0.08746181993228358 0 0)
(0.09546951482405214 0 0)
(0.0960251373204959 0 0)
(0.09170682401562458 0 0)
(0.08916505557724898 0 0)
(0.08017764843182017 0 0)
(0.07364716862846329 0 0)
(0.065936646604496 0 0)
(0.05790565275203514 0 0)
(0.04906477439567436 0 0)
(0.04270365965271983 0 0)
(0.03328767246299952 0 0)
(0.02647430827075606 0 0)
(0.02045601686373654 0 0)
(0.01026146123760706 0 0)
(0.002555776146403139 0 0)
(-0.006561922560324847 0 0)
(-0.01968395035895241 0 0)
(-0.0306372004558161 0 0)
(-0.04282789331550502 0 0)
(-0.05755282880696624 0 0)
(-0.06997756713862235 0 0)
(-0.08184811473040077 0 0)
(-0.09434452888492806 0 0)
(-0.1020109741375508 0 0)
(-0.1033961289361117 0 0)
(-0.1022764740496528 0 0)
(-0.09897356327373708 0 0)
(-0.09263515250194716 0 0)
(-0.08589501840096433 0 0)
(-0.07857972438001508 0 0)
(-0.07107847048052213 0 0)
(-0.06316165928703255 0 0)
(-0.05541300068335917 0 0)
(-0.04746324836261489 0 0)
(-0.0385605819799874 0 0)
(-0.03027529324805742 0 0)
(-0.02173153680751881 0 0)
(-0.01159419537268916 0 0)
(-0.0002316425978229523 0 0)
(0.01043347930599883 0 0)
(0.0226801100927859 0 0)
(0.03622053439749769 0 0)
(0.04867613968733604 0 0)
(0.06183551262189593 0 0)
(0.07329583240547989 0 0)
(0.08323857350052279 0 0)
(0.09185782434374117 0 0)
(0.09541716240745417 0 0)
(0.09498122226097572 0 0)
(0.0902994653285502 0 0)
(0.08395004688319198 0 0)
(0.07703335341600584 0 0)
(0.06916626436296101 0 0)
(0.06094407764230707 0 0)
(0.05288104365044534 0 0)
(0.04367725599286944 0 0)
(0.03548318204787022 0 0)
(0.02829974419122991 0 0)
(0.01947732922649065 0 0)
(0.01223541373072518 0 0)
(0.004364427852552111 0 0)
(-0.006792453505587717 0 0)
(-0.01609548203266942 0 0)
(-0.02644912316226642 0 0)
(-0.03858185957976012 0 0)
(-0.05181476626917592 0 0)
(-0.06491799998579395 0 0)
(-0.07754659491274229 0 0)
(-0.08913763335244294 0 0)
(-0.09888621029206036 0 0)
(-0.1046433370708444 0 0)
(-0.105062502437441 0 0)
(-0.1014659659038026 0 0)
(-0.09765074680134098 0 0)
(-0.09077351206068118 0 0)
(-0.08248495549132774 0 0)
(-0.07553172586631368 0 0)
(-0.06757975349402928 0 0)
(-0.05852725277283681 0 0)
(-0.05075682367277676 0 0)
(-0.04154653855425376 0 0)
(-0.03290018331100087 0 0)
(-0.02515491744574763 0 0)
(-0.01499028533578051 0 0)
(-0.004866974042219198 0 0)
(0.005094525117496571 0 0)
(0.01757184901007372 0 0)
(0.02908430432814204 0 0)
(0.04114230433820279 0 0)
(0.054735995302382 0 0)
(0.06570798418279168 0 0)
(0.07662594163569382 0 0)
(0.0864017719436346 0 0)
(0.09385751748530491 0 0)
(0.09434281897293639 0 0)
(0.09127000544569473 0 0)
(0.08744777587516742 0 0)
(0.08000975558185515 0 0)
(0.07168568647643997 0 0)
(0.06390841096642814 0 0)
(0.05558085264603239 0 0)
(0.04608441252288883 0 0)
(0.03873612618245927 0 0)
(0.03002539681470325 0 0)
(0.02085015374823444 0 0)
(0.01364394611026353 0 0)
(0.005715900140613347 0 0)
(-0.002691318055551547 0 0)
(-0.01193179731789628 0 0)
(-0.02191372906717406 0 0)
(-0.03220845144569655 0 0)
(-0.04265028842128223 0 0)
(-0.05559826268687302 0 0)
(-0.06773796584716223 0 0)
(-0.07890260980222351 0 0)
(-0.09058859623739253 0 0)
(-0.09938008067657039 0 0)
(-0.1017918267484787 0 0)
(-0.1001759147035594 0 0)
(-0.09825125552755649 0 0)
(-0.09170176958094481 0 0)
(-0.08420224747440176 0 0)
(-0.0761556049684779 0 0)
(-0.06874713103448718 0 0)
(-0.06064447289303556 0 0)
(-0.05099157847163525 0 0)
(-0.04271861168553201 0 0)
(-0.03415509298549432 0 0)
(-0.02534290548479807 0 0)
(-0.01691493256265049 0 0)
(-0.007151474819930916 0 0)
(0.003166828595760271 0 0)
(0.01275347900362004 0 0)
(0.02417397683848862 0 0)
(0.0365901620233645 0 0)
(0.04790951971738544 0 0)
(0.06028539656195296 0 0)
(0.0716713323143318 0 0)
(0.08074254745224502 0 0)
(0.08913258861802827 0 0)
(0.09398637255511841 0 0)
(0.09399898741905005 0 0)
(0.089534775821319 0 0)
(0.08357740344928215 0 0)
(0.07681157465198071 0 0)
(0.06834856941824866 0 0)
(0.06023220533315865 0 0)
(0.05103285196001198 0 0)
(0.04091829867684377 0 0)
(0.03377232194875404 0 0)
(0.02411851352667652 0 0)
(0.01452689991094285 0 0)
(0.008545621434534726 0 0)
(-0.0009090578528519747 0 0)
(-0.01000420799393666 0 0)
(-0.01752377305454118 0 0)
(-0.02805245519196796 0 0)
(-0.03840715733228788 0 0)
(-0.04800481354125966 0 0)
(-0.06039098487685365 0 0)
(-0.07145544407039903 0 0)
(-0.07959304939678997 0 0)
(-0.09231803010617071 0 0)
(-0.09806503330509422 0 0)
(-0.09865146402685648 0 0)
(-0.09697406092627123 0 0)
(-0.09401842286594866 0 0)
(-0.08650231618502427 0 0)
(-0.078416301721235 0 0)
(-0.06949926441030704 0 0)
(-0.06113596665695881 0 0)
(-0.05191380708215149 0 0)
(-0.0417687810170195 0 0)
(-0.03327169370035752 0 0)
(-0.02419017091169007 0 0)
(-0.01504295017738528 0 0)
(-0.006860662784517635 0 0)
(0.002803140895130566 0 0)
(0.01260582149092933 0 0)
(0.02237956101524276 0 0)
(0.03313531472423451 0 0)
(0.04538474789595479 0 0)
(0.05726252767319463 0 0)
(0.06682324385801994 0 0)
(0.07906398858832615 0 0)
(0.08794265857643511 0 0)
(0.09452770654907117 0 0)
(0.09630684248608871 0 0)
(0.09574786647760285 0 0)
(0.08929478233041048 0 0)
(0.08283034354207154 0 0)
(0.07495249192164292 0 0)
(0.06641855583153589 0 0)
(0.05516649150646336 0 0)
(0.04762380907162955 0 0)
(0.03847967066342933 0 0)
(0.02795119387535101 0 0)
(0.02003896387859303 0 0)
(0.01113525785328429 0 0)
(0.003982073893526324 0 0)
(-0.003862624094013565 0 0)
(-0.01293328357372332 0 0)
(-0.02147197559617499 0 0)
(-0.03072446945919434 0 0)
(-0.04000368720200545 0 0)
(-0.05071071522763453 0 0)
(-0.0611493205017202 0 0)
(-0.07128824585016817 0 0)
(-0.0811354086155702 0 0)
(-0.08881788566241627 0 0)
(-0.09311570395100502 0 0)
(-0.09081125786470108 0 0)
(-0.09144179481146819 0 0)
(-0.0845737615814503 0 0)
(-0.07768820469443075 0 0)
(-0.06843483519166653 0 0)
(-0.06134137314853964 0 0)
(-0.05221796296905087 0 0)
(-0.04056017262173028 0 0)
(-0.03237285667163307 0 0)
(-0.02223519490780647 0 0)
(-0.01209547440015982 0 0)
(-0.004042351282240691 0 0)
(0.00606205498383888 0 0)
(0.01516738298778483 0 0)
(0.02300557289847612 0 0)
(0.03419379479131066 0 0)
(0.04317252872303226 0 0)
(0.05389713235255488 0 0)
(0.06616695741988549 0 0)
(0.0753396004412074 0 0)
(0.08394494682252227 0 0)
(0.09377639314220769 0 0)
(0.09776716049142516 0 0)
(0.09897995083804784 0 0)
(0.09384166563540634 0 0)
(0.08852635905590057 0 0)
(0.08129199458720847 0 0)
(0.07142902360122751 0 0)
(0.06134847933186176 0 0)
(0.05190303938823385 0 0)
(0.04071013219598967 0 0)
(0.03310284781693131 0 0)
(0.02278580933102412 0 0)
(0.01313696855206018 0 0)
(0.005840873603017089 0 0)
(-0.002397572985812705 0 0)
(-0.01069845113913421 0 0)
(-0.01824249361230952 0 0)
(-0.02734032340899406 0 0)
(-0.0366672438966952 0 0)
(-0.04528191107573749 0 0)
(-0.05579551071934836 0 0)
(-0.06546629256039903 0 0)
(-0.07280958382776866 0 0)
(-0.08427705739706889 0 0)
(-0.08883319373832932 0 0)
(-0.0910845095162493 0 0)
(-0.08885696376270094 0 0)
(-0.08710711423435472 0 0)
(-0.08079586966149023 0 0)
(-0.07368596474285877 0 0)
(-0.06492310673947761 0 0)
(-0.05643601533660444 0 0)
(-0.04678856282684048 0 0)
(-0.03658002943243723 0 0)
(-0.02550692172432189 0 0)
(-0.01585726936426621 0 0)
(-0.006789103215976731 0 0)
(0.003583178573251228 0 0)
(0.01225358318588858 0 0)
(0.02182326218259858 0 0)
(0.0309478867802961 0 0)
(0.03933953749675585 0 0)
(0.04895334201667868 0 0)
(0.05855708279235682 0 0)
(0.06899929913707546 0 0)
(0.07884375421487481 0 0)
(0.08649078442485178 0 0)
(0.09526711844914726 0 0)
(0.09891197622389994 0 0)
(0.09768988528058843 0 0)
(0.09432525709905429 0 0)
(0.08753033788259473 0 0)
(0.0800710488889238 0 0)
(0.06829210105938843 0 0)
(0.05903262347754701 0 0)
(0.04783794958201573 0 0)
(0.03653947509659114 0 0)
(0.02821464098505409 0 0)
(0.01769589321141586 0 0)
(0.009113058420741301 0 0)
(0.001908837389514131 0 0)
(-0.00717946704272601 0 0)
(-0.01347807645825429 0 0)
(-0.0221000242922331 0 0)
(-0.03028954897551332 0 0)
(-0.03772052012721021 0 0)
(-0.0475627305012442 0 0)
(-0.05529522275423175 0 0)
(-0.06375252989626497 0 0)
(-0.07200354281318916 0 0)
(-0.07996900365230185 0 0)
(-0.08261722768694089 0 0)
(-0.08209766291750652 0 0)
(-0.08186694238945071 0 0)
(-0.07755490329028998 0 0)
(-0.07167611439264426 0 0)
(-0.06306076149834663 0 0)
(-0.05424976659415623 0 0)
(-0.04506079448496241 0 0)
(-0.03512077494899435 0 0)
(-0.02417397623121037 0 0)
(-0.01373387973685699 0 0)
(-0.003208917059131692 0 0)
(0.006713193238549952 0 0)
(0.01641129557816057 0 0)
(0.02517579697673534 0 0)
(0.03380258701678636 0 0)
(0.04298170168076323 0 0)
(0.05206237147493425 0 0)
(0.06005072804798932 0 0)
(0.06967190714723476 0 0)
(0.07841805464068978 0 0)
(0.08431323451837439 0 0)
(0.09345459709360163 0 0)
(0.09837190602346518 0 0)
(0.09956728155124915 0 0)
(0.09818158371690822 0 0)
(0.09465477472153802 0 0)
(0.08895571213819446 0 0)
(0.07916759514690624 0 0)
(0.0683391758636034 0 0)
(0.05761675929150836 0 0)
(0.04552746244691191 0 0)
(0.03210911398246088 0 0)
(0.02201845995199384 0 0)
(0.01197979698878505 0 0)
(0.003010188834040692 0 0)
(-0.003408085029173239 0 0)
(-0.01060572760739534 0 0)
(-0.01789993488674563 0 0)
(-0.02383099489186339 0 0)
(-0.03168013921976808 0 0)
(-0.03917905664127912 0 0)
(-0.04592570980453629 0 0)
(-0.05607565352864812 0 0)
(-0.06328488838614238 0 0)
(-0.06999937381513015 0 0)
(-0.07464946502444537 0 0)
(-0.07709786938073314 0 0)
(-0.07392688852225264 0 0)
(-0.07440295472543446 0 0)
(-0.06807841769482283 0 0)
(-0.06127987447704081 0 0)
(-0.05288380061411898 0 0)
(-0.04415126042735834 0 0)
(-0.03459607065317277 0 0)
(-0.02492131680268687 0 0)
(-0.01280001690262145 0 0)
(-0.002983938300215706 0 0)
(0.006559456208882629 0 0)
(0.0185352559831635 0 0)
(0.028416149090372 0 0)
(0.03426553977871048 0 0)
(0.04638165396705152 0 0)
(0.05350298304480584 0 0)
(0.06615190915478743 0 0)
)
;

boundaryField
{
    inlet
    {
        type            zeroGradient;
    }
    outlet
    {
        type            pressureInletOutletVelocity;
        value           uniform (0.06615190915478743 0 0);
    }
    frontAndBack
    {
        type            empty;
    }
}


// ************************************************************************* //
