/*--------------------------------*- C++ -*----------------------------------*\
| =========                 |                                                 |
| \\      /  F ield         | OpenFOAM: The Open Source CFD Toolbox           |
|  \\    /   O peration     | Version:  v2012                                 |
|   \\  /    A nd           | Website:  www.openfoam.com                      |
|    \\/     M anipulation  |                                                 |
\*---------------------------------------------------------------------------*/
FoamFile
{
    version     2.0;
    format      ascii;
    class       volVectorField;
    location    "0.016";
    object      U;
}
// * * * * * * * * * * * * * * * * * * * * * * * * * * * * * * * * * * * * * //

dimensions      [0 1 -1 0 0 0 0];


internalField   nonuniform List<vector> 
1000
(
(-0.07069319717861867 0 0)
(-0.09740179684532765 0 0)
(-0.09729826119807278 0 0)
(-0.1203706874562325 0 0)
(-0.1212906917594538 0 0)
(-0.1302618462098474 0 0)
(-0.1408741026365242 0 0)
(-0.1401873847116119 0 0)
(-0.1412854357304962 0 0)
(-0.1404893163944672 0 0)
(-0.1375617647253836 0 0)
(-0.1309413699202977 0 0)
(-0.1219844009417795 0 0)
(-0.1134733102382139 0 0)
(-0.1020731520906915 0 0)
(-0.08395712346245957 0 0)
(-0.07425640567939647 0 0)
(-0.0544746902049225 0 0)
(-0.0349979094299153 0 0)
(-0.02095819881445795 0 0)
(-0.001445801130985204 0 0)
(0.01675546132394148 0 0)
(0.03345738699687761 0 0)
(0.04947995574434143 0 0)
(0.06583696194883114 0 0)
(0.08070621307223555 0 0)
(0.09050745190224185 0 0)
(0.1025571325631872 0 0)
(0.1106425437240379 0 0)
(0.1158186621531876 0 0)
(0.1192572008017857 0 0)
(0.1183067627005439 0 0)
(0.1184814052412072 0 0)
(0.1136059282014262 0 0)
(0.1082095718749075 0 0)
(0.1007334936265966 0 0)
(0.09266830260393631 0 0)
(0.08409469804502043 0 0)
(0.07098958509618851 0 0)
(0.05774742089692447 0 0)
(0.04278711292784226 0 0)
(0.02414234271510825 0 0)
(0.007821402728728805 0 0)
(-0.009857294586695332 0 0)
(-0.02786671789689487 0 0)
(-0.04447665946885784 0 0)
(-0.06146009453697295 0 0)
(-0.07709985008907171 0 0)
(-0.09183745019822533 0 0)
(-0.1056681608864321 0 0)
(-0.11767263939427 0 0)
(-0.126384114010396 0 0)
(-0.1354663104379515 0 0)
(-0.1399172013929731 0 0)
(-0.1400850984316321 0 0)
(-0.1384121910326629 0 0)
(-0.1349618843507529 0 0)
(-0.1286614884805831 0 0)
(-0.1217007641426461 0 0)
(-0.1136343642284114 0 0)
(-0.1031579529347408 0 0)
(-0.09199430869392641 0 0)
(-0.07884913655260693 0 0)
(-0.06205913573981447 0 0)
(-0.04649125191246057 0 0)
(-0.02767617893117117 0 0)
(-0.009836623340841828 0 0)
(0.008429415761087055 0 0)
(0.02746232253737455 0 0)
(0.04354258969770475 0 0)
(0.06041053829484575 0 0)
(0.07407783410727184 0 0)
(0.08674478846951102 0 0)
(0.09916055893917686 0 0)
(0.1081152449662656 0 0)
(0.1161678079540818 0 0)
(0.1205505375758631 0 0)
(0.1200010494758666 0 0)
(0.1188267640721139 0 0)
(0.1146024190734611 0 0)
(0.1079093907335624 0 0)
(0.1013000478648798 0 0)
(0.09437113527286577 0 0)
(0.08625700137826073 0 0)
(0.07452513795733967 0 0)
(0.06394654564751084 0 0)
(0.05016019984485008 0 0)
(0.0341067786845908 0 0)
(0.01933813462883128 0 0)
(0.000302635846980493 0 0)
(-0.01626134578010106 0 0)
(-0.03479168837743297 0 0)
(-0.05402665862625562 0 0)
(-0.06822329809428629 0 0)
(-0.08490057051298652 0 0)
(-0.09883049330332086 0 0)
(-0.1092862002531347 0 0)
(-0.1216018712809015 0 0)
(-0.1289952458443931 0 0)
(-0.135997005578924 0 0)
(-0.136549041864501 0 0)
(-0.135092263329583 0 0)
(-0.1334374954335818 0 0)
(-0.1258571510331904 0 0)
(-0.1193060384835135 0 0)
(-0.1114071797303235 0 0)
(-0.10070156757392 0 0)
(-0.09068687525122245 0 0)
(-0.07936754761060605 0 0)
(-0.06329391436704945 0 0)
(-0.04941654309480832 0 0)
(-0.03280953596189086 0 0)
(-0.01350075904309007 0 0)
(0.00251801743975263 0 0)
(0.02136743163095769 0 0)
(0.04069934259979228 0 0)
(0.05721721776491874 0 0)
(0.0714687513749378 0 0)
(0.08673158962293946 0 0)
(0.1000328275626837 0 0)
(0.1081548674246375 0 0)
(0.1170895380150735 0 0)
(0.1225070357756581 0 0)
(0.1243456093037645 0 0)
(0.1216039880769833 0 0)
(0.1191877314211096 0 0)
(0.1128140453984772 0 0)
(0.1067500864220606 0 0)
(0.09830246105825378 0 0)
(0.09146313860983189 0 0)
(0.08212788484472212 0 0)
(0.0690375799902234 0 0)
(0.05855365971962967 0 0)
(0.0438755474303124 0 0)
(0.02774953313737934 0 0)
(0.01305595922649088 0 0)
(-0.004481016908702487 0 0)
(-0.02284877605702782 0 0)
(-0.04069053287422287 0 0)
(-0.05734472302339032 0 0)
(-0.07353167619688805 0 0)
(-0.09021276503684995 0 0)
(-0.1025250530157887 0 0)
(-0.1135967125298031 0 0)
(-0.123805376529638 0 0)
(-0.130783740592805 0 0)
(-0.1322213126306697 0 0)
(-0.131923142762031 0 0)
(-0.1288613913734071 0 0)
(-0.1243597482471741 0 0)
(-0.1156018545763976 0 0)
(-0.1087776193688718 0 0)
(-0.09840171014594219 0 0)
(-0.08895060785750403 0 0)
(-0.07662089172685144 0 0)
(-0.06267031109539221 0 0)
(-0.0497086919531888 0 0)
(-0.03262369547145795 0 0)
(-0.01587798904700571 0 0)
(-0.0002869717142485302 0 0)
(0.01830047358648227 0 0)
(0.03734545310321798 0 0)
(0.05277800894629978 0 0)
(0.06891841886285129 0 0)
(0.08627974581396165 0 0)
(0.09859176767278741 0 0)
(0.1079505659356137 0 0)
(0.1202609231614748 0 0)
(0.1258651176642608 0 0)
(0.1269487758638592 0 0)
(0.1263725029296454 0 0)
(0.1230316444491724 0 0)
(0.117602884745238 0 0)
(0.1107510473151726 0 0)
(0.1037236089530174 0 0)
(0.09597936395003259 0 0)
(0.08653521760472754 0 0)
(0.07365073778147142 0 0)
(0.06455056379664051 0 0)
(0.0514614260959114 0 0)
(0.03435771068653115 0 0)
(0.02146461380012626 0 0)
(0.006346625428604833 0 0)
(-0.01375870688913126 0 0)
(-0.02964137282372203 0 0)
(-0.04577680578892118 0 0)
(-0.06562848945082136 0 0)
(-0.08021779391873876 0 0)
(-0.09453453844063661 0 0)
(-0.1094191612482248 0 0)
(-0.1188778664200356 0 0)
(-0.1283255912871765 0 0)
(-0.132316083676934 0 0)
(-0.1330844227870784 0 0)
(-0.1293525351784247 0 0)
(-0.1259188203522738 0 0)
(-0.1181800362551788 0 0)
(-0.1107430127400988 0 0)
(-0.1014411522921052 0 0)
(-0.09223585692026909 0 0)
(-0.07982231462465737 0 0)
(-0.06688956600677202 0 0)
(-0.05394846626052251 0 0)
(-0.03676608116203516 0 0)
(-0.02209518430116593 0 0)
(-0.005763044097010364 0 0)
(0.01294805584779957 0 0)
(0.02942973872998434 0 0)
(0.04738675760430579 0 0)
(0.06528423060021951 0 0)
(0.07941270862590677 0 0)
(0.09569378122757448 0 0)
(0.1096147353870612 0 0)
(0.1190688038198569 0 0)
(0.1288431925517546 0 0)
(0.1349256037474023 0 0)
(0.1353053340053708 0 0)
(0.1323937574744412 0 0)
(0.1291632587788138 0 0)
(0.1235533054779464 0 0)
(0.1163576681741924 0 0)
(0.1084127730281255 0 0)
(0.1011755877468591 0 0)
(0.09272827255516938 0 0)
(0.08105383423021272 0 0)
(0.07106354430378099 0 0)
(0.05819919259873417 0 0)
(0.04422120639273711 0 0)
(0.03070277938220777 0 0)
(0.01613477021351042 0 0)
(0.0001761669416355449 0 0)
(-0.01554383345691903 0 0)
(-0.03054112003428931 0 0)
(-0.04607599958943786 0 0)
(-0.06076357933440536 0 0)
(-0.07264254558077814 0 0)
(-0.08573119339040637 0 0)
(-0.09492714371639271 0 0)
(-0.1023601614753483 0 0)
(-0.1049998411410086 0 0)
(-0.1032413745760797 0 0)
(-0.1006460441872418 0 0)
(-0.09685701201783969 0 0)
(-0.08927121353752088 0 0)
(-0.0819675709119347 0 0)
(-0.07330772574702864 0 0)
(-0.06535840316815268 0 0)
(-0.05520179309900492 0 0)
(-0.04319490758488145 0 0)
(-0.03326302774095931 0 0)
(-0.0205237897883192 0 0)
(-0.007526094077951136 0 0)
(0.003502245227129837 0 0)
(0.01771290138050968 0 0)
(0.03190683953448929 0 0)
(0.04323179387150519 0 0)
(0.0558643240865901 0 0)
(0.06789995662766693 0 0)
(0.07778884598392323 0 0)
(0.08730363897047055 0 0)
(0.09487081982219679 0 0)
(0.1018501377237177 0 0)
(0.1043350386896297 0 0)
(0.1036105600398876 0 0)
(0.1043069766531954 0 0)
(0.09898097376752027 0 0)
(0.09466329073592486 0 0)
(0.08877950221207337 0 0)
(0.0827826894243406 0 0)
(0.07552122965912039 0 0)
(0.0691587260574054 0 0)
(0.05996967648049054 0 0)
(0.05150483915268625 0 0)
(0.04285018606649234 0 0)
(0.03165854846204342 0 0)
(0.02045554192336355 0 0)
(0.009788012112655753 0 0)
(-0.003009153536211078 0 0)
(-0.01772188191820309 0 0)
(-0.02952213624944261 0 0)
(-0.04258768004202239 0 0)
(-0.05651220071136404 0 0)
(-0.06783824726705634 0 0)
(-0.07596560776515446 0 0)
(-0.08868882580685639 0 0)
(-0.09439012830929096 0 0)
(-0.09387861325274451 0 0)
(-0.09571646414447202 0 0)
(-0.09085853230502286 0 0)
(-0.08596562705638763 0 0)
(-0.07990285554105522 0 0)
(-0.07090705835457765 0 0)
(-0.0613994589554417 0 0)
(-0.05331233385291965 0 0)
(-0.04160834604660617 0 0)
(-0.0307729752739484 0 0)
(-0.02087926299164814 0 0)
(-0.007362145996631082 0 0)
(0.004449225416955197 0 0)
(0.01575573789945621 0 0)
(0.02875900167813198 0 0)
(0.04114066414287341 0 0)
(0.05280941235726711 0 0)
(0.06379874272877244 0 0)
(0.07523969669025167 0 0)
(0.084509536583352 0 0)
(0.09354992709222747 0 0)
(0.101209288425263 0 0)
(0.1071930554060272 0 0)
(0.1086457393468811 0 0)
(0.1080402848700283 0 0)
(0.106725990454555 0 0)
(0.1024809869407556 0 0)
(0.09577964456803349 0 0)
(0.09048895897586046 0 0)
(0.0832096473546057 0 0)
(0.07661769334331145 0 0)
(0.06828509004319121 0 0)
(0.05870198915332558 0 0)
(0.05060384757431612 0 0)
(0.03966697983415544 0 0)
(0.02835841847278335 0 0)
(0.01792102772599459 0 0)
(0.006101470745272819 0 0)
(-0.007455829221430863 0 0)
(-0.01936862144287344 0 0)
(-0.03202984761230629 0 0)
(-0.04383536431805878 0 0)
(-0.05596620276280229 0 0)
(-0.06760317377071748 0 0)
(-0.07608065525610232 0 0)
(-0.08446921246843564 0 0)
(-0.08834448632640492 0 0)
(-0.08900594363175938 0 0)
(-0.08647197957151927 0 0)
(-0.08296604022872434 0 0)
(-0.07592677674643387 0 0)
(-0.0684191535968737 0 0)
(-0.05956739318937017 0 0)
(-0.05113704447107133 0 0)
(-0.04094959263717404 0 0)
(-0.02770250918056219 0 0)
(-0.01860557757649062 0 0)
(-0.006413850492370123 0 0)
(0.008235432123784444 0 0)
(0.01737168292853889 0 0)
(0.03054417376634253 0 0)
(0.04355549242937772 0 0)
(0.05292230738044889 0 0)
(0.06556201063300038 0 0)
(0.07670780881034614 0 0)
(0.08390299101967567 0 0)
(0.09618768027622322 0 0)
(0.1020530644711373 0 0)
(0.1091591530218766 0 0)
(0.1130989376904448 0 0)
(0.1136247424910478 0 0)
(0.1125029889302063 0 0)
(0.1095454656996522 0 0)
(0.1036279937600535 0 0)
(0.09708265535910979 0 0)
(0.08948161790346204 0 0)
(0.08383829078440511 0 0)
(0.07590975662777101 0 0)
(0.06490071079704675 0 0)
(0.05837108256055715 0 0)
(0.04770053296748845 0 0)
(0.03584406673428249 0 0)
(0.02762627306653281 0 0)
(0.0159180150324007 0 0)
(0.00418790053105942 0 0)
(-0.007504151371471771 0 0)
(-0.0195112800527952 0 0)
(-0.03080004321946694 0 0)
(-0.04356806748908237 0 0)
(-0.05404619094756249 0 0)
(-0.06249012359868085 0 0)
(-0.07383954384005768 0 0)
(-0.07913990732839125 0 0)
(-0.0804913456993957 0 0)
(-0.07962556802892949 0 0)
(-0.07713367695227658 0 0)
(-0.0724710080852964 0 0)
(-0.06437691843109235 0 0)
(-0.05588886939058627 0 0)
(-0.04590692653085568 0 0)
(-0.03740237302345211 0 0)
(-0.0242655537197336 0 0)
(-0.01179462461724527 0 0)
(-0.001956753240465089 0 0)
(0.01202387335616581 0 0)
(0.0253634758858551 0 0)
(0.03508290024535596 0 0)
(0.04750635105674876 0 0)
(0.05968961232968216 0 0)
(0.0694105905270725 0 0)
(0.07943600870939692 0 0)
(0.08962303248185707 0 0)
(0.09905675684200654 0 0)
(0.1049668799297276 0 0)
(0.1133954210336721 0 0)
(0.1187207654015252 0 0)
(0.1192801778340667 0 0)
(0.12017848973538 0 0)
(0.1171527561994814 0 0)
(0.1136621746748661 0 0)
(0.1069936643457232 0 0)
(0.1000696139645867 0 0)
(0.09320293100025984 0 0)
(0.08593991285248774 0 0)
(0.07622000369540248 0 0)
(0.06686522087343845 0 0)
(0.05794058830858868 0 0)
(0.04667778910897862 0 0)
(0.03682831639829935 0 0)
(0.02676948095723004 0 0)
(0.01531102803904855 0 0)
(0.004046011091740981 0 0)
(-0.006547742970484835 0 0)
(-0.01822748680202342 0 0)
(-0.0293636909930192 0 0)
(-0.03917616884542103 0 0)
(-0.05111691017805731 0 0)
(-0.05790758810711545 0 0)
(-0.06735912180817984 0 0)
(-0.07109838072635906 0 0)
(-0.07059213302352328 0 0)
(-0.0704408921154444 0 0)
(-0.06591247323045413 0 0)
(-0.06023823809670589 0 0)
(-0.05159591426841299 0 0)
(-0.04157382791024752 0 0)
(-0.03229078386022687 0 0)
(-0.02230676094453211 0 0)
(-0.008094705779437503 0 0)
(0.002533955981446043 0 0)
(0.01545830339790659 0 0)
(0.03022101696639811 0 0)
(0.039808697030881 0 0)
(0.05274272028489074 0 0)
(0.06517876256639335 0 0)
(0.07326409660700102 0 0)
(0.08456977181162154 0 0)
(0.09481101688142228 0 0)
(0.1004052504081729 0 0)
(0.1113220697314111 0 0)
(0.1163943584548162 0 0)
(0.1227619719175166 0 0)
(0.1263129706230653 0 0)
(0.1266483187574075 0 0)
(0.126350479969285 0 0)
(0.1233590720006691 0 0)
(0.1172250374775367 0 0)
(0.1119584680087439 0 0)
(0.1034518624306957 0 0)
(0.09727167397898386 0 0)
(0.0886214254425533 0 0)
(0.0778179394133271 0 0)
(0.06952880453971921 0 0)
(0.05833691618611483 0 0)
(0.04729305706403816 0 0)
(0.03789010230259923 0 0)
(0.02630119735118959 0 0)
(0.01552560627559627 0 0)
(0.0041120433539384 0 0)
(-0.006935224961476165 0 0)
(-0.01737996755707472 0 0)
(-0.0285832973356627 0 0)
(-0.03701522670682224 0 0)
(-0.04883954699666 0 0)
(-0.05545127669676326 0 0)
(-0.06259948870962465 0 0)
(-0.06491297969908866 0 0)
(-0.0632815217197087 0 0)
(-0.06249873312901415 0 0)
(-0.05687982099933171 0 0)
(-0.05008580059696358 0 0)
(-0.04207396492957922 0 0)
(-0.03204286897536734 0 0)
(-0.02268171086736601 0 0)
(-0.00997070605889273 0 0)
(0.003403966025708204 0 0)
(0.0145533125302542 0 0)
(0.02947530840036247 0 0)
(0.04240455521931545 0 0)
(0.05288557449298777 0 0)
(0.06603028068542677 0 0)
(0.07761462066869097 0 0)
(0.08653341882338578 0 0)
(0.09583344972146937 0 0)
(0.1049811036617579 0 0)
(0.1122749766897539 0 0)
(0.1172878607673609 0 0)
(0.1244595302682464 0 0)
(0.1289391920151651 0 0)
(0.1294079110062527 0 0)
(0.1299773075083276 0 0)
(0.1271925141645681 0 0)
(0.123183551250486 0 0)
(0.1170063629237571 0 0)
(0.1109548545579238 0 0)
(0.1032316652493645 0 0)
(0.09596227100368081 0 0)
(0.08683367159948983 0 0)
(0.07684916561282207 0 0)
(0.06731133854059249 0 0)
(0.05646070498630814 0 0)
(0.0458441255000683 0 0)
(0.03567946900705817 0 0)
(0.02511496850207498 0 0)
(0.01443651468594096 0 0)
(0.004434232647378808 0 0)
(-0.005770216487815721 0 0)
(-0.01537157555683134 0 0)
(-0.02397713365055055 0 0)
(-0.03458823270740974 0 0)
(-0.04128178037356826 0 0)
(-0.04876681502772304 0 0)
(-0.05327898598406562 0 0)
(-0.05179080789771219 0 0)
(-0.05249072220479642 0 0)
(-0.04935527449497123 0 0)
(-0.04312486799932934 0 0)
(-0.03508298599679812 0 0)
(-0.0266310969209758 0 0)
(-0.01697358454010383 0 0)
(-0.005760387098889281 0 0)
(0.007671556049744863 0 0)
(0.01980921066247177 0 0)
(0.03259658306059113 0 0)
(0.04748635233657605 0 0)
(0.05872306303050055 0 0)
(0.07150143254452451 0 0)
(0.08383263326646005 0 0)
(0.09238612789058971 0 0)
(0.1028197600162278 0 0)
(0.112199294435722 0 0)
(0.1182503029025582 0 0)
(0.1237546834449779 0 0)
(0.1321721085883584 0 0)
(0.1349797762979047 0 0)
(0.1360245911176376 0 0)
(0.1389743818284617 0 0)
(0.1358065104332441 0 0)
(0.133267806765895 0 0)
(0.1279645938431377 0 0)
(0.1220517849500878 0 0)
(0.1142772004916932 0 0)
(0.1085243462762486 0 0)
(0.0996222390881739 0 0)
(0.08762398806157987 0 0)
(0.08088913481945073 0 0)
(0.0699945006466042 0 0)
(0.05704071758432201 0 0)
(0.04875475368286435 0 0)
(0.03656637932500303 0 0)
(0.0254329739257689 0 0)
(0.01553398800383156 0 0)
(0.003901048489296749 0 0)
(-0.004312822671070209 0 0)
(-0.0141975211896383 0 0)
(-0.0231167010251245 0 0)
(-0.02942518207122839 0 0)
(-0.03721820864524755 0 0)
(-0.04222966019418924 0 0)
(-0.04449418602017069 0 0)
(-0.04323873447651817 0 0)
(-0.04402957113604439 0 0)
(-0.03692991652098344 0 0)
(-0.03308760181030965 0 0)
(-0.02359278688554525 0 0)
(-0.0150501223575491 0 0)
(-0.005947246632583789 0 0)
(0.00825708130826556 0 0)
(0.01885700183138626 0 0)
(0.03165909608083051 0 0)
(0.04805882564015931 0 0)
(0.06000106446590047 0 0)
(0.07257064312582805 0 0)
(0.08634122517574988 0 0)
(0.0968615888015416 0 0)
(0.1064093787019047 0 0)
(0.1154446783729358 0 0)
(0.1235798580430707 0 0)
(0.129788760809869 0 0)
(0.1343573263838969 0 0)
(0.1391305109020049 0 0)
(0.1416792061827027 0 0)
(0.1423608908821626 0 0)
(0.1415229379547832 0 0)
(0.1388929826781043 0 0)
(0.1344401416830259 0 0)
(0.1280087873043413 0 0)
(0.1230657711418338 0 0)
(0.1150278641918027 0 0)
(0.1089973512569122 0 0)
(0.1016469109324463 0 0)
(0.08985213838364135 0 0)
(0.08190467066092927 0 0)
(0.07193617707469473 0 0)
(0.05971939645364677 0 0)
(0.05075763381914563 0 0)
(0.03996165574576085 0 0)
(0.02859915627309959 0 0)
(0.0193140837169519 0 0)
(0.009483807320263091 0 0)
(0.0007500908583878601 0 0)
(-0.006299526590918327 0 0)
(-0.01507450213842725 0 0)
(-0.02086652058993698 0 0)
(-0.02595779108067969 0 0)
(-0.02825068369128179 0 0)
(-0.02812426661789949 0 0)
(-0.02888975770123365 0 0)
(-0.02481233759059613 0 0)
(-0.01992789770418189 0 0)
(-0.01332744112570309 0 0)
(-0.004978065035045962 0 0)
(0.00336875579113973 0 0)
(0.01474224766933217 0 0)
(0.02799628418514446 0 0)
(0.03927863757449342 0 0)
(0.05311124427549736 0 0)
(0.06874433330603359 0 0)
(0.0801167693309686 0 0)
(0.09351747236049565 0 0)
(0.1067617605431867 0 0)
(0.1155786528297757 0 0)
(0.1259561286455662 0 0)
(0.1348878540958802 0 0)
(0.1402256968203791 0 0)
(0.1464197469160574 0 0)
(0.1519557662933833 0 0)
(0.1539935530852247 0 0)
(0.1548639177403412 0 0)
(0.1544227924295908 0 0)
(0.1538605702667693 0 0)
(0.1480572535534445 0 0)
(0.1446750771895165 0 0)
(0.13770464086293 0 0)
(0.1333834158920685 0 0)
(0.1248817027338947 0 0)
(0.1176993765325993 0 0)
(0.1094876620978231 0 0)
(0.09899005257638882 0 0)
(0.0896127039063567 0 0)
(0.07839074949730611 0 0)
(0.06749443318737694 0 0)
(0.05679811521096243 0 0)
(0.04512521205455472 0 0)
(0.03382250307175975 0 0)
(0.02554086866537115 0 0)
(0.01613377214547981 0 0)
(0.0065176863982162 0 0)
(0.0002758640057500217 0 0)
(-0.005852435884202001 0 0)
(-0.01204285026536767 0 0)
(-0.01461329097841362 0 0)
(-0.0151159764670089 0 0)
(-0.01596185711724835 0 0)
(-0.01359023655813381 0 0)
(-0.008099308209683338 0 0)
(-0.0038478576440627 0 0)
(0.003305623738630767 0 0)
(0.01284655039746881 0 0)
(0.0209947891162908 0 0)
(0.03275207912413733 0 0)
(0.04651681614344134 0 0)
(0.05663799376908539 0 0)
(0.07201358445543132 0 0)
(0.08630250191548641 0 0)
(0.0977815848921702 0 0)
(0.1109545890391004 0 0)
(0.1227303623110735 0 0)
(0.132829309257163 0 0)
(0.141547507847564 0 0)
(0.149274725315729 0 0)
(0.1561372796982121 0 0)
(0.1603724801566357 0 0)
(0.1636888361564956 0 0)
(0.1665980117470452 0 0)
(0.1664938886040266 0 0)
(0.1654023828398568 0 0)
(0.1627026777244444 0 0)
(0.1588367322042922 0 0)
(0.1526372035699784 0 0)
(0.1472082703681513 0 0)
(0.1408145327990319 0 0)
(0.1336569368836506 0 0)
(0.1250849416800656 0 0)
(0.1164798725408552 0 0)
(0.1060501946571103 0 0)
(0.09498785509246851 0 0)
(0.08471730829948082 0 0)
(0.07180156574469197 0 0)
(0.06169407445095492 0 0)
(0.05025796364959411 0 0)
(0.03856721705505839 0 0)
(0.02905473016683234 0 0)
(0.01868025790954806 0 0)
(0.01121679620848794 0 0)
(0.004224188413715682 0 0)
(-0.002593392214399968 0 0)
(-0.005671729090213374 0 0)
(-0.00737045570778619 0 0)
(-0.006473218896324424 0 0)
(-0.006146051685017052 0 0)
(-0.001739131784736589 0 0)
(0.002825561868558807 0 0)
(0.009015484088992031 0 0)
(0.01672056036636555 0 0)
(0.02434128124010672 0 0)
(0.03365464351556219 0 0)
(0.04550051848326034 0 0)
(0.0566156283534268 0 0)
(0.06977134114051903 0 0)
(0.08470692167122737 0 0)
(0.09690503758541165 0 0)
(0.1098939737319753 0 0)
(0.1238451658587469 0 0)
(0.1340754807529582 0 0)
(0.1439150613540036 0 0)
(0.1531756742015576 0 0)
(0.1598684938698327 0 0)
(0.164818096929072 0 0)
(0.1679846448024453 0 0)
(0.1702032541967566 0 0)
(0.1704958902711473 0 0)
(0.1694214967357654 0 0)
(0.1664290954599279 0 0)
(0.1621124627640591 0 0)
(0.1565772414895079 0 0)
(0.1515372789708498 0 0)
(0.1454403855016966 0 0)
(0.138175512176191 0 0)
(0.1318850097466132 0 0)
(0.1239908243439909 0 0)
(0.1140969620856539 0 0)
(0.1056474458688268 0 0)
(0.09563553973764399 0 0)
(0.0849747414036508 0 0)
(0.07462669227043411 0 0)
(0.0632353192536162 0 0)
(0.05263759260376084 0 0)
(0.04254399417301265 0 0)
(0.0329617725713721 0 0)
(0.02425227617629635 0 0)
(0.01664586119955187 0 0)
(0.01054779751753235 0 0)
(0.006077171332480862 0 0)
(0.002781140766873472 0 0)
(0.004457312550626974 0 0)
(0.004238538118535256 0 0)
(0.007870299093836759 0 0)
(0.01165145044672048 0 0)
(0.01895017564214674 0 0)
(0.02420062544920256 0 0)
(0.03285069178652256 0 0)
(0.04110861015853813 0 0)
(0.05027649945154386 0 0)
(0.06215312359110633 0 0)
(0.07395621203532302 0 0)
(0.08693585953326419 0 0)
(0.1010697889122504 0 0)
(0.1138298723293867 0 0)
(0.1272132307172578 0 0)
(0.1392567443511494 0 0)
(0.1497984674601864 0 0)
(0.1597202576206313 0 0)
(0.1667656496855469 0 0)
(0.1731533154121065 0 0)
(0.1775988068265323 0 0)
(0.1802575721412631 0 0)
(0.1816371608020175 0 0)
(0.1799821709644791 0 0)
(0.178433248167196 0 0)
(0.1750646867017116 0 0)
(0.1704485864162097 0 0)
(0.1643653231772421 0 0)
(0.1594753964942333 0 0)
(0.15293388475013 0 0)
(0.1462281319816229 0 0)
(0.138719266162816 0 0)
(0.1290139909479993 0 0)
(0.1206695094271272 0 0)
(0.1101337482017556 0 0)
(0.09865175545545836 0 0)
(0.08830644301993965 0 0)
(0.07656318337801185 0 0)
(0.06499489324086216 0 0)
(0.05473274835823413 0 0)
(0.0443680989734453 0 0)
(0.03438577349992115 0 0)
(0.02582127999478626 0 0)
(0.01941257563161304 0 0)
(0.01176270369320075 0 0)
(0.008269650737576443 0 0)
(0.009305171256739447 0 0)
(0.008553318347281853 0 0)
(0.01112176265538215 0 0)
(0.01624982663113171 0 0)
(0.02076006127724309 0 0)
(0.02782531177390994 0 0)
(0.0358228058695638 0 0)
(0.04272893787539738 0 0)
(0.05218590572731721 0 0)
(0.06276992895672398 0 0)
(0.07270455067320654 0 0)
(0.08565325186508038 0 0)
(0.09849961528335181 0 0)
(0.1101477549582864 0 0)
(0.1242279925826707 0 0)
(0.1365001147991759 0 0)
(0.1469941522109053 0 0)
(0.1578015075375792 0 0)
(0.1662172720770046 0 0)
(0.1732061018781937 0 0)
(0.1785284579526185 0 0)
(0.182013829823291 0 0)
(0.184956735982317 0 0)
(0.1850988449061917 0 0)
(0.1831103182178439 0 0)
(0.18155585028677 0 0)
(0.1775012802221532 0 0)
(0.1719671856199284 0 0)
(0.1667538460194118 0 0)
(0.1616299620786551 0 0)
(0.1540850168473635 0 0)
(0.1466122523606747 0 0)
(0.1369800329230028 0 0)
(0.1273037348360628 0 0)
(0.1167595170038125 0 0)
(0.1045427533408396 0 0)
(0.09367431098858506 0 0)
(0.081671321137308 0 0)
(0.0683926065491587 0 0)
(0.05737731781662749 0 0)
(0.04616857815674814 0 0)
(0.03549835242768655 0 0)
(0.02782591197558741 0 0)
(0.01879166854149259 0 0)
(0.01214102659727633 0 0)
(0.007308127520424325 0 0)
(0.005891864878338302 0 0)
(0.006250884099413039 0 0)
(0.006499076055131201 0 0)
(0.01019068323566844 0 0)
(0.01620029796020381 0 0)
(0.02185682408633241 0 0)
(0.03004139943033764 0 0)
(0.03725853348240796 0 0)
(0.04645570799801669 0 0)
(0.05714045679644746 0 0)
(0.06468659848244586 0 0)
(0.077882670352932 0 0)
(0.08986798344164013 0 0)
(0.0992098700025402 0 0)
(0.1131465425579003 0 0)
(0.1255843358314234 0 0)
(0.1373202521977614 0 0)
(0.1497459675394985 0 0)
(0.1596552366088221 0 0)
(0.1676725471729384 0 0)
(0.1754387923903778 0 0)
(0.1792006501788206 0 0)
(0.1820471784711484 0 0)
(0.1818238403137779 0 0)
(0.1790370479215477 0 0)
(0.1761637220583296 0 0)
(0.1708589084980796 0 0)
(0.1660626464551508 0 0)
(0.1590118785117782 0 0)
(0.1530931790956342 0 0)
(0.1465140702055465 0 0)
(0.1400145262032236 0 0)
(0.1313759365095017 0 0)
(0.1222100336627448 0 0)
(0.1142405093625071 0 0)
(0.1022623331275143 0 0)
(0.09070059513857498 0 0)
(0.08068137397294191 0 0)
(0.06796707230861612 0 0)
(0.05618499654126242 0 0)
(0.04513637574578945 0 0)
(0.03456597288744105 0 0)
(0.02602003073803251 0 0)
(0.01639929702388085 0 0)
(0.009933404523695412 0 0)
(0.004043216662252943 0 0)
(0.001528010989338694 0 0)
(0.001793375157090654 0 0)
(0.003360067957237818 0 0)
(0.004691227577500183 0 0)
(0.00996693407312592 0 0)
(0.01593931289917367 0 0)
(0.0227630053521331 0 0)
(0.02920411096297657 0 0)
(0.0390288926373667 0 0)
(0.04934164817021592 0 0)
(0.0578591724310003 0 0)
(0.07088221811923313 0 0)
(0.08189339990811575 0 0)
(0.09347786555161505 0 0)
(0.1052020852283551 0 0)
(0.1156791485158203 0 0)
(0.1276602576294178 0 0)
(0.1379808326997575 0 0)
(0.1481162338083668 0 0)
(0.1581204963546191 0 0)
(0.1666925528509966 0 0)
(0.1739373155429117 0 0)
(0.1803241219963735 0 0)
(0.1830108141795758 0 0)
(0.1821060800575002 0 0)
(0.178605076964527 0 0)
(0.1737017831040383 0 0)
(0.1680416551981201 0 0)
(0.1608890473357682 0 0)
(0.1517287250231284 0 0)
(0.145138328930548 0 0)
(0.1377323247600739 0 0)
(0.1310302173695184 0 0)
(0.1242998854638503 0 0)
(0.1165780657520739 0 0)
(0.1073291128334184 0 0)
(0.09838950898003597 0 0)
(0.0892622696991741 0 0)
(0.07829346651443277 0 0)
(0.06729110234453829 0 0)
(0.0567063225131488 0 0)
(0.04674058775062064 0 0)
(0.03644725987490066 0 0)
(0.02755085196056933 0 0)
(0.02079786810049426 0 0)
(0.01333940979646559 0 0)
(0.00972912006756267 0 0)
(0.009456427579383151 0 0)
(0.01023981704747907 0 0)
(0.01086132490453541 0 0)
(0.01588027198286582 0 0)
(0.02034556152982808 0 0)
(0.02747567814820592 0 0)
(0.03457968344775809 0 0)
(0.04284522849989726 0 0)
(0.05152308567729452 0 0)
(0.06084792200892382 0 0)
(0.07232968875891813 0 0)
(0.08275719548000676 0 0)
(0.0950291550897642 0 0)
(0.1074743510916908 0 0)
(0.1181035383283346 0 0)
(0.130096725668247 0 0)
(0.1415053929994902 0 0)
(0.1501513643795949 0 0)
(0.1596953743689888 0 0)
(0.1684356548272028 0 0)
(0.1728021702887629 0 0)
(0.1784981571639693 0 0)
(0.184099098379069 0 0)
(0.1853840388094133 0 0)
(0.1861691392339869 0 0)
(0.1841225956189027 0 0)
(0.1798197429925308 0 0)
(0.172224034792363 0 0)
(0.1632242745907879 0 0)
(0.1527069811619647 0 0)
(0.1458104429640943 0 0)
(0.1380644074982889 0 0)
(0.1326927661796521 0 0)
(0.1265856682944544 0 0)
(0.1172760587861071 0 0)
(0.1098615244266227 0 0)
(0.09831937517875443 0 0)
(0.08598711988164821 0 0)
(0.07632152279344762 0 0)
(0.06102686306775591 0 0)
(0.0486696489138149 0 0)
(0.04186350257611436 0 0)
(0.03104992517360788 0 0)
(0.02071375472008699 0 0)
(0.01631247330951251 0 0)
(0.01142643311730788 0 0)
(0.009854770019719815 0 0)
(0.008732349660478983 0 0)
(0.01162744837743862 0 0)
(0.01370704614952033 0 0)
(0.020256972120114 0 0)
(0.02319816103755604 0 0)
(0.03282208984401776 0 0)
(0.04040652997709079 0 0)
(0.04758511809764675 0 0)
(0.0585145278515691 0 0)
(0.06615350897271199 0 0)
(0.07691852346769582 0 0)
(0.09177862764962248 0 0)
(0.1007958361336354 0 0)
(0.1104001420412723 0 0)
(0.1264994865160588 0 0)
(0.1337316193605322 0 0)
(0.1495746238572907 0 0)
)
;

boundaryField
{
    inlet
    {
        type            zeroGradient;
    }
    outlet
    {
        type            pressureInletOutletVelocity;
        value           uniform (0.1495746238572907 0 0);
    }
    frontAndBack
    {
        type            empty;
    }
}


// ************************************************************************* //
