/*--------------------------------*- C++ -*----------------------------------*\
| =========                 |                                                 |
| \\      /  F ield         | OpenFOAM: The Open Source CFD Toolbox           |
|  \\    /   O peration     | Version:  v2012                                 |
|   \\  /    A nd           | Website:  www.openfoam.com                      |
|    \\/     M anipulation  |                                                 |
\*---------------------------------------------------------------------------*/
FoamFile
{
    version     2.0;
    format      ascii;
    class       volVectorField;
    location    "0.016";
    object      UMean;
}
// * * * * * * * * * * * * * * * * * * * * * * * * * * * * * * * * * * * * * //

dimensions      [0 1 -1 0 0 0 0];


internalField   nonuniform List<vector> 
1000
(
(-0.0005990956254627347 0 0)
(-0.0005293760693387472 0 0)
(-0.0005663988310490028 0 0)
(-0.0005317081815713952 0 0)
(-0.0004563454577997996 0 0)
(-0.000453077683830177 0 0)
(-0.0003884523887690703 0 0)
(-0.0002899055970000621 0 0)
(-0.0002840171775190439 0 0)
(-0.0001837199412098808 0 0)
(-9.600180222243101e-05 0 0)
(-4.931629236020548e-05 0 0)
(2.801679402700608e-05 0 0)
(0.0001488383730416894 0 0)
(0.0001700715735912037 0 0)
(0.0002315668599489193 0 0)
(0.0003562220025167862 0 0)
(0.0003933992768906197 0 0)
(0.0003938947539732429 0 0)
(0.0004759993203619264 0 0)
(0.0005254989866308409 0 0)
(0.0005234013242068972 0 0)
(0.0005100586918442967 0 0)
(0.0005552185095782151 0 0)
(0.0005495785137065792 0 0)
(0.0005064160073835382 0 0)
(0.0004553898171683321 0 0)
(0.0004627421115554146 0 0)
(0.0004120533452272148 0 0)
(0.0003026617762569918 0 0)
(0.0002814275482267348 0 0)
(0.000231587243084425 0 0)
(0.0001102470433466402 0 0)
(4.152695274339382e-05 0 0)
(1.737096119371637e-05 0 0)
(-0.0001068628546750777 0 0)
(-0.0001875421416645807 0 0)
(-0.0002193635132139295 0 0)
(-0.0003082898742580133 0 0)
(-0.0003701509785179683 0 0)
(-0.0004324100557750433 0 0)
(-0.0004791609243963803 0 0)
(-0.0005090734730463747 0 0)
(-0.0005472204921663971 0 0)
(-0.0006037889393433064 0 0)
(-0.0005757390393285592 0 0)
(-0.0005790015585502672 0 0)
(-0.0006135727628165124 0 0)
(-0.0005749913261210781 0 0)
(-0.0005164250413441579 0 0)
(-0.0005306529481525616 0 0)
(-0.0004824072073828974 0 0)
(-0.0003894347358124953 0 0)
(-0.0003664138470881355 0 0)
(-0.0003110674334573929 0 0)
(-0.0001960064554318497 0 0)
(-0.000153375378252861 0 0)
(-9.425029668178145e-05 0 0)
(2.217268748514871e-05 0 0)
(6.316678937664392e-05 0 0)
(0.0001403322642851165 0 0)
(0.0002332178732883261 0 0)
(0.000274022317461587 0 0)
(0.0003336660844991407 0 0)
(0.0004268513828266509 0 0)
(0.0004412147784782043 0 0)
(0.0004654611095439658 0 0)
(0.0005294322680457603 0 0)
(0.0005471433620615516 0 0)
(0.0005202912763694546 0 0)
(0.0005347711785633329 0 0)
(0.0005320917007476967 0 0)
(0.0004936033159834881 0 0)
(0.0004561538854417481 0 0)
(0.00042779950293159 0 0)
(0.000363554311713538 0 0)
(0.0003024723960315447 0 0)
(0.0002449298599157062 0 0)
(0.0001715048374426845 0 0)
(9.077211576524307e-05 0 0)
(1.360388293216675e-05 0 0)
(-4.458925901083862e-05 0 0)
(-0.0001277433019577565 0 0)
(-0.0002153473030887753 0 0)
(-0.0002548684611530767 0 0)
(-0.0003312761528852694 0 0)
(-0.0004053440080795436 0 0)
(-0.0004356666444752006 0 0)
(-0.0004923324232855342 0 0)
(-0.0005411059810343707 0 0)
(-0.0005437504390893127 0 0)
(-0.0005861867581348298 0 0)
(-0.0005968434576043274 0 0)
(-0.0005687651347879038 0 0)
(-0.0005738057495673244 0 0)
(-0.0005647355190458543 0 0)
(-0.000509552139640961 0 0)
(-0.0004715048628737954 0 0)
(-0.0004352756685452485 0 0)
(-0.0003707342040133545 0 0)
(-0.0003090894170964822 0 0)
(-0.0002395853076006337 0 0)
(-0.0001652229920478318 0 0)
(-9.900397196338391e-05 0 0)
(-2.786412797759561e-05 0 0)
(6.627857197957543e-05 0 0)
(0.0001234506313882956 0 0)
(0.0001823047766110217 0 0)
(0.0002862521186277667 0 0)
(0.0003367954848617811 0 0)
(0.0003599547364785444 0 0)
(0.0004634918339769173 0 0)
(0.0004978777832642038 0 0)
(0.0004733766759725596 0 0)
(0.0005544818658184284 0 0)
(0.0005795420808655896 0 0)
(0.0005137644133958755 0 0)
(0.0005484263839192595 0 0)
(0.0005599047084762509 0 0)
(0.0004757685105179229 0 0)
(0.0004365369916190621 0 0)
(0.0004344379251762661 0 0)
(0.0003444959969398571 0 0)
(0.000264539139707744 0 0)
(0.0002388754173753434 0 0)
(0.0001514980493178883 0 0)
(4.665821553922978e-05 0 0)
(8.996159707480239e-06 0 0)
(-6.290590039182015e-05 0 0)
(-0.0001725174373844883 0 0)
(-0.0002047620248234957 0 0)
(-0.0002645493098910099 0 0)
(-0.0003617792718340619 0 0)
(-0.0003866572915748586 0 0)
(-0.0004232160582913314 0 0)
(-0.0005041508986297339 0 0)
(-0.0005096404546026441 0 0)
(-0.0005115945010225633 0 0)
(-0.0005709391950965248 0 0)
(-0.0005536731440467879 0 0)
(-0.000513026963894852 0 0)
(-0.000533513442628858 0 0)
(-0.0005089123236376372 0 0)
(-0.0004236187567423143 0 0)
(-0.0004024773536210003 0 0)
(-0.0003764357694657687 0 0)
(-0.0002568354655565458 0 0)
(-0.0002179212704788359 0 0)
(-0.0001604820301103035 0 0)
(-5.726219613223466e-05 0 0)
(1.344639092620754e-05 0 0)
(5.717851652214029e-05 0 0)
(0.0001776249390471932 0 0)
(0.0002314729403537493 0 0)
(0.0002844003526800918 0 0)
(0.0003861631590322671 0 0)
(0.0004379763074273581 0 0)
(0.0004659294116095979 0 0)
(0.0005450824607576965 0 0)
(0.0005897459418344261 0 0)
(0.0005738851963558391 0 0)
(0.0006254923412254622 0 0)
(0.0006545489204429737 0 0)
(0.0006043853466726922 0 0)
(0.0006052212534307181 0 0)
(0.0006185861689632482 0 0)
(0.0005409646394227831 0 0)
(0.0004948045164819823 0 0)
(0.0004850067235584248 0 0)
(0.0003870327939077972 0 0)
(0.0003179756176507589 0 0)
(0.0002780133283388002 0 0)
(0.000178974714795841 0 0)
(0.0001034366142224051 0 0)
(5.462973702341473e-05 0 0)
(-3.824671427129807e-05 0 0)
(-0.0001172586169884811 0 0)
(-0.0001451182321854213 0 0)
(-0.000227531169098851 0 0)
(-0.0003022788681488332 0 0)
(-0.0003198479994063675 0 0)
(-0.0003718551885481598 0 0)
(-0.000426892580108732 0 0)
(-0.000426903804838898 0 0)
(-0.0004484417944115805 0 0)
(-0.0004795534509892003 0 0)
(-0.0004466300518179018 0 0)
(-0.0004259050042635933 0 0)
(-0.0004394968380037815 0 0)
(-0.0003721764142028332 0 0)
(-0.0003203059769640006 0 0)
(-0.0003052292397905943 0 0)
(-0.0002190646439403047 0 0)
(-0.0001432883715547383 0 0)
(-9.551618233726948e-05 0 0)
(-1.553977733097178e-05 0 0)
(7.207771309064007e-05 0 0)
(0.0001313577480751831 0 0)
(0.0001977777590868636 0 0)
(0.0002997078496771214 0 0)
(0.0003529956840559494 0 0)
(0.0004136630522609542 0 0)
(0.0004958251188491666 0 0)
(0.0005470616836380234 0 0)
(0.0005879987352868164 0 0)
(0.0006344772237754653 0 0)
(0.0006741554872913646 0 0)
(0.0006856388025717725 0 0)
(0.00069796535590199 0 0)
(0.0007057826231170973 0 0)
(0.0007019743671800605 0 0)
(0.0006731709716701349 0 0)
(0.0006414722118389947 0 0)
(0.0006115334676649874 0 0)
(0.0005532030590169214 0 0)
(0.0004819953966773903 0 0)
(0.0004328437017044896 0 0)
(0.0003643248805881282 0 0)
(0.0002696655571073134 0 0)
(0.0002056876228244242 0 0)
(0.0001374845662783546 0 0)
(4.647798898012416e-05 0 0)
(-2.876015823529817e-05 0 0)
(-8.407762552004811e-05 0 0)
(-0.0001593908606187701 0 0)
(-0.0002248572880974369 0 0)
(-0.0002783038209188005 0 0)
(-0.0003256626167919195 0 0)
(-0.0003745391865901796 0 0)
(-0.0004104326117086381 0 0)
(-0.0004354487539945583 0 0)
(-0.0004593870847249703 0 0)
(-0.0004611669470638829 0 0)
(-0.0004554643182527148 0 0)
(-0.0004453241225850183 0 0)
(-0.0004294596458160571 0 0)
(-0.0003853569158694643 0 0)
(-0.0003476332347546147 0 0)
(-0.0003246029150742814 0 0)
(-0.0002340106057808392 0 0)
(-0.0001830766796889002 0 0)
(-0.0001356929382593323 0 0)
(-5.449073259980609e-05 0 0)
(2.240859151940002e-05 0 0)
(5.775633467665258e-05 0 0)
(0.000153824151898284 0 0)
(0.0002201287808450671 0 0)
(0.0002642567554348875 0 0)
(0.0003496528612106925 0 0)
(0.0004051177340988232 0 0)
(0.0004424081682904455 0 0)
(0.0004996055899529325 0 0)
(0.0005517398468917838 0 0)
(0.0005582196768188247 0 0)
(0.0005905902388280201 0 0)
(0.0006149363985155641 0 0)
(0.0006140549830722451 0 0)
(0.0006111309955514402 0 0)
(0.0005996255878653383 0 0)
(0.0005842285534529111 0 0)
(0.0005414194445295889 0 0)
(0.0005083377210858448 0 0)
(0.0004594722310599534 0 0)
(0.0004176545093134329 0 0)
(0.0003521381372362552 0 0)
(0.0002842982858291796 0 0)
(0.0002443155742260503 0 0)
(0.0001644446102529557 0 0)
(9.585351240123473e-05 0 0)
(6.159353198135474e-05 0 0)
(-1.440254155158163e-05 0 0)
(-7.27548826788467e-05 0 0)
(-0.0001017960075951529 0 0)
(-0.000161394028615385 0 0)
(-0.0002050353244670979 0 0)
(-0.0002284810912879943 0 0)
(-0.0002572491594489807 0 0)
(-0.0002820124671857902 0 0)
(-0.0002884199043740463 0 0)
(-0.0002950586141456779 0 0)
(-0.0002761229695811951 0 0)
(-0.0002656643187981842 0 0)
(-0.0002360092359263605 0 0)
(-0.0002055056822523659 0 0)
(-0.0001583114486151111 0 0)
(-0.0001154176272911145 0 0)
(-4.496555398373704e-05 0 0)
(5.391489513118208e-06 0 0)
(7.401206868659166e-05 0 0)
(0.0001506792534283162 0 0)
(0.0001998763807207804 0 0)
(0.0002758051181554471 0 0)
(0.0003603554857084284 0 0)
(0.0004058936331091971 0 0)
(0.0004782338893403991 0 0)
(0.0005511357295246069 0 0)
(0.0005916289036999257 0 0)
(0.0006560973987726862 0 0)
(0.0006962580510555447 0 0)
(0.0007328410895721148 0 0)
(0.0007604543919711371 0 0)
(0.0007828182494419387 0 0)
(0.0007970653861757307 0 0)
(0.0008071609913077434 0 0)
(0.000794609042506045 0 0)
(0.0007763709840405813 0 0)
(0.0007726858091400523 0 0)
(0.0007215479309433801 0 0)
(0.0006792563581709762 0 0)
(0.0006483068936737797 0 0)
(0.0005861072376432966 0 0)
(0.00052143336185162 0 0)
(0.0004802546096189877 0 0)
(0.0004076948563948901 0 0)
(0.0003205494968334054 0 0)
(0.0003081383128976662 0 0)
(0.0002284908966893706 0 0)
(0.0001616534939564931 0 0)
(0.0001307742302183066 0 0)
(8.820973098763417e-05 0 0)
(2.953361446689849e-05 0 0)
(2.798829288307789e-06 0 0)
(-9.862683235156739e-06 0 0)
(-4.954528916438978e-05 0 0)
(-5.500473551572277e-05 0 0)
(-6.136463974260407e-05 0 0)
(-3.493299613182844e-05 0 0)
(-3.91729296691183e-05 0 0)
(-6.615108568693793e-07 0 0)
(2.620810150495173e-05 0 0)
(6.734344585362673e-05 0 0)
(0.0001188179578544054 0 0)
(0.0001749464055940073 0 0)
(0.0002416968000449418 0 0)
(0.0003050565721342597 0 0)
(0.0003706565339618422 0 0)
(0.0004465887822599501 0 0)
(0.0005212085639454802 0 0)
(0.0005789787173883178 0 0)
(0.0006577748074129645 0 0)
(0.000722701434032956 0 0)
(0.0008019415556250116 0 0)
(0.0008537456964904643 0 0)
(0.0008963203179445126 0 0)
(0.0009710961925665236 0 0)
(0.001010220930184514 0 0)
(0.001028344940588159 0 0)
(0.001069706291775164 0 0)
(0.001088174134749364 0 0)
(0.001090677667585908 0 0)
(0.001106437510469159 0 0)
(0.001102788317386042 0 0)
(0.00106200448985338 0 0)
(0.001057050871711367 0 0)
(0.001016500764768608 0 0)
(0.0009764210650981209 0 0)
(0.000924197882225135 0 0)
(0.0008815775913711673 0 0)
(0.0008108126927589992 0 0)
(0.0007594766341915703 0 0)
(0.0006961065763254476 0 0)
(0.0006331585730752422 0 0)
(0.0005920059022831674 0 0)
(0.0005117473571768226 0 0)
(0.000489719276197322 0 0)
(0.0004425514029926716 0 0)
(0.0003823128597994214 0 0)
(0.0003597828221407448 0 0)
(0.0003515024162026869 0 0)
(0.0003016444905576471 0 0)
(0.0002932813870402506 0 0)
(0.0003142682932059944 0 0)
(0.0002933678468547499 0 0)
(0.000314383576456168 0 0)
(0.0003583530735260621 0 0)
(0.0003834922912411546 0 0)
(0.0004015413023978477 0 0)
(0.0004777045116630286 0 0)
(0.0005345352483712584 0 0)
(0.0005766974043228749 0 0)
(0.0006655196637227375 0 0)
(0.0007400117777964252 0 0)
(0.0007959454278874175 0 0)
(0.0008662623531831702 0 0)
(0.0009665039623942509 0 0)
(0.00102173140754955 0 0)
(0.001084941781172319 0 0)
(0.00118454459582597 0 0)
(0.001234778387680083 0 0)
(0.001292805648839441 0 0)
(0.001361494513961435 0 0)
(0.001416219773935638 0 0)
(0.001432669846307789 0 0)
(0.001494771129017199 0 0)
(0.001510575117276323 0 0)
(0.001518894561777547 0 0)
(0.001541700641099871 0 0)
(0.001551173735599149 0 0)
(0.001526042834831092 0 0)
(0.001504882742173642 0 0)
(0.001493533012940479 0 0)
(0.001453554804167728 0 0)
(0.001401310368031843 0 0)
(0.001370564712878809 0 0)
(0.001321716236680696 0 0)
(0.001235260026683239 0 0)
(0.001210202082797182 0 0)
(0.001142109004762398 0 0)
(0.001083952976125616 0 0)
(0.001029348663322073 0 0)
(0.0009912031618251468 0 0)
(0.0009541191904351646 0 0)
(0.0008954072573508732 0 0)
(0.0008778620414857276 0 0)
(0.0008545929946825437 0 0)
(0.0008183610652921964 0 0)
(0.0008187999662405585 0 0)
(0.0008208443214266681 0 0)
(0.0008043363782317109 0 0)
(0.0008326102353210943 0 0)
(0.0008757752134949578 0 0)
(0.0008922516190510261 0 0)
(0.0009227180320670727 0 0)
(0.0009921151979559633 0 0)
(0.001044466739148062 0 0)
(0.001090712084065055 0 0)
(0.001189320527089758 0 0)
(0.001255194416207592 0 0)
(0.001310794757677325 0 0)
(0.001408341734936539 0 0)
(0.001487146964333739 0 0)
(0.001543275364883293 0 0)
(0.001638675964884937 0 0)
(0.001718235301044841 0 0)
(0.00178052551517841 0 0)
(0.001842744989902329 0 0)
(0.001925107384524023 0 0)
(0.001970744032621426 0 0)
(0.002015715838416358 0 0)
(0.002068970457478323 0 0)
(0.002094958897035346 0 0)
(0.002111793109488199 0 0)
(0.002142537108468994 0 0)
(0.002151916408848777 0 0)
(0.00214294095340222 0 0)
(0.002131529302736524 0 0)
(0.002126586275396539 0 0)
(0.002083259622823603 0 0)
(0.002048256291241139 0 0)
(0.002028279930596056 0 0)
(0.001963327732735756 0 0)
(0.001916477857342379 0 0)
(0.001868807185717305 0 0)
(0.001812639759492547 0 0)
(0.001754212954667922 0 0)
(0.001719748504243001 0 0)
(0.00165562020549948 0 0)
(0.001631916358816021 0 0)
(0.001584776455529929 0 0)
(0.001552531794139767 0 0)
(0.001536693085457572 0 0)
(0.001512722171149409 0 0)
(0.00149111096365523 0 0)
(0.001500345193650997 0 0)
(0.001503298898819037 0 0)
(0.001505920329108438 0 0)
(0.001545205774537169 0 0)
(0.001583680050954055 0 0)
(0.001608166211794852 0 0)
(0.001656218665756251 0 0)
(0.001729961296681914 0 0)
(0.001781107799254372 0 0)
(0.001846034121441582 0 0)
(0.001935560853151453 0 0)
(0.002009573379965971 0 0)
(0.002070818274083874 0 0)
(0.002179141305763503 0 0)
(0.002237742854354956 0 0)
(0.002312300192376613 0 0)
(0.002399802453969136 0 0)
(0.002478894886214391 0 0)
(0.00254338798205634 0 0)
(0.002616013374077239 0 0)
(0.002677448409354262 0 0)
(0.002735357958846275 0 0)
(0.002772225854034215 0 0)
(0.002819166146621177 0 0)
(0.002854978671060469 0 0)
(0.00285618362357726 0 0)
(0.00288538810652292 0 0)
(0.002904052129970525 0 0)
(0.002888533830195028 0 0)
(0.002857283018911971 0 0)
(0.002871555293290925 0 0)
(0.002820683243494687 0 0)
(0.002772199428236285 0 0)
(0.002766768361565466 0 0)
(0.002702625317722576 0 0)
(0.002640002665563109 0 0)
(0.002606263655687961 0 0)
(0.002554160870760865 0 0)
(0.002487622312112049 0 0)
(0.002458388918114499 0 0)
(0.002419439203544726 0 0)
(0.00236743712459737 0 0)
(0.002344741658930853 0 0)
(0.002333795699881432 0 0)
(0.002294756537771908 0 0)
(0.002280922895363516 0 0)
(0.002294568750813094 0 0)
(0.002289922936025323 0 0)
(0.002295304580936055 0 0)
(0.002334029490295884 0 0)
(0.002357111199042763 0 0)
(0.002408592240787073 0 0)
(0.002457590858882462 0 0)
(0.002504328217409323 0 0)
(0.002564022148087479 0 0)
(0.002661792773191969 0 0)
(0.002720559181617168 0 0)
(0.002800661331339621 0 0)
(0.00290202878339556 0 0)
(0.002962433852434983 0 0)
(0.003041136023609246 0 0)
(0.003147127557073084 0 0)
(0.003215006732010891 0 0)
(0.00329040762730642 0 0)
(0.00338146763467549 0 0)
(0.003453161382362977 0 0)
(0.003516610847774696 0 0)
(0.00358658989506907 0 0)
(0.003636908797787652 0 0)
(0.003674045010908897 0 0)
(0.003728151080256347 0 0)
(0.003740934803041168 0 0)
(0.003770246847061879 0 0)
(0.003789500870867565 0 0)
(0.003797705459246758 0 0)
(0.003784063164485719 0 0)
(0.003772720670345565 0 0)
(0.003750908913793843 0 0)
(0.003720560544635614 0 0)
(0.003697402294729693 0 0)
(0.00364955288264491 0 0)
(0.003607469936219531 0 0)
(0.003561977189822109 0 0)
(0.003517787097644889 0 0)
(0.003458003078170943 0 0)
(0.003417597527733281 0 0)
(0.003393567452975968 0 0)
(0.003356210059520148 0 0)
(0.003310083579783387 0 0)
(0.003299475887580281 0 0)
(0.003294250113801786 0 0)
(0.003258376769473731 0 0)
(0.003260860145555191 0 0)
(0.003279910577233348 0 0)
(0.003271047053461962 0 0)
(0.003294823446740758 0 0)
(0.003348911410385643 0 0)
(0.00338790394881293 0 0)
(0.003405803153769368 0 0)
(0.003501627435824267 0 0)
(0.003554012338442249 0 0)
(0.003603324781246826 0 0)
(0.003709162941365846 0 0)
(0.003793371288626076 0 0)
(0.003857899313532693 0 0)
(0.003953355348460741 0 0)
(0.004049935167638921 0 0)
(0.004111701809090858 0 0)
(0.004198172803928317 0 0)
(0.004296514511475879 0 0)
(0.004368320525129225 0 0)
(0.004444567205650096 0 0)
(0.004532712800511541 0 0)
(0.004588807990136281 0 0)
(0.004645151878596641 0 0)
(0.00471515763394596 0 0)
(0.00474970760200849 0 0)
(0.004770050486860807 0 0)
(0.004809357754909731 0 0)
(0.004847311088398002 0 0)
(0.004846892762251842 0 0)
(0.00484500195082923 0 0)
(0.004838786809499029 0 0)
(0.004839458052465615 0 0)
(0.004794097218692324 0 0)
(0.004768554832031971 0 0)
(0.004764824350505054 0 0)
(0.004702251762251792 0 0)
(0.004652996523363978 0 0)
(0.004623015220597564 0 0)
(0.004576691183079361 0 0)
(0.004515543292586864 0 0)
(0.004498397314419483 0 0)
(0.004466187591559652 0 0)
(0.004425161289382006 0 0)
(0.004409286586262885 0 0)
(0.004404687378220505 0 0)
(0.004375690806552089 0 0)
(0.004386140543299732 0 0)
(0.004386581946536535 0 0)
(0.004401380657833008 0 0)
(0.004411375480654736 0 0)
(0.004471067720923831 0 0)
(0.004498120869180775 0 0)
(0.004549847292034667 0 0)
(0.004620080588408133 0 0)
(0.004678229096283789 0 0)
(0.004747503008990704 0 0)
(0.004844061435381518 0 0)
(0.004921692475969856 0 0)
(0.005018622075073729 0 0)
(0.005107665893584155 0 0)
(0.00519335933996513 0 0)
(0.00527942162677501 0 0)
(0.005375810114973695 0 0)
(0.005454715291268176 0 0)
(0.005557174071947796 0 0)
(0.005637528540759009 0 0)
(0.005710034525743533 0 0)
(0.005808000418219904 0 0)
(0.005862853098375552 0 0)
(0.005917714486078189 0 0)
(0.005988560418501048 0 0)
(0.006019424539446147 0 0)
(0.006051016301398482 0 0)
(0.006100896374400117 0 0)
(0.006116037036781936 0 0)
(0.006120206280001808 0 0)
(0.006138578587164817 0 0)
(0.006126285981668173 0 0)
(0.006092376108774804 0 0)
(0.0061145822314311 0 0)
(0.006059058234428974 0 0)
(0.006041356029419272 0 0)
(0.006022323110602365 0 0)
(0.005959701171670226 0 0)
(0.005928185016783208 0 0)
(0.005902610284642077 0 0)
(0.005840845109678377 0 0)
(0.0058460884377647 0 0)
(0.005813196909105539 0 0)
(0.005784488806451943 0 0)
(0.005787012551672279 0 0)
(0.005773090032731468 0 0)
(0.005772358235238624 0 0)
(0.005783320713123265 0 0)
(0.005792183069625958 0 0)
(0.005819728860493719 0 0)
(0.005847089143035974 0 0)
(0.005909584809081424 0 0)
(0.005954819909534454 0 0)
(0.006006016299097633 0 0)
(0.006098215943274032 0 0)
(0.006149838914722437 0 0)
(0.006239688007106394 0 0)
(0.006337150076205853 0 0)
(0.006433700694545416 0 0)
(0.00652090764429263 0 0)
(0.006624168420291377 0 0)
(0.006712507653827345 0 0)
(0.00680689838221862 0 0)
(0.006887985957653401 0 0)
(0.00699879520520458 0 0)
(0.007087041385128634 0 0)
(0.007173852747568853 0 0)
(0.007258020407423998 0 0)
(0.00733597803099309 0 0)
(0.007398035177819683 0 0)
(0.007471676145756134 0 0)
(0.007513120728851237 0 0)
(0.007553994099119742 0 0)
(0.007601275512212066 0 0)
(0.007635228303020827 0 0)
(0.007648990775361865 0 0)
(0.0076656787091533 0 0)
(0.007674739896590507 0 0)
(0.007647195951977433 0 0)
(0.007660463614417425 0 0)
(0.007638901518033545 0 0)
(0.007614931090723832 0 0)
(0.007601914674538129 0 0)
(0.007563387947597164 0 0)
(0.007526630307381053 0 0)
(0.00750615173730249 0 0)
(0.007455111083200338 0 0)
(0.007440706288864594 0 0)
(0.007440226563694956 0 0)
(0.007412715186433346 0 0)
(0.007397485434756648 0 0)
(0.007407376158252228 0 0)
(0.007408055737760945 0 0)
(0.007407190977029464 0 0)
(0.007433458490247452 0 0)
(0.007453627813921948 0 0)
(0.007484715474521699 0 0)
(0.007538920893028783 0 0)
(0.007594150742285966 0 0)
(0.007646941261234798 0 0)
(0.007719959557159853 0 0)
(0.007793851852380859 0 0)
(0.007876612020749123 0 0)
(0.007973861911301188 0 0)
(0.008058279672451639 0 0)
(0.00817479294206336 0 0)
(0.008264108644127865 0 0)
(0.008364697521523036 0 0)
(0.008449709722401897 0 0)
(0.008541334981386524 0 0)
(0.008645648406600545 0 0)
(0.008754364744018656 0 0)
(0.008814680917453663 0 0)
(0.00894023770843351 0 0)
(0.009006127089052312 0 0)
(0.009070172182476785 0 0)
(0.009141551308860152 0 0)
(0.009221062139421919 0 0)
(0.009233666698147991 0 0)
(0.009294854868058377 0 0)
(0.00935398832372936 0 0)
(0.009350443812151705 0 0)
(0.00937426457592019 0 0)
(0.009409915221175765 0 0)
(0.009385917050540111 0 0)
(0.009364679473520449 0 0)
(0.009408015446366961 0 0)
(0.009346427166893051 0 0)
(0.009326235919711517 0 0)
(0.00934473510854684 0 0)
(0.009276905109701547 0 0)
(0.009247562260670469 0 0)
(0.009220849797853857 0 0)
(0.009205320113472745 0 0)
(0.009167399802863373 0 0)
(0.00917471377760213 0 0)
(0.009162166220448653 0 0)
(0.009161510365114141 0 0)
(0.009158868676056909 0 0)
(0.009161710041354772 0 0)
(0.009203913749878053 0 0)
(0.009210934498010795 0 0)
(0.009235639624663883 0 0)
(0.009292015791288905 0 0)
(0.009367169853793263 0 0)
(0.009409127862234776 0 0)
(0.009456926750409732 0 0)
(0.009581536929132944 0 0)
(0.009640972380678471 0 0)
(0.009717610288966377 0 0)
(0.009842530411232547 0 0)
(0.009947347090645384 0 0)
(0.01001467888511738 0 0)
(0.01015766248355101 0 0)
(0.0102502106007625 0 0)
(0.01031606977053358 0 0)
(0.01043035520983756 0 0)
(0.01056087072066258 0 0)
(0.01062118333768091 0 0)
(0.01072362751799249 0 0)
(0.010843990176248 0 0)
(0.0108994477767267 0 0)
(0.01094699458888838 0 0)
(0.01107315400099762 0 0)
(0.01109271717981178 0 0)
(0.01112708777265187 0 0)
(0.01120871922105349 0 0)
(0.0112451185527286 0 0)
(0.01123342637709258 0 0)
(0.0112850820065729 0 0)
(0.01129590336101784 0 0)
(0.0112739526017202 0 0)
(0.01128418794233676 0 0)
(0.01128861084613779 0 0)
(0.01125581933424627 0 0)
(0.01124821333900553 0 0)
(0.0112402628626938 0 0)
(0.01119687756412352 0 0)
(0.01118075962932471 0 0)
(0.01114378756282663 0 0)
(0.0111482916411254 0 0)
(0.01111723736430087 0 0)
(0.0111318900860592 0 0)
(0.01113132763435075 0 0)
(0.01112893636927467 0 0)
(0.01115007051297147 0 0)
(0.01116422040178304 0 0)
(0.01117719805377793 0 0)
(0.01122375935482116 0 0)
(0.01126037786946655 0 0)
(0.01132300333739231 0 0)
(0.0113787580610102 0 0)
(0.01145384535709481 0 0)
(0.01152333620209181 0 0)
(0.01161528016993669 0 0)
(0.01169006572582174 0 0)
(0.01180267735412586 0 0)
(0.01189583600131208 0 0)
(0.01201141723150658 0 0)
(0.0121031457287435 0 0)
(0.01221593157832796 0 0)
(0.01231492819519448 0 0)
(0.01239773319222264 0 0)
(0.0125178424295694 0 0)
(0.01261266473234438 0 0)
(0.01270569447314233 0 0)
(0.01280385302827727 0 0)
(0.01290950958772448 0 0)
(0.0129588158951258 0 0)
(0.01304333518489281 0 0)
(0.01311394500354243 0 0)
(0.01313387918848559 0 0)
(0.01321074999885336 0 0)
(0.01325093111063553 0 0)
(0.01327531552736544 0 0)
(0.01329506393794045 0 0)
(0.0133240561448155 0 0)
(0.01331748233937621 0 0)
(0.0133204000311463 0 0)
(0.01331782935001222 0 0)
(0.01331382902116309 0 0)
(0.01329862925932709 0 0)
(0.01328690982953423 0 0)
(0.01326846494210032 0 0)
(0.01324036131236886 0 0)
(0.01322278862860001 0 0)
(0.01320442433547661 0 0)
(0.01318835553105973 0 0)
(0.01319103691772796 0 0)
(0.01319543593602701 0 0)
(0.0132025808050484 0 0)
(0.01320619957945213 0 0)
(0.01322855717915336 0 0)
(0.01324908399214136 0 0)
(0.01326704889090253 0 0)
(0.01330772690790963 0 0)
(0.01337644844163979 0 0)
(0.01341461173436249 0 0)
(0.01347566541618219 0 0)
(0.01357110887649305 0 0)
(0.01363143828537893 0 0)
(0.01371204777495771 0 0)
(0.01382570696814321 0 0)
(0.01390543081228108 0 0)
(0.01401428608124356 0 0)
(0.01412445717251272 0 0)
(0.01422732852252989 0 0)
(0.01430478189146997 0 0)
(0.01442103781594203 0 0)
(0.01451977308796452 0 0)
(0.01460457333302503 0 0)
(0.01470886688361626 0 0)
(0.01480495486117484 0 0)
(0.01490391985518241 0 0)
(0.01496155252870209 0 0)
(0.01506038131099531 0 0)
(0.01511403264690864 0 0)
(0.01515091225744104 0 0)
(0.01520674488028727 0 0)
(0.01525985552711144 0 0)
(0.01528239804886123 0 0)
(0.01531644352454292 0 0)
(0.01533235442252048 0 0)
(0.01534290930963395 0 0)
(0.01534592123854816 0 0)
(0.01533286509217279 0 0)
(0.01533130830697041 0 0)
(0.01532919524411842 0 0)
(0.01529629935582361 0 0)
(0.0152998557918461 0 0)
(0.01525558852905554 0 0)
(0.01522420358547317 0 0)
(0.01521298201448821 0 0)
(0.01520172682001349 0 0)
(0.01517439377056248 0 0)
(0.01517208971720923 0 0)
(0.01519648029981579 0 0)
(0.01517827554209 0 0)
(0.01519226224858283 0 0)
(0.01523289314610604 0 0)
(0.01523225470634854 0 0)
(0.01524264540542607 0 0)
(0.01532295409666631 0 0)
(0.01535971454676032 0 0)
(0.01541697862963652 0 0)
(0.01547982540827504 0 0)
(0.0155695429410062 0 0)
(0.01564440661589367 0 0)
(0.01571480994680286 0 0)
(0.0158275344747603 0 0)
(0.01591983571046156 0 0)
(0.01601697659496262 0 0)
(0.01612903059029402 0 0)
(0.01622989743663896 0 0)
(0.01629797411269666 0 0)
(0.01640656463587796 0 0)
(0.01650702227663395 0 0)
(0.01660383473421246 0 0)
(0.01667688066149615 0 0)
(0.01679882559982149 0 0)
(0.01685969290657685 0 0)
(0.01693889095159165 0 0)
(0.01701623079467957 0 0)
(0.0170774369252635 0 0)
(0.01708611865632859 0 0)
(0.01715656798531197 0 0)
(0.01719433632070147 0 0)
(0.01721610614301901 0 0)
(0.01723166112045076 0 0)
(0.01725316148084623 0 0)
(0.01724913477278941 0 0)
(0.01725777049153225 0 0)
(0.01724407128476527 0 0)
(0.01724046785700172 0 0)
(0.01721875494232469 0 0)
(0.01722077683387809 0 0)
(0.01719381297727639 0 0)
(0.01714160873517219 0 0)
(0.01713353518468608 0 0)
(0.01711057408212253 0 0)
(0.01708926603209841 0 0)
(0.01710169715399713 0 0)
(0.01708368224101735 0 0)
(0.01707831108479905 0 0)
(0.01710682518016663 0 0)
(0.01713892206408054 0 0)
(0.01712886929723164 0 0)
(0.01717406153307506 0 0)
(0.01720935553527264 0 0)
(0.01726222777018124 0 0)
(0.01732398211347874 0 0)
(0.01740122812410649 0 0)
(0.01744040594407972 0 0)
(0.01755517766550857 0 0)
(0.0176370492579128 0 0)
(0.01771553925562857 0 0)
(0.01782761980865296 0 0)
(0.01793349780566867 0 0)
(0.01801696688833068 0 0)
(0.01815620436979314 0 0)
(0.01823347744811188 0 0)
(0.01830291380728929 0 0)
(0.01842542219720705 0 0)
(0.01854271127707186 0 0)
(0.01859345848067475 0 0)
(0.01873055703369468 0 0)
(0.01879997126532462 0 0)
(0.01886335218083195 0 0)
(0.01896997626276222 0 0)
(0.0190225356673992 0 0)
(0.01908658340602198 0 0)
(0.0191053261418939 0 0)
(0.019160369482248 0 0)
(0.01920333003330018 0 0)
(0.01921817736211737 0 0)
(0.01923478748623225 0 0)
(0.01925583059668277 0 0)
(0.01923633244021277 0 0)
(0.01925414149430578 0 0)
(0.01926248947585272 0 0)
(0.01922378316355036 0 0)
(0.01922762351037665 0 0)
(0.01922693902032008 0 0)
(0.01921028435044949 0 0)
(0.01913203123444919 0 0)
(0.01916169137655223 0 0)
(0.01911324968400392 0 0)
(0.01912885769851583 0 0)
(0.01914700899466084 0 0)
(0.01910570328537022 0 0)
(0.01913503948575732 0 0)
(0.01917674078112889 0 0)
(0.01915705242849572 0 0)
(0.01921637430309069 0 0)
(0.01926031006279868 0 0)
(0.01925532746878546 0 0)
(0.01936372149676577 0 0)
(0.01940564780892071 0 0)
(0.01947720416095067 0 0)
(0.0195457082443829 0 0)
(0.01964072371985787 0 0)
(0.01974025218777163 0 0)
(0.01982871872027744 0 0)
(0.0199359953306518 0 0)
(0.02001713656401884 0 0)
(0.0201459969337897 0 0)
(0.02027063047429679 0 0)
(0.02028459705994 0 0)
(0.02038724414505598 0 0)
(0.02059549120773086 0 0)
(0.02053997731470628 0 0)
(0.0207370792060995 0 0)
(0.02084398190911434 0 0)
(0.0208092151657089 0 0)
(0.02097925218629469 0 0)
(0.0211236540351805 0 0)
(0.02090326799266177 0 0)
(0.02116113844003932 0 0)
(0.02132484463829422 0 0)
)
;

boundaryField
{
    inlet
    {
        type            calculated;
        value           uniform (-0.0005990956254627347 0 0);
    }
    outlet
    {
        type            calculated;
        value           uniform (0.02132484463829422 0 0);
    }
    frontAndBack
    {
        type            empty;
    }
}


// ************************************************************************* //
