/*--------------------------------*- C++ -*----------------------------------*\
| =========                 |                                                 |
| \\      /  F ield         | OpenFOAM: The Open Source CFD Toolbox           |
|  \\    /   O peration     | Version:  v2012                                 |
|   \\  /    A nd           | Website:  www.openfoam.com                      |
|    \\/     M anipulation  |                                                 |
\*---------------------------------------------------------------------------*/
FoamFile
{
    version     2.0;
    format      ascii;
    class       volScalarField;
    location    "0.003";
    object      pMean;
}
// * * * * * * * * * * * * * * * * * * * * * * * * * * * * * * * * * * * * * //

dimensions      [1 -1 -2 0 0 0 0];


internalField   nonuniform List<scalar> 
1000
(
101325.070299107
101325.0377399668
101325.0409660762
101325.1279966783
101325.167515902
101325.2366798423
101325.3464981997
101325.4388431642
101325.5174520116
101325.6635638413
101325.7691819478
101325.8708738602
101326.0014475106
101326.1255378256
101326.2150948684
101326.3271459831
101326.4419961466
101326.5113209075
101326.5949773575
101326.6651635442
101326.7074714258
101326.7444416591
101326.7564888295
101326.7752941888
101326.7574096267
101326.7227770484
101326.6684403411
101326.6410507332
101326.5568902528
101326.4422805916
101326.3827177916
101326.2829733736
101326.1349648094
101326.0138994911
101325.9497627195
101325.8023634715
101325.6773092487
101325.5881903089
101325.487651706
101325.3746906523
101325.275419534
101325.2135508905
101325.1357220383
101325.0852307893
101325.0338589872
101325.023343778
101325.0178401441
101325.0154480877
101325.0473459005
101325.0861415952
101325.1456022546
101325.2102915317
101325.2991091207
101325.3821435439
101325.5045130256
101325.6176470349
101325.7269195078
101325.8393264007
101325.9531521533
101326.0650296443
101326.1751850234
101326.2791358409
101326.3703251592
101326.4709902916
101326.5590148971
101326.6201196881
101326.6805989128
101326.7251333849
101326.7655182231
101326.759417558
101326.7589791368
101326.7417277561
101326.7074124874
101326.6411413414
101326.5820418862
101326.509107866
101326.4044592342
101326.2952528368
101326.1943394111
101326.0731987071
101325.9481921879
101325.8625007864
101325.7445218025
101325.618509832
101325.5308929703
101325.4353356016
101325.3339621771
101325.245074355
101325.1783404739
101325.1163333006
101325.0656139054
101325.0247624881
101325.0196023195
101325.0202955166
101325.029456202
101325.0644494809
101325.1264723358
101325.1833277333
101325.2606350651
101325.3633537574
101325.4660997859
101325.579156381
101325.6987680887
101325.7993987884
101325.9075426572
101326.0301674465
101326.132918683
101326.2222107741
101326.3395637095
101326.4282500697
101326.4993262567
101326.592480313
101326.6558610653
101326.6872195686
101326.7460441671
101326.7684316449
101326.74954012
101326.7536823652
101326.7298249543
101326.6631699959
101326.6063244095
101326.5474637206
101326.4342232389
101326.3203259914
101326.2342342473
101326.1136094377
101325.9877505469
101325.8965755512
101325.7943505908
101325.6630576206
101325.5795104143
101325.4807154276
101325.37432665
101325.2942714959
101325.2221563653
101325.1461138622
101325.0908195037
101325.0596402928
101325.0244331912
101325.020355253
101325.026245512
101325.0578871794
101325.0899281621
101325.1605455405
101325.235469939
101325.3228732166
101325.4409957578
101325.5399658861
101325.6653167669
101325.7635256492
101325.8693962589
101325.9845296125
101326.0959066047
101326.1795553222
101326.2870423626
101326.4010457887
101326.4550596477
101326.5463953052
101326.6279031908
101326.6715398237
101326.7056556253
101326.7557878458
101326.7618095641
101326.7394254001
101326.7434366941
101326.6964887383
101326.6307298981
101326.5626322341
101326.4905796573
101326.3556153044
101326.2599196561
101326.1529047672
101326.0385252267
101325.9324483518
101325.8280550959
101325.7184153565
101325.6165491206
101325.5263621435
101325.4150373612
101325.3405167881
101325.2608505148
101325.1806978128
101325.1235909635
101325.0801894146
101325.0488414528
101325.0222498709
101325.0340047922
101325.0422799471
101325.0787220317
101325.1366111091
101325.2071688477
101325.2843043998
101325.4094443873
101325.5130974681
101325.6163825549
101325.7283329148
101325.8356215572
101325.9431961649
101326.0437136277
101326.1553136751
101326.2378844938
101326.3473153234
101326.429099324
101326.5090646259
101326.5804888729
101326.6412598378
101326.6954914546
101326.7204687545
101326.7510305483
101326.7443647477
101326.7442539708
101326.7027613406
101326.6586954096
101326.5917552124
101326.5110101834
101326.4008461035
101326.2910520716
101326.1893030261
101326.0774999456
101325.9762042783
101325.8633358444
101325.7600464881
101325.6609951272
101325.5657712263
101325.4612801172
101325.3747397865
101325.3035588121
101325.2180592291
101325.1594400922
101325.1062759907
101325.0691695595
101325.0402942134
101325.0416550066
101325.042659607
101325.0682464829
101325.1213153604
101325.1844343753
101325.2620708326
101325.373076301
101325.4826990003
101325.5853954706
101325.6913605095
101325.80118902
101325.9041215628
101326.0056926224
101326.1117931769
101326.2067569926
101326.3005997151
101326.3918426474
101326.4733640742
101326.5451870301
101326.6088124362
101326.6681700582
101326.7034212928
101326.7291991662
101326.739650718
101326.7423527536
101326.711775789
101326.6687455008
101326.6174710575
101326.5374540405
101326.4329882066
101326.3276985213
101326.2228665292
101326.1154800208
101326.0086040843
101325.9122900011
101325.7971802029
101325.7028412189
101325.6047967126
101325.5104267312
101325.4135462195
101325.3357056052
101325.2651947474
101325.1875063197
101325.1351678453
101325.0970996249
101325.0639491014
101325.0412736462
101325.0550187029
101325.0696010249
101325.1056597817
101325.1668584786
101325.2360837211
101325.3445391396
101325.4438478395
101325.5597535362
101325.6503815725
101325.769135991
101325.8637060171
101325.9745234691
101326.0694898737
101326.1683217699
101326.2651476285
101326.3504699768
101326.4408471239
101326.5054002567
101326.5852859695
101326.6310337671
101326.6840087455
101326.7098810575
101326.7317812708
101326.7319288097
101326.7100838076
101326.6892812941
101326.6258153086
101326.5660540086
101326.4625355957
101326.3679299659
101326.2521670677
101326.1528255279
101326.0491381669
101325.9452671842
101325.8369794464
101325.7409726974
101325.64806704
101325.5402912846
101325.4591893954
101325.3722913207
101325.2961870426
101325.2229698973
101325.1671761544
101325.1177840227
101325.0819898657
101325.065547011
101325.056209896
101325.072613387
101325.0976793296
101325.1555989482
101325.2147965744
101325.3118608268
101325.4156090235
101325.5219642654
101325.625496523
101325.7262341374
101325.8306916801
101325.9367889952
101326.0302050226
101326.1287089172
101326.2294115012
101326.314223694
101326.396606853
101326.4792200557
101326.5470459465
101326.6054441606
101326.654761562
101326.6921268122
101326.7152762598
101326.7204426795
101326.7155431228
101326.6887989303
101326.6400118783
101326.5836098844
101326.5044378975
101326.3904469384
101326.2934362254
101326.1889022441
101326.0886918901
101325.9775375166
101325.8835061046
101325.7825545418
101325.6793031586
101325.5912248208
101325.4949687023
101325.4136534885
101325.3295939793
101325.2631805824
101325.19626599
101325.1477545797
101325.1066279909
101325.081821227
101325.0717229431
101325.0719107204
101325.1027807617
101325.1377238505
101325.2035957665
101325.2760753453
101325.3925420202
101325.4834661568
101325.5951567938
101325.6921147978
101325.7949917226
101325.9006391252
101325.9930694037
101326.0982319948
101326.1818524586
101326.2863322844
101326.358066449
101326.4459578355
101326.5127670122
101326.5781756758
101326.6305117098
101326.66695581
101326.7035036261
101326.7047056214
101326.7158317662
101326.6851424269
101326.6576189011
101326.59510164
101326.5307839324
101326.4282643904
101326.3234141916
101326.225200507
101326.1175893965
101326.0199524974
101325.9126152992
101325.8174337963
101325.7159849689
101325.620206975
101325.5271097924
101325.4390061263
101325.3554249634
101325.2763781254
101325.2104414093
101325.14356218
101325.0974508147
101325.0506075898
101325.0241783025
101325.0014818101
101325.0000004433
101325
101325
101325
101325
101325
101325.0000000001
101325
101325.0000000001
101325.0000000001
101325
101325
101325.0000000001
101325.0000000001
101325.0000000001
101325.0000000001
101325
101325.0000000001
101325.0000000001
101325.0000000001
101325
101325.0000000001
101325.0000000001
101325.0000000001
101325.0000000001
101325.0000000001
101325
101325.0000000001
101325.0000000001
101325.0000000001
101325.0000000001
101325.0000000001
101325.0000000001
101325
101325.0000000001
101325
101325.0000000001
101325.0000000001
101325.0000000001
101325.0000000001
101325.0000000001
101325.0000000001
101325.0000000001
101325.0000000001
101325.0000000001
101325.0000000001
101325.0000000001
101325.0000000001
101325.0000000001
101325.0000000001
101325.0000000001
101325.0000000001
101325.0000000001
101325.0000000001
101325.0000000001
101325.0000000001
101325.0000000001
101325.0000000001
101325.0000000001
101325.0000000001
101325.0000000001
101325.0000000001
101325.0000000001
101325.0000000001
101325.0000000001
101325.0000000001
101325.0000000001
101325.0000000001
101325.0000000001
101325.0000000001
101325.0000000001
101325
101325.0000000001
101325.0000000001
101325.0000000001
101325.0000000001
101325.0000000001
101325.0000000001
101325.0000000001
101325.0000000001
101325.0000000001
101325.0000000001
101325.0000000001
101325.0000000001
101325.0000000001
101325.0000000001
101325.0000000001
101325.0000000001
101325.0000000001
101325.0000000001
101325.0000000001
101325.0000000001
101325.0000000001
101325.0000000001
101325.0000000001
101325.0000000001
101325.0000000001
101325.0000000001
101325.0000000001
101325.0000000001
101325.0000000001
101325.0000000001
101325.0000000001
101325.0000000001
101325.0000000001
101325.0000000001
101325.0000000001
101325.0000000001
101325.0000000001
101325.0000000001
101325.0000000001
101325.0000000001
101325.0000000001
101325.0000000001
101325.0000000001
101325.0000000001
101325.0000000001
101325.0000000001
101325.0000000001
101325.0000000001
101325.0000000001
101325.0000000001
101325.0000000001
101325.0000000001
101325.0000000001
101325.0000000001
101325.0000000001
101325.0000000001
101325.0000000001
101325.0000000001
101325.0000000001
101325.0000000001
101325.0000000001
101325.0000000001
101325.0000000001
101325.0000000001
101325.0000000001
101325.0000000001
101325.0000000001
101325.0000000001
101325.0000000001
101325.0000000001
101325.0000000001
101325.0000000001
101325.0000000001
101325.0000000001
101325.0000000001
101325.0000000001
101325.0000000001
101325.0000000001
101325.0000000001
101325.0000000001
101325.0000000001
101325.0000000001
101325.0000000001
101325.0000000001
101325.0000000001
101325.0000000001
101325.0000000001
101325.0000000001
101325.0000000001
101325.0000000001
101325.0000000001
101325.0000000001
101325
101325.0000000001
101325.0000000001
101325.0000000001
101325.0000000001
101325.0000000001
101325.0000000001
101325.0000000001
101325.0000000001
101325.0000000001
101325.0000000001
101325
101325.0000000001
101325.0000000001
101325.0000000001
101325.0000000001
101325.0000000001
101325.0000000001
101325.0000000001
101325.0000000001
101325.0000000001
101325.0000000001
101325.0000000001
101325
101325.0000000001
101325
101325
101325.0000000001
101325.0000000001
101325.0000000001
101325.0000000001
101325.0000000001
101325.0000000001
101325.0000000001
101325.0000000001
101325.0000000001
101325.0000000001
101325.0000000001
101325.0000000001
101325.0000000001
101325.0000000001
101325.0000000001
101325.0000000001
101325.0000000001
101325.0000000001
101325.0000000001
101325.0000000001
101325.0000000001
101325.0000000001
101325.0000000001
101325.0000000001
101325.0000000001
101325.0000000002
101325.0000000001
101325.0000000002
101325.0000000001
101325.0000000001
101325.0000000001
101325.0000000001
101325.0000000001
101325.0000000001
101325.0000000001
101325.0000000001
101325.0000000002
101325.0000000001
101325.0000000001
101325.0000000001
101325.0000000001
101325.0000000001
101325.0000000002
101325.0000000002
101325.0000000001
101325.0000000002
101325.0000000001
101325.0000000002
101325.0000000002
101325.0000000001
101325.0000000001
101325.0000000001
101325.0000000002
101325.0000000001
101325.0000000002
101325.0000000002
101325.0000000001
101325.0000000001
101325.0000000002
101325.0000000001
101325.0000000001
101325.0000000002
101325.0000000002
101325.0000000001
101325.0000000002
101325.0000000001
101325.0000000001
101325.0000000002
101325.0000000001
101325.0000000002
101325.0000000002
101325.0000000001
101325.0000000002
101325.0000000002
101325.0000000001
101325.0000000001
101325.0000000002
101325.0000000002
101325.0000000001
101325.0000000001
101325.0000000002
101325.0000000001
101325.0000000001
101325.0000000001
101325.0000000002
101325.0000000002
101325.0000000002
101325.0000000002
101325.0000000001
101325.0000000001
101325.0000000001
101325.0000000001
101325.0000000001
101325.0000000002
101325.0000000002
101325.0000000002
101325.0000000002
101325.0000000002
101325.0000000002
101325.0000000002
101325.0000000001
101325.0000000001
101325.0000000001
101325.0000000001
101325.0000000001
101325.0000000002
101325.0000000002
101325.0000000002
101325.0000000001
101325.0000000001
101325.0000000001
101325.0000000001
101325.0000000001
101325.0000000001
101325.0000000002
101325.0000000001
101325.0000000001
101325.0000000002
101325.0000000001
101325.0000000001
101325.0000000001
101325.0000000001
101325.0000000002
101325.0000000001
101325.0000000001
101325.0000000001
101325.0000000001
101325.0000000001
101325.0000000001
101325.0000000001
101325.0000000001
101325.0000000001
101325.0000000001
101325.0000000001
101325.0000000001
101325.0000000001
101325.0000000001
101325.0000000001
101325.0000000001
101325.0000000001
101325.0000000001
101325.0000000002
101325.0000000001
101325.0000000001
101325.0000000001
101325.0000000001
101325.0000000001
101325.0000000002
101325.0000000001
101325.0000000001
101325.0000000001
101325.0000000001
101325.0000000001
101325.0000000001
101325.0000000001
101325.0000000002
101325.0000000001
101325.0000000001
101325.0000000001
101325.0000000001
101325.0000000001
101325.0000000001
101325.0000000001
101325.0000000002
101325.0000000001
101325.0000000001
101325.0000000001
101325.0000000001
101325.0000000001
101325.0000000001
101325.0000000001
101325.0000000001
101325.0000000001
101325.0000000002
101325.0000000001
101325.0000000001
101325.0000000001
101325.0000000002
101325.0000000002
101325.0000000002
101325.0000000001
101325.0000000001
101325.0000000002
101325.0000000001
101325.0000000002
101325.0000000001
101325.0000000001
101325.0000000001
101325.0000000001
101325.0000000001
101325.0000000002
101325.0000000001
101325.0000000001
101325.0000000001
101325.0000000001
101325.0000000001
101325.0000000002
101325.0000000002
101325.0000000002
101325.0000000002
101325.0000000002
101325.0000000002
101325.0000000002
101325.0000000001
101325.0000000001
101325.0000000002
101325.0000000002
101325.0000000002
101325.0000000002
101325.0000000002
101325.0000000001
101325.0000000001
101325.0000000001
101325.0000000001
101325.0000000002
101325.0000000001
101325.0000000002
101325.0000000002
101325.0000000002
101325.0000000002
101325.0000000002
101325.0000000001
101325.0000000002
101325.0000000001
101325.0000000002
101325.0000000001
101325.0000000001
101325.0000000002
101325.0000000001
101325.0000000002
101325.0000000001
101325.0000000002
101325.0000000001
101325.0000000002
101325.0000000002
101325.0000000001
101325.0000000001
101325.0000000002
101325.0000000002
101325.0000000002
101325.0000000002
101325.0000000001
101325.0000000002
101325.0000000002
101325.0000000002
101325.0000000001
101325.0000000002
101325.0000000001
101325.0000000002
101325.0000000002
101325.0000000002
101325.0000000002
101325.0000000002
101325.0000000002
101325.0000000002
101325.0000000002
101325.0000000001
101325.0000000002
101325.0000000002
101325.0000000002
101325.0000000002
101325.0000000002
101325.0000000001
101325.0000000001
101325.0000000001
101325.0000000002
101325.0000000001
101325.0000000002
101325.0000000001
101325.0000000001
101325.0000000001
101325.0000000002
101325.0000000001
101325.0000000002
101325.0000000002
101325.0000000001
101325.0000000002
101325.0000000001
101325.0000000002
101325.0000000001
101325.0000000001
101325.0000000001
101325.0000000001
101325.0000000001
101325.0000000002
101325.0000000001
101325.0000000001
101325.0000000001
101325.0000000001
101325.0000000001
101325.0000000002
101325.0000000001
101325.0000000001
101325.0000000002
101325.0000000001
101325.0000000002
101325.0000000001
101325.0000000001
101325.0000000001
101325.0000000001
101325.0000000002
101325.0000000002
101325.0000000001
101325.0000000001
101325.0000000001
101325.0000000001
101325.0000000001
101325.0000000001
101325.0000000001
101325.0000000001
101325.0000000001
101325.0000000001
101325.0000000001
101325.0000000001
101325
101325.0000000001
101325.0000000001
101325.0000000002
101325.0000000001
101325.0000000001
101325.0000000001
101325.0000000001
101325.0000000001
101325.0000000001
101325.0000000001
101325.0000000002
101325.0000000001
101325.0000000001
101325.0000000001
101325.0000000001
101325.0000000001
101325.0000000001
101325.0000000001
101325.0000000001
101325.0000000001
101325.0000000001
101325.0000000001
101325.0000000001
101325.0000000001
101325.0000000001
101325.0000000001
101325.0000000001
101325.0000000001
101325.0000000001
101325.0000000001
101325.0000000002
101325.0000000001
101325.0000000001
101325.0000000001
101325.0000000001
101325.0000000001
101325.0000000001
101325.0000000002
101325.0000000001
101325.0000000002
101325.0000000002
101325.0000000001
101325.0000000001
101325.0000000001
101325.0000000002
101325.0000000002
101325.0000000002
101325.0000000002
101325.0000000002
101325.0000000002
101325.0000000002
101325.0000000001
101325.0000000002
101325.0000000001
101325.0000000001
101325.0000000002
101325.0000000001
101325.0000000002
101325.0000000001
101325.0000000002
101325.0000000001
101325.0000000002
101325.0000000002
101325.0000000002
101325.0000000002
101325.0000000001
101325.0000000001
101325.0000000001
101325.0000000001
101325.0000000002
101325.0000000002
101325.0000000002
101325.0000000001
101325.0000000002
101325.0000000002
)
;

boundaryField
{
    inlet
    {
        type            calculated;
        value           uniform 101325.0117758719;
    }
    outlet
    {
        type            calculated;
        value           uniform 101325.0000000002;
    }
    frontAndBack
    {
        type            empty;
    }
}


// ************************************************************************* //
