/*--------------------------------*- C++ -*----------------------------------*\
| =========                 |                                                 |
| \\      /  F ield         | OpenFOAM: The Open Source CFD Toolbox           |
|  \\    /   O peration     | Version:  v2012                                 |
|   \\  /    A nd           | Website:  www.openfoam.com                      |
|    \\/     M anipulation  |                                                 |
\*---------------------------------------------------------------------------*/
FoamFile
{
    version     2.0;
    format      ascii;
    class       volScalarField;
    location    "0.003";
    object      rho;
}
// * * * * * * * * * * * * * * * * * * * * * * * * * * * * * * * * * * * * * //

dimensions      [1 -3 0 0 0 0 0];


internalField   nonuniform List<scalar> 
1000
(
1.176233573377778
1.176285158032266
1.176248040113764
1.176164717027735
1.176141439720088
1.176093134118304
1.176054361426061
1.176051389962621
1.17600977540229
1.176007091755563
1.176009429024665
1.176009070890534
1.176019422154893
1.176034351819509
1.176045810889015
1.176089394602914
1.176117524979679
1.176160953314507
1.176215692455155
1.176256783581416
1.176312925659768
1.176366851591316
1.176421662020612
1.176478153177733
1.176530700609317
1.176585069061626
1.176633199976026
1.176677992846502
1.176720256072954
1.176755274542957
1.17679716864303
1.176809634963716
1.17680999597948
1.176806832396763
1.176805813438075
1.176799262143223
1.17678369220343
1.176774910076664
1.176744372951724
1.176714336485038
1.17667923095548
1.176626508576614
1.176581240097592
1.176524101033896
1.176467560606211
1.176413606890845
1.1763563949114
1.176303204695438
1.176250487298029
1.176199550524446
1.176152422879514
1.176109367522708
1.176062519449995
1.176021850859746
1.176019325976706
1.176021396567247
1.176020489756031
1.176023438306324
1.176033546752736
1.176036774354411
1.176056283940455
1.176080910018971
1.176096982739116
1.176144114308717
1.176179802198752
1.176225546446506
1.176285661392035
1.176334536310624
1.176397407082713
1.176453640948397
1.176508020493712
1.176564658553448
1.176613720396293
1.176662578969742
1.176706847117667
1.176756602363889
1.176798720273492
1.176800091530535
1.176800089937164
1.176800362471119
1.176792935745533
1.176792243104117
1.176780690461463
1.176762965368378
1.176753945728092
1.176719787849395
1.17669089838947
1.176658653451038
1.176603800254747
1.17656132295635
1.17650367053861
1.176443380233358
1.176387673790385
1.176325477410064
1.176269678857113
1.176215266333894
1.176163216640531
1.176118781211853
1.176061981918297
1.176027432750351
1.176026525935259
1.176027516333345
1.176028006284816
1.1760315053838
1.176037959700068
1.176043101026617
1.17606188395949
1.176075752978182
1.176095415268792
1.17613523804608
1.176159058462205
1.176204493779608
1.176259377345542
1.176300895578258
1.176364926036663
1.176422662354144
1.176479153301601
1.176541581163769
1.176595586567964
1.176650240042988
1.176698073334221
1.176757626674233
1.176792073461899
1.176792848592412
1.176791815396912
1.176791626259237
1.176788410095073
1.176782557617949
1.176778227281521
1.176761460205728
1.176748378270837
1.176731700498696
1.176694311149188
1.176671936922207
1.176630702743917
1.176577371040379
1.176537692491915
1.176475548097044
1.176417495564722
1.176360444078951
1.176295502931609
1.176238908287934
1.176179930950052
1.176127939822723
1.176059673898517
1.176032748984914
1.17603267744328
1.176033478921
1.176033333312663
1.176038582427553
1.176042380970387
1.176046533334407
1.176065240086883
1.176073389162505
1.176094695867431
1.17612670469687
1.176147803167689
1.176192811446483
1.176234586383016
1.176277505938213
1.176338128816396
1.1763890572726
1.176449191244271
1.176511679749031
1.176568266055374
1.176629757307824
1.176682368450144
1.176752406200518
1.176787713174639
1.176788256743875
1.17678734276241
1.176787255685519
1.176784082743499
1.176778557027829
1.176775760097642
1.176759817686734
1.1767476484345
1.176735373114848
1.176700556702629
1.176679688466457
1.176645654566092
1.176596212295042
1.176559430585656
1.176503155852286
1.176446653061818
1.176391102183396
1.176325540327778
1.176266307553612
1.176202865968179
1.176144856240466
1.176067986623632
1.176037487596607
1.176037055288377
1.17603806885752
1.176038465443417
1.176040617331914
1.176047033680332
1.176050444763203
1.176063341439294
1.1760773677639
1.176092311954825
1.176120054376199
1.176142822802352
1.176178228391525
1.176219233907928
1.17625776496355
1.176312780170519
1.176363713886949
1.176419181120838
1.176483041478639
1.17654081918522
1.176604294105483
1.176662110112534
1.176738186226904
1.176780746530512
1.176783868619882
1.176783499784175
1.176781355303523
1.176781872965734
1.176775617328924
1.176768873382512
1.176763363679066
1.176745904169538
1.176732752382987
1.176710691262688
1.176683498493238
1.176654435811447
1.176615582780216
1.176574491634618
1.176526053789279
1.17647315786343
1.176416552301003
1.176355009004219
1.176292888275909
1.176227212934232
1.176166763308738
1.176084769847119
1.176042938353739
1.176042311790316
1.176043033060861
1.176042994879564
1.176046483707236
1.17605021700035
1.176054902540814
1.176066127340555
1.176076101571479
1.176094433095929
1.176112301137467
1.176137931870885
1.176170553171931
1.176200548966752
1.176246533237848
1.176290652351253
1.176338615144178
1.176398262164313
1.176453199457905
1.176515379862745
1.176579705933694
1.17663890636152
1.176712392917257
1.176774903825189
1.176778003841358
1.176777595965
1.176777326188772
1.176775328440122
1.176771220293088
1.176768647426434
1.176756746646526
1.176747861118735
1.176735261171056
1.176710026421348
1.176693952870083
1.176662687277654
1.17662542732704
1.17659320227335
1.176542922435908
1.176495215168387
1.176441832299052
1.176379718647457
1.17632093919588
1.176253890576197
1.176190556678588
1.176114915619093
1.176050005780411
1.176047079437886
1.176046818833605
1.176048478087949
1.176049038874319
1.176053187293013
1.176059692677308
1.176064695610737
1.176078720322777
1.176092116677608
1.176108517053179
1.176135664967738
1.176159453616703
1.176193494005183
1.176231628032829
1.176272404912866
1.17632205133837
1.176372865541692
1.176429661968611
1.17648992280918
1.176551205898633
1.176615839049866
1.176678681941406
1.176761208010771
1.1767743650014
1.176774298690156
1.176773517947661
1.176772831238182
1.176768703173372
1.176765459399956
1.176757410741326
1.1767449444492
1.176738402455166
1.176714758369094
1.17669441164981
1.176673701791866
1.176634111570599
1.176603564090008
1.176561085600103
1.176510858411357
1.176463666535203
1.176403869896745
1.176344133139951
1.17628180296374
1.176214070339776
1.176149030030476
1.176063395736644
1.17605259190251
1.176052064667731
1.176052489859964
1.176054081969237
1.176057920315143
1.176059676452728
1.176070195522041
1.176079669569179
1.176086438815926
1.176111933878944
1.176127849980205
1.176150739873903
1.176187782474584
1.176215987762057
1.176259055107766
1.176305142850874
1.176350906569184
1.176408796817286
1.176464490277807
1.176524895805731
1.176590316106701
1.17664803777356
1.176733437554234
1.176769122916673
1.176769827220282
1.17676937246324
1.176767726230171
1.176767658504592
1.176760457175573
1.176754891381911
1.176749863281067
1.176731470562911
1.176721235924007
1.176700842342868
1.176673532712087
1.176649974032626
1.176611996817271
1.176574720556342
1.176531547676209
1.176479903181798
1.176428584951221
1.176367937032358
1.176307308196424
1.176241909619754
1.176179305970009
1.176091269190018
1.176056539465697
1.176056549981236
1.176056345677046
1.176057628176882
1.176059781117112
1.176063733613683
1.176070158376784
1.176078916770074
1.176090549829107
1.176106067148922
1.176124695437778
1.176148082014576
1.176176006970051
1.176208191903517
1.176245593297196
1.176287902566922
1.176335072939465
1.176385866183159
1.176442426180239
1.176500982597018
1.176562451112258
1.176625040508962
1.176694437586542
1.176763441678991
1.1767675085203
1.176767254991364
1.176767673577876
1.176763790960933
1.176762240626501
1.176758294537795
1.176747665279799
1.176742546097752
1.176727699335524
1.17671035519307
1.176695024364279
1.176667404221134
1.176642633613925
1.176612580167717
1.176576198783678
1.176541314073697
1.176502202374393
1.176458019929609
1.17641455445711
1.176411717021186
1.17641171617217
1.17641171617217
1.17641171617217
1.176411716172173
1.176411716172174
1.176411716172179
1.176411716172182
1.176411716172186
1.176411716172188
1.176411716172188
1.176411716172191
1.176411716172191
1.176411716172191
1.176411716172192
1.176411716172191
1.176411716172192
1.176411716172191
1.176411716172193
1.17641171617219
1.176411716172194
1.176411716172191
1.176411716172192
1.176411716172192
1.176411716172193
1.176411716172192
1.176411716172193
1.176411716172194
1.17641171617219
1.176411716172194
1.176411716172191
1.176411716172194
1.176411716172192
1.176411716172193
1.176411716172191
1.176411716172195
1.176411716172191
1.176411716172192
1.176411716172194
1.176411716172192
1.176411716172194
1.176411716172193
1.176411716172193
1.176411716172194
1.176411716172193
1.176411716172193
1.176411716172193
1.176411716172193
1.176411716172193
1.176411716172192
1.176411716172194
1.176411716172194
1.176411716172192
1.176411716172193
1.176411716172194
1.176411716172193
1.176411716172193
1.176411716172193
1.176411716172194
1.176411716172193
1.176411716172193
1.176411716172193
1.176411716172194
1.176411716172194
1.176411716172193
1.176411716172193
1.176411716172193
1.176411716172193
1.176411716172193
1.176411716172193
1.176411716172192
1.176411716172194
1.176411716172193
1.176411716172193
1.176411716172193
1.176411716172195
1.176411716172192
1.176411716172194
1.176411716172193
1.176411716172193
1.176411716172193
1.176411716172193
1.176411716172193
1.176411716172193
1.176411716172193
1.176411716172193
1.176411716172193
1.176411716172193
1.176411716172193
1.176411716172194
1.176411716172193
1.176411716172193
1.176411716172193
1.176411716172195
1.176411716172193
1.176411716172195
1.176411716172193
1.176411716172195
1.176411716172192
1.176411716172193
1.176411716172194
1.176411716172193
1.176411716172193
1.176411716172195
1.176411716172192
1.176411716172194
1.176411716172194
1.176411716172193
1.176411716172194
1.176411716172194
1.176411716172193
1.176411716172196
1.176411716172192
1.176411716172194
1.176411716172194
1.176411716172194
1.176411716172193
1.176411716172194
1.176411716172193
1.176411716172193
1.176411716172193
1.176411716172193
1.176411716172193
1.176411716172194
1.176411716172192
1.176411716172193
1.176411716172192
1.176411716172194
1.176411716172193
1.176411716172191
1.176411716172193
1.176411716172192
1.176411716172192
1.176411716172192
1.176411716172192
1.176411716172191
1.176411716172193
1.176411716172191
1.176411716172193
1.176411716172191
1.176411716172192
1.176411716172192
1.176411716172192
1.176411716172192
1.176411716172191
1.176411716172193
1.176411716172192
1.176411716172192
1.176411716172192
1.176411716172193
1.176411716172193
1.176411716172192
1.176411716172192
1.176411716172193
1.176411716172192
1.176411716172193
1.176411716172192
1.176411716172192
1.176411716172194
1.176411716172191
1.176411716172194
1.176411716172192
1.176411716172193
1.176411716172192
1.176411716172193
1.176411716172192
1.176411716172193
1.176411716172191
1.176411716172193
1.176411716172192
1.176411716172192
1.176411716172193
1.176411716172192
1.176411716172193
1.176411716172192
1.176411716172193
1.176411716172192
1.176411716172193
1.176411716172192
1.176411716172193
1.176411716172193
1.176411716172192
1.176411716172192
1.176411716172194
1.176411716172193
1.176411716172193
1.176411716172193
1.176411716172193
1.176411716172192
1.176411716172194
1.176411716172193
1.176411716172192
1.176411716172193
1.176411716172195
1.176411716172193
1.176411716172193
1.176411716172195
1.176411716172194
1.176411716172195
1.176411716172195
1.176411716172195
1.176411716172194
1.176411716172195
1.176411716172195
1.176411716172194
1.176411716172195
1.176411716172197
1.176411716172194
1.176411716172197
1.176411716172196
1.176411716172195
1.176411716172197
1.176411716172196
1.176411716172196
1.176411716172195
1.176411716172197
1.176411716172196
1.176411716172195
1.176411716172196
1.176411716172196
1.176411716172196
1.176411716172195
1.176411716172196
1.176411716172197
1.176411716172195
1.176411716172196
1.176411716172195
1.176411716172197
1.176411716172196
1.176411716172197
1.176411716172196
1.176411716172196
1.176411716172196
1.176411716172195
1.176411716172197
1.176411716172196
1.176411716172196
1.176411716172196
1.176411716172197
1.176411716172197
1.176411716172196
1.176411716172196
1.176411716172196
1.176411716172195
1.176411716172197
1.176411716172196
1.176411716172196
1.176411716172196
1.176411716172196
1.176411716172196
1.176411716172195
1.176411716172196
1.176411716172196
1.176411716172195
1.176411716172197
1.176411716172195
1.176411716172196
1.176411716172194
1.176411716172197
1.176411716172195
1.176411716172196
1.176411716172195
1.176411716172196
1.176411716172196
1.176411716172194
1.176411716172196
1.176411716172195
1.176411716172195
1.176411716172195
1.176411716172195
1.176411716172196
1.176411716172196
1.176411716172194
1.176411716172195
1.176411716172195
1.176411716172194
1.176411716172196
1.176411716172194
1.176411716172197
1.176411716172195
1.176411716172195
1.176411716172195
1.176411716172195
1.176411716172194
1.176411716172195
1.176411716172195
1.176411716172194
1.176411716172195
1.176411716172195
1.176411716172194
1.176411716172195
1.176411716172194
1.176411716172195
1.176411716172194
1.176411716172194
1.176411716172195
1.176411716172193
1.176411716172194
1.176411716172194
1.176411716172194
1.176411716172194
1.176411716172193
1.176411716172195
1.176411716172194
1.176411716172194
1.176411716172193
1.176411716172195
1.176411716172193
1.176411716172193
1.176411716172194
1.176411716172193
1.176411716172194
1.176411716172193
1.176411716172193
1.176411716172194
1.176411716172193
1.176411716172194
1.176411716172194
1.176411716172192
1.176411716172195
1.176411716172191
1.176411716172194
1.176411716172192
1.176411716172192
1.176411716172193
1.176411716172193
1.176411716172192
1.176411716172193
1.176411716172193
1.176411716172192
1.176411716172192
1.176411716172192
1.176411716172191
1.176411716172192
1.176411716172191
1.176411716172193
1.176411716172191
1.176411716172192
1.176411716172192
1.176411716172191
1.176411716172193
1.17641171617219
1.176411716172193
1.176411716172192
1.17641171617219
1.176411716172191
1.176411716172192
1.176411716172191
1.176411716172191
1.176411716172192
1.176411716172192
1.17641171617219
1.176411716172192
1.176411716172191
1.176411716172191
1.176411716172191
1.176411716172191
1.176411716172191
1.176411716172191
1.176411716172192
1.176411716172191
1.176411716172191
1.176411716172192
1.176411716172191
1.176411716172192
1.176411716172191
1.176411716172191
1.176411716172192
1.176411716172191
1.176411716172192
1.176411716172192
1.176411716172191
1.176411716172191
1.176411716172192
1.176411716172192
1.176411716172189
1.176411716172192
1.176411716172191
1.176411716172191
1.176411716172191
1.176411716172191
1.176411716172191
1.176411716172191
1.176411716172191
1.176411716172191
1.176411716172191
1.17641171617219
1.176411716172191
1.176411716172191
1.17641171617219
1.17641171617219
1.176411716172191
1.17641171617219
1.176411716172191
1.17641171617219
1.176411716172191
1.176411716172191
1.17641171617219
1.176411716172191
1.17641171617219
1.176411716172191
1.17641171617219
1.176411716172191
1.17641171617219
1.17641171617219
1.17641171617219
1.176411716172192
1.176411716172189
1.17641171617219
1.176411716172191
1.17641171617219
1.176411716172191
1.17641171617219
1.17641171617219
1.17641171617219
1.17641171617219
1.176411716172191
1.17641171617219
1.176411716172191
1.176411716172189
1.176411716172191
1.17641171617219
1.17641171617219
1.17641171617219
1.17641171617219
1.176411716172193
1.17641171617219
1.176411716172192
1.17641171617219
1.176411716172191
1.176411716172191
1.17641171617219
1.17641171617219
1.176411716172192
1.17641171617219
1.17641171617219
1.176411716172191
1.176411716172192
1.17641171617219
1.176411716172192
1.176411716172191
1.176411716172191
1.17641171617219
1.176411716172192
1.17641171617219
1.176411716172193
1.176411716172189
1.176411716172191
1.176411716172191
1.176411716172192
1.176411716172191
1.176411716172191
1.176411716172191
1.176411716172191
1.176411716172192
1.176411716172191
1.176411716172191
1.176411716172192
1.176411716172192
1.176411716172192
1.176411716172191
1.176411716172193
1.176411716172192
1.176411716172191
1.176411716172192
1.176411716172192
1.176411716172191
1.176411716172193
1.176411716172191
1.176411716172192
1.176411716172192
1.176411716172191
1.176411716172193
1.176411716172193
1.176411716172192
1.176411716172192
1.176411716172193
1.176411716172191
1.176411716172192
1.176411716172192
1.176411716172193
1.176411716172192
1.176411716172192
1.176411716172193
1.176411716172192
1.176411716172193
1.176411716172191
1.176411716172191
1.176411716172193
1.176411716172192
1.176411716172193
1.176411716172192
1.176411716172193
1.176411716172192
1.176411716172194
1.176411716172191
1.176411716172193
1.176411716172193
1.176411716172193
1.176411716172193
1.176411716172193
1.176411716172193
1.176411716172193
1.176411716172193
1.176411716172193
1.176411716172194
1.176411716172192
1.176411716172193
1.176411716172193
1.176411716172193
1.176411716172194
1.176411716172194
1.176411716172193
1.176411716172193
1.176411716172194
1.176411716172193
1.176411716172195
1.176411716172194
1.176411716172193
1.176411716172193
1.176411716172195
1.176411716172193
1.176411716172195
1.176411716172193
1.176411716172194
1.176411716172194
1.176411716172195
1.176411716172193
1.176411716172194
1.176411716172194
1.176411716172194
1.176411716172194
1.176411716172195
1.176411716172194
1.176411716172194
1.176411716172195
1.176411716172194
1.176411716172195
1.176411716172195
1.176411716172193
1.176411716172194
1.176411716172195
1.176411716172194
1.176411716172193
1.176411716172194
1.176411716172195
1.176411716172194
1.176411716172194
1.176411716172195
1.176411716172194
1.176411716172194
1.176411716172194
1.176411716172194
1.176411716172195
1.176411716172194
1.176411716172194
1.176411716172194
1.176411716172194
1.176411716172196
1.176411716172194
1.176411716172195
1.176411716172196
1.176411716172194
1.176411716172195
1.176411716172195
1.176411716172196
1.176411716172194
1.176411716172196
1.176411716172194
1.176411716172196
1.176411716172195
1.176411716172195
1.176411716172196
1.176411716172194
1.176411716172196
1.176411716172195
1.176411716172195
1.176411716172195
1.176411716172196
1.176411716172195
1.176411716172195
)
;

boundaryField
{
    inlet
    {
        type            calculated;
        value           uniform 1.176271021779363;
    }
    outlet
    {
        type            calculated;
        value           uniform 1.176411716172195;
    }
    frontAndBack
    {
        type            empty;
    }
}


// ************************************************************************* //
