/*--------------------------------*- C++ -*----------------------------------*\
| =========                 |                                                 |
| \\      /  F ield         | OpenFOAM: The Open Source CFD Toolbox           |
|  \\    /   O peration     | Version:  v2012                                 |
|   \\  /    A nd           | Website:  www.openfoam.com                      |
|    \\/     M anipulation  |                                                 |
\*---------------------------------------------------------------------------*/
FoamFile
{
    version     2.0;
    format      ascii;
    class       volVectorField;
    location    "0.003";
    object      U;
}
// * * * * * * * * * * * * * * * * * * * * * * * * * * * * * * * * * * * * * //

dimensions      [0 1 -1 0 0 0 0];


internalField   nonuniform List<vector> 
1000
(
(-0.0204166617683127 0 0)
(-0.04876987754084151 0 0)
(-0.04840214137452848 0 0)
(-0.07457200715707349 0 0)
(-0.08171214723957575 0 0)
(-0.09407542053388276 0 0)
(-0.1053484169247459 0 0)
(-0.1062512262493217 0 0)
(-0.1186073948703124 0 0)
(-0.1194212836449294 0 0)
(-0.1187934887975737 0 0)
(-0.118834660236743 0 0)
(-0.1157528692586273 0 0)
(-0.1113363348256526 0 0)
(-0.1079738881371824 0 0)
(-0.09513634719524924 0 0)
(-0.08685061395467759 0 0)
(-0.0740383417614532 0 0)
(-0.05788037430789502 0 0)
(-0.04574989497312434 0 0)
(-0.02917389399702247 0 0)
(-0.01325183888137988 0 0)
(0.002931239277095117 0 0)
(0.01961015271018471 0 0)
(0.03512394129619132 0 0)
(0.05117384827317172 0 0)
(0.06538100012164959 0 0)
(0.07860127472985548 0 0)
(0.09107383003887434 0 0)
(0.1014078666750893 0 0)
(0.1137709090071408 0 0)
(0.1174493280804228 0 0)
(0.1175558566900381 0 0)
(0.1166225477668414 0 0)
(0.1163223730900468 0 0)
(0.1143892084552515 0 0)
(0.1097942937570531 0 0)
(0.1072024564698604 0 0)
(0.09818994376347162 0 0)
(0.08932512180452865 0 0)
(0.07896390918009379 0 0)
(0.06340269461687623 0 0)
(0.05004136488614901 0 0)
(0.03317546149745765 0 0)
(0.01648588158826742 0 0)
(0.000559276115515736 0 0)
(-0.01633003776739872 0 0)
(-0.03203248026670566 0 0)
(-0.04759600320751507 0 0)
(-0.06263414676973982 0 0)
(-0.07654896625877573 0 0)
(-0.08926061105237124 0 0)
(-0.1030937163604879 0 0)
(-0.1151017556661399 0 0)
(-0.1158472698438295 0 0)
(-0.1152358720225462 0 0)
(-0.1155035455856714 0 0)
(-0.114633013158527 0 0)
(-0.111648246668767 0 0)
(-0.1106952110711132 0 0)
(-0.1049345620356455 0 0)
(-0.09766326345712774 0 0)
(-0.09291770104915911 0 0)
(-0.07900164350020022 0 0)
(-0.06846486981211262 0 0)
(-0.05495943999901174 0 0)
(-0.03721155781547954 0 0)
(-0.02278296806778676 0 0)
(-0.004222834849699814 0 0)
(0.0123768797858346 0 0)
(0.02842906361033503 0 0)
(0.04514715273561228 0 0)
(0.05962832871824711 0 0)
(0.07404871728497292 0 0)
(0.08711567890124865 0 0)
(0.101798390647498 0 0)
(0.1142292280856207 0 0)
(0.1146339137186402 0 0)
(0.1146333630856648 0 0)
(0.1147137497182417 0 0)
(0.1125219897429643 0 0)
(0.1123176236133394 0 0)
(0.1089081618150684 0 0)
(0.1036770470801417 0 0)
(0.10101500441536 0 0)
(0.09093389387100306 0 0)
(0.0824075212452245 0 0)
(0.07289040875054099 0 0)
(0.05670034599209198 0 0)
(0.04416250710097611 0 0)
(0.02714493209745087 0 0)
(0.009348192888593674 0 0)
(-0.007096295032989731 0 0)
(-0.02545731783575588 0 0)
(-0.04193010866980701 0 0)
(-0.05799445989809215 0 0)
(-0.07336188124980306 0 0)
(-0.08648145314717563 0 0)
(-0.1032522704106442 0 0)
(-0.1134535876953055 0 0)
(-0.1137212982477859 0 0)
(-0.1134290513225603 0 0)
(-0.1132847661511574 0 0)
(-0.1122509689788679 0 0)
(-0.1103449670750362 0 0)
(-0.1088266841538404 0 0)
(-0.1032808399487445 0 0)
(-0.09918614712307672 0 0)
(-0.09338095499258854 0 0)
(-0.08162312566940109 0 0)
(-0.07458922650991617 0 0)
(-0.06117505379398805 0 0)
(-0.04497119417084617 0 0)
(-0.032713865672298 0 0)
(-0.01381175544802376 0 0)
(0.003232226486008032 0 0)
(0.0199081157378387 0 0)
(0.0383354038667167 0 0)
(0.05427448389239584 0 0)
(0.07040956652446295 0 0)
(0.08452249226664209 0 0)
(0.1021022023145464 0 0)
(0.1122675734229962 0 0)
(0.1124963447095627 0 0)
(0.1121913026571045 0 0)
(0.1121355486258733 0 0)
(0.1111863393014598 0 0)
(0.1094590933211912 0 0)
(0.1081811086185298 0 0)
(0.1032327252814895 0 0)
(0.09937184184687173 0 0)
(0.09444964108709984 0 0)
(0.08341475221654943 0 0)
(0.07681105465706375 0 0)
(0.06464068387686973 0 0)
(0.04889945899010079 0 0)
(0.03718739684707675 0 0)
(0.01884378713268888 0 0)
(0.001706985751870575 0 0)
(-0.01513469135343183 0 0)
(-0.03430635095137655 0 0)
(-0.05101462220303924 0 0)
(-0.0684269347008357 0 0)
(-0.08377752942175345 0 0)
(-0.1039337636419081 0 0)
(-0.1118839095820863 0 0)
(-0.1119050284528947 0 0)
(-0.1116683219330201 0 0)
(-0.1117112422274444 0 0)
(-0.110161447822798 0 0)
(-0.1090399013270177 0 0)
(-0.1078137946123325 0 0)
(-0.1022902175492466 0 0)
(-0.09988400960910136 0 0)
(-0.09359291509212204 0 0)
(-0.08414195866682996 0 0)
(-0.07791259659381734 0 0)
(-0.06462401150288059 0 0)
(-0.05229051479991104 0 0)
(-0.03961949168836459 0 0)
(-0.02172238025515479 0 0)
(-0.006687956700709751 0 0)
(0.01106323874984322 0 0)
(0.02950926948982254 0 0)
(0.04621171709660025 0 0)
(0.06436177421307493 0 0)
(0.07988974112005447 0 0)
(0.1005605312279848 0 0)
(0.1109806465317963 0 0)
(0.1111410412548604 0 0)
(0.1108712763757058 0 0)
(0.1108456226756762 0 0)
(0.1099091081232099 0 0)
(0.1082783657212083 0 0)
(0.1074529702587454 0 0)
(0.1027478904614667 0 0)
(0.09915650415054549 0 0)
(0.09553359751428579 0 0)
(0.08525799462769006 0 0)
(0.07909891727978063 0 0)
(0.06905368895766754 0 0)
(0.05446067662301697 0 0)
(0.0436038206779048 0 0)
(0.02699296835657841 0 0)
(0.01031425167660469 0 0)
(-0.006084348435025167 0 0)
(-0.02543864652307806 0 0)
(-0.0429255165288888 0 0)
(-0.06165570417515848 0 0)
(-0.0787829374536745 0 0)
(-0.101479392964433 0 0)
(-0.1104847823047799 0 0)
(-0.1106123595048819 0 0)
(-0.1103130856841465 0 0)
(-0.1101960498442385 0 0)
(-0.1095606404217204 0 0)
(-0.1076660257371033 0 0)
(-0.1066588119362207 0 0)
(-0.1028508408784094 0 0)
(-0.09870935772690949 0 0)
(-0.09429694189946256 0 0)
(-0.08610565503537794 0 0)
(-0.07938314493902629 0 0)
(-0.06892974038645584 0 0)
(-0.05682318534596038 0 0)
(-0.04544764678030957 0 0)
(-0.02920574560386345 0 0)
(-0.01416949762841811 0 0)
(0.002204488788331491 0 0)
(0.02105558979059352 0 0)
(0.03811028971609589 0 0)
(0.05684586970973181 0 0)
(0.07391053310750015 0 0)
(0.09636362149702635 0 0)
(0.1089245035706019 0 0)
(0.109845898856027 0 0)
(0.1097370582679108 0 0)
(0.1091041881382896 0 0)
(0.1092569240263297 0 0)
(0.1074107076946847 0 0)
(0.1054204148479269 0 0)
(0.1037943740081598 0 0)
(0.09864157175197028 0 0)
(0.09475998460254415 0 0)
(0.08824896177021427 0 0)
(0.08022327267169831 0 0)
(0.07164546220925912 0 0)
(0.06017787581644006 0 0)
(0.04804938180818445 0 0)
(0.03375184583833949 0 0)
(0.01813791636678376 0 0)
(0.001428372064304919 0 0)
(-0.01673936280604134 0 0)
(-0.03507823242268306 0 0)
(-0.05446760286606462 0 0)
(-0.07231501097176184 0 0)
(-0.09652401120110174 0 0)
(-0.1088754388450225 0 0)
(-0.109060457477303 0 0)
(-0.1088474788217798 0 0)
(-0.108858734011707 0 0)
(-0.1078286249924027 0 0)
(-0.1067263227892902 0 0)
(-0.1053427812924 0 0)
(-0.1020283867542455 0 0)
(-0.09908338383892767 0 0)
(-0.09367077474087319 0 0)
(-0.08839498114644907 0 0)
(-0.08082740695282438 0 0)
(-0.0711959439957297 0 0)
(-0.06233993809129134 0 0)
(-0.04876368461389093 0 0)
(-0.03573840534980672 0 0)
(-0.02157910705957973 0 0)
(-0.003970887932872314 0 0)
(0.01224639771874061 0 0)
(0.03060107686534214 0 0)
(0.04958827636777367 0 0)
(0.06706183364623876 0 0)
(0.08875082861047834 0 0)
(0.1071999944243302 0 0)
(0.1081148548004053 0 0)
(0.1079944986364936 0 0)
(0.1079148966005222 0 0)
(0.1073252656070063 0 0)
(0.1061128319229543 0 0)
(0.1053535473580537 0 0)
(0.1018413373245308 0 0)
(0.0992189133449607 0 0)
(0.09550017836319083 0 0)
(0.08805259855610013 0 0)
(0.08330860836872868 0 0)
(0.07408068889802873 0 0)
(0.06308341811116427 0 0)
(0.05357177951527065 0 0)
(0.03873094406359381 0 0)
(0.02464882536937986 0 0)
(0.008890706256694293 0 0)
(-0.009444945745786054 0 0)
(-0.02679746193536728 0 0)
(-0.04659178226391548 0 0)
(-0.06529016659976114 0 0)
(-0.08762366308599749 0 0)
(-0.1067886319274828 0 0)
(-0.1076529507935112 0 0)
(-0.107729866831651 0 0)
(-0.1072399209283581 0 0)
(-0.1070743349374657 0 0)
(-0.1058494334546713 0 0)
(-0.1039286121234955 0 0)
(-0.1024514173443655 0 0)
(-0.09831037067849513 0 0)
(-0.09435493902849312 0 0)
(-0.08951254098164232 0 0)
(-0.08149684253414714 0 0)
(-0.07447325238558439 0 0)
(-0.06442304193757926 0 0)
(-0.0531644172667589 0 0)
(-0.04112577629641107 0 0)
(-0.02646912543932281 0 0)
(-0.01146828488035091 0 0)
(0.005298103547134112 0 0)
(0.02308638309418945 0 0)
(0.04117563210351055 0 0)
(0.06025354102125918 0 0)
(0.07880073496129764 0 0)
(0.1031578060886831 0 0)
(0.1070407178400865 0 0)
(0.107021135612791 0 0)
(0.1067907403334093 0 0)
(0.1065880902960172 0 0)
(0.1053697637490959 0 0)
(0.1044124564631775 0 0)
(0.1020370972022107 0 0)
(0.0983578626968237 0 0)
(0.09642701405278749 0 0)
(0.0894490117681042 0 0)
(0.08344392330568727 0 0)
(0.07733137160095349 0 0)
(0.06564638910029187 0 0)
(0.05662983523688059 0 0)
(0.04409185893063831 0 0)
(0.02926629526707671 0 0)
(0.01533577182508647 0 0)
(-0.002315921880786803 0 0)
(-0.01995044265045147 0 0)
(-0.038351458261677 0 0)
(-0.058348030089959 0 0)
(-0.07755115052676161 0 0)
(-0.102835642702631 0 0)
(-0.1060254311291397 0 0)
(-0.1061811714163981 0 0)
(-0.106055670714544 0 0)
(-0.1055854632211852 0 0)
(-0.1044521369956301 0 0)
(-0.1039336475188363 0 0)
(-0.1008276611438923 0 0)
(-0.09803031368978828 0 0)
(-0.09603161765677116 0 0)
(-0.08850390759526655 0 0)
(-0.08380455770924014 0 0)
(-0.07704626675135665 0 0)
(-0.06610956875821994 0 0)
(-0.05778216232160715 0 0)
(-0.04506733306749681 0 0)
(-0.03146107365333484 0 0)
(-0.01795088290607972 0 0)
(-0.0008614800612061327 0 0)
(0.01557888079472954 0 0)
(0.03340948423669204 0 0)
(0.05271949132057826 0 0)
(0.06975644079962963 0 0)
(0.09496136802775049 0 0)
(0.1054934572539427 0 0)
(0.1057012508288581 0 0)
(0.1055670731904044 0 0)
(0.1050812462295683 0 0)
(0.1050612113562176 0 0)
(0.1029359208524935 0 0)
(0.1012932787549027 0 0)
(0.09980931562826663 0 0)
(0.09438105218197385 0 0)
(0.09136039994376798 0 0)
(0.08534151272750204 0 0)
(0.07728128802648648 0 0)
(0.07032789100434088 0 0)
(0.05911878941996151 0 0)
(0.04811628179975119 0 0)
(0.03537287845051083 0 0)
(0.02012843063002184 0 0)
(0.004979732411514429 0 0)
(-0.01292355210121541 0 0)
(-0.03082186040530321 0 0)
(-0.05012929555120797 0 0)
(-0.06861273336033209 0 0)
(-0.0946055809132359 0 0)
(-0.1048601325820444 0 0)
(-0.1048570283072666 0 0)
(-0.104917351521772 0 0)
(-0.1045386573518564 0 0)
(-0.1039029786062259 0 0)
(-0.1027359292180252 0 0)
(-0.1008388795955774 0 0)
(-0.09825281165639053 0 0)
(-0.09481802605530343 0 0)
(-0.09023639236249133 0 0)
(-0.08473619341450066 0 0)
(-0.0778312202176016 0 0)
(-0.06958643272251636 0 0)
(-0.06008409366856209 0 0)
(-0.04904191727698567 0 0)
(-0.03655095538336708 0 0)
(-0.02262542870634238 0 0)
(-0.007630934122991592 0 0)
(0.009065570042781902 0 0)
(0.0263505200261813 0 0)
(0.04449454449139195 0 0)
(0.06296854936130923 0 0)
(0.08345073570451401 0 0)
(0.1038164872098114 0 0)
(0.1050167118440396 0 0)
(0.1049418795781977 0 0)
(0.1050654386662498 0 0)
(0.1039195588758946 0 0)
(0.1034619934929693 0 0)
(0.1022974094679634 0 0)
(0.09916040363461753 0 0)
(0.09764956433731105 0 0)
(0.09326777521487775 0 0)
(0.08814886641988387 0 0)
(0.08362414095606668 0 0)
(0.07547221876354554 0 0)
(0.06816113507591327 0 0)
(0.05929072293062192 0 0)
(0.04855231759376642 0 0)
(0.03825541944559144 0 0)
(0.02671060823209247 0 0)
(0.01366848529225603 0 0)
(0.0008378590878300236 0 0)
(2.506229973644475e-07 0 0)
(-6.95749507198712e-12 0 0)
(-6.977473741636168e-12 0 0)
(-6.588767733518765e-12 0 0)
(-6.642645853279082e-12 0 0)
(-5.074064444722784e-12 0 0)
(-3.502453495207676e-12 0 0)
(-3.554320270123765e-12 0 0)
(-2.038361431413372e-12 0 0)
(-1.466926791751607e-12 0 0)
(-1.254948379584993e-12 0 0)
(-6.013129903959364e-13 0 0)
(-5.753269239119454e-13 0 0)
(-7.579959188237379e-13 0 0)
(-4.70642766148375e-13 0 0)
(-3.136958462250275e-13 0 0)
(-1.046101685808122e-12 0 0)
(-2.914764294842217e-13 0 0)
(-5.989998841889181e-13 0 0)
(-2.872871548014247e-13 0 0)
(-4.7070876402228e-13 0 0)
(-4.980760149277279e-13 0 0)
(-4.695522109187302e-13 0 0)
(-1.306042263736949e-13 0 0)
(-3.919383136280368e-13 0 0)
(-2.080201300426543e-13 0 0)
(-5.505335900888796e-13 0 0)
(-2.587963497293805e-13 0 0)
(-2.379612980304149e-13 0 0)
(-4.93060176510874e-13 0 0)
(2.340896878129819e-14 0 0)
(-5.775740322451482e-13 0 0)
(2.441921334497168e-15 0 0)
(1.527576452405795e-13 0 0)
(-2.613372678747976e-13 0 0)
(-1.569139209864015e-13 0 0)
(-2.235141248859779e-14 0 0)
(-5.081836290732421e-15 0 0)
(-4.666184861503781e-13 0 0)
(2.441921334515927e-15 0 0)
(-1.583972828390767e-13 0 0)
(-2.872871548014337e-13 0 0)
(2.627546318535578e-13 0 0)
(-4.186769944211388e-13 0 0)
(-1.843801687026956e-13 0 0)
(-2.078221364209618e-13 0 0)
(7.844046102474117e-14 0 0)
(-4.98142012801624e-13 0 0)
(-2.363129414929964e-13 0 0)
(5.493249543257458e-14 0 0)
(-1.089394303202524e-13 0 0)
(2.573917082344456e-15 0 0)
(-3.672769755527623e-13 0 0)
(-1.802238929568676e-13 0 0)
(7.837446315083626e-14 0 0)
(-3.921693061867201e-13 0 0)
(2.067315811913e-13 0 0)
(-2.067975790652041e-13 0 0)
(-7.840746208777484e-14 0 0)
(-1.579384783421644e-13 0 0)
(7.939902050658309e-14 0 0)
(-1.843141708288089e-13 0 0)
(2.065995854434892e-13 0 0)
(-2.61337267874787e-13 0 0)
(1.345295095608784e-13 0 0)
(-2.64402988390964e-13 0 0)
(1.042913511405521e-13 0 0)
(7.754789941678444e-14 0 0)
(-4.443000725987375e-13 0 0)
(4.740432469647782e-13 0 0)
(-3.959955925630054e-13 0 0)
(-3.100015555965215e-13 0 0)
(-5.094121437148978e-14 0 0)
(-1.843141708288061e-13 0 0)
(1.776829748115014e-13 0 0)
(-1.802568918937981e-13 0 0)
(-4.459154301992108e-13 0 0)
(3.13926838783704e-13 0 0)
(-5.205594231640892e-13 0 0)
(-1.295136711440437e-13 0 0)
(1.059727066149333e-13 0 0)
(-1.570789156711866e-13 0 0)
(-3.410300981935032e-13 0 0)
(-1.070632618445825e-13 0 0)
(1.854377249954197e-13 0 0)
(-3.161707664964916e-13 0 0)
(-2.763124240104912e-14 0 0)
(-2.05182221464744e-13 0 0)
(1.842151740179498e-13 0 0)
(2.248340823640227e-14 0 0)
(-4.186109965472476e-13 0 0)
(2.354533788219945e-13 0 0)
(-2.065697671269696e-13 0 0)
(-1.292166807114588e-13 0 0)
(2.832298758664265e-13 0 0)
(-4.183171867350917e-13 0 0)
(1.074890674045416e-13 0 0)
(2.576397966258425e-13 0 0)
(-5.754589196597721e-13 0 0)
(3.137618440989116e-13 0 0)
(1.450362915695689e-15 0 0)
(-7.847345996168596e-14 0 0)
(2.638121881462307e-13 0 0)
(-2.852380400899852e-14 0 0)
(-2.626886339796294e-13 0 0)
(-1.794963260336942e-13 0 0)
(1.649946847693908e-16 0 0)
(-7.850645889864109e-14 0 0)
(-6.599787389788433e-17 0 0)
(3.398107278364703e-13 0 0)
(-2.654605446836618e-13 0 0)
(3.155652558823856e-14 0 0)
(2.862625974456912e-13 0 0)
(-4.472007984301559e-13 0 0)
(1.583312849651759e-13 0 0)
(-6.599787390357391e-17 0 0)
(-1.308980361858299e-13 0 0)
(3.152122070146318e-13 0 0)
(-1.568479231125035e-13 0 0)
(2.591688798971964e-14 0 0)
(2.861965995717885e-13 0 0)
(-2.118464164190017e-13 0 0)
(7.024002640311229e-15 0 0)
(1.222916748819986e-13 0 0)
(1.334389543312261e-13 0 0)
(-3.382943670468581e-13 0 0)
(2.363789393668935e-13 0 0)
(-2.628866276013494e-13 0 0)
(2.862625974457005e-13 0 0)
(1.322824012276574e-13 0 0)
(5.094121437149227e-14 0 0)
(7.93660215696178e-14 0 0)
(-2.077231396101091e-13 0 0)
(3.136958462250248e-13 0 0)
(-1.070632618445881e-13 0 0)
(1.069312660967682e-13 0 0)
(-5.341613464296505e-14 0 0)
(-7.86054557094836e-14 0 0)
(6.026313575639184e-13 0 0)
(-7.95640151913353e-14 0 0)
(3.13695846225021e-13 0 0)
(-1.833226124100071e-13 0 0)
(3.41261090752171e-13 0 0)
(1.282911201665745e-13 0 0)
(-1.584302817760269e-13 0 0)
(1.318895946046504e-13 0 0)
(7.975882819262765e-14 0 0)
(1.569139209864165e-13 0 0)
(-2.353873809481187e-13 0 0)
(2.736725090541961e-14 0 0)
(2.613042689378468e-13 0 0)
(-1.059397076779791e-13 0 0)
(1.033657905956356e-13 0 0)
(5.335013676905409e-14 0 0)
(1.29480672207097e-13 0 0)
(3.135968494141413e-13 0 0)
(-1.293156775223317e-13 0 0)
(7.728390792117216e-14 0 0)
(8.094838023315563e-14 0 0)
(2.586313550446412e-13 0 0)
(5.348213251685358e-14 0 0)
(-1.569799188603299e-13 0 0)
(5.450259482381532e-13 0 0)
(1.598806446917321e-13 0 0)
(7.83084652769234e-14 0 0)
(-7.995682181435087e-14 0 0)
(3.687273384684554e-13 0 0)
(-2.861965995718095e-13 0 0)
(4.665194893394774e-13 0 0)
(5.341613464296681e-14 0 0)
(-1.292496796484186e-13 0 0)
(-1.815124418082272e-13 0 0)
(2.598539060221123e-13 0 0)
(-2.340896878129729e-14 0 0)
(-8.249773995972555e-14 0 0)
(2.07921133231823e-13 0 0)
(-1.540461940919175e-13 0 0)
(1.804548855155143e-13 0 0)
(-3.111879270165894e-13 0 0)
(2.351893873263628e-13 0 0)
(-3.661204224491906e-13 0 0)
(-1.555955538185082e-13 0 0)
(-2.625566382318155e-13 0 0)
(2.102640577554723e-13 0 0)
(-3.148853982654999e-13 0 0)
(-5.205594231641517e-13 0 0)
(-2.743324877933013e-14 0 0)
(-3.423846449187497e-13 0 0)
(-2.861306016978883e-13 0 0)
(-2.107888601262724e-13 0 0)
(-1.803558887046726e-13 0 0)
(-6.549239380402408e-13 0 0)
(-2.638121881462111e-13 0 0)
(-3.922353040606336e-13 0 0)
(-2.577057944997266e-13 0 0)
(-4.993315648421215e-13 0 0)
(-3.386541747329005e-13 0 0)
(-6.273586935130757e-13 0 0)
(-4.183171867351169e-13 0 0)
(-5.765164759524428e-13 0 0)
(-5.204934252901736e-13 0 0)
(-8.35378823555801e-13 0 0)
(-9.723832533880938e-13 0 0)
(-4.396110429309365e-13 0 0)
(-9.412855322967857e-13 0 0)
(-9.69974330990547e-13 0 0)
(-1.176408921749318e-12 0 0)
(-9.412855322967736e-13 0 0)
(-1.175549359078164e-12 0 0)
(-1.070601209819086e-12 0 0)
(-9.688837757609086e-13 0 0)
(-1.333421839546447e-12 0 0)
(-9.412855322967631e-13 0 0)
(-1.333454838483526e-12 0 0)
(-1.204040164150304e-12 0 0)
(-1.102289731155165e-12 0 0)
(-1.432502539268866e-12 0 0)
(-9.452108154839448e-13 0 0)
(-1.254948379584883e-12 0 0)
(-1.567685666327935e-12 0 0)
(-1.201073440444976e-12 0 0)
(-1.411796302697405e-12 0 0)
(-1.176540917497063e-12 0 0)
(-1.176639914307953e-12 0 0)
(-1.489113209555358e-12 0 0)
(-1.098232452220153e-12 0 0)
(-1.045708879185167e-12 0 0)
(-1.286438907299006e-12 0 0)
(-1.327021636087944e-12 0 0)
(-1.125434708440804e-12 0 0)
(-9.922267466683027e-13 0 0)
(-7.843716113103955e-13 0 0)
(-1.283505182530635e-12 0 0)
(-1.254948379584897e-12 0 0)
(-1.070601209819066e-12 0 0)
(-1.046200682618949e-12 0 0)
(-1.152867957220162e-12 0 0)
(-1.201172437255825e-12 0 0)
(-8.62845071272067e-13 0 0)
(-1.069411657778575e-12 0 0)
(-1.098199453283146e-12 0 0)
(-7.059311502856209e-13 0 0)
(-1.151582588989223e-12 0 0)
(-9.711607024105431e-13 0 0)
(-1.14656675057243e-12 0 0)
(-9.686857821391527e-13 0 0)
(-9.661778629307719e-13 0 0)
(-7.059971481595182e-13 0 0)
(-9.422770907154946e-13 0 0)
(-1.17558235801527e-12 0 0)
(-8.379197417011394e-13 0 0)
(-9.921607487942753e-13 0 0)
(-1.103083295952212e-12 0 0)
(-1.067134731128888e-12 0 0)
(-8.377877459532993e-13 0 0)
(-1.045807875996035e-12 0 0)
(-6.263011372203334e-13 0 0)
(-1.283637178278593e-12 0 0)
(-5.215839805199021e-13 0 0)
(-8.618205139162339e-13 0 0)
(-1.126591261544389e-12 0 0)
(-8.341232736413383e-13 0 0)
(-1.04828279626746e-12 0 0)
(-6.264001340312626e-13 0 0)
(-7.059971481594797e-13 0 0)
(-9.411535365489991e-13 0 0)
(-6.8239018575653e-13 0 0)
(-1.223556848681302e-12 0 0)
(-3.961935861848003e-13 0 0)
(-5.766154727632817e-13 0 0)
(-1.044126520521619e-12 0 0)
(-8.353458246188176e-13 0 0)
(-5.245507042251777e-13 0 0)
(-8.628780702090326e-13 0 0)
(-7.028654297694392e-13 0 0)
(-8.10879299544811e-13 0 0)
(-6.783659057584841e-13 0 0)
(-9.412525333597824e-13 0 0)
(-7.319800340231806e-13 0 0)
(-7.882968944975255e-13 0 0)
(-5.464763111538205e-13 0 0)
(-8.640016243756294e-13 0 0)
(-2.852050411529705e-13 0 0)
(-1.125500706314743e-12 0 0)
(-4.457834344513699e-13 0 0)
(-7.569053635940066e-13 0 0)
(-7.582897286359273e-13 0 0)
(-8.120358526483529e-13 0 0)
(-3.397447299625302e-13 0 0)
(-9.153026464331744e-13 0 0)
(-6.001894362293855e-13 0 0)
(-5.491162261100691e-13 0 0)
(-6.276556839456816e-13 0 0)
(-7.855281644138754e-13 0 0)
(-5.490172292992246e-13 0 0)
(-4.707087640223163e-13 0 0)
(-8.093629387551044e-13 0 0)
(-2.629196265382939e-13 0 0)
(-8.093959376921501e-13 0 0)
(-4.706097672114452e-13 0 0)
(-4.708407597701068e-13 0 0)
(-6.78497901506234e-13 0 0)
(-3.422196502340351e-13 0 0)
(-1.044717320766326e-12 0 0)
(-2.103630545663005e-13 0 0)
(-4.957330904040811e-13 0 0)
(-3.385881768589873e-13 0 0)
(-4.981420128016214e-13 0 0)
(-3.138608409097949e-13 0 0)
(-6.024663628791085e-13 0 0)
(-4.158092675266537e-13 0 0)
(-2.367387470529671e-13 0 0)
(-6.024663628790732e-13 0 0)
(-7.345869500424584e-13 0 0)
(5.348213251688453e-14 0 0)
(-6.784979015063068e-13 0 0)
(-1.568149241755597e-13 0 0)
(-3.127042878061893e-13 0 0)
(-2.639111849571001e-13 0 0)
(-2.238441142555236e-14 0 0)
(-2.637791892092622e-13 0 0)
(-3.662854171339484e-13 0 0)
(1.319957478319905e-16 0 0)
(-2.103630545663421e-13 0 0)
(-1.294146743331822e-13 0 0)
(-2.353213830741707e-13 0 0)
(5.206476853809585e-14 0 0)
(3.137618440989496e-13 0 0)
(2.64086914235878e-14 0 0)
(2.354203798850718e-13 0 0)
(2.351893873263871e-13 0 0)
(3.299893696057684e-17 0 0)
(2.088796927136684e-13 0 0)
(-1.024557355755357e-15 0 0)
(4.707087640223272e-13 0 0)
(-6.59978739149503e-17 0 0)
(7.335953916236112e-13 0 0)
(2.087806959028028e-13 0 0)
(2.317559075730788e-13 0 0)
(6.077131938546505e-13 0 0)
(-1.060717034258073e-13 0 0)
(7.059971481595316e-13 0 0)
(2.342968257184321e-13 0 0)
(5.22575538938747e-13 0 0)
(8.629110691458683e-13 0 0)
(-3.383933638577005e-13 0 0)
(5.21616979456839e-13 0 0)
(3.921363072497578e-13 0 0)
(3.922023051236809e-13 0 0)
(7.303976753595579e-13 0 0)
(-5.104021118235046e-14 0 0)
(7.059971481595043e-13 0 0)
(1.048821513852542e-13 0 0)
(7.319140361492737e-13 0 0)
(4.957330904040624e-13 0 0)
(2.352553852003123e-13 0 0)
(6.286472423644714e-13 0 0)
(4.185449986733315e-13 0 0)
(4.716673235041281e-13 0 0)
(7.058981513487539e-13 0 0)
(-7.959701412828538e-14 0 0)
(5.491822239839894e-13 0 0)
(4.70477771463653e-13 0 0)
(4.680028511921856e-13 0 0)
(6.027963522486677e-13 0 0)
(1.027419914139582e-13 0 0)
(5.765494748894827e-13 0 0)
(2.892953190249023e-13 0 0)
(6.782999078845731e-13 0 0)
(1.05972706614924e-13 0 0)
(7.319140361492949e-13 0 0)
(3.672439766157953e-13 0 0)
(4.11979800529938e-13 0 0)
(1.88011642077738e-13 0 0)
(1.019429002888879e-12 0 0)
(1.570129177972966e-13 0 0)
(6.288090564287378e-13 0 0)
(3.136628472880944e-13 0 0)
(7.829212483946697e-13 0 0)
(2.647468929749031e-14 0 0)
(7.067907129566563e-13 0 0)
(4.931261743848044e-13 0 0)
(5.265668199997942e-13 0 0)
(6.263011372202964e-13 0 0)
(4.706427661484093e-13 0 0)
(3.656286190153295e-13 0 0)
(7.048405950559679e-13 0 0)
(3.41195092878275e-13 0 0)
(5.973515276514576e-13 0 0)
(3.174923142848355e-13 0 0)
(6.027931716281219e-13 0 0)
(6.000244415446488e-13 0 0)
(3.13728845161974e-13 0 0)
(4.705767682745736e-13 0 0)
(5.7361575012104e-13 0 0)
(4.470688026823564e-13 0 0)
(4.695522109186724e-13 0 0)
(4.716673235041443e-13 0 0)
(5.231003413095078e-13 0 0)
(5.205594231641641e-13 0 0)
(4.46675996059323e-13 0 0)
(6.274576903239475e-13 0 0)
(4.969854596980866e-13 0 0)
(4.442340747247585e-13 0 0)
(7.059311502856262e-13 0 0)
(4.696182087926641e-13 0 0)
(5.490172292992548e-13 0 0)
(3.658596115739727e-13 0 0)
(8.867458434872154e-13 0 0)
(4.466429971223859e-13 0 0)
(8.118048600897256e-13 0 0)
(3.662854171339417e-13 0 0)
(7.843716113102521e-13 0 0)
(6.798822665481523e-13 0 0)
(5.735827511840715e-13 0 0)
(8.107803027339696e-13 0 0)
(6.795224588620814e-13 0 0)
(5.765494748894215e-13 0 0)
(4.706097672114418e-13 0 0)
(7.060301470963522e-13 0 0)
(1.228998492658266e-12 0 0)
(4.70576768274499e-13 0 0)
(6.26073325282142e-13 0 0)
(8.107803027339576e-13 0 0)
(5.467073037125111e-13 0 0)
(5.015754925549569e-13 0 0)
(5.215839805198821e-13 0 0)
(8.62878070209058e-13 0 0)
(9.411535365488206e-13 0 0)
(4.696182087926342e-13 0 0)
(9.932513040240329e-13 0 0)
(6.014418055234106e-13 0 0)
(7.335293937497208e-13 0 0)
(5.989338863149429e-13 0 0)
(8.379857395750693e-13 0 0)
(8.638696286276909e-13 0 0)
(2.351893873263717e-13 0 0)
(1.019659995447634e-12 0 0)
(6.264331329681979e-13 0 0)
(4.707087640223021e-13 0 0)
(7.05997148159522e-13 0 0)
(5.50074785591935e-13 0 0)
(4.42085963202468e-13 0 0)
(4.207921070065704e-13 0 0)
(7.05898151348548e-13 0 0)
(5.490832271731552e-13 0 0)
(7.844376091842618e-13 0 0)
(7.558478073013887e-13 0 0)
(4.209901006282703e-13 0 0)
(4.669782938363999e-13 0 0)
(7.0847206843103e-13 0 0)
(7.070877033890834e-13 0 0)
(4.19701551776898e-13 0 0)
(6.773743473396841e-13 0 0)
(4.706427661483952e-13 0 0)
(3.137618440989266e-13 0 0)
(9.147778440623358e-13 0 0)
(2.628536286643896e-13 0 0)
(6.238922148228317e-13 0 0)
(2.888035155910427e-13 0 0)
(6.56047492206758e-13 0 0)
(1.557903668197948e-13 0 0)
(8.129944121302229e-13 0 0)
(-7.863845464645753e-14 0 0)
(3.647030584704041e-13 0 0)
(5.464763111538595e-13 0 0)
(4.471018016192797e-13 0 0)
(2.336730265367341e-13 0 0)
(7.074475110752553e-13 0 0)
(3.646040616595581e-13 0 0)
(2.875809646135916e-13 0 0)
(5.489842303622798e-13 0 0)
(3.421536523601083e-13 0 0)
(3.645710627226099e-13 0 0)
(2.316569107621949e-13 0 0)
(4.729526917351107e-13 0 0)
(5.180077704244667e-14 0 0)
(1.842811718918563e-13 0 0)
(3.919053146910844e-13 0 0)
(-5.104021118235181e-14 0 0)
(5.997604500489938e-13 0 0)
(1.555593742611325e-13 0 0)
(3.669799851201858e-13 0 0)
(4.807030685657209e-14 0 0)
(3.420216566123059e-13 0 0)
(2.624246424839908e-13 0 0)
(2.349913937046703e-13 0 0)
(1.564519358690581e-13 0 0)
(3.133988557924513e-13 0 0)
(1.289856881527817e-13 0 0)
(1.0448616414182e-13 0 0)
(7.791247803347243e-14 0 0)
(-1.572109114190026e-13 0 0)
(3.145224099590459e-13 0 0)
(2.336368469793872e-13 0 0)
(-5.034564319611231e-14 0 0)
(4.428135301256247e-13 0 0)
(-1.86031705860575e-13 0 0)
(2.910474433038438e-13 0 0)
(-1.075912448358489e-13 0 0)
(1.065682777902962e-13 0 0)
(2.073601513036126e-13 0 0)
(-2.358823650023968e-13 0 0)
(2.34958394767681e-13 0 0)
(-3.926642902410036e-13 0 0)
(-7.896844401598633e-14 0 0)
(1.56484934806029e-13 0 0)
(-2.35882365002409e-13 0 0)
(1.264447700074088e-13 0 0)
(-2.566184198905241e-13 0 0)
(2.188942737124174e-14 0 0)
(2.822681357641555e-14 0 0)
(-2.867575814999775e-13 0 0)
(-1.064676906692092e-13 0 0)
(-1.319957478237928e-16 0 0)
(-3.443959897627033e-13 0 0)
(-2.840846676067867e-13 0 0)
(4.703127767788906e-13 0 0)
(-7.064261343399613e-13 0 0)
(-1.087776162559277e-13 0 0)
(-4.411635832779451e-13 0 0)
(-3.629883064791199e-16 0 0)
(-2.357173703176423e-13 0 0)
(-6.289772317340292e-13 0 0)
(-1.836526017795236e-13 0 0)
(-3.651980425246992e-13 0 0)
(-1.607103890462357e-13 0 0)
(-2.322178926904034e-13 0 0)
(-1.572439103559402e-13 0 0)
(-1.573099082298528e-13 0 0)
(-3.140918334684736e-13 0 0)
(3.918393168171923e-13 0 0)
(-9.14116275013104e-13 0 0)
(-2.357503692545728e-13 0 0)
(1.015524393734534e-13 0 0)
(-1.333761370777578e-13 0 0)
(-6.51754449782534e-13 0 0)
(1.829266251665415e-13 0 0)
(-3.92565293430168e-13 0 0)
(1.067662714120238e-13 0 0)
(-2.632166169708951e-13 0 0)
(-3.141578313423361e-13 0 0)
(-3.139928366576104e-13 0 0)
(-2.78952338966714e-14 0 0)
(-8.124537066574935e-14 0 0)
(-4.409985885931704e-13 0 0)
(-7.880344933122109e-14 0 0)
(-2.356513724437381e-13 0 0)
(2.726825409456071e-14 0 0)
(-2.35684371380666e-13 0 0)
(-3.690243289010293e-13 0 0)
(4.968566445706309e-14 0 0)
(-4.152136963513241e-13 0 0)
(-2.863945931934971e-13 0 0)
(-5.769124631958901e-13 0 0)
(-1.649946847732748e-16 0 0)
(-7.848005974907709e-13 0 0)
(-4.708077608331616e-13 0 0)
(-7.846686017429024e-13 0 0)
(-1.830288025978423e-13 0 0)
(-4.760545918086962e-13 0 0)
(-9.377860546695607e-13 0 0)
(-1.57971477279105e-13 0 0)
(-8.356098161144784e-13 0 0)
(-4.696512077295985e-13 0 0)
(-6.276226850087251e-13 0 0)
(-6.287132402382998e-13 0 0)
(-6.275566871348344e-13 0 0)
(-8.892867616326132e-13 0 0)
(-3.933918571641667e-13 0 0)
(-1.069576652463319e-12 0 0)
(-7.844046102473114e-13 0 0)
(-5.501737824027823e-13 0 0)
(-6.550559337880809e-13 0 0)
(-7.833140550176032e-13 0 0)
(-6.000574404815652e-13 0 0)
(-5.77640030119068e-13 0 0)
(-1.175582358015214e-12 0 0)
(-5.217489752046404e-13 0 0)
(-7.061291439073592e-13 0 0)
(-7.060961449703945e-13 0 0)
)
;

boundaryField
{
    inlet
    {
        type            zeroGradient;
    }
    outlet
    {
        type            pressureInletOutletVelocity;
        value           uniform (-7.060961449703945e-13 0 0);
    }
    frontAndBack
    {
        type            empty;
    }
}


// ************************************************************************* //
