/*--------------------------------*- C++ -*----------------------------------*\
| =========                 |                                                 |
| \\      /  F ield         | OpenFOAM: The Open Source CFD Toolbox           |
|  \\    /   O peration     | Version:  v2012                                 |
|   \\  /    A nd           | Website:  www.openfoam.com                      |
|    \\/     M anipulation  |                                                 |
\*---------------------------------------------------------------------------*/
FoamFile
{
    version     2.0;
    format      ascii;
    class       volVectorField;
    location    "0.003";
    object      UMean;
}
// * * * * * * * * * * * * * * * * * * * * * * * * * * * * * * * * * * * * * //

dimensions      [0 1 -1 0 0 0 0];


internalField   nonuniform List<vector> 
1000
(
(-5.32654175552889e-05 0 0)
(7.286551101203493e-05 0 0)
(0.0001098899854487584 0 0)
(0.0003322859672459581 0 0)
(0.0003813960617007933 0 0)
(0.0005613383848761513 0 0)
(0.0008424563792087472 0 0)
(0.001054431511452218 0 0)
(0.001257710011015755 0 0)
(0.001610873693546852 0 0)
(0.001872437677945143 0 0)
(0.002118225077825861 0 0)
(0.002439979171434362 0 0)
(0.002742234797144598 0 0)
(0.002963086597840758 0 0)
(0.00323538719707285 0 0)
(0.003518166199747074 0 0)
(0.003687752372788262 0 0)
(0.003892080787004605 0 0)
(0.00406405825812146 0 0)
(0.004167730638030783 0 0)
(0.004258177623335815 0 0)
(0.004287554113628115 0 0)
(0.004333714317245871 0 0)
(0.004289956335219561 0 0)
(0.004205085628805482 0 0)
(0.004072141605534945 0 0)
(0.004005154998506098 0 0)
(0.003799117276285229 0 0)
(0.003518641523571978 0 0)
(0.003372881575956965 0 0)
(0.003128787069162652 0 0)
(0.002766558962873621 0 0)
(0.002470284398678044 0 0)
(0.002313348164518105 0 0)
(0.001952599263751559 0 0)
(0.001646583572902166 0 0)
(0.001428478623872422 0 0)
(0.001182427996205881 0 0)
(0.0009059805935167382 0 0)
(0.000663033490838754 0 0)
(0.0005116318406591618 0 0)
(0.0003211307421739383 0 0)
(0.0001975637661897298 0 0)
(7.182050858510623e-05 0 0)
(4.610896881913304e-05 0 0)
(3.261479361757995e-05 0 0)
(2.675696678955495e-05 0 0)
(0.0001048470653730585 0 0)
(0.0001998463471725129 0 0)
(0.0003453830878356273 0 0)
(0.0005037199670569752 0 0)
(0.0007212117796611291 0 0)
(0.0009244801891727124 0 0)
(0.001224044613622615 0 0)
(0.001501033627239628 0 0)
(0.001768615316970761 0 0)
(0.002043733960779587 0 0)
(0.002322442397792209 0 0)
(0.00259636243759587 0 0)
(0.00286605048321884 0 0)
(0.00312052813385653 0 0)
(0.003343782143734871 0 0)
(0.003590259524850044 0 0)
(0.003805706932927593 0 0)
(0.003955302606965434 0 0)
(0.004103392118296838 0 0)
(0.004212399959351875 0 0)
(0.004311228635700168 0 0)
(0.004296334023268689 0 0)
(0.004295294632869313 0 0)
(0.004252967248475827 0 0)
(0.004169065494963288 0 0)
(0.00400684962242119 0 0)
(0.003862182669430422 0 0)
(0.003683716904045198 0 0)
(0.003427600793776752 0 0)
(0.003160324532452857 0 0)
(0.002913393741045038 0 0)
(0.002616931068565798 0 0)
(0.002310976620142286 0 0)
(0.002101308361372146 0 0)
(0.001812568922961898 0 0)
(0.001504178779817404 0 0)
(0.001289739402041375 0 0)
(0.001055940807463776 0 0)
(0.0008077883407826534 0 0)
(0.0005902804007288942 0 0)
(0.0004269345333908784 0 0)
(0.0002751845098729119 0 0)
(0.000151055697134649 0 0)
(5.106453279358592e-05 0 0)
(3.843258290460008e-05 0 0)
(4.013006944046036e-05 0 0)
(6.25871812699983e-05 0 0)
(0.0001482052185678805 0 0)
(0.0003000538704512451 0 0)
(0.0004392507538093621 0 0)
(0.0006285071255056225 0 0)
(0.0008799534599005783 0 0)
(0.001131542836098484 0 0)
(0.001408313484451287 0 0)
(0.001701142220926111 0 0)
(0.001947527949290384 0 0)
(0.002212293898083679 0 0)
(0.00251248802696896 0 0)
(0.00276407651883839 0 0)
(0.002982665339878678 0 0)
(0.003269968980214822 0 0)
(0.003487088301173885 0 0)
(0.003661109479651211 0 0)
(0.003889119678619499 0 0)
(0.004044328705942292 0 0)
(0.004121081326502955 0 0)
(0.004265063886013426 0 0)
(0.004319872661248485 0 0)
(0.004273644260569498 0 0)
(0.004283781416755911 0 0)
(0.004225379677169156 0 0)
(0.004062247132869918 0 0)
(0.003923124178720974 0 0)
(0.00377906309133245 0 0)
(0.003501933782938382 0 0)
(0.003223185006055005 0 0)
(0.003012525414924135 0 0)
(0.002717300447611815 0 0)
(0.00240929734232896 0 0)
(0.002186169821867839 0 0)
(0.001936008178675198 0 0)
(0.001614676027920493 0 0)
(0.001410240653225623 0 0)
(0.001168435077386039 0 0)
(0.0009080753260420938 0 0)
(0.0007121687897711185 0 0)
(0.0005356516703971105 0 0)
(0.0003495534540623743 0 0)
(0.0002142289573639265 0 0)
(0.0001379093971455057 0 0)
(5.174190517191693e-05 0 0)
(4.175444169166277e-05 0 0)
(5.61821635651191e-05 0 0)
(0.0001336353530659811 0 0)
(0.0002120651162710403 0 0)
(0.0003849520017670166 0 0)
(0.0005683652988218481 0 0)
(0.0007823501734463229 0 0)
(0.001071534422749077 0 0)
(0.001313852921534765 0 0)
(0.001620731610263267 0 0)
(0.001861161550585154 0 0)
(0.002120381925398582 0 0)
(0.002402243191770545 0 0)
(0.00267491039921626 0 0)
(0.002879714354578187 0 0)
(0.003142872747430623 0 0)
(0.003421939027872379 0 0)
(0.003554206251531387 0 0)
(0.003777811742305951 0 0)
(0.003977320191533992 0 0)
(0.004084143724483727 0 0)
(0.004167711455897279 0 0)
(0.004290372348881853 0 0)
(0.004305130590593934 0 0)
(0.004250350193119369 0 0)
(0.004260172920338904 0 0)
(0.004145259182855266 0 0)
(0.003984309912772122 0 0)
(0.003817659230412394 0 0)
(0.003641322060878408 0 0)
(0.00331101475530488 0 0)
(0.003076834818098028 0 0)
(0.002814941043973779 0 0)
(0.002535017051879919 0 0)
(0.002275424780260452 0 0)
(0.002019947566478693 0 0)
(0.001751627209403495 0 0)
(0.001502324894162915 0 0)
(0.001281623834664814 0 0)
(0.001009172351102031 0 0)
(0.0008267867579973526 0 0)
(0.0006318244180694719 0 0)
(0.0004356518222887161 0 0)
(0.0002958832707293235 0 0)
(0.0001896623282789906 0 0)
(0.0001129353895197638 0 0)
(4.78525704948135e-05 0 0)
(7.662123398893556e-05 0 0)
(9.688797130866973e-05 0 0)
(0.0001860844199310414 0 0)
(0.0003278077509365977 0 0)
(0.000500536229826586 0 0)
(0.0006893795594723909 0 0)
(0.0009957451271258085 0 0)
(0.001249517896761824 0 0)
(0.001502389519697055 0 0)
(0.001776452471338497 0 0)
(0.00203913976828116 0 0)
(0.002302496563061088 0 0)
(0.002548590510619429 0 0)
(0.002821809217667336 0 0)
(0.00302396180969658 0 0)
(0.003291867501599704 0 0)
(0.003492082023208461 0 0)
(0.003687857789151956 0 0)
(0.003862696037529306 0 0)
(0.004011484495240028 0 0)
(0.004144227204133327 0 0)
(0.004205377248506471 0 0)
(0.004280194236299925 0 0)
(0.004263869290967652 0 0)
(0.004263610443879192 0 0)
(0.004162046248095939 0 0)
(0.004054206536802255 0 0)
(0.003890352610970107 0 0)
(0.003692765660986989 0 0)
(0.003423148527307843 0 0)
(0.003154455589092163 0 0)
(0.002905455564357375 0 0)
(0.002631831811405277 0 0)
(0.002383945136044071 0 0)
(0.002107719812700228 0 0)
(0.001854941500315142 0 0)
(0.001612531867594859 0 0)
(0.001379502483065461 0 0)
(0.001123765665079801 0 0)
(0.000911971341903418 0 0)
(0.0007377847934370587 0 0)
(0.0005285110967109026 0 0)
(0.0003850486485351846 0 0)
(0.0002549337468142601 0 0)
(0.0001641208191148554 0 0)
(9.342550591114095e-05 0 0)
(9.677970097169348e-05 0 0)
(9.923147987604572e-05 0 0)
(0.0001618650805815799 0 0)
(0.0002917792492593561 0 0)
(0.0004462938243991365 0 0)
(0.0006363650341620185 0 0)
(0.000908125680935489 0 0)
(0.001176509883980542 0 0)
(0.001427930902725714 0 0)
(0.001687368451557306 0 0)
(0.001956238777316483 0 0)
(0.002208246365486442 0 0)
(0.002456926044544502 0 0)
(0.002716665082944 0 0)
(0.002949161371663172 0 0)
(0.003178911774236375 0 0)
(0.003402282879379723 0 0)
(0.003601849423404491 0 0)
(0.003777696212899536 0 0)
(0.003933443759611681 0 0)
(0.004078751576482839 0 0)
(0.00416505267749961 0 0)
(0.004228147753285162 0 0)
(0.004253733901476069 0 0)
(0.00426035030594911 0 0)
(0.004185514629514516 0 0)
(0.004080183220263827 0 0)
(0.003954707733329552 0 0)
(0.003758863249543706 0 0)
(0.003503203622391888 0 0)
(0.003245532866886731 0 0)
(0.002988985505307076 0 0)
(0.002726174808485699 0 0)
(0.002464616090641341 0 0)
(0.00222891889265332 0 0)
(0.001947206717577601 0 0)
(0.001716324610528493 0 0)
(0.001476391154920479 0 0)
(0.001245435094610397 0 0)
(0.00100832796550618 0 0)
(0.0008178280859348734 0 0)
(0.000645260769687937 0 0)
(0.0004551205817524048 0 0)
(0.0003270237735302175 0 0)
(0.0002338516204647401 0 0)
(0.0001527114705416727 0 0)
(9.7214814126923e-05 0 0)
(0.0001308535933779654 0 0)
(0.0001665547597926726 0 0)
(0.0002548253923738052 0 0)
(0.0004046354399693969 0 0)
(0.0005741106880366872 0 0)
(0.0008396279906983234 0 0)
(0.001082759521040701 0 0)
(0.001366522437543318 0 0)
(0.001588397287937684 0 0)
(0.001879138981930055 0 0)
(0.002110660886496789 0 0)
(0.002381968210601792 0 0)
(0.002614464985296023 0 0)
(0.002856426589638758 0 0)
(0.003093463131807256 0 0)
(0.003302355308160925 0 0)
(0.003523612370648803 0 0)
(0.003681636067784912 0 0)
(0.003877205143357895 0 0)
(0.003989194855227344 0 0)
(0.004118877556767253 0 0)
(0.004182211943309258 0 0)
(0.004235819650592867 0 0)
(0.004236182277857228 0 0)
(0.004182709018329057 0 0)
(0.00413180719674473 0 0)
(0.003976453858583845 0 0)
(0.003830205481481014 0 0)
(0.003576853506640271 0 0)
(0.003345337003214096 0 0)
(0.003062017429532512 0 0)
(0.00281891319864467 0 0)
(0.002565156829356828 0 0)
(0.002310949893047395 0 0)
(0.002045944073022209 0 0)
(0.001810980830765685 0 0)
(0.001583620260456934 0 0)
(0.001319841587266416 0 0)
(0.001121376009845271 0 0)
(0.0009086894265842738 0 0)
(0.0007224394935313897 0 0)
(0.0005432441164760117 0 0)
(0.0004066891534972734 0 0)
(0.0002858032581667391 0 0)
(0.0001981847279291396 0 0)
(0.0001579540476202509 0 0)
(0.0001350877599079397 0 0)
(0.0001752467157295624 0 0)
(0.0002366043815782509 0 0)
(0.0003783922571026356 0 0)
(0.0005233071941857094 0 0)
(0.0007609367544713112 0 0)
(0.001014942489645898 0 0)
(0.001275305884813779 0 0)
(0.001528791037661234 0 0)
(0.001775409748438798 0 0)
(0.002031141807384102 0 0)
(0.002290893020440977 0 0)
(0.002519593845946002 0 0)
(0.002760745502894015 0 0)
(0.003007280839651215 0 0)
(0.003214925207497961 0 0)
(0.003416593772264685 0 0)
(0.003618850967828484 0 0)
(0.003784885345360893 0 0)
(0.003927850602312404 0 0)
(0.004048576650934795 0 0)
(0.004140040229172894 0 0)
(0.004196715243387184 0 0)
(0.004209353978463321 0 0)
(0.004197368200232006 0 0)
(0.004131898279789199 0 0)
(0.004012508555497685 0 0)
(0.003874442049427309 0 0)
(0.003680693320063389 0 0)
(0.003401716699620349 0 0)
(0.003164303538032099 0 0)
(0.002908482832350447 0 0)
(0.002663229788125044 0 0)
(0.002391210564590431 0 0)
(0.002161077647408566 0 0)
(0.001914028332877276 0 0)
(0.001661329259200941 0 0)
(0.001445778745704848 0 0)
(0.001210201381829126 0 0)
(0.001011196099068319 0 0)
(0.0008054697778251154 0 0)
(0.0006429203113881318 0 0)
(0.0004791588367877938 0 0)
(0.0003604162769346475 0 0)
(0.0002597656027458826 0 0)
(0.0001990380922449375 0 0)
(0.0001743280712679344 0 0)
(0.0001747859475780278 0 0)
(0.0002503483169310413 0 0)
(0.0003358914172447408 0 0)
(0.0004971392086657027 0 0)
(0.0006745871463632381 0 0)
(0.0009597086310158753 0 0)
(0.001182320543519734 0 0)
(0.001455751020455597 0 0)
(0.001693130241276498 0 0)
(0.001944991744026006 0 0)
(0.002203633063333814 0 0)
(0.002429924281904387 0 0)
(0.002687376476324294 0 0)
(0.002892100606305278 0 0)
(0.00314786861321691 0 0)
(0.003323496463865105 0 0)
(0.003538655114532663 0 0)
(0.003702210713844326 0 0)
(0.003862330864509066 0 0)
(0.003990449963445947 0 0)
(0.004079664070221847 0 0)
(0.004169123091282646 0 0)
(0.004172072528080449 0 0)
(0.004199299847172735 0 0)
(0.004124186525151523 0 0)
(0.004056816809843421 0 0)
(0.003903807798198189 0 0)
(0.003746391218303291 0 0)
(0.003495492613741553 0 0)
(0.003238892343604545 0 0)
(0.002998534783474077 0 0)
(0.002735175739944947 0 0)
(0.002496229235575301 0 0)
(0.002233540700821909 0 0)
(0.002000603436120808 0 0)
(0.001752322745623192 0 0)
(0.001517924028054204 0 0)
(0.001290081836170101 0 0)
(0.001074459584655922 0 0)
(0.0008699049336183924 0 0)
(0.0006764431119767796 0 0)
(0.0005150672913225662 0 0)
(0.0003513806631128363 0 0)
(0.000238522231656345 0 0)
(0.000123869607003563 0 0)
(5.91809309200817e-05 0 0)
(3.627095482696279e-06 0 0)
(1.08478606655778e-09 0 0)
(-1.544626744384e-13 0 0)
(-1.78638671379056e-13 0 0)
(-9.117637488018321e-14 0 0)
(-1.537807291849897e-13 0 0)
(-1.22721112656213e-13 0 0)
(-7.778052597997415e-14 0 0)
(-6.162347942020686e-14 0 0)
(-9.069631649292664e-14 0 0)
(-3.916460125863445e-14 0 0)
(-8.483999269094685e-14 0 0)
(-6.083784873897041e-14 0 0)
(-3.867675242774382e-14 0 0)
(-4.881150440320799e-14 0 0)
(-4.855923792988816e-14 0 0)
(-4.545968901954077e-14 0 0)
(-2.41418461047476e-14 0 0)
(-2.020822795535625e-14 0 0)
(-1.015408755242682e-13 0 0)
(1.781261267236665e-14 0 0)
(-8.767111415305138e-14 0 0)
(-1.257656406178375e-14 0 0)
(-7.099359330309778e-14 0 0)
(-5.503032002120587e-14 0 0)
(-2.182700365601354e-15 0 0)
(-8.259820969469377e-14 0 0)
(-3.489227759937744e-14 0 0)
(-8.032069184782693e-15 0 0)
(-6.448913652982913e-14 0 0)
(-4.882886994524641e-14 0 0)
(-3.242408092603346e-14 0 0)
(-2.612539258062628e-14 0 0)
(-4.702523743851258e-14 0 0)
(-3.998510856901767e-14 0 0)
(-4.020014449541751e-14 0 0)
(-4.688139138821624e-14 0 0)
(-2.771558460126938e-14 0 0)
(-3.241036882489273e-14 0 0)
(-5.279468294123603e-14 0 0)
(-1.373432089648747e-14 0 0)
(-6.07549580353341e-14 0 0)
(-4.163684058353187e-14 0 0)
(-1.932864264175539e-14 0 0)
(-3.985574158681048e-14 0 0)
(-4.624561874336593e-14 0 0)
(-5.120556784748766e-14 0 0)
(-3.905273208611805e-14 0 0)
(-3.198085908708637e-14 0 0)
(-5.426226586336499e-14 0 0)
(-4.677523289185311e-14 0 0)
(-3.188046428381909e-14 0 0)
(-4.965322150569685e-14 0 0)
(-4.604647114359074e-14 0 0)
(-3.239790489245932e-14 0 0)
(-5.268606708162057e-14 0 0)
(-4.072629215011627e-14 0 0)
(-1.873858779799003e-14 0 0)
(-5.874859691167181e-14 0 0)
(-4.64918226415295e-14 0 0)
(-3.156542260425499e-14 0 0)
(-2.862002223054041e-14 0 0)
(-6.04735239464966e-14 0 0)
(-5.041451225527895e-14 0 0)
(-1.439775125721267e-14 0 0)
(-7.663439518897561e-14 0 0)
(-2.654983961899451e-14 0 0)
(-4.244971793528747e-14 0 0)
(-4.909558742982584e-14 0 0)
(-1.932727994969079e-14 0 0)
(-4.373119424498477e-14 0 0)
(-4.723649304913245e-14 0 0)
(-1.255966880415203e-14 0 0)
(-5.224056374867661e-14 0 0)
(-2.446805499796414e-14 0 0)
(-7.857420481320736e-14 0 0)
(-1.067890912632592e-14 0 0)
(-4.8899020366658e-14 0 0)
(-5.050894572934729e-14 0 0)
(-3.631103198767668e-14 0 0)
(-4.112563841927803e-14 0 0)
(-3.524611075885521e-14 0 0)
(-1.777272856024988e-14 0 0)
(-6.241494455578617e-14 0 0)
(-2.6241966263654e-14 0 0)
(-4.362965134835821e-15 0 0)
(-4.194558511665481e-14 0 0)
(-5.347799787419308e-14 0 0)
(5.473765254581903e-15 0 0)
(-4.080606825898459e-14 0 0)
(-2.889959914813746e-14 0 0)
(-6.224073497285647e-14 0 0)
(-7.387095175233445e-15 0 0)
(-4.124926127574256e-14 0 0)
(-4.703331591467235e-14 0 0)
(-3.05621903999638e-14 0 0)
(-2.735680144263944e-14 0 0)
(-4.240897250504753e-14 0 0)
(-2.733061062967959e-14 0 0)
(-4.79385447056593e-14 0 0)
(-4.823595744969467e-14 0 0)
(-1.978577664583199e-14 0 0)
(-5.233478624139566e-14 0 0)
(-1.936715017955581e-14 0 0)
(-3.941087591804497e-14 0 0)
(-4.074309078922018e-14 0 0)
(-3.673637826063438e-14 0 0)
(-6.034130393991792e-14 0 0)
(-2.620082070541822e-14 0 0)
(-3.060921787615696e-14 0 0)
(-4.909738772207753e-14 0 0)
(-4.386879153837335e-14 0 0)
(-1.704227625513752e-14 0 0)
(-4.559105635800203e-14 0 0)
(-3.579062845872621e-14 0 0)
(-5.070542482399846e-14 0 0)
(-3.264606091787446e-14 0 0)
(-4.370513736219586e-14 0 0)
(-4.560674462061505e-14 0 0)
(-4.243071022594013e-14 0 0)
(-3.388820121641535e-14 0 0)
(-5.548484482704225e-14 0 0)
(-5.140023816042722e-14 0 0)
(-3.048037403476645e-14 0 0)
(-5.386098553232766e-14 0 0)
(-5.454046620664958e-14 0 0)
(-5.148383895201631e-14 0 0)
(-3.772467605237386e-14 0 0)
(-7.2115729073963e-14 0 0)
(-3.945823754895978e-14 0 0)
(-3.928763301739085e-14 0 0)
(-7.47874259585885e-14 0 0)
(-3.713553538314167e-14 0 0)
(-6.133150084196539e-14 0 0)
(-4.928894730228541e-14 0 0)
(-6.426770387356805e-14 0 0)
(-4.143942714217468e-14 0 0)
(-4.835317045943031e-14 0 0)
(-7.75460384541095e-14 0 0)
(-2.287891570944186e-14 0 0)
(-7.064700771852873e-14 0 0)
(-2.755138142698967e-14 0 0)
(-3.134737256366032e-14 0 0)
(-7.804209969134219e-14 0 0)
(-4.123114204419127e-15 0 0)
(-8.931362076864382e-14 0 0)
(-6.606761680557779e-14 0 0)
(-4.32946111389737e-14 0 0)
(-6.689340181933528e-14 0 0)
(-6.524755172279618e-14 0 0)
(-4.654159803411214e-14 0 0)
(-5.932960222574482e-14 0 0)
(-5.269485966832414e-14 0 0)
(-2.872158891670887e-14 0 0)
(-7.73379659999814e-14 0 0)
(-6.82733302204385e-14 0 0)
(-5.783988608213878e-14 0 0)
(-3.145856030987864e-14 0 0)
(-7.407069903202792e-14 0 0)
(-5.275762842409009e-14 0 0)
(-3.280850127209637e-14 0 0)
(-6.842860225042757e-14 0 0)
(-6.390898851129223e-14 0 0)
(-5.248773483832304e-14 0 0)
(-5.444573831740136e-14 0 0)
(-3.948544211987516e-14 0 0)
(-6.140437664750015e-14 0 0)
(-4.607295234914261e-14 0 0)
(-5.660296198057798e-14 0 0)
(-5.389829699246933e-14 0 0)
(-5.181256853793937e-14 0 0)
(-6.878773730806915e-14 0 0)
(-6.07067717931081e-14 0 0)
(-3.511742520295036e-14 0 0)
(-6.062099461550319e-14 0 0)
(-3.177259119637991e-14 0 0)
(-6.894818193345751e-14 0 0)
(-5.386402291537498e-14 0 0)
(-5.805691113887686e-15 0 0)
(-8.25917095193596e-14 0 0)
(-4.423940945470527e-14 0 0)
(-3.614261475948968e-14 0 0)
(-6.608774338086775e-14 0 0)
(-5.251400732988122e-14 0 0)
(-3.214556136796935e-14 0 0)
(-5.229741713687221e-14 0 0)
(-5.941173225239011e-14 0 0)
(-4.756989832337738e-14 0 0)
(-5.57701892997711e-14 0 0)
(-4.09142092067738e-14 0 0)
(-5.481357579367858e-14 0 0)
(-4.913278915456877e-14 0 0)
(-5.297100277636538e-14 0 0)
(-4.208371123596004e-14 0 0)
(-1.597603146896185e-14 0 0)
(-6.98492954885747e-14 0 0)
(-5.717074967268724e-14 0 0)
(-2.930529542014508e-14 0 0)
(-3.214306653253632e-14 0 0)
(-6.267998878353236e-14 0 0)
(-3.463826771280289e-14 0 0)
(-5.767131701894033e-14 0 0)
(-8.009951319847624e-14 0 0)
(1.6724163742927e-14 0 0)
(-1.11830648876655e-13 0 0)
(-5.806431494777912e-14 0 0)
(-7.72093270105442e-14 0 0)
(-2.463854500616756e-14 0 0)
(-7.26712155859983e-14 0 0)
(-6.45446335159024e-14 0 0)
(-4.639760014881413e-14 0 0)
(-9.556085181462579e-14 0 0)
(-4.340027052875115e-14 0 0)
(-7.675318885959672e-14 0 0)
(-7.331778117379973e-14 0 0)
(-8.185351752022425e-14 0 0)
(-9.125918467060859e-14 0 0)
(-6.286765738664015e-14 0 0)
(-9.586972565050194e-14 0 0)
(-6.274113956675781e-14 0 0)
(-1.17481986762481e-13 0 0)
(-7.825151064277362e-14 0 0)
(-1.156984917483956e-13 0 0)
(-9.129065781436671e-14 0 0)
(-1.117508049714518e-13 0 0)
(-8.884903896510012e-14 0 0)
(-8.492998558497633e-14 0 0)
(-1.393383221136437e-13 0 0)
(-4.699342331308988e-14 0 0)
(-1.565413902657655e-13 0 0)
(-8.444235638543255e-14 0 0)
(-1.592145447984637e-13 0 0)
(-1.052252739987669e-13 0 0)
(-1.106583841516852e-13 0 0)
(-1.333855138922827e-13 0 0)
(-1.285758931089418e-13 0 0)
(-1.162467859019839e-13 0 0)
(-1.265874363734566e-13 0 0)
(-1.492891640348818e-13 0 0)
(-1.195160336588348e-13 0 0)
(-1.390436151863719e-13 0 0)
(-1.487512626962249e-13 0 0)
(-1.419095953728077e-13 0 0)
(-1.515764601407966e-13 0 0)
(-1.105559032909927e-13 0 0)
(-1.657359139688265e-13 0 0)
(-1.568725733528855e-13 0 0)
(-1.508841767519101e-13 0 0)
(-1.317739509896865e-13 0 0)
(-1.754832891283655e-13 0 0)
(-1.457087868054414e-13 0 0)
(-1.699991927258072e-13 0 0)
(-1.611808130959885e-13 0 0)
(-1.059634333136746e-13 0 0)
(-2.184682042480717e-13 0 0)
(-1.335401528855053e-13 0 0)
(-1.815157458183803e-13 0 0)
(-1.567968594629161e-13 0 0)
(-1.803737629474574e-13 0 0)
(-1.649574998408067e-13 0 0)
(-1.6883120522367e-13 0 0)
(-1.65988719288266e-13 0 0)
(-1.784653455537663e-13 0 0)
(-1.660924335382687e-13 0 0)
(-1.755397291111769e-13 0 0)
(-1.786399156856914e-13 0 0)
(-1.669674240767772e-13 0 0)
(-1.895262884241666e-13 0 0)
(-1.841591277555753e-13 0 0)
(-1.716359179040341e-13 0 0)
(-1.810696905224118e-13 0 0)
(-1.950335691178102e-13 0 0)
(-1.724065875500323e-13 0 0)
(-1.808005685310035e-13 0 0)
(-1.572339174807707e-13 0 0)
(-1.990141711418181e-13 0 0)
(-1.614120474694995e-13 0 0)
(-1.961321445038239e-13 0 0)
(-1.782426312791977e-13 0 0)
(-1.525800833788007e-13 0 0)
(-2.041659812966315e-13 0 0)
(-2.05146723753025e-13 0 0)
(-1.664137751686243e-13 0 0)
(-1.965582158046604e-13 0 0)
(-2.023374061456374e-13 0 0)
(-1.856302209336194e-13 0 0)
(-1.720855931912522e-13 0 0)
(-1.909641229455904e-13 0 0)
(-1.967564383125573e-13 0 0)
(-1.515396625666272e-13 0 0)
(-2.216219116472009e-13 0 0)
(-1.96301280469967e-13 0 0)
(-2.040964529946462e-13 0 0)
(-1.871785665629127e-13 0 0)
(-2.00677681195577e-13 0 0)
(-1.917948228463689e-13 0 0)
(-2.068332904576499e-13 0 0)
(-1.940408767754873e-13 0 0)
(-2.004579826977546e-13 0 0)
(-2.012018284940473e-13 0 0)
(-2.037005974140402e-13 0 0)
(-2.242378826595614e-13 0 0)
(-1.744697163607035e-13 0 0)
(-2.233938949804157e-13 0 0)
(-2.10709477398527e-13 0 0)
(-2.001591215604478e-13 0 0)
(-2.131536020005689e-13 0 0)
(-2.34706600590112e-13 0 0)
(-1.997234199447467e-13 0 0)
(-2.149909455434959e-13 0 0)
(-2.082599278855235e-13 0 0)
(-2.210267457144392e-13 0 0)
(-2.311317851667086e-13 0 0)
(-2.371290162934098e-13 0 0)
(-1.69846259068815e-13 0 0)
(-2.803108590252898e-13 0 0)
(-1.880590527736226e-13 0 0)
(-2.576975177397253e-13 0 0)
(-2.221001215131903e-13 0 0)
(-1.871428551704779e-13 0 0)
(-2.674836527526653e-13 0 0)
(-2.308718449726145e-13 0 0)
(-1.931349620913541e-13 0 0)
(-2.617326347789177e-13 0 0)
(-2.303982027220582e-13 0 0)
(-2.240685224346597e-13 0 0)
(-2.271645806564409e-13 0 0)
(-2.3707910234326e-13 0 0)
(-2.217331897220155e-13 0 0)
(-2.372843544572297e-13 0 0)
(-2.067238655314818e-13 0 0)
(-2.537521124567902e-13 0 0)
(-2.386973608577762e-13 0 0)
(-2.123299847228228e-13 0 0)
(-2.35266305783446e-13 0 0)
(-2.135369609645206e-13 0 0)
(-2.523524093793961e-13 0 0)
(-2.32120757934249e-13 0 0)
(-2.215634908755233e-13 0 0)
(-1.984978540265391e-13 0 0)
(-2.770731505460244e-13 0 0)
(-2.076340799707377e-13 0 0)
(-2.224009019329774e-13 0 0)
(-2.420725474796201e-13 0 0)
(-2.123685537670561e-13 0 0)
(-2.352916727504766e-13 0 0)
(-2.389891198046637e-13 0 0)
(-1.966521571596159e-13 0 0)
(-2.472680174349228e-13 0 0)
(-2.315989824584225e-13 0 0)
(-1.876416596966444e-13 0 0)
(-2.750718895940193e-13 0 0)
(-1.731610969864922e-13 0 0)
(-2.21980602814705e-13 0 0)
(-2.325284109609387e-13 0 0)
(-1.70898759069628e-13 0 0)
(-2.669701690944029e-13 0 0)
(-1.524367427250374e-13 0 0)
(-2.227497431542553e-13 0 0)
(-2.241789674086794e-13 0 0)
(-2.058320148474842e-13 0 0)
(-1.76275567192516e-13 0 0)
(-2.176132235619587e-13 0 0)
(-2.218611893847371e-13 0 0)
(-1.656864422462581e-13 0 0)
(-2.52330772904451e-13 0 0)
(-1.880946590580462e-13 0 0)
(-2.057523663788568e-13 0 0)
(-2.005098159303857e-13 0 0)
(-1.720001811900726e-13 0 0)
(-2.053705132919568e-13 0 0)
(-1.982416483471463e-13 0 0)
(-2.015462602248246e-13 0 0)
(-1.307736183762314e-13 0 0)
(-2.336985327494767e-13 0 0)
(-2.019283266531112e-13 0 0)
(-1.703759744632518e-13 0 0)
(-1.846013583688022e-13 0 0)
(-2.001050580276896e-13 0 0)
(-1.768547302753097e-13 0 0)
(-1.540510712882859e-13 0 0)
(-2.335090483093545e-13 0 0)
(-1.127691649858966e-13 0 0)
(-2.292149161679528e-13 0 0)
(-1.753191474604771e-13 0 0)
(-2.01721188545717e-13 0 0)
(-1.458678687387548e-13 0 0)
(-1.993596977043199e-13 0 0)
(-1.874442071206049e-13 0 0)
(-1.345285915949082e-13 0 0)
(-2.180691483714923e-13 0 0)
(-1.347994039825915e-13 0 0)
(-1.926244746424528e-13 0 0)
(-1.861315824064774e-13 0 0)
(-1.511573897844343e-13 0 0)
(-1.658703874125846e-13 0 0)
(-1.89123543994581e-13 0 0)
(-1.351391358302914e-13 0 0)
(-1.783539996826067e-13 0 0)
(-1.760346456251717e-13 0 0)
(-1.178350483276195e-13 0 0)
(-1.924724029084073e-13 0 0)
(-1.681552765837698e-13 0 0)
(-1.64340429572763e-13 0 0)
(-1.549328104556338e-13 0 0)
(-1.630454561658684e-13 0 0)
(-1.666950666772853e-13 0 0)
(-1.31475813217758e-13 0 0)
(-1.739126826373788e-13 0 0)
(-1.05416271303435e-13 0 0)
(-2.149202507513985e-13 0 0)
(-1.137542796211443e-13 0 0)
(-1.437218669687158e-13 0 0)
(-1.749289456770212e-13 0 0)
(-1.176721836506329e-13 0 0)
(-1.482456528227105e-13 0 0)
(-1.154070495883799e-13 0 0)
(-1.59376923646265e-13 0 0)
(-1.371619810057199e-13 0 0)
(-1.375629142257092e-13 0 0)
(-9.87791811181612e-14 0 0)
(-1.407500273285079e-13 0 0)
(-1.280824083857261e-13 0 0)
(-1.099459063911748e-13 0 0)
(-1.171031804740368e-13 0 0)
(-7.077124184488883e-14 0 0)
(-1.625053013900155e-13 0 0)
(-9.346172584631263e-14 0 0)
(-1.045738550303543e-13 0 0)
(-1.189540406814951e-13 0 0)
(-1.130437211431092e-13 0 0)
(-6.19268754887052e-14 0 0)
(-1.146312073469734e-13 0 0)
(-1.224825098944908e-13 0 0)
(-4.047243872596711e-14 0 0)
(-1.135298663002829e-13 0 0)
(-1.032877972229466e-13 0 0)
(-8.49997030336102e-14 0 0)
(-6.897881105909264e-14 0 0)
(-8.624490104793286e-14 0 0)
(-9.097252110737531e-14 0 0)
(-4.24209942098868e-14 0 0)
(-9.550199344275213e-14 0 0)
(-8.731754719139689e-14 0 0)
(-5.359505904890984e-14 0 0)
(-7.747203915520277e-14 0 0)
(-8.524327353876336e-14 0 0)
(-7.19757934075698e-14 0 0)
(-4.384841650953971e-14 0 0)
(-1.088182553807488e-13 0 0)
(-2.165149664257198e-14 0 0)
(-1.006428719364946e-13 0 0)
(-4.686133094674895e-14 0 0)
(-9.230685934762201e-14 0 0)
(-3.638846509612554e-14 0 0)
(-7.811489442311687e-14 0 0)
(-3.802259419295255e-14 0 0)
(-4.973524642435214e-14 0 0)
(-7.224056741490362e-14 0 0)
(5.888173039526344e-15 0 0)
(-8.813103967508801e-14 0 0)
(-5.772074513992519e-14 0 0)
(-4.311505369624657e-14 0 0)
(-4.408312366675385e-14 0 0)
(-2.525982303817232e-14 0 0)
(-6.120866285727434e-14 0 0)
(-2.235056763448956e-14 0 0)
(-3.863957246987829e-14 0 0)
(-6.152209339121848e-14 0 0)
(-3.163097825056113e-14 0 0)
(-3.376756365197115e-14 0 0)
(-5.049692804709834e-14 0 0)
(-1.975386127447131e-14 0 0)
(-2.793266298350624e-14 0 0)
(-2.323262987869059e-14 0 0)
(4.838893506839888e-15 0 0)
(-7.531461542805223e-14 0 0)
(-1.686589507414665e-14 0 0)
(-3.430111237912038e-14 0 0)
(-1.752487620484097e-14 0 0)
(-2.410575232859986e-14 0 0)
(-3.65986851140923e-14 0 0)
(-1.677665822969555e-14 0 0)
(-2.480189787239033e-14 0 0)
(2.187847948997073e-14 0 0)
(-8.304371302764959e-14 0 0)
(1.168508443416984e-15 0 0)
(-3.659246441400126e-14 0 0)
(-3.458961354623266e-14 0 0)
(-1.009949775056399e-14 0 0)
(-3.15897166669868e-14 0 0)
(1.782389773442346e-14 0 0)
(-6.592683083113197e-14 0 0)
(1.437890630022209e-14 0 0)
(-4.474977222826996e-14 0 0)
(-4.04874963118864e-14 0 0)
(-1.38921873453306e-14 0 0)
(-3.189928967345985e-14 0 0)
(-2.899437133650518e-14 0 0)
(-4.159320717735267e-14 0 0)
(5.312109074581862e-15 0 0)
(-5.395305803331002e-14 0 0)
(-6.292122327574178e-14 0 0)
(-7.204233923260692e-15 0 0)
(-4.002730056944342e-14 0 0)
(-3.635232309098767e-14 0 0)
(-3.129992759163362e-14 0 0)
(-9.159657026284654e-15 0 0)
(-4.626268131294439e-14 0 0)
(-4.354632680573162e-15 0 0)
(-5.564688323019575e-14 0 0)
(-7.279319403876594e-15 0 0)
(-4.065243839629579e-14 0 0)
(-3.053942634124253e-14 0 0)
(-5.585188874460888e-15 0 0)
(-7.826976064001441e-14 0 0)
(3.251840153925065e-14 0 0)
(-8.252849521095459e-14 0 0)
(-1.489233377703841e-14 0 0)
(-5.540277001687654e-14 0 0)
(3.848364024344844e-14 0 0)
(-9.455455378154273e-14 0 0)
(-3.190421844272916e-14 0 0)
(-9.16308620842078e-15 0 0)
(-3.597196959124381e-14 0 0)
(-3.029338982285478e-14 0 0)
(-5.162185830080968e-14 0 0)
(1.585094799951956e-14 0 0)
(-6.372192708764783e-14 0 0)
(-4.210729415305576e-14 0 0)
(-3.162636537103171e-14 0 0)
(-4.990767195736127e-14 0 0)
(-8.480237697827769e-15 0 0)
(-5.187457791908579e-14 0 0)
(-1.90637376691498e-14 0 0)
(-5.786135025758539e-14 0 0)
(1.953671842091781e-14 0 0)
(-8.000261667606008e-14 0 0)
(-5.190807395133112e-14 0 0)
(-4.757837082052761e-15 0 0)
(-5.525478067391431e-14 0 0)
(-3.339243796409986e-14 0 0)
(-5.030409906831377e-14 0 0)
(-3.118051939391345e-14 0 0)
(-2.592420398792381e-14 0 0)
(-5.968271328072214e-15 0 0)
(-9.246315272787891e-14 0 0)
(-1.258907289817373e-14 0 0)
(-5.434064493342485e-14 0 0)
(-2.704404035995018e-14 0 0)
(-3.467392352862454e-14 0 0)
(-5.47735177195381e-14 0 0)
(-8.787533837709822e-15 0 0)
(-8.127637566343615e-14 0 0)
(-1.474984010629897e-14 0 0)
(-6.733564002489109e-14 0 0)
(-4.438971731100571e-14 0 0)
(-3.911689365851292e-14 0 0)
(-6.238716512947531e-14 0 0)
(-3.326422329742621e-14 0 0)
(-6.113930952736583e-14 0 0)
(3.921650358644671e-15 0 0)
(-1.005346926193805e-13 0 0)
(-4.155637586127878e-14 0 0)
(-6.069823987968427e-14 0 0)
(-4.70796370332039e-14 0 0)
(-5.387051354357819e-14 0 0)
(-7.79734128477975e-14 0 0)
(-3.343893827688916e-14 0 0)
(-8.446846356497132e-14 0 0)
(-1.955324018953078e-14 0 0)
(-8.736156891108472e-14 0 0)
(-6.365287673020911e-14 0 0)
(-7.892840838136493e-14 0 0)
(-7.359031651026971e-14 0 0)
(-4.735406555017155e-14 0 0)
(-7.923197569167764e-14 0 0)
(-6.131646709067659e-14 0 0)
(-7.251817576333198e-14 0 0)
(-9.767585027245755e-14 0 0)
(-8.75401397555162e-14 0 0)
(-7.256881307885794e-14 0 0)
)
;

boundaryField
{
    inlet
    {
        type            calculated;
        value           uniform (-5.32654175552889e-05 0 0);
    }
    outlet
    {
        type            calculated;
        value           uniform (-7.256881307885794e-14 0 0);
    }
    frontAndBack
    {
        type            empty;
    }
}


// ************************************************************************* //
