/*--------------------------------*- C++ -*----------------------------------*\
| =========                 |                                                 |
| \\      /  F ield         | OpenFOAM: The Open Source CFD Toolbox           |
|  \\    /   O peration     | Version:  v2012                                 |
|   \\  /    A nd           | Website:  www.openfoam.com                      |
|    \\/     M anipulation  |                                                 |
\*---------------------------------------------------------------------------*/
FoamFile
{
    version     2.0;
    format      ascii;
    class       volScalarField;
    location    "0.0135";
    object      p;
}
// * * * * * * * * * * * * * * * * * * * * * * * * * * * * * * * * * * * * * //

dimensions      [1 -1 -2 0 0 0 0];


internalField   nonuniform List<scalar> 
1000
(
101339.0666555563
101336.4627129556
101343.1529921794
101348.3937751194
101354.2043417171
101359.4743553099
101364.0616992284
101367.9794835902
101371.2465255687
101373.4045659904
101374.0690506463
101374.0479321463
101373.6840823123
101372.6624376369
101370.697842126
101367.7115701941
101363.8062864954
101359.1587050872
101353.9190517827
101348.1876454054
101342.0434809745
101335.5757963561
101328.8953336832
101322.1292380983
101315.4120160937
101308.8781967522
101302.6501072812
101296.8105381089
101291.3730957345
101286.3155919964
101281.7796416552
101278.4081719546
101276.968433925
101276.8104943834
101276.8665208034
101277.148615012
101277.9053004879
101279.3885764324
101281.7982114692
101285.2206847933
101289.6066286578
101294.7985742981
101300.5935099004
101306.8030339315
101313.2814765709
101319.9192218478
101326.6196824941
101333.2816628751
101339.8005424661
101346.0901457084
101352.1110526414
101357.867926543
101363.3133024927
101368.0936391959
101371.3343460088
101372.4869043577
101372.577037673
101372.5305420296
101372.2904307667
101371.6700606879
101370.4525202162
101368.4398621632
101365.4903094525
101361.5539099461
101356.6865932979
101351.0366481407
101344.806943577
101338.2086162231
101331.4261217641
101324.6043898839
101317.8520423422
101311.2450345735
101304.8226556029
101298.5891311864
101292.5488500191
101286.8362735224
101281.9738723777
101278.9239379091
101277.9756551354
101277.8988485495
101277.9381990454
101278.1496478948
101278.7121378107
101279.8116611267
101281.6313171378
101284.3155947651
101287.9431224738
101292.5056547806
101297.9046440148
101303.9683966869
101310.485597921
101317.2444288505
101324.0649492964
101330.8179965356
101337.4325849901
101343.8917159374
101350.2133373868
101356.4040518623
101362.2955397869
101367.3376319967
101370.5390898942
101371.6144197096
101371.7625213988
101371.7723811362
101371.5925235244
101371.1047748225
101370.141375
101368.5340870759
101366.1372316374
101362.8506302038
101358.6405666991
101353.5520730816
101347.7064552675
101341.2834454641
101334.4909937283
101327.5297697782
101320.5606788531
101313.6817728762
101306.9272500095
101300.2874688661
101293.7992621047
101287.673961393
101282.5229824526
101279.3976298256
101278.358437763
101278.1104953898
101278.0217291516
101278.1854633952
101278.6433835159
101279.5607970149
101281.0978118994
101283.3919276551
101286.5414867892
101290.5922084725
101295.5236738705
101301.2438140111
101307.5976904158
101314.3900477945
101321.4174043607
101328.5029285024
101335.5230783034
101342.4185458451
101349.1802895255
101355.7694982913
101361.9633250276
101367.2030043856
101370.6191337152
101371.9378850494
101372.2186867
101372.3021574154
101372.1524889253
101371.73202858
101370.9025220419
101369.5273731272
101367.4718430207
101364.6195055349
101360.8924759302
101356.2711485477
101350.804993851
101344.6105199162
101337.8567728739
101330.7392848182
101323.4462440503
101316.1288907451
101308.8872007116
101301.7794902378
101294.8950121886
101288.5087831375
101283.2309618581
101279.9053091486
101278.6634709759
101278.3877524916
101278.2915630325
101278.4342332297
101278.8409344434
101279.6411228793
101280.9599440575
101282.9200018695
101285.6286956296
101289.1624137406
101293.549755221
101298.7597930096
101304.6999641231
101311.2254362217
101318.1600614693
101325.3259082788
101332.570510937
101339.7808201478
101346.8815160372
101353.7837544173
101360.2470933687
101365.7457604507
101369.4768954565
101371.0405095982
101371.3912852473
101371.5146858301
101371.4259698833
101371.1045198236
101370.4264883972
101369.2706935409
101367.5202882159
101365.0673228089
101361.8229877099
101357.7334436385
101352.7946428394
101347.0606167827
101340.6418746647
101333.6920208514
101326.3838283395
101318.8839049412
101311.3364402224
101303.8600065705
101296.5932521341
101289.8413875805
101284.2274491296
101280.5973872471
101279.1735583548
101278.864439877
101278.7522640148
101278.8529445862
101279.1860558418
101279.8678736049
101281.0102331086
101282.7212874331
101285.1000577931
101288.2271725607
101292.1527455845
101296.8849215831
101302.3822662609
101308.5530813423
101315.2642942062
101322.3602191188
101329.6847861044
101337.0969817455
101344.4779923979
101351.7041365443
101358.5199767787
101364.388042379
101368.5128887235
101370.3855568394
101370.8229532416
101370.9631260654
101370.9252583183
101370.6829461472
101370.1289111203
101369.1516809312
101367.6446182461
101365.5063675227
101362.6469627467
101358.999592508
101354.5321998445
101349.256261574
101343.2312264388
101336.5619087098
101329.3864638741
101321.8590231312
101314.1362812256
101306.370390912
101298.7355328481
101291.5616756333
101285.5059968911
101281.4571403617
101279.7596376388
101279.3871935602
101279.2652423725
101279.3267256468
101279.5928062877
101280.1672172555
101281.1528113335
101282.6494965388
101284.7514753224
101287.5399246677
101291.0738847268
101295.3820193179
101300.4555474363
101306.2438022354
101312.6553906553
101319.5675717058
101326.8413686793
101334.3337583691
101341.9047837569
101349.4069511999
101356.5810768011
101362.8806582812
101367.4865078372
101369.7738345911
101370.3547140158
101370.4975006822
101370.5047970937
101370.328099833
101369.880318312
101369.0574711286
101367.7594361468
101365.8884744363
101363.3547429716
101360.085755794
101356.0344259259
101351.1856902598
101345.5624412406
101339.2282961536
101332.2834502894
101324.8549059616
101317.0890167172
101309.1476652267
101301.2213108585
101293.6414049871
101287.0818745196
101282.4997707034
101280.4065553579
101279.9166350936
101279.7889003494
101279.8139859551
101280.0201439122
101280.4983153157
101281.344375085
101282.6528272821
101284.5149275468
101287.0115712241
101290.2060393153
101294.1387078909
101298.8216124679
101304.2330208833
101310.3149476249
101316.9768139255
101324.1046224785
101331.5685396001
101339.2259286821
101346.9193795764
101354.40401736
101361.1495513167
101366.3013530645
101369.1200433506
101369.9412606918
101370.0857201342
101370.1345804668
101370.0101423405
101369.6558844819
101368.9687007505
101367.8541127443
101366.2172387694
101363.9682710492
101361.0313219779
101357.3502848177
101352.8933117002
101347.6582065389
101341.6771386164
101335.0170567239
101327.7752942504
101320.0765983689
101312.0750515933
101303.9631654683
101296.0536519099
101288.9931414079
101283.7910345776
101281.1525540654
101280.4466078232
101280.3183899573
101280.3063082776
101280.4615745837
101280.8563306121
101281.5799263778
101282.7221029869
101284.3719894143
101286.6106920225
101289.5044190442
101293.1008913449
101297.4257076009
101302.477383758
101308.2234406226
101314.6005395657
101321.5194719556
101328.8699111948
101336.5198245778
101344.3126591467
101352.0231670553
101359.1714978814
101364.8973457294
101368.3514676702
101369.5422388485
101369.7269961333
101369.7952055686
101369.716142738
101369.4409468707
101368.8718322016
101367.9194816246
101366.4920235178
101364.4985369443
101361.8593714231
101358.5122246336
101354.4145881005
101349.547212217
101343.9190466523
101337.570326449
101330.5716048865
101323.0235218581
101315.0628035521
101306.8712694675
101298.7290535173
101291.2167591247
101285.3566408799
101282.0514216952
101281.0092937552
101280.8555331926
101280.814186939
101280.9264315387
101281.2454720796
101281.858632707
101282.8504250535
101284.3083217832
101286.3142691753
101288.9367557227
101292.2281390604
101296.223014268
101300.9343695475
101306.3490630751
101312.4256986667
101319.0968846379
101326.2724751578
101333.8365195726
101341.6407900669
101349.4818788989
101356.9564596857
101363.249604901
101367.4008337752
101369.109421636
101369.4065208098
101369.4780036233
101369.4359743915
101369.2278257262
101368.7610846517
101367.952047555
101366.7121250086
101364.9492553492
101362.580294368
101359.5382129561
101355.7730162855
101351.253296015
101345.9707346687
101339.9445949315
101333.2230006722
101325.8836398258
101318.041477915
101309.8611118778
101301.5900304449
101293.7197986549
101287.2198302066
101283.1626319902
101281.6287291189
101281.3806813443
101281.3289898564
101281.4056862005
101281.66006513
101282.1758836457
101283.0324034053
101284.3153671566
101286.1084484051
101288.4829157028
101291.4946711486
101295.1844704577
101299.5756140611
101304.6694016806
101310.4417354564
101316.8435426496
101323.8029817775
101331.221798547
101338.9667163703
101346.8557333625
101354.5625119861
101361.3654642815
101366.2252883775
101368.5845559108
101369.1176398776
101369.1837830995
101369.1691924959
101369.0175421337
101368.6408246111
101367.9596989759
101366.8890229189
101365.3366652513
101363.2161556578
101360.4556975288
101356.9993397226
101352.8071558018
101347.858378024
101342.1560492146
101335.7299052217
101328.6377703756
101320.9733354938
101312.8804504461
101304.5756561737
101296.4590374912
101289.3800403588
101284.5269549427
101282.360776163
101281.9068051552
101281.8511401018
101281.899305345
101282.0985813271
101282.5293267525
101283.265735956
101284.3902162185
101285.9874611107
101288.1318376851
101290.882958088
101294.2866741467
101298.3741472155
101303.1578770637
101308.6277645858
101314.7498315925
101321.4675020863
101328.6994153289
101336.3298590549
101344.1950843344
101352.0284338835
101359.2450164679
101364.8084976353
101367.9106734017
101368.8410904667
101368.9161509252
101368.9251754863
101368.8155432283
101368.5117176178
101367.9387362896
101367.0175775396
101365.657234593
101363.7674196885
101361.270732525
101358.1056037723
101354.2253124689
101349.5994777143
101344.2183692277
101338.0968734178
101331.2765262345
101323.8311808402
101315.8816949887
101307.6167196738
101299.3622354352
101291.815302415
101286.177421463
101283.2629984304
101282.4523686728
101282.381869016
101282.4039396527
101282.5580084396
101282.9151857283
101283.5447227162
101284.5250497781
101285.94144446
101287.8719920493
101290.3801705203
101293.5156917066
101297.3153621874
101301.8003407382
101306.9719320534
101312.8089198487
101319.2680850475
101326.2835409932
101333.7566532185
101341.5418467203
101349.4183085929
101356.937298713
101363.1490442726
101367.0257026564
101368.4981820541
101368.6883984831
101368.692373019
101368.6105707398
101368.3694873182
101367.8917906557
101367.1040619732
101365.9175450734
101364.2402117239
101361.9903023407
101359.1008188132
101355.5187079621
101351.2056824569
101346.1417888171
101340.3295684046
101333.7966273828
101326.5995049913
101318.83821274
101310.676346159
101302.3804575198
101294.4979549833
101288.1287638576
101284.3794912286
101283.0635391514
101282.9006411911
101282.9146839842
101283.0308532414
101283.326705509
101283.8649391544
101284.7179788361
101285.9700030649
101287.702143196
101289.9818636294
101292.8629173205
101296.3873559896
101300.5836757713
101305.4625804291
101311.0137395127
101317.2054005984
101323.984285211
101331.2674497036
101338.9288954244
101346.7816427021
101354.4773453918
101361.2302194479
101365.8993639923
101368.0586606025
101368.4921443392
101368.4786295919
101368.4239661895
101368.2288153484
101367.8281966721
101367.1530089901
101366.120585123
101364.6384140532
101362.6200028115
101359.9924512572
101356.6965916631
101352.6871122681
101347.9353187886
101342.4331913408
101336.1964891804
101329.2676655202
101321.7270340118
101313.7125420555
101305.4483591772
101297.364397971
101290.3795734763
101285.7590980307
101283.797931235
101283.4241460001
101283.4335318047
101283.5193172202
101283.7643630076
101284.2240367491
101284.9654149465
101286.0691061465
101287.6182042809
101289.6843051243
101292.325090666
101295.5867870597
101299.5036708285
101304.0944876715
101309.3588328512
101315.2754129718
101321.8019715206
101328.8708311727
101336.374875694
101344.1498109315
101351.9197257158
101359.0855725812
101364.5283408645
101367.4461394503
101368.2648008997
101368.3110092158
101368.2565649761
101368.0928466093
101367.7560501112
101367.1774773146
101366.2804175381
101364.9739703304
101363.1689485966
101360.7878708759
101357.7658620827
101354.0505759954
101349.605094403
101344.4119074277
101338.4762914935
101331.8288101972
101324.532170137
101316.7013216192
101308.5293107499
101300.3542833776
101292.8965657428
101287.4199020724
101284.7042711176
101283.9774738851
101283.9439947655
101284.0118629047
101284.2107231897
101284.6050160458
101285.2505274428
101286.2222458548
101287.6041806405
101289.4717196432
101291.8862393527
101294.8976257759
101298.5451435502
101302.8545599129
101307.8342415596
101313.4725246448
101319.7374650297
101326.5746246718
101333.8934147765
101341.550019695
101349.3206861036
101356.7555182493
101362.8800367673
101366.605747123
101367.999047446
101368.1708195403
101368.1082235988
101367.9769016278
101367.6880178715
101367.1857448817
101366.4025639976
101365.2514439068
101363.6415357773
101361.4910212364
101358.729445163
101355.2980263858
101351.1525157619
101346.2668982808
101340.6366562787
101334.2811930275
101327.2481794977
101319.6308931471
101311.5941297613
101303.4124800887
101295.6415643373
101289.404782786
101285.8324661097
101284.596779857
101284.448111646
101284.5128032368
101284.6685817932
101285.0074854878
101285.5717015693
101286.4278338726
101287.65784245
101289.3407576938
101291.5423380688
101294.316261453
101297.705936654
101301.7425078855
101306.4413955454
101311.7996396363
101317.7947830585
101324.3834691295
101331.4924703833
101339.0008354167
101346.7179785955
101354.2934180412
101360.9606931662
101365.5324719778
101367.6076571609
101368.0205927023
101367.995229972
101367.8770330281
101367.6242609571
101367.1842439835
101366.4945681019
101365.4773913062
101364.0423562296
101362.1041842088
101359.5883160122
101356.4303061704
101352.5782155866
101347.9975235246
101342.6747725944
101336.6195996445
101329.8674418733
101322.4914326057
101314.6282856699
101306.5089720999
101298.5641740193
101291.6981886443
101287.2052114118
101285.3374380264
101284.9682423541
101285.0006330458
101285.1292477591
101285.4204139535
101285.9162425665
101286.6745630366
101287.7711943552
101289.2859044786
101291.2886840271
101293.83804564
101296.9820132519
101300.7564821446
101305.1824856807
101310.2639565136
101315.9861972953
101322.315466619
101329.1941081397
101336.5219651928
101344.1333038674
101351.7519134786
101358.8041317473
101364.1820347571
101367.0197382383
101367.864609753
101367.9113254071
101367.8012628781
101367.5834330904
101367.1886449111
101366.5716369618
101365.665550372
101364.3847524828
101362.6425948218
101360.3592360307
101357.4631576612
101353.8948396635
101349.6122012492
101344.5940492517
101338.841791684
101332.3810344114
101325.2677552587
101317.6115336632
101309.6085687424
101301.5972132916
101294.2742014782
101288.8907731228
101286.2608070194
101285.5220828866
101285.4744666128
101285.5895071332
101285.8320927148
101286.2758071523
101286.9560487571
101287.9388158318
101289.3020012987
101291.1184881737
101293.4521313089
101296.357879338
101299.8785601357
101304.0408046764
101308.8532444005
101314.3062082377
101320.3721876994
101327.0040326881
101334.1212004934
101341.5879226483
101349.1820374758
101356.4632929413
101362.5169880714
101366.2157781609
101367.6288809224
101367.8370574025
101367.7622353487
101367.573136362
101367.2158645877
101366.6538444145
101365.8334032308
101364.6800202052
101363.1094382824
101361.039953462
101358.3947829713
101355.1047401829
101351.1156533888
101346.3961349607
101340.9409516297
101334.7702243273
101327.9299679715
101320.5085507346
101312.6676196187
101304.6799663848
101297.0800051243
101290.9318611326
101287.3928718945
101286.1595448739
101285.9644900536
101286.0317360496
101286.2341932147
101286.6315169054
101287.2517421066
101288.1473503758
101289.3855115442
101291.0353806886
101293.1634156419
101295.8328089069
101299.09802134
101302.9967612235
101307.545362385
101312.7383160448
101318.5498084805
101324.9361671332
101331.8304108311
101339.1199096279
101346.6196985328
101353.9972302968
101360.5492540371
101365.1380580612
101367.2212541627
101367.7409692171
101367.7521962999
101367.597886709
101367.2866582748
101366.7624531731
101365.9966653941
101364.9328941108
101363.5003678449
101361.6221170278
101359.2167147608
101356.2033112965
101352.5124722848
101348.0973379667
101342.9401704044
101337.0545815844
101330.4841442076
101323.3056111114
101315.6543004343
101307.7584767761
101300.0284727625
101293.3086273113
101288.8293394329
101286.9548106228
101286.5164057674
101286.4745392218
101286.6265439581
101286.9612727386
101287.5296192536
101288.36387019
101289.514910342
101291.0384979572
101292.9917509239
101295.4376274761
101298.4424093305
101302.0632521438
101306.33515293
101311.2649069116
101316.8310902811
101322.9877901028
101329.668376317
101336.7728833505
101344.1431911409
101351.5221111444
101358.3771057775
101363.6990599979
101366.610896334
101367.5498483584
101367.6913248944
101367.6353743882
101367.3976134966
101366.9344844948
101366.2147801146
101365.2008106534
101363.8479457145
101362.1038720035
101359.9026226865
101357.160936635
101353.7879083526
101349.7057126332
101344.8695456992
101339.2771454097
101332.9687363795
101326.0215743759
101318.559761155
101310.7831828837
101303.0164117909
101295.9147217417
101290.6350592164
101287.946646286
101287.1481152251
101287.0215234378
101287.0580563824
101287.2869588359
101287.7595851875
101288.5211506321
101289.6139404932
101291.072409481
101292.9239543757
101295.2021052028
101297.9616561075
101301.2777649194
101305.2257385296
101309.8534504076
101315.1623586819
101321.1043222689
101327.5960694237
101334.5309585152
101341.7641300974
101349.088662162
101356.1148470765
101362.0022239977
101365.7500325099
101367.2445281439
101367.535323271
101367.568775515
101367.446776796
101367.126973644
101366.5368371448
101365.6137553586
101364.3057241156
101362.5850063385
101360.4413546937
101357.8564669895
101354.7813466638
101351.1269006317
101346.766528786
101341.5690647261
101335.4805733268
101328.6377576236
101321.2548979771
101313.8395891179
101305.3033351886
)
;

boundaryField
{
    inlet
    {
        type            uniformFixedValue;
        uniformValue    sine;
        uniformValueCoeffs
        {
            frequency       constant 3000;
            scale           constant 50;
            level           constant 101325;
        }
        value           uniform 101326.3578702043;
    }
    outlet
    {
        type            pressureOutletNSCBC;
        pInf            101325;
        gamma           1.4;
        etaAc           1;
        fieldInf        1;
        lInf            2.25;
        value           uniform 101301.5106176307;
    }
    frontAndBack
    {
        type            empty;
    }
}


// ************************************************************************* //
