/*--------------------------------*- C++ -*----------------------------------*\
| =========                 |                                                 |
| \\      /  F ield         | OpenFOAM: The Open Source CFD Toolbox           |
|  \\    /   O peration     | Version:  v2012                                 |
|   \\  /    A nd           | Website:  www.openfoam.com                      |
|    \\/     M anipulation  |                                                 |
\*---------------------------------------------------------------------------*/
FoamFile
{
    version     2.0;
    format      ascii;
    class       volScalarField;
    location    "0.0135";
    object      pMean;
}
// * * * * * * * * * * * * * * * * * * * * * * * * * * * * * * * * * * * * * //

dimensions      [1 -1 -2 0 0 0 0];


internalField   nonuniform List<scalar> 
1000
(
101325.4047200091
101325.3876540589
101325.3789619807
101325.3718432442
101325.3573936109
101325.341010818
101325.3198793414
101325.2987520341
101325.2749035672
101325.2501511416
101325.2243904655
101325.198225187
101325.1722103247
101325.1464470348
101325.1215151803
101325.0978154853
101325.0759309755
101325.0562610429
101325.0391719528
101325.0250078631
101325.0139494702
101325.0062695316
101325.0020465241
101325.0014348052
101325.0043925776
101325.0109173417
101325.0208379239
101325.034018368
101325.050200634
101325.0692214861
101325.0908430974
101325.1147079559
101325.1399641554
101325.1656554948
101325.1913391216
101325.2169508376
101325.2422900014
101325.2670854109
101325.2908687683
101325.313163001
101325.3334092763
101325.3511627735
101325.3660062525
101325.3776933412
101325.3859990343
101325.3908314057
101325.3920966192
101325.3898108666
101325.3839903911
101325.3747617515
101325.3622258518
101325.3465508472
101325.3278451676
101325.3063548331
101325.2825753628
101325.2575381645
101325.232167763
101325.2068175371
101325.1815253609
101325.1564593608
101325.1318434121
101325.1080624263
101325.0855433198
101325.0648272481
101325.046391924
101325.0307325439
101325.018186177
101325.0090488294
101325.0034466739
101325.001478901
101325.0031152542
101325.0083375884
101325.0170354673
101325.0291410889
101325.0445226819
101325.0631008297
101325.0845706933
101325.1083116349
101325.133180378
101325.1582908797
101325.1833686332
101325.208393251
101325.2331919008
101325.2575993112
101325.2812510355
101325.3037905443
101325.3246920048
101325.3435199268
101325.3597300407
101325.3729654724
101325.3828463169
101325.3892121544
101325.3919101893
101325.3909733777
101325.3863857514
101325.3783115558
101325.3667656507
101325.35186516
101325.3336906219
101325.312595895
101325.2891442063
101325.2645635065
101325.2397272117
101325.214911305
101325.1901441811
101325.1655934971
101325.1413642776
101325.1177664215
101325.0951447422
101325.073973514
101325.0546506159
101325.0377541952
101325.0237159595
101325.0129565671
101325.0056901983
101325.0021788019
101325.0023876638
101325.0063760232
101325.0139541186
101325.0251689612
101325.0398238922
101325.0577649824
101325.0787536242
101325.1019619928
101325.1261647001
101325.1505509221
101325.1749395596
101325.1992144025
101325.2232575201
101325.2470131272
101325.2701422093
101325.2924198726
101325.3133827704
101325.3327025576
101325.3497052227
101325.3641498149
101325.3755115889
101325.3835249051
101325.3879826225
101325.3887650895
101325.3858358671
101325.3792581158
101325.3691358888
101325.3555490064
101325.3385318882
101325.3185552653
101325.29619579
101325.2726347746
101325.2487477927
101325.2248633532
101325.2010209052
101325.1774095912
101325.154043311
101325.1312337045
101325.1091494463
101325.0882213836
101325.0688834538
101325.0515115509
101325.0366210505
101325.0247083063
101325.0160095752
101325.0109317197
101325.0095208181
101325.0119745234
101325.0181272761
101325.0280931936
101325.0416937787
101325.0587859102
101325.0789445955
101325.1014858418
101325.1251407785
101325.1490734265
101325.1730189631
101325.1968628492
101325.2204919533
101325.2438527256
101325.2666997243
101325.2887907972
101325.3097567743
101325.3293447759
101325.3469165032
101325.3621768467
101325.3746547894
101325.3839743212
101325.3898613555
101325.392107053
101325.3905657258
101325.38527645
101325.3761892968
101325.3635018028
101325.3472580148
101325.3278301927
101325.3059202455
101325.2826048176
101325.2588636762
101325.2351418988
101325.2114359386
101325.1879524869
101325.1646893393
101325.1419332669
101325.1197994785
101325.0986800763
101325.0788901045
101325.0608926873
101325.0450150422
101325.0318660614
101325.0217398202
101325.0149969696
101325.0119468746
101325.0127377696
101325.017411978
101325.0259944178
101325.0384618844
101325.0546691111
101325.0740730832
101325.0961043021
101325.1193903169
101325.1430394874
101325.1666655028
101325.1902571754
101325.213630435
101325.23676752
101325.2594332863
101325.2814683343
101325.3025098585
101325.3222949122
101325.3404020294
101325.3563859212
101325.3698490545
101325.3804336591
101325.3877113491
101325.3915022308
101325.3914997191
101325.387704596
101325.3799682238
101325.3684565234
101325.3532375719
101325.3346158475
101325.313289536
101325.2903575001
101325.2668519708
101325.2433430604
101325.2198406638
101325.1965503371
101325.1734598249
101325.1507919282
101325.1287176161
101325.1075146691
101325.0874356028
101325.0690206409
101325.0524305921
101325.0383141998
101325.0269909389
101325.0188701733
101325.0142684751
101325.0134902069
101325.0166149622
101325.0238064789
101325.0349817255
101325.0501521065
101325.0688010431
101325.0902460007
101325.1132238643
101325.1366610646
101325.160061316
101325.1834372519
101325.2066661473
101325.2296527372
101325.252188706
101325.274208881
101325.2953205929
101325.3153131947
101325.3338276045
101325.3504551075
101325.3647511864
101325.3764382306
101325.3850052921
101325.3902569679
101325.391781699
101325.3895347054
101325.3833058867
101325.3731255424
101325.3590882425
101325.3414932695
101325.3208536618
101325.2984027111
101325.2751557295
101325.2518948953
101325.2285470187
101325.2054947958
101325.1825748844
101325.1600284164
101325.1380010876
101325.1167761031
101325.096548273
101325.0777475884
101325.0606698768
101325.0457634622
101325.0334320687
101325.0241413326
101325.0181208874
101325.0158567546
101325.0174654404
101325.0231964589
101325.0329903172
101325.0469614138
101325.06471375
101325.0854771833
101325.1081047171
101325.1313474749
101325.1546046432
101325.1777609896
101325.2008974796
101325.2237696183
101325.2462382186
101325.2682153685
101325.2894316802
101325.3096223025
101325.3284283229
101325.3456263833
101325.3606363842
101325.3732620355
101325.3829969504
101325.3895803605
101325.3925711117
101325.3918556113
101325.3871675456
101325.378479563
101325.3657499693
101325.3493103578
101325.3295652721
101325.3076661049
101325.284745135
101325.2617237265
101325.2385976877
101325.215713094
101325.1929905936
101325.170579725
101325.148604142
101325.1273935698
101325.1070675286
101325.0879839199
101325.0705107014
101325.0549813421
101325.0418030831
101325.0314726006
101325.0242630545
101325.0205906037
101325.0207379398
101325.0249813799
101325.0333782776
101325.0459936964
101325.0626398849
101325.0826592202
101325.1048041258
101325.1278630821
101325.1509817075
101325.1740143013
101325.1969753848
101325.2198282188
101325.242233323
101325.2642141006
101325.2854905299
101325.3058807605
101325.3249816408
101325.3426113687
101325.3582893859
101325.3717258128
101325.3824866756
101325.3902924219
101325.3946643256
101325.3954149945
101325.3922633807
101325.3851423114
101325.3738352889
101325.3586654975
101325.3400103871
101325.3187918663
101325.2962794368
101325.2734788123
101325.250668993
101325.227808965
101325.2053640197
101325.1830888499
101325.161213284
101325.1399822729
101325.1196212413
101325.1003586139
101325.0824957106
101325.0664978829
101325.0526095467
101325.0413650545
101325.033110663
101325.0281473424
101325.0269199477
101325.0297127962
101325.036666317
101325.0478926245
101325.0632692227
101325.082371099
101325.1039446345
101325.1267590431
101325.1497388206
101325.1727420475
101325.1954310984
101325.2182927321
101325.2407013655
101325.2626892125
101325.2840204799
101325.3045973923
101325.3239908624
101325.3419717257
101325.3582402792
101325.3723960054
101325.3840677989
101325.392980592
101325.3986210388
101325.4007890024
101325.3991292263
101325.3935427975
101325.3838086538
101325.3700003368
101325.3525333862
101325.33220042
101325.3101716006
101325.2876392179
101325.2651077566
101325.2424140682
101325.2201348745
101325.1980491883
101325.1762489903
101325.1550385522
101325.1346098405
101325.1152341966
101325.097082655
101325.0806452628
101325.0661772773
101325.0541481327
101325.0449041681
101325.0388910426
101325.0363313188
101325.0377151661
101325.0432158266
101325.0530383329
101325.067035001
101325.0850204604
101325.1059307443
101325.1283969034
101325.1512402355
101325.1741465934
101325.1967526929
101325.2194761947
101325.2419378402
101325.2639112999
101325.285337213
101325.3060260412
101325.3257298221
101325.3440716026
101325.3607964313
101325.3756382144
101325.3881421556
101325.3980064906
101325.4049126899
101325.4083468674
101325.4081330088
101325.4040646416
101325.3959044974
101325.3836094608
101325.3674039925
101325.3481149219
101325.3267096314
101325.304499621
101325.2822069408
101325.2598777627
101325.237548852
101325.2157331984
101325.1940551151
101325.1729124847
101325.1524086171
101325.1329555949
101325.1146045991
101325.0977553524
101325.0827966449
101325.070093876
101325.0599751561
101325.0530059412
101325.0491936635
101325.0492716326
101325.0533649538
101325.0617371402
101325.0743719112
101325.0910751786
101325.1111396924
101325.1331685418
101325.1558524135
101325.1786210129
101325.2013158683
101325.2236469459
101325.2462177009
101325.2682656936
101325.2897663014
101325.3105803083
101325.3305106604
101325.3492462239
101325.3663806936
101325.381825489
101325.3950869292
101325.4058558966
101325.4138459788
101325.4184968576
101325.4197001354
101325.4170853394
101325.410471147
101325.3997752949
101325.3849557504
101325.3667833932
101325.3461979076
101325.3244127235
101325.3023283068
101325.280394046
101325.2580994163
101325.2365137672
101325.2150187157
101325.1939071488
101325.1734080169
101325.153810044
101325.1353681363
101325.1181731401
101325.1027883169
101325.0894833334
101325.0786249224
101325.0706563573
101325.0659021448
101325.0646844184
101325.0673899332
101325.0743390765
101325.0855491752
101325.1009575407
101325.1199357837
101325.1414753254
101325.1638678733
101325.1864934018
101325.209187053
101325.2314277437
101325.2539034318
101325.2760366783
101325.2975746032
101325.3185505075
101325.3386399974
101325.3577650427
101325.3753127294
101325.3912851019
101325.4052233052
101325.4168675361
101325.4257438546
101325.4317679439
101325.4341361443
101325.4329492543
101325.4278584857
101325.418715848
101325.4054645145
101325.3884435972
101325.3688528663
101325.3475014224
101325.3257646604
101325.3041006759
101325.2822318666
101325.2605077145
101325.2393068234
101325.2183005212
101325.1978446667
101325.1781419494
101325.1595464447
101325.1421934335
101325.1262999745
101325.1125623308
101325.101018759
101325.0921560706
101325.0865289602
101325.0840101924
101325.0854756176
101325.0910273077
101325.1008070179
101325.1148822882
101325.1326733744
101325.1534860274
101325.1755716745
101325.1980701306
101325.2206102443
101325.2430651637
101325.2650387688
101325.287382513
101325.3090399692
101325.3301402977
101325.3504256619
101325.3697885853
101325.3879090753
101325.4041672651
101325.4189661929
101325.4312988541
101325.4410822978
101325.4481957209
101325.4517424734
101325.4520051001
101325.4483314868
101325.4407488923
101325.4290578182
101325.4134575137
101325.3947429379
101325.3742989084
101325.3526988732
101325.331352629
101325.3099591468
101325.2881832627
101325.267265504
101325.2464286687
101325.2259749236
101325.2062568613
101325.1874428649
101325.1700240824
101325.1536434325
101325.1396260363
101325.1273651918
101325.1177747287
101325.1111090966
101325.1077485546
101325.1078963682
101325.112070203
101325.120456665
101325.133105874
101325.1497554425
101325.1695118335
101325.1914259322
101325.2135020591
101325.236046579
101325.2584787811
101325.2803869631
101325.3026451365
101325.324446821
101325.3456168775
101325.3661352448
101325.385712202
101325.4042567457
101325.4210350819
101325.4363712457
101325.4494696174
101325.46016546
101325.4680918171
101325.4731634453
101325.4744618589
101325.4722461106
101325.4661876118
101325.4560404952
101325.4419852108
101325.4243130275
101325.4046992093
101325.3836069592
101325.3624307525
101325.3413514692
101325.3200902584
101325.2989322443
101325.278426637
101325.2580649659
101325.2383653945
101325.2194336257
101325.2017625504
101325.1853378688
101325.1705595163
101325.1580074344
101325.147678669
101325.1400753203
101325.1359543938
101325.1346884225
101325.1377050253
101325.1446944504
101325.1559498
101325.1713150918
101325.1900969429
101325.2113177207
101325.2333852138
101325.2555383253
101325.2780175099
101325.3001544613
101325.3218501103
101325.3439409553
101325.3652659966
101325.3859316177
101325.4057715584
101325.4245523133
101325.4420940102
101325.4575270427
101325.47165057
101325.4830787591
101325.4919500566
101325.4981361792
101325.5006101003
101325.4998686287
101325.4951822987
101325.4866274743
101325.4740630971
101325.4577898828
101325.4388660177
101325.4185497259
101325.397561967
101325.3768310204
101325.3559843717
101325.3347663298
101325.3145837264
101325.2943642836
101325.2746309857
101325.2556775106
101325.2377291328
101325.2212641917
101325.2058472799
101325.1930491816
101325.1820576035
101325.1736855114
101325.1684528973
101325.1664512272
101325.1680886231
101325.1737002327
101325.1836148076
101325.1975952065
101325.2153880044
101325.235690972
101325.2576546324
101325.2796782734
101325.3018653226
101325.3241221495
101325.3457739784
101325.3677281123
101325.3892624679
101325.410046158
101325.430151826
101325.449189819
101325.4672050435
101325.4831963284
101325.4979730424
101325.5102112145
101325.5198976486
101325.5269414273
101325.5310728393
101325.5312671242
101325.5280705318
101325.5210314954
101325.5099996587
101325.495193598
101325.477193739
101325.4575636021
101325.4371098239
101325.4163966903
101325.3960609132
101325.3752985098
101325.3547559692
101325.3349459741
101325.315280447
101325.2963191052
101325.2782174992
101325.2614809625
101325.2459700215
101325.2324586207
101325.2209959244
101325.2119260087
101325.2056930111
101325.2030665359
101325.2031236543
101325.2076910452
101325.2161503522
101325.2288323273
101325.2453975443
101325.2649847665
101325.2863299453
101325.3083655042
101325.3303345379
101325.3525861782
101325.374489357
101325.3958622328
101325.4177949487
101325.4387290753
101325.4590171319
101325.4783753981
101325.4966508688
101325.5135253041
101325.5283160852
101325.5415529034
101325.5522931025
101325.5601175507
101325.565449988
101325.5668533243
101325.5651358627
101325.5594114194
101325.5499986459
101325.5366095928
101325.5199337377
101325.500860212
101325.4809461396
101325.4606842211
101325.4403969127
101325.4203184953
101325.3995814564
101325.3801261537
101325.3605839476
101325.3415620395
101325.3234251816
101325.3063550303
101325.2908609045
101325.2765005466
101325.2648173183
101325.2552663075
101325.2479009371
101325.2442067734
101325.243772071
101325.246761106
101325.2539027211
101325.2652636357
101325.2805495616
101325.2992790978
101325.3200054155
101325.3418008559
101325.3638627101
101325.3856550708
101325.407973899
101325.4292475871
101325.4508418662
101325.4721834311
101325.4926169823
101325.5122965407
101325.5308604119
101325.5482923573
101325.5636113581
101325.5776798017
101325.5891415051
101325.5978979597
101325.6040254266
101325.6073514796
101325.606308338
101325.6022373717
101325.5942279492
101325.5824162383
101325.5670202549
101325.5489336911
101325.5293561212
101325.5095978608
101325.4895500175
101325.4697806243
101325.4497738272
101325.4295551884
101325.4106395189
101325.3916446501
101325.3734532872
101325.3562217366
101325.3404231756
101325.3259339953
101325.3135541189
101325.3032542549
101325.2956999547
101325.2905419374
101325.2895149426
101325.2909885345
101325.2971446553
101325.3069690066
101325.3210678454
101325.3386694883
101325.358978584
101325.380214875
101325.4021972175
101325.4241351917
101325.4459020876
101325.468019103
101325.4886623557
101325.5105924696
101325.5312455405
101325.5510741939
101325.5700343011
101325.5877545211
101325.6040130122
101325.6180711894
101325.6305690266
101325.6406116387
101325.6472175795
101325.6516135381
101325.6525734622
101325.649488833
101325.642942366
101325.6326329349
101325.618617754
101325.6016714027
101325.5826823497
101325.5631881369
101325.543697635
101325.5238169455
101325.5047188426
101325.484562062
101325.4652888563
101325.4467462024
101325.4284317243
101325.4111285063
101325.3950124438
101325.3804440971
101325.3672224257
101325.356757842
101325.348443479
101325.3425836089
101325.3400755604
101325.3414774858
101325.3454420133
101325.3543472472
101325.36698215
101325.3834983355
101325.4029794049
101325.4241642047
101325.4455624375
101325.4675604005
101325.4893793455
101325.5111219647
101325.5329503122
101325.5531217236
101325.5747816527
101325.59494119
101325.6141563709
101325.6323800204
101325.6491043338
101325.6639081616
101325.6770001348
101325.6876231488
101325.696011834
101325.7004878291
101325.7030648488
101325.7014117578
101325.6964279521
101325.687477872
101325.6749489332
101325.659090351
101325.6411409786
101325.6217757428
101325.6025594061
101325.5833719289
101325.5637817356
101325.5453334574
101325.5249519169
101325.5070763392
101325.4889377474
101325.4712290899
101325.4550224774
101325.440076484
101325.4267066953
101325.415191274
101325.4064899869
101325.4003772907
101325.3964751882
101325.3965413165
101325.4004025001
101325.4071551595
101325.4187868931
101325.4339691501
101325.4525326459
101325.4732075129
101325.4948268151
101325.5162667619
101325.5381861924
101325.5599582807
101325.581440662
101325.6032511596
101325.6225430769
101325.6439048049
101325.6635776585
101325.6821637437
101325.6996137198
101325.7149181133
101325.72851532
101325.7401787413
101325.7491543482
101325.7555402561
101325.758035826
101325.7585592501
101325.7542804529
101325.7475017395
101325.7362146351
101325.7217114651
101325.7045342077
101325.685982028
101325.666788426
101325.6477519262
101325.6288841337
101325.6096029472
101325.5919484925
101325.5715922441
101325.5547661967
101325.5373911618
101325.5202592748
101325.5057956285
101325.4911290794
101325.4795946891
101325.4700428181
101325.4630695233
101325.4594840155
101325.4576439293
101325.4601462476
101325.4666151143
101325.4777952675
)
;

boundaryField
{
    inlet
    {
        type            calculated;
        value           uniform 101325.3929510092;
    }
    outlet
    {
        type            calculated;
        value           uniform 101325.484400045;
    }
    frontAndBack
    {
        type            empty;
    }
}


// ************************************************************************* //
