/*--------------------------------*- C++ -*----------------------------------*\
| =========                 |                                                 |
| \\      /  F ield         | OpenFOAM: The Open Source CFD Toolbox           |
|  \\    /   O peration     | Version:  v2012                                 |
|   \\  /    A nd           | Website:  www.openfoam.com                      |
|    \\/     M anipulation  |                                                 |
\*---------------------------------------------------------------------------*/
FoamFile
{
    version     2.0;
    format      ascii;
    class       volScalarField;
    location    "0.0135";
    object      rho;
}
// * * * * * * * * * * * * * * * * * * * * * * * * * * * * * * * * * * * * * //

dimensions      [1 -3 0 0 0 0 0];


internalField   nonuniform List<scalar> 
1000
(
1.176540671110615
1.176517342765691
1.176569947237584
1.17661144153335
1.176659917559936
1.176704080537136
1.176741395563074
1.176772341427262
1.176797823973515
1.176814408239826
1.176819040068023
1.176818183264145
1.176814498556587
1.176805605935693
1.176789101108931
1.176764215185617
1.176731846354301
1.176693461985332
1.176650264655024
1.176603044702693
1.176552424039212
1.176499114111639
1.176444008779282
1.17638814332224
1.17633262058048
1.176278550392845
1.176226947823921
1.17617850565034
1.176133347217691
1.176091301732004
1.176053557924948
1.176025467206777
1.176013409050582
1.17601200878477
1.176012388918186
1.176014674175895
1.176020954021016
1.176033279274813
1.176053298370062
1.176081727936828
1.176118151755091
1.176161256393481
1.176209352668502
1.176260874503875
1.176314612136292
1.176369656741989
1.176425209254532
1.176480433586071
1.176534465762299
1.176586594714523
1.17663649669147
1.176684212751001
1.17672935075825
1.17676898010608
1.176795849301708
1.176805409557516
1.176806162747477
1.176805786130839
1.176803805046052
1.176798667426703
1.176788576404191
1.176771891374878
1.17674743670818
1.17671479836793
1.17667444038861
1.176627592559878
1.176575937156987
1.176521224954293
1.17646498544952
1.176408420350079
1.176352430252081
1.176297644835582
1.176244389710149
1.176192699743752
1.176142611214522
1.176095239157522
1.176054916480761
1.17602962373678
1.176021759500909
1.176021122285932
1.176021448209388
1.176023201244686
1.176027865640195
1.176036983760806
1.176052073940666
1.176074334303
1.17610441671174
1.176142252516576
1.176187024177307
1.176237307606188
1.176291350236444
1.176347395440254
1.176403951059541
1.176459946090653
1.176514791996827
1.176568347912472
1.176620762729602
1.176672091257195
1.176720938020307
1.176762741757634
1.176789284602562
1.176798199967397
1.176799427851196
1.176799509598714
1.176798018437231
1.176793974604929
1.176785987224831
1.176772661438362
1.176752789359078
1.176725540276978
1.176690634445279
1.176648444961064
1.176599977299582
1.176546721398368
1.176490401246787
1.176432680585669
1.176374893556319
1.17631785321585
1.176261843190042
1.176206783587867
1.176152979904324
1.17610218473209
1.176059468634414
1.176033550386975
1.176024932411516
1.17602287622374
1.176022140078611
1.176023497911882
1.176027295418403
1.176034903477121
1.176047649817664
1.176066674637173
1.176092793347698
1.176126384895223
1.176167279698755
1.176214713976752
1.176267402617128
1.176323726254194
1.17638199741483
1.176440749731833
1.176498958813451
1.176556132942949
1.176612197214262
1.176666829904103
1.17671818346776
1.176761625421041
1.176789948065894
1.176800881570132
1.176803209626483
1.176803901653816
1.176802660772999
1.176799174814372
1.176792297532876
1.176780896405499
1.176763854275981
1.176740205763311
1.176709304963115
1.176670989093452
1.176625668037355
1.176574307487405
1.176518308785174
1.176459292967297
1.176398820294171
1.176338144774076
1.176278095420764
1.17621915585651
1.176162066287096
1.176109107464597
1.176065339579876
1.176037760300188
1.176027461796774
1.176025175261141
1.1760243775523
1.176025560695805
1.176028933438594
1.17603556934944
1.176046506223554
1.176062760750768
1.176085223485165
1.176114527752408
1.176150910508655
1.17619411502831
1.176243373444435
1.176297484472003
1.176354987216928
1.176414406094532
1.176474476790186
1.176534261913699
1.176593136978068
1.17665036541368
1.176703953803916
1.176749543212791
1.176780477631972
1.17679344127817
1.176796349473836
1.176797372549996
1.176796637009015
1.176793971912145
1.17678835046726
1.176778767952706
1.176764255563552
1.17674391822379
1.176717019490945
1.176683112797345
1.176642164339337
1.176594621816403
1.176541401195949
1.176483775806518
1.176423177996923
1.176360989100854
1.176298404667637
1.17623640791933
1.176176148640899
1.176120157966233
1.176073602883366
1.17604349924247
1.176031691519398
1.176029127997976
1.176028197712548
1.176029032633391
1.176031795089672
1.176037449350693
1.176046922834889
1.176061112404475
1.176080839156887
1.176106771611236
1.176139325179764
1.176178567182508
1.176224153760501
1.176275324230725
1.176330974847972
1.176389814421029
1.176450548663667
1.176512008233955
1.176573207952967
1.176633122363289
1.176689633692413
1.176738285994741
1.176772484741561
1.176788010736741
1.176791637093715
1.176792799225126
1.17679248525175
1.176790476265012
1.176785882844414
1.176777780773519
1.176765285904921
1.176747557851835
1.176723850611672
1.176693610100417
1.176656570325719
1.176612826187756
1.176562870302454
1.176507571430814
1.176448074825663
1.176385658282558
1.176321620952068
1.176257224428876
1.17619391308364
1.17613442331098
1.176084205196728
1.176050628649363
1.176036551397539
1.176033462723442
1.176032451374005
1.176032961233217
1.176035167803371
1.176039931340551
1.176048104777214
1.176060516607997
1.17607794798415
1.176101071997555
1.176130378114354
1.176166103846035
1.176208176141606
1.176256174581448
1.176309341027147
1.176366657428954
1.176426971173594
1.176489096179188
1.17655187188144
1.17661407532474
1.17667355761957
1.176725787890769
1.176763974734761
1.176782938649709
1.176787754607817
1.176788938413346
1.176788998888896
1.176787533901475
1.176783821407567
1.17677699930015
1.17676623745556
1.176750725485261
1.176729718427082
1.176702615177303
1.176669025161457
1.176628823264483
1.176582199024607
1.176529679620615
1.176472095526073
1.176410499532914
1.176346104964998
1.176280254012868
1.176214525953081
1.176151669398287
1.176097273262297
1.176059274723448
1.176041915911015
1.176037853026305
1.17603679371808
1.176037001734534
1.176038711368926
1.17604267679559
1.176049693083124
1.176060543918714
1.176075986027907
1.17609669018473
1.176123181047378
1.176155793281403
1.176194626486787
1.176239500204905
1.176289933328965
1.176345174486787
1.17640427815388
1.176466167554605
1.176529659837669
1.176593449755545
1.176655506987952
1.176711434995252
1.176754148480391
1.176777517926352
1.176784326502862
1.176785524180191
1.176785929259078
1.176784897546427
1.176781960439264
1.176776263095916
1.176767022189076
1.176753451029393
1.176734804963377
1.176710454706758
1.176679934929097
1.176642981379722
1.17659957560686
1.176549984054983
1.176494761525719
1.176434714772513
1.176370877905092
1.176304528360209
1.17623726234803
1.176171672993093
1.176113122747463
1.176069982839887
1.176048102273427
1.176042247917972
1.176041184608729
1.176041084403207
1.176042371997139
1.176045645663959
1.176051646365423
1.176061118295319
1.176074800552179
1.176093365674282
1.176117362614059
1.176147186968776
1.176183050837749
1.176224941692498
1.176272589947802
1.176325470111016
1.176382842185613
1.176443791105937
1.176507221888953
1.176571836328855
1.176635766765503
1.176695034774986
1.176742507896309
1.176771145730283
1.176781018245023
1.176782550029139
1.176783115532164
1.176782460022026
1.176780178404492
1.176775459952764
1.176767564136644
1.176755729231441
1.176739201367992
1.176717320082605
1.176689568699951
1.176655594606879
1.176615237982575
1.176568572768929
1.176515932276725
1.176457901194842
1.176395313704537
1.176329303267429
1.176261377359057
1.176193858860718
1.176131562566218
1.176082966180206
1.176055556541926
1.176046914288837
1.176045639160543
1.176045296270954
1.176046227092996
1.176048872855355
1.17605395772572
1.176062182534372
1.176074272651471
1.17609090759221
1.176112655234763
1.176139949647763
1.176173077557005
1.176212146468075
1.17625704716674
1.176307436120275
1.17636275423325
1.176422253753514
1.176484973005679
1.176549682757271
1.176614696363779
1.176676669781289
1.176728846661897
1.176763264280904
1.176777429977006
1.176779893177504
1.17678048582417
1.176780137357034
1.176778411617421
1.17677454192872
1.176767834306298
1.176757554244374
1.176742938427178
1.176723297440363
1.176698075438498
1.176666857761368
1.17662938380211
1.176585584357385
1.17653561886088
1.176479886025838
1.176419029702689
1.176354002875323
1.176286170147136
1.176217583610916
1.176152319583502
1.176098417422745
1.176064771891559
1.17605205144265
1.176049994406446
1.176049565729055
1.176050201755629
1.176052311283602
1.176056588901527
1.176063691906608
1.176074331329189
1.176089201017903
1.176108891918991
1.176133867511386
1.176164465628637
1.176200879311996
1.176243119121982
1.176290984981729
1.176344069701383
1.176401777296266
1.176463292798408
1.176527510902259
1.176592922389169
1.176656821460358
1.176713225522429
1.176753518242385
1.17677307869708
1.17677749842348
1.176778046803823
1.176777925828721
1.176776668508769
1.176773545190819
1.176767898064518
1.176759021209707
1.176746150743505
1.176728569688484
1.176705682689154
1.176677025721476
1.1766422675761
1.176601235843314
1.176553955489271
1.176500672770382
1.176441866828009
1.176378314215037
1.176311207454384
1.176242341942179
1.17617503528635
1.176116331825225
1.176076086361108
1.176058122592128
1.176054357868417
1.176053896242535
1.176054295666633
1.176055948231497
1.176059520344064
1.17606562728257
1.176074952421976
1.17608819807843
1.176105980905324
1.176128795163221
1.176157020963836
1.176190916555125
1.176230585392556
1.176275943496873
1.176326708852804
1.176382412054597
1.176442378197507
1.17650564758285
1.176570862287911
1.176635811266643
1.17669564517101
1.176741772127722
1.176767492039014
1.176775206016126
1.176775828332055
1.176775903149983
1.176774994197479
1.176772475214411
1.176767724696229
1.176760087473099
1.176748808992458
1.176733140638527
1.176712440611166
1.176686198324084
1.176654026254337
1.176615672308881
1.176571055567227
1.17652029917538
1.176463747220114
1.17640201175204
1.176336094612036
1.176267559871512
1.176199110541734
1.176136527126452
1.176089773807899
1.176065605060282
1.176058882629265
1.176058297985624
1.176058481012701
1.176059758679886
1.176062720696942
1.176067941352323
1.176076071045675
1.176087816943026
1.176103826542759
1.176124626177184
1.176150627983696
1.176182137041611
1.176219328629621
1.17626221334975
1.17631061502306
1.176364175003774
1.176422346689276
1.176484311964261
1.1765488635585
1.176614170477883
1.176676512118776
1.176728014133217
1.17676015533817
1.176772363512099
1.176773940574164
1.176773973526284
1.176773295310809
1.176771296513701
1.17676733598598
1.176760805015259
1.176750967714831
1.176737061049052
1.176718407089158
1.176694450255776
1.176664750544147
1.176628990327975
1.176587003943196
1.176538812194261
1.17648464367684
1.176424966875581
1.176360610755846
1.176292931584362
1.176224139498501
1.176158773867603
1.176105956339994
1.176074864479007
1.1760639515139
1.176062600627868
1.176062717083435
1.176063680456343
1.176066133910842
1.176070597395233
1.1760776715084
1.176088054308042
1.176102418561982
1.176121323673254
1.176145215305868
1.176174442051715
1.176209240052172
1.176249697866969
1.176295729599192
1.176347071693573
1.176403282092714
1.176463672773398
1.176527198757201
1.176592309527499
1.176656116783152
1.176712105666103
1.176750817502253
1.176768720045885
1.176772314011639
1.176772201964635
1.176771748756931
1.176770130781366
1.176766809295336
1.176761211386941
1.176752651658538
1.176740363080629
1.176723628492798
1.176701843397744
1.176674517112771
1.176641273790656
1.176601875315019
1.176556254941022
1.176504543048261
1.17644709132801
1.17638456540292
1.176318108833108
1.176249580247205
1.176182544573082
1.176124622212902
1.176086305858365
1.176070042287716
1.176066942551796
1.176067020389385
1.176067731795695
1.176069763918367
1.176073575912163
1.176079724027738
1.17608887672283
1.176101723048287
1.176118856678519
1.176140755873435
1.176167803857672
1.17620028472382
1.17623835373595
1.176282007319244
1.176331068656794
1.176385187088727
1.176443801171486
1.176506022473555
1.176570488536607
1.17663491157071
1.176694324841373
1.176739451000871
1.176763642286492
1.176770429724816
1.176770812835634
1.176770361447357
1.176769004076329
1.176766211731408
1.176761414844368
1.176753977406795
1.176743145749463
1.17672818038611
1.176708438850422
1.176683383157163
1.176652579154662
1.176615720559793
1.17657266196165
1.176523446837026
1.176468328301278
1.176407825979554
1.176342892719287
1.176275129021641
1.176207338759495
1.176145495350406
1.176100079115004
1.176077559001663
1.176071531809804
1.176071254177918
1.176071817000723
1.176073466115434
1.176076735913331
1.176082089016603
1.176090147280473
1.176101607353523
1.176117094366469
1.176137117229181
1.176162089530969
1.176192336745042
1.176228072378254
1.176269365607489
1.176316119478886
1.176368068850507
1.176424762056203
1.176485447692006
1.176548933068444
1.17661336280107
1.176675006692045
1.17672578553515
1.176756675272125
1.176768226997789
1.176769651145303
1.176769132174286
1.17676804340056
1.176765648294843
1.176761483999327
1.17675499071936
1.176745446870432
1.176732099198395
1.176714269292915
1.176691372921029
1.176662922597128
1.176628551275817
1.176588043046886
1.17654136019707
1.17648866331699
1.176430347362953
1.176367185459958
1.176300543818575
1.176232699221485
1.176168259119019
1.176116539796114
1.176086915508209
1.176076668219111
1.176075435346208
1.176075971826576
1.176077263672897
1.176080074136363
1.176084753066982
1.176091852791081
1.176102052968168
1.176116008944073
1.176134265978456
1.176157269119007
1.176185378220208
1.176218851393775
1.176257816324743
1.176302248248046
1.176351960699428
1.17640659390216
1.176465540401719
1.176527797067578
1.176591783477874
1.176654593615124
1.176709872818958
1.176747777433238
1.176764982638822
1.176768406248192
1.176768195973546
1.176767216021301
1.176765120316374
1.176761472179224
1.176755754139958
1.17674732080663
1.176735423007635
1.176719353655012
1.176698494503554
1.176672311122426
1.176640372727438
1.176602392905395
1.176558259839041
1.1765080531553
1.176452066379476
1.176390905599256
1.176325704143006
1.176258377031846
1.176192495562822
1.176135558885742
1.176098299985423
1.176082810974476
1.176079749313119
1.176080017928109
1.17608108451164
1.176083499097708
1.176087610901731
1.176093899487459
1.176102993591884
1.176115554683833
1.17613216312889
1.176153304080624
1.176179375679866
1.176210675452745
1.176247377645484
1.176289514663855
1.1763369644008
1.176389446816741
1.176446483569492
1.17650724393705
1.176570353521202
1.176633522044176
1.176691993232112
1.17673658162836
1.176760108877701
1.176767113627966
1.176767500947549
1.17676658843854
1.176764782439214
1.176761509290823
1.176756393734762
1.176748881442699
1.176738262421593
1.176723818236574
1.176704886862328
1.176680875242757
1.176651289758241
1.17661578133334
1.176574174029825
1.176526479262029
1.176472909049337
1.176413927231708
1.176350442123865
1.17628408036861
1.17621764754598
1.17615692140863
1.176112278519392
1.176090468897675
1.176084342823759
1.176083947956828
1.176084901970124
1.176086913686144
1.176090593314749
1.176096234403354
1.176104384251404
1.176115688784264
1.176130752362094
1.176150104451339
1.176174200630581
1.176203395929939
1.176237911028998
1.176277817312142
1.176323034363915
1.176373333837595
1.176428324511317
1.176487338290593
1.176549249213924
1.17661221509141
1.176672585673578
1.176722777352316
1.176753443925044
1.176765159843183
1.176766885816736
1.176766265480854
1.176764697688406
1.176761735588224
1.176757075932996
1.176750273722821
1.176740711096744
1.176727689455104
1.176710531341492
1.176688600069003
1.176661321890401
1.176628247502445
1.176589116460913
1.176543885130962
1.176492720065791
1.176436002501862
1.176374464866093
1.176309447263374
1.176243211555834
1.176180189323131
1.176129205244123
1.176099857456929
1.176089629776441
1.17608801223413
1.176088569896842
1.176090248838041
1.176093543758845
1.176098687142841
1.176106114199726
1.176116381934784
1.176130063800636
1.176147710860447
1.176169847070188
1.176196923942785
1.176229254031657
1.176266972606458
1.176310033778533
1.176358223263488
1.176411178680266
1.176468344382529
1.176528786250667
1.176590970473158
1.176652139731575
1.176706463418871
1.176744509224533
1.176761780864329
1.176766089772054
1.176766182859146
1.17676490350142
1.176762323142708
1.176757977009595
1.176751627927556
1.176742808270105
1.176730931252026
1.176715358680778
1.176695415380497
1.176670430923455
1.176639829482541
1.176603222350258
1.176560462227387
1.176511661709537
1.176457181788908
1.176397658577498
1.176334213841806
1.176268740167331
1.176204640098845
1.176148915532139
1.176111770313797
1.176096225348123
1.176092589763779
1.176092242578258
1.176093503124706
1.17609627895876
1.176100992122769
1.176107910355103
1.176117455615495
1.17613009026507
1.17614628792245
1.176166570614239
1.176191487895676
1.176221513605332
1.176256937791218
1.176297816604666
1.176343972170052
1.176395023531311
1.176450417951112
1.176509326309733
1.176570437357781
1.17663161854781
1.176688454567583
1.176732579137246
1.176756721042433
1.17676450581207
1.176765678782418
1.176765214907626
1.176763243663564
1.17675940391071
1.176753436907098
1.176745030159696
1.176733813620208
1.176719353527473
1.176701102898416
1.176678371332526
1.176650405007609
1.176616558500112
1.176576460119125
1.176530090851779
1.176477783931196
1.176420179633302
1.176358306702547
1.176293822371374
1.176229417958772
1.176170527389861
1.176126745205527
1.176104451013342
1.176097829017497
1.176096779237173
1.176097082213817
1.176098980460889
1.176102899821774
1.176109215244297
1.176118277374007
1.176130371910726
1.176145726020533
1.176164617727729
1.176187501386646
1.17621500020207
1.176247738573719
1.17628611333888
1.176330136350086
1.176379408090811
1.176433237698618
1.176490740514128
1.176550714933105
1.176611444750734
1.176669698584764
1.176718508419022
1.176749577493296
1.17676196397259
1.176764371502873
1.17676464663297
1.176763634774711
1.176760986506255
1.176756100098048
1.176748456946213
1.176737635021906
1.176723419299135
1.176705727224545
1.176684371657704
1.176658875636396
1.176628455283827
1.176592129507767
1.176549018193523
1.176498932431543
1.176443082466887
1.176382472413645
1.176319225171703
1.176242711744957
)
;

boundaryField
{
    inlet
    {
        type            calculated;
        value           uniform 1.176427481426743;
    }
    outlet
    {
        type            calculated;
        value           uniform 1.176208681825591;
    }
    frontAndBack
    {
        type            empty;
    }
}


// ************************************************************************* //
