/*--------------------------------*- C++ -*----------------------------------*\
| =========                 |                                                 |
| \\      /  F ield         | OpenFOAM: The Open Source CFD Toolbox           |
|  \\    /   O peration     | Version:  v2012                                 |
|   \\  /    A nd           | Website:  www.openfoam.com                      |
|    \\/     M anipulation  |                                                 |
\*---------------------------------------------------------------------------*/
FoamFile
{
    version     2.0;
    format      ascii;
    class       volScalarField;
    location    "0.0135";
    object      T;
}
// * * * * * * * * * * * * * * * * * * * * * * * * * * * * * * * * * * * * * //

dimensions      [0 0 0 1 0 0 0];


internalField   nonuniform List<scalar> 
1000
(
300.0087620135806
300.0070016964249
300.0133940885938
300.0183279554334
300.0231679237687
300.0275071499767
300.0315714000355
300.035277500796
300.0384502800541
300.0406092603413
300.0413950391866
300.0415509843598
300.0414135334128
300.0406569768813
300.0390502890922
300.0365564266918
300.0332501512689
300.029280272175
300.0247847221344
300.0198588336128
300.0145777784592
300.0090242381772
300.0032980688995
299.9975116625515
299.991782019511
299.9862244655598
299.9809424060651
299.9760043947977
299.9714193501771
299.967165201074
299.963358236247
299.9605377812011
299.9593492251243
299.9592386021779
299.9593075812243
299.9595601916638
299.9601995507708
299.9614489112823
299.9634794358411
299.9663643809886
299.9700635771856
299.9744455300047
299.9793397230883
299.9845875465322
299.9900660980737
299.9956825225547
300.0013545832937
300.006995871235
300.0125169812037
300.0178441539387
300.0229433011901
300.0278178157905
300.0324272406852
300.0364724069781
300.0392136779398
300.0401875060888
300.0402622462452
300.0402206522196
300.0400150761942
300.0394888095519
300.0384579609628
300.0367549060397
300.034259687648
300.030929916493
300.0268126926625
300.0220332446286
300.0167630135735
300.0111804943605
300.0054416753499
299.9996691652863
299.9939549043735
299.9883632319163
299.9829274828598
299.9776513206495
299.9725385316246
299.9677029800286
299.9635869713245
299.9610051685043
299.9602024752553
299.9601375234639
299.9601709387125
299.9603500622162
299.9608262975943
299.9617570960314
299.9632974516202
299.9655696494273
299.9686402083152
299.9725020963014
299.9770718350728
299.9822040357132
299.9877197898178
299.993439787927
299.9992117277299
300.0049263017969
300.0105234494754
300.0159888006395
300.021337556429
300.0265753170808
300.0315596950628
300.0358252886562
300.0385336267925
300.0394433081518
300.0395685946623
300.0395769349159
300.0394247832663
300.0390121700731
300.0381971729925
300.0368374589123
300.034809765668
300.0320293070837
300.0284675055562
300.0241623914289
300.0192165218908
300.0137818964616
300.0080344120828
300.0021438347894
299.9962463114686
299.9904248226285
299.9847083224884
299.9790886655295
299.9735970405949
299.9684123481574
299.964052182776
299.9614065745096
299.9605268878038
299.9603170032692
299.960241863559
299.9603804697808
299.9607681077852
299.9615447083764
299.9628457954425
299.964787742764
299.9674537623787
299.9708825044747
299.9750566210256
299.9798981095033
299.985275759218
299.9910242545293
299.9969713448877
300.0029673634778
300.0089077650077
300.0147423752525
300.020463559541
300.0260384974787
300.0312786767917
300.0357114352278
300.0386013829877
300.0397169911969
300.0399545385154
300.0400251532432
300.0398985440345
300.0395428570521
300.0388411318712
300.0376778069663
300.0359388823454
300.0335258364183
300.0303727363414
300.0264629364458
300.0218382189195
300.0165970810255
300.0108824822541
300.0048598147353
299.9986882853901
299.9924958637005
299.9863671587777
299.9803515375957
299.9745245615558
299.9691190457009
299.9646515366762
299.9618363892639
299.9607851646422
299.9605517685375
299.9604703460678
299.9605911223875
299.9609354036146
299.9616127723606
299.9627291592649
299.9643883345039
299.9666811855849
299.969672334947
299.9733859372066
299.9777957490002
299.9828233527079
299.988346097217
299.9942148451111
300.0002789742284
300.0064094397289
300.0125105747902
300.0185186553645
300.0243585273737
300.0298267948032
300.0344787094497
300.037635173573
300.0389579359515
300.0392546815633
300.0393590764445
300.0392840304489
300.0390121018859
300.038438517151
300.0374607563139
300.0359799593961
300.0339047826733
300.0311600609726
300.0277001982316
300.0235217080327
300.0186702317789
300.0132391946764
300.007358495786
300.0011742741427
299.9948274779425
299.9884401110518
299.9821125219123
299.9759620719797
299.9702471314151
299.9654951490133
299.9624223392573
299.9612170632176
299.9609553956298
299.9608604415488
299.9609456735782
299.961227660495
299.9618048271975
299.962771838795
299.9642202361453
299.966233820303
299.9688808109545
299.9722035841111
299.9762089774542
299.9808618541824
299.9860845321813
299.9917643190876
299.9977694009983
300.0039676613748
300.0102397496685
300.0164851237459
300.0225991436257
300.0283657195762
300.0333302017984
300.0368197663686
300.0384039859945
300.0387740108661
300.0388925952726
300.0388605655551
300.0386555846113
300.03818689531
300.0373601933907
300.0360852586371
300.0342763304404
300.0318572724914
300.0287715234396
300.0249919099325
300.0205280770504
300.0154302499477
300.0097870385092
300.0037152743286
299.9973453261275
299.990809756554
299.9842373120348
299.9777754111379
299.9717033674149
299.9665775217113
299.9631502317287
299.9617132965868
299.9613980248247
299.9612947959778
299.9613468467269
299.9615720913031
299.9620583364525
299.9628926444644
299.9641595793096
299.9659388671257
299.968299198019
299.9712905115566
299.9749370220513
299.9792312379314
299.9841302083679
299.9895565130435
299.9954062089419
300.0015616284975
300.0079017009142
300.0143079741901
300.0206556447316
300.0267254395163
300.0320550550163
300.0359515754844
300.0378865929986
300.0383780003053
300.0384987958858
300.0385049728836
300.0383554991587
300.0379766953357
300.0372805950678
300.0361824919643
300.0345996886281
300.0324561582078
300.0296905458837
300.026262970892
300.0221606320947
300.0174028301403
300.0120433172302
300.0061667973967
299.9998806683714
299.9933087215283
299.9865879153991
299.9798794249395
299.9734637989056
299.9679115369581
299.9640328961977
299.9622609983967
299.961846282589
299.9617381577161
299.9617593971003
299.9619339156753
299.9623386920135
299.9630548823846
299.9641624779896
299.9657387135681
299.967852045469
299.9705560092042
299.9738847401005
299.9778483731118
299.9824284524098
299.9875758333702
299.9932137880468
299.9992457780933
300.0055618788641
300.0120413529953
300.0185509884214
300.0248836008381
300.0305905815107
300.0349490174043
300.037333567806
300.0380282932991
300.0381505039026
300.0381918415283
300.0380865756605
300.0377868889068
300.0372055544715
300.036262642171
300.0348778746307
300.0329752590477
300.0304905686185
300.0273762987982
300.0236054552914
300.0191761182959
300.0141154347608
300.0084799755112
300.0023520248509
299.9958370758779
299.9890654666942
299.9822000874169
299.9755056026434
299.9695293802216
299.9651259698504
299.9628925211333
299.962294939826
299.9621864054021
299.9621761815744
299.9623076191453
299.96264178293
299.9632543060077
299.9642211490233
299.9656177489322
299.9675127443561
299.9699621536226
299.9730063351879
299.9766669107465
299.980942568114
299.9858057536193
299.99120279286
299.9970581205149
300.0032783093933
300.0097515805039
300.0163454299352
300.0228692609737
300.0289171155754
300.0337612521801
300.0366833843298
300.0376907423487
300.0378470432946
300.0379047488317
300.0378378676394
300.0376050639151
300.0371236114873
300.0363179473974
300.0351103428974
300.0334238669014
300.0311911140341
300.0283593442392
300.0248925507142
300.0207743917728
300.0160123731296
300.0106404637354
300.0047182841002
299.9983309185018
299.9915940023799
299.9846613577791
299.9777700528513
299.9714115371458
299.9664512074684
299.9636533931575
299.9627712364811
299.9626410799832
299.9626060826751
299.9627011007049
299.9629711703226
299.9634902088554
299.9643297512181
299.9655638342564
299.9672618105271
299.969481632645
299.97226758907
299.9756489221946
299.9796365749181
299.9842193645916
299.9893621893656
299.9950079457826
300.0010802786335
300.0074810070549
300.0140846570592
300.0207190936682
300.0270430786306
300.0323672278553
300.0358791324689
300.0373245531533
300.0375758910432
300.0376363648494
300.0376008118184
300.0374247272052
300.0370298792106
300.0363454542439
300.0352965019624
300.0338051290396
300.0318009784019
300.0292273162458
300.0260418081569
300.0222178317825
300.0177482887958
300.0126494063237
300.006961826032
300.0007512058348
299.9941147564247
299.9871917088482
299.9801914807804
299.9735301282745
299.9680282787739
299.9645939613947
299.9632955250825
299.9630855544627
299.9630417991503
299.9631067244101
299.9633220572521
299.9637586951536
299.9644837293633
299.9655697338276
299.9670875255601
299.9690974138353
299.9716466917944
299.9747698216513
299.9784864801377
299.9827977124341
299.9876830601885
299.9931009239911
299.9989904362601
300.0052683843997
300.0118219345561
300.018497048414
300.0250176039795
300.0307731494659
300.0348845635602
300.0368804529444
300.0373314264417
300.0373873824839
300.0373750409466
300.0372467515108
300.0369280604893
300.0363518452753
300.0354460729018
300.0341327934639
300.0323388393675
300.0300034479249
300.027079250919
300.0235324251772
300.0193453441765
300.0145205157432
300.009083024781
300.0030817196949
299.9965958020014
299.9897469333503
299.9827183215412
299.9758485673506
299.9698567084782
299.9657487434558
299.9639151029194
299.9635308196461
299.9634837000853
299.9635244728267
299.9636931602604
299.9640577834239
299.9646811442721
299.9656329943699
299.9669850161473
299.9688001445512
299.971128816952
299.9740098137672
299.9774694704493
299.9815183166809
299.986147745924
299.9913289355989
299.9970139364171
300.0031338277656
300.0095906303679
300.0162457378725
300.0228735048076
300.0289790984469
300.0336858660708
300.0363102586439
300.0370973654933
300.0371608644506
300.0371684998449
300.0370757558118
300.0368187291552
300.0363340014699
300.0355547184683
300.0344038832779
300.0328051016231
300.0306928739834
300.0280150839007
300.0247321652737
300.0208183638351
300.016265385059
300.0110857526171
300.0053145330741
299.9990141383758
299.9922867649339
299.9852920025543
299.978305709119
299.9719178989257
299.9671457020942
299.9646787046709
299.9639925146179
299.9639328371294
299.9639515201849
299.9640819391298
299.9643842868417
299.9649171809786
299.9657470073917
299.9669459443757
299.9685800766542
299.9707031171448
299.9733571176643
299.9765731966423
299.9803692175564
299.9847462299142
299.9896862148837
299.9951525280426
300.001089342052
300.0074131235557
300.0140006343308
300.0206650028109
300.0270265606966
300.0322818422842
300.0355614645604
300.0368071460291
300.036968063246
300.0369714256498
300.0369022241169
300.0366982754104
300.0362941563791
300.0356277532014
300.0346239743332
300.0332049553847
300.0313015121968
300.0288569398128
300.0258263200309
300.0221772148558
300.0178926853229
300.0129748139014
300.0074468827302
300.0013566523342
299.994788673309
299.9878813203589
299.9808601354023
299.9741884319893
299.9687973067392
299.9656236614817
299.9645097274907
299.9643718356313
299.9643837225069
299.9644820588086
299.9647324947036
299.965188101068
299.9659101804346
299.9669699820048
299.9684361709242
299.9703658372767
299.9728044571116
299.9757875928508
299.9793393230505
299.9834686567978
299.9881667918927
299.9934067901734
299.9991434940824
300.005306645103
300.0117895627297
300.0184339898873
300.0249451770117
300.0306583569063
300.0346084593548
300.0364351814429
300.0368018961523
300.0367904625211
300.0367442188439
300.0365791273776
300.0362402145997
300.0356690195196
300.0347956027446
300.0335416933514
300.0318341056341
300.0296111453252
300.02682272589
300.023430471652
300.0194100536479
300.014754623095
300.0094774412225
300.003614350343
299.9972332299296
299.9904507415655
299.9834565421631
299.9766144707395
299.9707023600942
299.9667913192175
299.9651312326011
299.9648148281763
299.9648227724605
299.9648953881461
299.9651028160326
299.9654919220226
299.966119481718
299.9670537232217
299.9683649745655
299.9701138252992
299.972349080397
299.9751098395849
299.978425078451
299.9823106171848
299.9867660582552
299.99177331802
299.997296567719
300.0032784663602
300.009628306283
300.0162070154881
300.0227811139138
300.0288437877385
300.0334484359416
300.0359168530819
300.0366094193845
300.0366485095694
300.0366024505833
300.0364639494179
300.0361790285143
300.0356895680784
300.0349306685006
300.0338254229064
300.0322983687882
300.0302839394033
300.0277272239713
300.0245839004629
300.0208226873555
300.016428711484
300.0114063681974
300.005781441431
299.9996069109363
299.9929799717349
299.9860639290354
299.9791449317115
299.9728326802738
299.9681969826316
299.9658982790486
299.9652830579695
299.9652547172823
299.9653121654429
299.9654804966988
299.9658142578732
299.9663606675371
299.9671831972069
299.9683529511548
299.9699337308148
299.9719774711341
299.9745263731894
299.977613638765
299.9812610354944
299.9854755938587
299.9902473833041
299.9955493042777
300.0013352194645
300.0075284035963
300.0140071051226
300.020581961409
300.0268723227216
300.0320538159643
300.0352057436569
300.0363844448122
300.0365297583919
300.0364768026548
300.0363657071324
300.0361213189178
300.035696406913
300.0350338482186
300.0340600103663
300.0326980270659
300.0308786654724
300.0285422978383
300.0256391625957
300.0221317810654
300.0179980893409
300.0132342004857
300.0078564582893
300.0019051203906
299.9954590385703
299.9886576012422
299.981733150177
299.9751559442147
299.9698769402841
299.9668531109901
299.9658071313072
299.9656812854737
299.9657360443205
299.9658679065827
299.9661547807731
299.9666323750426
299.9673570638823
299.9683982179018
299.9698227235482
299.9716862273127
299.9740341429794
299.9769031838569
299.9803196729374
299.9842966150989
299.9888314500186
299.9939051097918
299.9994808359818
300.0054965933654
300.0118499717481
300.0183796610493
300.0247891022717
300.0304298722452
300.0342976111858
300.0360531810326
300.0364025131938
300.0363810557149
300.0362810626228
300.0360672230805
300.0356949781594
300.0351115237465
300.0342510022178
300.0330369647369
300.0313972535977
300.0292687724066
300.0265969718398
300.0233378722098
300.0194622184059
300.0149585644449
300.0098349942605
300.0041214157676
299.9978796335741
299.9912252649365
299.984353721182
299.9776294890186
299.971818019188
299.9680149371574
299.9664339224226
299.9661214061973
299.9661488227948
299.9662576902307
299.9665041540649
299.9669238586558
299.9675657516153
299.9684940061538
299.9697761345818
299.9714713678918
299.9736292149649
299.9762902988028
299.9794849675773
299.9832309810065
299.987531616359
299.9923743762427
299.9977306415023
300.0035515537733
300.0097522955854
300.0161925763295
300.0226386612744
300.0286052103405
300.0331549925019
300.0355556564282
300.0362703981519
300.0363099171201
300.0362168050027
300.0360325249258
300.0356985421759
300.0351765639169
300.0344100247704
300.0333264743289
300.0318525982512
300.0299208345159
300.0274706538515
300.0244516674502
300.0208282290239
300.0165823524824
300.0117151635241
300.0062482542026
300.0002289128614
299.9937497907065
299.9869768608889
299.980196445174
299.9739982682148
299.9694415359999
299.9672153692051
299.9665900593907
299.9665497522273
299.9666471293395
299.9668524698751
299.9672280601354
299.9678038609158
299.9686357331049
299.9697896030738
299.9713271520297
299.9733024133682
299.9757618745794
299.9787417552633
299.9822645566543
299.9863375366102
299.9909524550606
299.9960859705234
300.0016981170694
300.0077206734435
300.0140386984527
300.0204641755025
300.0266246116911
300.0317462006628
300.0348753627448
300.036070819601
300.0362469308643
300.0361836317437
300.0360236564779
300.035721410976
300.0352459512361
300.0345518677022
300.0335761114913
300.0322473932886
300.0304965781082
300.0282586868062
300.0254751569701
300.0221001176932
300.0181069622847
300.0134912013293
300.0082697891269
300.0024815854671
299.9962012907944
299.9895656303314
299.9828054227356
299.9763729734331
299.9711690514727
299.9681734659086
299.9671294950292
299.9669643859111
299.9670213060125
299.9671926775369
299.9675289975178
299.9680539946704
299.9688120889217
299.9698601309649
299.9712566481939
299.9730578797656
299.9753172942571
299.9780809612823
299.981380761535
299.9852304752193
299.9896253876917
299.9945435939853
299.9999480728523
300.0057820795057
300.0119502488226
300.0182960284305
300.024538033181
300.0300813117481
300.0339634671066
300.0357258195958
300.03616548648
300.0361749831682
300.036044439071
300.0357811452519
300.0353376767422
300.0346898302598
300.0337898869238
300.0325779675838
300.0309889450667
300.0289539148542
300.0264044518507
300.0232817774627
300.0195461995737
300.0151826527945
300.0102025868741
300.0046427966599
299.9985681534773
299.9920930973238
299.9854107513948
299.9788683778642
299.9731806664552
299.9693892173575
299.9678025036724
299.9674314080479
299.9673959683464
299.967524633688
299.9678079680458
299.9682890503169
299.9689952066144
299.9699695036003
299.9712591301811
299.972912421993
299.9749826526111
299.9775259012327
299.980590513257
299.9842060687913
299.9883782691813
299.9930889258657
299.9982991220126
300.003952410084
300.0099641400412
300.0162004686541
300.0224437583907
300.0282434605004
300.0327459261057
300.0352093148558
300.0360036488498
300.0361233339883
300.036075999878
300.0358748575559
300.0354830580615
300.0348741979716
300.0340163879387
300.0328718646861
300.0313963619904
300.029534057986
300.0272144925586
300.0243607279968
300.0209068798067
300.0168149872974
300.0120830712277
300.0067450935635
300.0008663497416
299.9945517842976
299.9879704953642
299.9813971439685
299.9753863575399
299.9709175093352
299.9686418955207
299.9679659654519
299.9678588064169
299.9678897256924
299.9680834792568
299.9684835413971
299.9691281829854
299.9700531920264
299.9712877248797
299.9728549582491
299.9747832529458
299.9771189585661
299.9799256487145
299.9832670115964
299.9871835103349
299.991676327155
299.9967046775635
300.002198059859
300.0080662166621
300.0141865960849
300.020384186377
300.0263293182852
300.0313109639093
300.0344826139412
300.0357480213826
300.0359949007018
300.0360237663318
300.0359206548076
300.0356492949721
300.0351484277955
300.034364948999
300.0332525227141
300.0317838551628
300.0299496373117
300.0277433769487
300.0251416122434
300.0220804310102
300.0184351510325
300.0140417800335
300.0087886543101
300.0027716835944
299.9963690563864
299.9905422343382
299.9847788086093
)
;

boundaryField
{
    inlet
    {
        type            fixedValue;
        value           uniform 300;
    }
    outlet
    {
        type            temperatureOutletNSCBC;
        pInf            101325;
        gamma           1.4;
        etaAc           1;
        fieldInf        1;
        lInf            2.25;
        value           uniform 299.982226627926;
    }
    frontAndBack
    {
        type            empty;
    }
}


// ************************************************************************* //
