/*--------------------------------*- C++ -*----------------------------------*\
| =========                 |                                                 |
| \\      /  F ield         | OpenFOAM: The Open Source CFD Toolbox           |
|  \\    /   O peration     | Version:  v2012                                 |
|   \\  /    A nd           | Website:  www.openfoam.com                      |
|    \\/     M anipulation  |                                                 |
\*---------------------------------------------------------------------------*/
FoamFile
{
    version     2.0;
    format      ascii;
    class       volVectorField;
    location    "0.0135";
    object      U;
}
// * * * * * * * * * * * * * * * * * * * * * * * * * * * * * * * * * * * * * //

dimensions      [0 1 -1 0 0 0 0];


internalField   nonuniform List<vector> 
1000
(
(0.002919051419849873 0 0)
(0.03444352402267902 0 0)
(0.04260505665917199 0 0)
(0.05763819971751681 0 0)
(0.07141687969998574 0 0)
(0.08439299355921832 0 0)
(0.09560154875399988 0 0)
(0.1051725379136369 0 0)
(0.113175845216624 0 0)
(0.1184975958739797 0 0)
(0.1200624818117513 0 0)
(0.120027585069178 0 0)
(0.1191505013149756 0 0)
(0.116641281641194 0 0)
(0.1118370471055846 0 0)
(0.1045299450422782 0 0)
(0.09497413532364943 0 0)
(0.08360124935561107 0 0)
(0.07077921572484978 0 0)
(0.0567535076609017 0 0)
(0.0417166624138173 0 0)
(0.0258865866909468 0 0)
(0.009535114234787452 0 0)
(-0.007025820389262625 0 0)
(-0.02346811339761351 0 0)
(-0.03946391194033546 0 0)
(-0.05471245616573956 0 0)
(-0.06900828069482333 0 0)
(-0.08231868984595142 0 0)
(-0.09470273197075371 0 0)
(-0.1058140027494812 0 0)
(-0.1140680727461168 0 0)
(-0.1175882565146388 0 0)
(-0.1179764058084914 0 0)
(-0.1178448263500707 0 0)
(-0.1171493172776953 0 0)
(-0.1152982789611465 0 0)
(-0.1116659770547209 0 0)
(-0.1057654809953935 0 0)
(-0.09738517020905323 0 0)
(-0.08664631263613952 0 0)
(-0.07393407513339949 0 0)
(-0.05974541010877533 0 0)
(-0.04454267884462954 0 0)
(-0.02868353364101774 0 0)
(-0.01243544061401233 0 0)
(0.003966566627256083 0 0)
(0.02027345129051672 0 0)
(0.03622636610890602 0 0)
(0.05161578977185532 0 0)
(0.06635060012950829 0 0)
(0.08044270707815207 0 0)
(0.09376870131198338 0 0)
(0.1054610037797264 0 0)
(0.1133904638259908 0 0)
(0.1162218244632494 0 0)
(0.1164508921388647 0 0)
(0.1163218965532071 0 0)
(0.1157410949170318 0 0)
(0.1142149492895542 0 0)
(0.111228806446847 0 0)
(0.1062969721421867 0 0)
(0.09907446008430655 0 0)
(0.08944061236662995 0 0)
(0.07753516582705806 0 0)
(0.06372216424353201 0 0)
(0.04849448955263987 0 0)
(0.03236303322063514 0 0)
(0.01577593182941094 0 0)
(-0.0009143826286197054 0 0)
(-0.01744849575056986 0 0)
(-0.03364721577595977 0 0)
(-0.04941012426117377 0 0)
(-0.06471207912566648 0 0)
(-0.0795307673618664 0 0)
(-0.09353578572102537 0 0)
(-0.105449907268243 0 0)
(-0.1128938168244995 0 0)
(-0.1151313204659426 0 0)
(-0.1152460050880831 0 0)
(-0.1150829857202613 0 0)
(-0.1144916612728764 0 0)
(-0.1130950227546494 0 0)
(-0.1104266865606145 0 0)
(-0.1060456013251203 0 0)
(-0.09958818432085165 0 0)
(-0.09084375594584143 0 0)
(-0.07980695678376033 0 0)
(-0.06669056361600782 0 0)
(-0.05188923738481502 0 0)
(-0.03590400933565907 0 0)
(-0.01925186911313598 0 0)
(-0.002387035761563039 0 0)
(0.01434926954912304 0 0)
(0.0307504609555526 0 0)
(0.04673853699621455 0 0)
(0.0623248385703796 0 0)
(0.07749661527554133 0 0)
(0.09182374139054932 0 0)
(0.1039828379490186 0 0)
(0.1115684631691073 0 0)
(0.113913323068154 0 0)
(0.1141030700083744 0 0)
(0.1138325024498156 0 0)
(0.1133004121576493 0 0)
(0.1121036121412568 0 0)
(0.1098518201139161 0 0)
(0.1061102847342108 0 0)
(0.1004845997684893 0 0)
(0.09268258478062423 0 0)
(0.08257296552909583 0 0)
(0.0702243446913411 0 0)
(0.05590892833954308 0 0)
(0.04006582221621768 0 0)
(0.02322890112773151 0 0)
(0.005935551919661703 0 0)
(-0.01136283629698336 0 0)
(-0.02836655604050355 0 0)
(-0.04493476739313548 0 0)
(-0.06104927451414226 0 0)
(-0.07661375182598892 0 0)
(-0.09113303982829865 0 0)
(-0.1031433343467063 0 0)
(-0.1101254482382418 0 0)
(-0.112028076889152 0 0)
(-0.112152656101601 0 0)
(-0.1117003706913352 0 0)
(-0.111008501283435 0 0)
(-0.1097816790009376 0 0)
(-0.1076666208764711 0 0)
(-0.1042521411028806 0 0)
(-0.09916024862520452 0 0)
(-0.09209395210231651 0 0)
(-0.08288189179478521 0 0)
(-0.07152001235297263 0 0)
(-0.05819010422476439 0 0)
(-0.0432410356956329 0 0)
(-0.02713504300445347 0 0)
(-0.01036987619597174 0 0)
(0.006607016007364831 0 0)
(0.023466479614642 0 0)
(0.04003056988158957 0 0)
(0.05624499017658626 0 0)
(0.07198738312440565 0 0)
(0.0867002405389934 0 0)
(0.0990222238753876 0 0)
(0.1068304899424662 0 0)
(0.1095392051173918 0 0)
(0.1098671209280705 0 0)
(0.1095358882514191 0 0)
(0.1089722065456586 0 0)
(0.1079059607021712 0 0)
(0.1060526444954204 0 0)
(0.103061253949346 0 0)
(0.09856804468387376 0 0)
(0.09224182200758888 0 0)
(0.08384230895098252 0 0)
(0.07327397156809103 0 0)
(0.0606169217034636 0 0)
(0.04612586091086492 0 0)
(0.03019705732910558 0 0)
(0.01330505646138091 0 0)
(-0.004080967313976144 0 0)
(-0.02157144462914733 0 0)
(-0.03889548105367828 0 0)
(-0.05588277407362442 0 0)
(-0.07228883663727213 0 0)
(-0.08742452424344123 0 0)
(-0.09979790238793011 0 0)
(-0.1073441827646762 0 0)
(-0.1098165367357569 0 0)
(-0.1100816737919781 0 0)
(-0.109707129144886 0 0)
(-0.1090726062789032 0 0)
(-0.1079446152549465 0 0)
(-0.1060678843373298 0 0)
(-0.1031322334767536 0 0)
(-0.09881176303100568 0 0)
(-0.09279848961262242 0 0)
(-0.08485237331139871 0 0)
(-0.07485085839847161 0 0)
(-0.06282279953930664 0 0)
(-0.0489572038314366 0 0)
(-0.03358304641181739 0 0)
(-0.01711971901487428 0 0)
(-5.456829275080989e-06 0 0)
(0.01737015844269187 0 0)
(0.03470337065029673 0 0)
(0.05177624224793912 0 0)
(0.06833728464030052 0 0)
(0.08377545250268739 0 0)
(0.09679008858307885 0 0)
(0.1054075802732985 0 0)
(0.1087254171986177 0 0)
(0.1091781444594881 0 0)
(0.1089135548628195 0 0)
(0.108342404419818 0 0)
(0.1073492438473613 0 0)
(0.1056769979905221 0 0)
(0.103041737510351 0 0)
(0.09914626718293373 0 0)
(0.09369077727066631 0 0)
(0.08641027329631146 0 0)
(0.07712337606472568 0 0)
(0.06577402731611154 0 0)
(0.05245515220847938 0 0)
(0.03740788645866067 0 0)
(0.02099092020868458 0 0)
(0.003622691416843089 0 0)
(-0.01428059337656124 0 0)
(-0.03234661325336819 0 0)
(-0.05025913952808683 0 0)
(-0.06765113257667525 0 0)
(-0.08375493853598426 0 0)
(-0.09703138927673156 0 0)
(-0.1053949000236542 0 0)
(-0.1083685871449636 0 0)
(-0.1087323405072871 0 0)
(-0.1084376368609819 0 0)
(-0.1078522525749365 0 0)
(-0.1068399230549035 0 0)
(-0.105170006012017 0 0)
(-0.1025831123996461 0 0)
(-0.09880412991954358 0 0)
(-0.09355657249949935 0 0)
(-0.08659652941598932 0 0)
(-0.07775069665229761 0 0)
(-0.06694896975550799 0 0)
(-0.05424705511265567 0 0)
(-0.03983285384266214 0 0)
(-0.02400852446286597 0 0)
(-0.007146056689263938 0 0)
(0.01036768647746873 0 0)
(0.02816986948558576 0 0)
(0.04594005239555882 0 0)
(0.06333878001597415 0 0)
(0.07970821095657579 0 0)
(0.0937033929750125 0 0)
(0.1033607160818304 0 0)
(0.1074876401510958 0 0)
(0.108149434888257 0 0)
(0.1079779778686873 0 0)
(0.107435667564099 0 0)
(0.106539298974189 0 0)
(0.1050410470387802 0 0)
(0.1027038690329794 0 0)
(0.09927560391578813 0 0)
(0.09448884213976938 0 0)
(0.08808581065587473 0 0)
(0.07985670949795735 0 0)
(0.06967440970992757 0 0)
(0.05752063543618297 0 0)
(0.04350144062120661 0 0)
(0.02784460068891784 0 0)
(0.01087223369689708 0 0)
(-0.007041271330353788 0 0)
(-0.02550298038129361 0 0)
(-0.04412040757749896 0 0)
(-0.06244038298720143 0 0)
(-0.07963033102277887 0 0)
(-0.09405459020645461 0 0)
(-0.1035141669243651 0 0)
(-0.1072182028149846 0 0)
(-0.1077528859503776 0 0)
(-0.107536952444935 0 0)
(-0.1069955464399523 0 0)
(-0.1060814743944331 0 0)
(-0.1045786388473321 0 0)
(-0.1022673235375206 0 0)
(-0.09891078414886982 0 0)
(-0.09426018656949992 0 0)
(-0.08808067149363931 0 0)
(-0.08018149068717828 0 0)
(-0.07044176455986682 0 0)
(-0.05883256267585635 0 0)
(-0.04543285255160484 0 0)
(-0.03043126572037785 0 0)
(-0.01410616463160359 0 0)
(0.003209861754357957 0 0)
(0.02115930401561317 0 0)
(0.03937821278851476 0 0)
(0.0574747938706019 0 0)
(0.07477805353195727 0 0)
(0.08990587459871179 0 0)
(0.1008275928372453 0 0)
(0.1060377669014665 0 0)
(0.1070645061857291 0 0)
(0.1069998550757074 0 0)
(0.1065002793277424 0 0)
(0.1057115825277533 0 0)
(0.1043684624661661 0 0)
(0.1022774058930846 0 0)
(0.09922308007443792 0 0)
(0.09496973001641873 0 0)
(0.08927505865173643 0 0)
(0.08192135045013714 0 0)
(0.07274495339788888 0 0)
(0.06165951908685034 0 0)
(0.04867490827166739 0 0)
(0.03390789136555396 0 0)
(0.01757570971005832 0 0)
(-2.55315623918254e-05 0 0)
(-0.0185387822735212 0 0)
(-0.03755642114090353 0 0)
(-0.05659153546473709 0 0)
(-0.07480658086216772 0 0)
(-0.09051571882215109 0 0)
(-0.1013514959041642 0 0)
(-0.1060903289278179 0 0)
(-0.1069280245637417 0 0)
(-0.106806605270464 0 0)
(-0.1063216553560216 0 0)
(-0.1055100058006257 0 0)
(-0.1041578469412576 0 0)
(-0.1020771523817075 0 0)
(-0.09906323384446938 0 0)
(-0.09489375890496127 0 0)
(-0.08934861819217997 0 0)
(-0.08223467648660213 0 0)
(-0.07340594592562814 0 0)
(-0.06278197598627946 0 0)
(-0.05036547279179342 0 0)
(-0.03625351433868667 0 0)
(-0.02063378954690943 0 0)
(-0.003765405396221856 0 0)
(0.01403919828487567 0 0)
(0.03242226078213725 0 0)
(0.05097610065466536 0 0)
(0.06906446478515846 0 0)
(0.08534349300837218 0 0)
(0.09769181958705719 0 0)
(0.1042808237618352 0 0)
(0.1059210188357503 0 0)
(0.1059689309701577 0 0)
(0.1055649402566778 0 0)
(0.1048731021276975 0 0)
(0.1036798656971944 0 0)
(0.1018043323686166 0 0)
(0.09906248334046877 0 0)
(0.09524715505402391 0 0)
(0.09013436890390884 0 0)
(0.08351031220785712 0 0)
(0.07519575355778226 0 0)
(0.06506446389470168 0 0)
(0.05306094521966308 0 0)
(0.03921671883169372 0 0)
(0.02365678621346452 0 0)
(0.006592795155156985 0 0)
(-0.01168298398474536 0 0)
(-0.03079318504249721 0 0)
(-0.05025506218156842 0 0)
(-0.06928026579314374 0 0)
(-0.08624914338219022 0 0)
(-0.09866719039292103 0 0)
(-0.104802922100969 0 0)
(-0.1061823867256988 0 0)
(-0.106187666388227 0 0)
(-0.105773283032759 0 0)
(-0.1050755883467559 0 0)
(-0.1038658387090706 0 0)
(-0.1019886301220903 0 0)
(-0.09926563291299521 0 0)
(-0.09549757485376555 0 0)
(-0.09047974630279836 0 0)
(-0.08402428721966092 0 0)
(-0.07597589260291587 0 0)
(-0.06622507066583574 0 0)
(-0.05472387743663772 0 0)
(-0.04150079601649482 0 0)
(-0.02666658801476923 0 0)
(-0.01040654817222846 0 0)
(0.007028622041906172 0 0)
(0.02531931188182164 0 0)
(0.04407004984719064 0 0)
(0.06270281107154932 0 0)
(0.08000595117648614 0 0)
(0.09383233766856749 0 0)
(0.1020470369848242 0 0)
(0.1046746789128333 0 0)
(0.1048904626135715 0 0)
(0.104602616849717 0 0)
(0.1040143467373127 0 0)
(0.1029728466081661 0 0)
(0.1013000227034719 0 0)
(0.09883366016167798 0 0)
(0.09539133545451882 0 0)
(0.09076835825231196 0 0)
(0.08476099351845795 0 0)
(0.07718656409082887 0 0)
(0.06789744393452131 0 0)
(0.05679635873616824 0 0)
(0.04385380279867747 0 0)
(0.02912095394268644 0 0)
(0.01273216447579878 0 0)
(-0.005092194957802222 0 0)
(-0.02402923959667411 0 0)
(-0.0436326193915205 0 0)
(-0.06320117204495664 0 0)
(-0.08128623708267298 0 0)
(-0.09536258263411143 0 0)
(-0.1031763419829656 0 0)
(-0.1054276464444484 0 0)
(-0.105589813442152 0 0)
(-0.1052835821614772 0 0)
(-0.1047025002447252 0 0)
(-0.1036473047194225 0 0)
(-0.1019689211256584 0 0)
(-0.09950943682255317 0 0)
(-0.0960890414857636 0 0)
(-0.09151916787801279 0 0)
(-0.08562254416680162 0 0)
(-0.07824437921977509 0 0)
(-0.06926092974495225 0 0)
(-0.05859261221931138 0 0)
(-0.04621935996603237 0 0)
(-0.03219124761265847 0 0)
(-0.01662888165043185 0 0)
(0.0002787395328812979 0 0)
(0.01826412870346191 0 0)
(0.03696721313365053 0 0)
(0.05587781702523659 0 0)
(0.0739795518708055 0 0)
(0.0892326032129945 0 0)
(0.09922865599137087 0 0)
(0.1032210432507331 0 0)
(0.1037636809419881 0 0)
(0.1035963006573923 0 0)
(0.1031265553892318 0 0)
(0.1022481858973664 0 0)
(0.1007756591314129 0 0)
(0.09856241513977128 0 0)
(0.09544832928739272 0 0)
(0.09124804428918691 0 0)
(0.08577060594194123 0 0)
(0.07883685950692162 0 0)
(0.07029001097264599 0 0)
(0.06000796239315843 0 0)
(0.04791955795329738 0 0)
(0.03401995902021193 0 0)
(0.01837923279455192 0 0)
(0.001149877844403606 0 0)
(-0.01741118540747239 0 0)
(-0.03691207502161441 0 0)
(-0.05674226200797629 0 0)
(-0.07568383083554417 0 0)
(-0.09133883133621071 0 0)
(-0.101027528004814 0 0)
(-0.1045538121088709 0 0)
(-0.1049959282336932 0 0)
(-0.1048000341188952 0 0)
(-0.1043417589826581 0 0)
(-0.1034510622816495 0 0)
(-0.1019744415017653 0 0)
(-0.09976777199042756 0 0)
(-0.09666744256823095 0 0)
(-0.09249816884922135 0 0)
(-0.08709248933022054 0 0)
(-0.08030011886882359 0 0)
(-0.07199293656237686 0 0)
(-0.06207447802215101 0 0)
(-0.05049333481521649 0 0)
(-0.03725535793723144 0 0)
(-0.02242941821809711 0 0)
(-0.006148694375366254 0 0)
(0.01137773468638851 0 0)
(0.02984073335242063 0 0)
(0.04879183760452301 0 0)
(0.06741450948652278 0 0)
(0.08391420994361391 0 0)
(0.09570423866227717 0 0)
(0.1013778636395144 0 0)
(0.1025427223233888 0 0)
(0.1024994965691015 0 0)
(0.102159627135155 0 0)
(0.1014502034855574 0 0)
(0.1001838577562963 0 0)
(0.09822093472645414 0 0)
(0.09541619803714663 0 0)
(0.09159773535630916 0 0)
(0.0865866175947427 0 0)
(0.0802129977091865 0 0)
(0.07232123288354342 0 0)
(0.06277713913400482 0 0)
(0.05148260198805309 0 0)
(0.03839238215609315 0 0)
(0.0235264648111898 0 0)
(0.006978996667664838 0 0)
(-0.01105830561270847 0 0)
(-0.0302562039271371 0 0)
(-0.05009171875160328 0 0)
(-0.06958479707310926 0 0)
(-0.08663304187863238 0 0)
(-0.0982858806126726 0 0)
(-0.1034164217790426 0 0)
(-0.1043888698621042 0 0)
(-0.1043061363928025 0 0)
(-0.1039729391832387 0 0)
(-0.1032512203581604 0 0)
(-0.1019776750117835 0 0)
(-0.1000170844267446 0 0)
(-0.09721873707554916 0 0)
(-0.09341680582039996 0 0)
(-0.08845227982582926 0 0)
(-0.08218212183645988 0 0)
(-0.07447969581483149 0 0)
(-0.06524003683906214 0 0)
(-0.05439163112025951 0 0)
(-0.04190923429053544 0 0)
(-0.02782221588119052 0 0)
(-0.01221714317497699 0 0)
(0.004749861423422919 0 0)
(0.02282191216329826 0 0)
(0.04161072394582428 0 0)
(0.06046902699949813 0 0)
(0.07794544096165422 0 0)
(0.09146100998815586 0 0)
(0.09899416034742126 0 0)
(0.1012015601846518 0 0)
(0.1013280647867804 0 0)
(0.1011081223994376 0 0)
(0.1005789709378606 0 0)
(0.09951683800978454 0 0)
(0.09779761229079087 0 0)
(0.09528553665960525 0 0)
(0.09182005653506216 0 0)
(0.08723259578226641 0 0)
(0.08136270502972186 0 0)
(0.07405964443946754 0 0)
(0.06518501748053336 0 0)
(0.05462509794687557 0 0)
(0.04230730758344419 0 0)
(0.02821399492102947 0 0)
(0.01239221859716994 0 0)
(-0.005025288571721343 0 0)
(-0.02377695028562398 0 0)
(-0.04342355915778986 0 0)
(-0.06317732596942843 0 0)
(-0.08131287740499303 0 0)
(-0.09487434974590817 0 0)
(-0.1018585527955905 0 0)
(-0.103705748545197 0 0)
(-0.1037722262349163 0 0)
(-0.1035636493584041 0 0)
(-0.103013459784084 0 0)
(-0.1019495938279238 0 0)
(-0.1002397183067435 0 0)
(-0.09773912144298533 0 0)
(-0.09428750891632194 0 0)
(-0.0897314411684999 0 0)
(-0.08393505523765858 0 0)
(-0.07677679835092628 0 0)
(-0.06815018359454744 0 0)
(-0.05797334577882125 0 0)
(-0.04620107750438703 0 0)
(-0.03283382349894857 0 0)
(-0.01792210848674555 0 0)
(-0.001577127993468926 0 0)
(0.01600020236682217 0 0)
(0.03448642439412648 0 0)
(0.05335356404655819 0 0)
(0.07148247003263053 0 0)
(0.08653206881895642 0 0)
(0.09597882418891794 0 0)
(0.09959326828474724 0 0)
(0.1000609020349846 0 0)
(0.09995448756214376 0 0)
(0.09959565163683837 0 0)
(0.09874665934782545 0 0)
(0.09727827393201917 0 0)
(0.0950584486386592 0 0)
(0.09193496692821539 0 0)
(0.08774500480681134 0 0)
(0.08233567516693491 0 0)
(0.07556513822953335 0 0)
(0.06729877216847774 0 0)
(0.05741603492292833 0 0)
(0.04582610086004921 0 0)
(0.03248350786384922 0 0)
(0.01739940993139516 0 0)
(0.0006578035657030981 0 0)
(-0.0175439233570751 0 0)
(-0.03684226697235499 0 0)
(-0.05659956511702795 0 0)
(-0.07547552507091476 0 0)
(-0.09078722734687823 0 0)
(-0.09978956398914304 0 0)
(-0.1028846079226604 0 0)
(-0.1032295432880651 0 0)
(-0.1031258171477254 0 0)
(-0.1027402020815728 0 0)
(-0.1018853744505181 0 0)
(-0.1004223594751361 0 0)
(-0.09821412996027032 0 0)
(-0.09510389444800166 0 0)
(-0.09093907282652675 0 0)
(-0.0855869589860675 0 0)
(-0.07893091889726429 0 0)
(-0.07086650447138655 0 0)
(-0.06130754373711846 0 0)
(-0.05019680546405607 0 0)
(-0.03751536234051871 0 0)
(-0.02328835509372055 0 0)
(-0.007590825374031039 0 0)
(0.009427668189147375 0 0)
(0.02749894252954037 0 0)
(0.04618237872616534 0 0)
(0.06463883651437993 0 0)
(0.08095961066747817 0 0)
(0.09231322822780397 0 0)
(0.09758693849933081 0 0)
(0.09867372585756203 0 0)
(0.09872551438748636 0 0)
(0.09849888349263702 0 0)
(0.09786910390896036 0 0)
(0.09665130389963028 0 0)
(0.09472186394335742 0 0)
(0.09193451737296908 0 0)
(0.08812801502424418 0 0)
(0.08315315448192857 0 0)
(0.07687648318818176 0 0)
(0.06917017828568557 0 0)
(0.05991278315326744 0 0)
(0.04900333503442344 0 0)
(0.03637772660290504 0 0)
(0.02202092806613254 0 0)
(0.005978696970932747 0 0)
(-0.0116096454549935 0 0)
(-0.03045172945042301 0 0)
(-0.05002699120292989 0 0)
(-0.06931044615030482 0 0)
(-0.08605875020264622 0 0)
(-0.09712953921336893 0 0)
(-0.1017916535459101 0 0)
(-0.1026696940247665 0 0)
(-0.1026575752485184 0 0)
(-0.1024154801804598 0 0)
(-0.101765385877705 0 0)
(-0.1005478700197206 0 0)
(-0.09863036513866355 0 0)
(-0.09585706738363965 0 0)
(-0.0920727740545885 0 0)
(-0.0871446151653241 0 0)
(-0.08096025293616543 0 0)
(-0.07341916405607442 0 0)
(-0.06443440779279855 0 0)
(-0.05394217885738104 0 0)
(-0.04191128033180604 0 0)
(-0.02834870632347874 0 0)
(-0.01330292346638397 0 0)
(0.003116511385849661 0 0)
(0.02069446962748635 0 0)
(0.03907126213328826 0 0)
(0.05760811178283137 0 0)
(0.07483102924517668 0 0)
(0.08796912135917508 0 0)
(0.09508029458357141 0 0)
(0.09718637399086726 0 0)
(0.09738772121038566 0 0)
(0.0973013220755256 0 0)
(0.09687136720011086 0 0)
(0.09590222356692214 0 0)
(0.09426226564868118 0 0)
(0.09180581665743312 0 0)
(0.08837446046130389 0 0)
(0.08381843306722161 0 0)
(0.07800779617071765 0 0)
(0.07082245114594979 0 0)
(0.0621458687266471 0 0)
(0.05187371390936792 0 0)
(0.03992971499320738 0 0)
(0.02627950428989783 0 0)
(0.01094048066505435 0 0)
(-0.005994215025524267 0 0)
(-0.02429743374077198 0 0)
(-0.04354611953075775 0 0)
(-0.06295002839820218 0 0)
(-0.08074233074592793 0 0)
(-0.09382638565328835 0 0)
(-0.1003188499015747 0 0)
(-0.102054839798986 0 0)
(-0.1021248525673732 0 0)
(-0.1020295695149155 0 0)
(-0.1015667634798414 0 0)
(-0.1005834353173649 0 0)
(-0.09894772225621429 0 0)
(-0.0965050506483177 0 0)
(-0.09309549044957365 0 0)
(-0.08858247988329937 0 0)
(-0.08285469382620567 0 0)
(-0.07581418754116037 0 0)
(-0.0673740544138156 0 0)
(-0.05746663950459868 0 0)
(-0.04605265228674722 0 0)
(-0.03312681755024945 0 0)
(-0.01872109587093919 0 0)
(-0.002915481916956953 0 0)
(0.01412623613231908 0 0)
(0.03210832846782863 0 0)
(0.05051535959055073 0 0)
(0.0682554986566881 0 0)
(0.0829736940944321 0 0)
(0.09201815988728416 0 0)
(0.09546930804345719 0 0)
(0.09595220890057721 0 0)
(0.09601549349481847 0 0)
(0.09575735632754144 0 0)
(0.09503016643815405 0 0)
(0.09367108560135286 0 0)
(0.09154140129621652 0 0)
(0.08848042685692435 0 0)
(0.08433332959547654 0 0)
(0.07897103046005351 0 0)
(0.07228054983495943 0 0)
(0.06415165485135146 0 0)
(0.05447985708921373 0 0)
(0.04318151306559406 0 0)
(0.03020883341616807 0 0)
(0.01556030807084088 0 0)
(-0.0007045276651809427 0 0)
(-0.0184203780701827 0 0)
(-0.03724456479098676 0 0)
(-0.05654258882199149 0 0)
(-0.07498126428576884 0 0)
(-0.08985465796617118 0 0)
(-0.09837547893826804 0 0)
(-0.1012772895012098 0 0)
(-0.1016087083693886 0 0)
(-0.1016161242949819 0 0)
(-0.1013105491168828 0 0)
(-0.1005507428938861 0 0)
(-0.09918305356879964 0 0)
(-0.09706001823258745 0 0)
(-0.09401733672996751 0 0)
(-0.08991086103930682 0 0)
(-0.08462696093268608 0 0)
(-0.07806951498203299 0 0)
(-0.07015215552339099 0 0)
(-0.06080388032156182 0 0)
(-0.04997849383231171 0 0)
(-0.03766165878748765 0 0)
(-0.02387426058389356 0 0)
(-0.008676090472566282 0 0)
(0.007807887725128818 0 0)
(0.02533196782184287 0 0)
(0.04347702993940922 0 0)
(0.06144341593956906 0 0)
(0.07738063410956657 0 0)
(0.08834623237944411 0 0)
(0.09336472495992684 0 0)
(0.09448333399835901 0 0)
(0.09464445204204899 0 0)
(0.09452631502279589 0 0)
(0.09402955964827141 0 0)
(0.09294959653431775 0 0)
(0.09114171791603355 0 0)
(0.08844570585425458 0 0)
(0.0847031701048488 0 0)
(0.07978097245824402 0 0)
(0.07356841153769285 0 0)
(0.06596194287636423 0 0)
(0.05686151235577457 0 0)
(0.0461801731298349 0 0)
(0.03385912998941899 0 0)
(0.01988142075457413 0 0)
(0.004282230880444272 0 0)
(-0.01281886707994185 0 0)
(-0.03114437183876758 0 0)
(-0.05018359915375805 0 0)
(-0.06894414806847173 0 0)
(-0.08523827312724208 0 0)
(-0.09587229270837667 0 0)
(-0.1002470736090888 0 0)
(-0.1011252089166277 0 0)
(-0.1011823157513254 0 0)
(-0.1010188281946934 0 0)
(-0.1004681626524272 0 0)
(-0.09935872667570797 0 0)
(-0.09754328106568742 0 0)
(-0.09485256864951216 0 0)
(-0.09113541985066152 0 0)
(-0.0862767113181047 0 0)
(-0.08018385086412969 0 0)
(-0.07277194102567855 0 0)
(-0.06396595910261625 0 0)
(-0.05371181532173974 0 0)
(-0.0419852671670184 0 0)
(-0.02879648579962592 0 0)
(-0.01419270447082249 0 0)
(0.001726139818623791 0 0)
(0.01876303503021918 0 0)
(0.03657122271747101 0 0)
(0.05452373432184598 0 0)
(0.07123283851057782 0 0)
(0.08402035551997383 0 0)
(0.09082367353097597 0 0)
(0.09294388379834316 0 0)
(0.09315238968625293 0 0)
(0.0932091131467951 0 0)
(0.09290492460173189 0 0)
(0.09208600293564598 0 0)
(0.09059221524619804 0 0)
(0.08825763047314426 0 0)
(0.08491267239695505 0 0)
(0.08041735228932267 0 0)
(0.07466427522988694 0 0)
(0.06755915826567002 0 0)
(0.05900825910700209 0 0)
(0.04892316857277849 0 0)
(0.03723584514084859 0 0)
(0.02391427480858981 0 0)
(0.008974676733897713 0 0)
(-0.007497295553434966 0 0)
(-0.02528871497225767 0 0)
(-0.04398141476400599 0 0)
(-0.06279652787676586 0 0)
(-0.08004898164086154 0 0)
(-0.09273342197733339 0 0)
(-0.09891320962621192 0 0)
(-0.1006115076220942 0 0)
(-0.1006868133994492 0 0)
(-0.1006889424522172 0 0)
(-0.1003202540645259 0 0)
(-0.09945638858621977 0 0)
(-0.09794052173640126 0 0)
(-0.0955981513913584 0 0)
(-0.09226318330446782 0 0)
(-0.08781260142877054 0 0)
(-0.08215834601153771 0 0)
(-0.07522500808064289 0 0)
(-0.06694180323251413 0 0)
(-0.05724927236552442 0 0)
(-0.04611016675463675 0 0)
(-0.03351913646903644 0 0)
(-0.01950863511187517 0 0)
(-0.004156513265394087 0 0)
(0.01237938072670292 0 0)
(0.02980220808637247 0 0)
(0.04760091095272551 0 0)
(0.06475468066280192 0 0)
(0.07908508849291142 0 0)
(0.08781979537851242 0 0)
(0.09112353219720758 0 0)
(0.09166950759897032 0 0)
(0.09180020481518844 0 0)
(0.0916472430249962 0 0)
(0.09108802462595049 0 0)
(0.08991199192167436 0 0)
(0.08794407572936604 0 0)
(0.08500045596424313 0 0)
(0.0809279254244918 0 0)
(0.07561563304853987 0 0)
(0.06897737499027373 0 0)
(0.06093432355999642 0 0)
(0.05141057595207487 0 0)
(0.04033741043127486 0 0)
(0.02766640943988076 0 0)
(0.0133893647664367 0 0)
(-0.002441918309106882 0 0)
(-0.01966923048214711 0 0)
(-0.03794523457067274 0 0)
(-0.05663776521045222 0 0)
(-0.07448728289009625 0 0)
(-0.08894198490031952 0 0)
(-0.0971593666419029 0 0)
(-0.09989038637068848 0 0)
(-0.10027862142986 0 0)
(-0.1002895806265852 0 0)
(-0.1000658353283699 0 0)
(-0.09943325980375284 0 0)
(-0.09821949004533308 0 0)
(-0.09623733337764909 0 0)
(-0.09329692779519064 0 0)
(-0.08925441049147792 0 0)
(-0.08401778795170553 0 0)
(-0.07752423380545807 0 0)
(-0.06972018669113694 0 0)
(-0.06055633102089489 0 0)
(-0.04999235688204944 0 0)
(-0.03800658924771892 0 0)
(-0.02460797946166208 0 0)
(-0.009846635569883713 0 0)
(0.006159700841158282 0 0)
(0.02316618563600491 0 0)
(0.04074420310726697 0 0)
(0.05810095783747847 0 0)
(0.07351985961361754 0 0)
(0.08425512157206287 0 0)
(0.08907689158807496 0 0)
(0.09026665910875635 0 0)
(0.09027443448067321 0 0)
(0.09028346957561473 0 0)
(0.0899185687569722 0 0)
(0.08904006862997435 0 0)
(0.08745497163360036 0 0)
(0.08494749815127747 0 0)
(0.08132648813832369 0 0)
(0.07645952112509273 0 0)
(0.07026426098014901 0 0)
(0.06268299910860183 0 0)
(0.05366415120401868 0 0)
(0.04315656388545288 0 0)
(0.03111371342160794 0 0)
(0.01750844563185644 0 0)
(0.002354647691955764 0 0)
(-0.01425362897266264 0 0)
(-0.03205473408713271 0 0)
(-0.05053075788870937 0 0)
(-0.06869720854704761 0 0)
(-0.08447766068496079 0 0)
(-0.09487326643087082 0 0)
(-0.0990861646622946 0 0)
(-0.09996842788251692 0 0)
(-0.09988037705667002 0 0)
(-0.09975712601255583 0 0)
(-0.09928671329773754 0 0)
(-0.09834349753488365 0 0)
(-0.09673102580470466 0 0)
(-0.09422868370960361 0 0)
(-0.09064438704606344 0 0)
(-0.08584941110714825 0 0)
(-0.07977407328273987 0 0)
(-0.07238722619863663 0 0)
(-0.0636741610784734 0 0)
(-0.05362097779428519 0 0)
(-0.04221116268334534 0 0)
(-0.02943564191001895 0 0)
(-0.01530986128743128 0 0)
(0.0001016510380884627 0 0)
(0.0166247407811398 0 0)
(0.03390324731599951 0 0)
(0.0513025491744564 0 0)
(0.0675018843534796 0 0)
(0.08003917865545779 0 0)
(0.08675871596937612 0 0)
(0.08872640867003867 0 0)
(0.08892024003305736 0 0)
(0.08882925572355882 0 0)
(0.08854711890772306 0 0)
(0.08788975791286904 0 0)
(0.0866649374182781 0 0)
(0.08463523006729308 0 0)
(0.08155371851253702 0 0)
(0.07721864205054531 0 0)
(0.07150153998781741 0 0)
(0.0643451986758595 0 0)
(0.05574099414720348 0 0)
(0.04569589064005471 0 0)
(0.03420475458827224 0 0)
(0.02124467072502152 0 0)
(0.00679858616186076 0 0)
(-0.009104004914487774 0 0)
(-0.02630685827865562 0 0)
(-0.04441996763261 0 0)
(-0.06268144190305082 0 0)
(-0.07945765808802578 0 0)
(-0.09189260257438298 0 0)
(-0.09807749408794772 0 0)
(-0.09967086864682585 0 0)
(-0.0997535594464492 0 0)
(-0.09952804232018121 0 0)
(-0.09908086244108734 0 0)
(-0.09827151358253533 0 0)
(-0.09694935940535947 0 0)
(-0.09489943025106655 0 0)
(-0.09187447866618004 0 0)
(-0.08765421217054867 0 0)
(-0.08208683147058235 0 0)
(-0.07510845431986263 0 0)
(-0.06673862967977799 0 0)
(-0.05704512644636903 0 0)
(-0.0460912174369752 0 0)
(-0.03389683082448439 0 0)
(-0.02044347183541367 0 0)
(-0.005717854347327897 0 0)
(0.01020849297342295 0 0)
(0.02707274250686012 0 0)
(0.04435985932677765 0 0)
(0.06105758618836887 0 0)
(0.07504748011175914 0 0)
(0.08383647473302122 0 0)
(0.08719910634665827 0 0)
(0.08775759091846057 0 0)
(0.08759941485561511 0 0)
(0.08729278595174124 0 0)
(0.08662871025628105 0 0)
(0.08551327304137495 0 0)
(0.08381009498171045 0 0)
(0.08130179761194116 0 0)
(0.07771557894902727 0 0)
(0.07277704957280212 0 0)
(0.06626732184340106 0 0)
(0.0580696323707884 0 0)
(0.048204044867758 0 0)
(0.03684212831701928 0 0)
(0.02425237236605483 0 0)
(0.01059454065487696 0 0)
(-0.004224645989747267 0 0)
(-0.02071601465210789 0 0)
(-0.03783390349694842 0 0)
(-0.05847541812695775 0 0)
)
;

boundaryField
{
    inlet
    {
        type            zeroGradient;
    }
    outlet
    {
        type            velocityOutletNSCBCx;
        pInf            101325;
        gamma           1.4;
        etaAc           1;
        fieldInf        (-1 0 0);
        lInf            2.25;
        value           uniform (-0.06614456702499422 0 0);
    }
    frontAndBack
    {
        type            empty;
    }
}


// ************************************************************************* //
