/*--------------------------------*- C++ -*----------------------------------*\
| =========                 |                                                 |
| \\      /  F ield         | OpenFOAM: The Open Source CFD Toolbox           |
|  \\    /   O peration     | Version:  v2012                                 |
|   \\  /    A nd           | Website:  www.openfoam.com                      |
|    \\/     M anipulation  |                                                 |
\*---------------------------------------------------------------------------*/
FoamFile
{
    version     2.0;
    format      ascii;
    class       volVectorField;
    location    "0.0135";
    object      UMean;
}
// * * * * * * * * * * * * * * * * * * * * * * * * * * * * * * * * * * * * * //

dimensions      [0 1 -1 0 0 0 0];


internalField   nonuniform List<vector> 
1000
(
(0.0009641202720328074 0 0)
(0.0009209697297903309 0 0)
(0.000921249271756169 0 0)
(0.0008949754708354039 0 0)
(0.0008664255012722894 0 0)
(0.000820367193874495 0 0)
(0.0007735202573489947 0 0)
(0.0007176085637016004 0 0)
(0.0006613959373723729 0 0)
(0.0006001175899842427 0 0)
(0.0005373327911245518 0 0)
(0.0004733065405455777 0 0)
(0.0004094529985063116 0 0)
(0.0003464418691638131 0 0)
(0.000285273393660401 0 0)
(0.0002273976494095479 0 0)
(0.0001737534520314875 0 0)
(0.000125660260634719 0 0)
(8.379470151094444e-05 0 0)
(4.912129259203232e-05 0 0)
(2.208208911194214e-05 0 0)
(3.253710638558158e-06 0 0)
(-7.019263000874016e-06 0 0)
(-8.567336276626427e-06 0 0)
(-1.260998740642233e-06 0 0)
(1.46535997891196e-05 0 0)
(3.900024182930222e-05 0 0)
(7.120839660155577e-05 0 0)
(0.0001108830419784355 0 0)
(0.000157402565783009 0 0)
(0.0002103821686471052 0 0)
(0.0002687707131091062 0 0)
(0.0003306394002997162 0 0)
(0.0003935103556364074 0 0)
(0.0004564234400785628 0 0)
(0.0005190941140478931 0 0)
(0.0005811698881797672 0 0)
(0.0006418407442151708 0 0)
(0.0007001040066457909 0 0)
(0.0007546513281166841 0 0)
(0.0008042574249898005 0 0)
(0.000847680764254246 0 0)
(0.0008840628002942421 0 0)
(0.0009126342819611986 0 0)
(0.0009330069139343152 0 0)
(0.0009448022339587431 0 0)
(0.0009479373811210575 0 0)
(0.0009423090584327071 0 0)
(0.0009281013435295288 0 0)
(0.000905479670167151 0 0)
(0.0008748310482336666 0 0)
(0.0008364371356894997 0 0)
(0.0007906907873671671 0 0)
(0.000738066108339976 0 0)
(0.0006799072702027943 0 0)
(0.0006185998199969891 0 0)
(0.0005565606920159445 0 0)
(0.0004944926452547509 0 0)
(0.0004326314028065937 0 0)
(0.000371264859448933 0 0)
(0.0003110500295494086 0 0)
(0.000252817201497115 0 0)
(0.0001977334576602879 0 0)
(0.0001469865632099542 0 0)
(0.0001019012164801385 0 0)
(6.353265785930336e-05 0 0)
(3.287103242828239e-05 0 0)
(1.04834621347448e-05 0 0)
(-3.16716079416817e-06 0 0)
(-7.990128400312236e-06 0 0)
(-3.920579116560966e-06 0 0)
(8.844391687705277e-06 0 0)
(3.017503963596516e-05 0 0)
(5.975111028167676e-05 0 0)
(9.740660499366786e-05 0 0)
(0.0001428058162315677 0 0)
(0.0001953460914849431 0 0)
(0.0002533774812982906 0 0)
(0.0003142693848927403 0 0)
(0.0003757434176805471 0 0)
(0.0004372447716367137 0 0)
(0.0004985536294012616 0 0)
(0.0005594491507706722 0 0)
(0.0006192510318682636 0 0)
(0.000677308322774114 0 0)
(0.000732454273016121 0 0)
(0.0007836640752190078 0 0)
(0.0008295824579673919 0 0)
(0.0008691698778393745 0 0)
(0.0009012881010408597 0 0)
(0.0009253374430427021 0 0)
(0.0009406833368562265 0 0)
(0.0009472768906444317 0 0)
(0.0009449411137483992 0 0)
(0.0009339093037052684 0 0)
(0.0009143095116190626 0 0)
(0.0008863879660490858 0 0)
(0.0008501978874882847 0 0)
(0.0008060734692040123 0 0)
(0.0007546635445961988 0 0)
(0.0006974640073537949 0 0)
(0.0006372361258822411 0 0)
(0.0005763275269740455 0 0)
(0.0005152467404863583 0 0)
(0.0004543540430890171 0 0)
(0.0003938345710223739 0 0)
(0.0003342593724651533 0 0)
(0.0002761595976688423 0 0)
(0.0002207026218706458 0 0)
(0.0001687813859811276 0 0)
(0.0001216617343149467 0 0)
(8.042426543861731e-05 0 0)
(4.632799747518478e-05 0 0)
(2.007221140806979e-05 0 0)
(2.393501402550238e-06 0 0)
(-6.392812192113414e-06 0 0)
(-6.001549149700465e-06 0 0)
(3.363054739112146e-06 0 0)
(2.167472950614575e-05 0 0)
(4.874884123014769e-05 0 0)
(8.452598835944232e-05 0 0)
(0.0001283950758699509 0 0)
(0.000180133430718661 0 0)
(0.0002375464770494674 0 0)
(0.0002978199714637339 0 0)
(0.0003588604358151267 0 0)
(0.0004202819409212116 0 0)
(0.0004814597496861328 0 0)
(0.0005423456037667104 0 0)
(0.0006023681443774827 0 0)
(0.0006609134902005897 0 0)
(0.0007169134722632975 0 0)
(0.0007695906710725084 0 0)
(0.000817627765886847 0 0)
(0.0008598606402957496 0 0)
(0.0008952053992395936 0 0)
(0.0009228715878041453 0 0)
(0.0009418784507430266 0 0)
(0.0009521315590858042 0 0)
(0.0009530150517176554 0 0)
(0.0009447789699058725 0 0)
(0.0009273224280547152 0 0)
(0.0009011111516815246 0 0)
(0.0008660553372064575 0 0)
(0.0008225353735623871 0 0)
(0.0007713823910880739 0 0)
(0.000714364423489772 0 0)
(0.0006538727393811758 0 0)
(0.0005924954229705549 0 0)
(0.0005307108134243765 0 0)
(0.0004691231840103861 0 0)
(0.0004078325322391154 0 0)
(0.0003473826094748776 0 0)
(0.0002882744610175905 0 0)
(0.0002313039451402714 0 0)
(0.0001773275201293191 0 0)
(0.0001277679858810203 0 0)
(8.329499926583977e-05 0 0)
(4.547734697217519e-05 0 0)
(1.510147292312897e-05 0 0)
(-6.893227523180146e-06 0 0)
(-1.995267996560058e-05 0 0)
(-2.350825179795823e-05 0 0)
(-1.764662638380095e-05 0 0)
(-2.237729029781706e-06 0 0)
(2.253103563222666e-05 0 0)
(5.65615357314682e-05 0 0)
(9.924384264330898e-05 0 0)
(0.0001498056493674288 0 0)
(0.0002064203729003544 0 0)
(0.0002661564051072183 0 0)
(0.0003267958845415182 0 0)
(0.000387884085231364 0 0)
(0.000448705257739926 0 0)
(0.0005093207224296037 0 0)
(0.0005690883130462065 0 0)
(0.0006277156086094961 0 0)
(0.0006840759874431694 0 0)
(0.0007375552303079736 0 0)
(0.0007870954389698466 0 0)
(0.0008314889290846185 0 0)
(0.000869680340565473 0 0)
(0.0009008063534523245 0 0)
(0.0009237120581378699 0 0)
(0.0009381235457527414 0 0)
(0.0009432422574359978 0 0)
(0.0009390051108300013 0 0)
(0.0009252869788737336 0 0)
(0.000902279198003182 0 0)
(0.0008700286691331432 0 0)
(0.0008290836910386855 0 0)
(0.0007799160462255821 0 0)
(0.0007246936695367812 0 0)
(0.0006655714504725208 0 0)
(0.00060527492911005 0 0)
(0.0005445746179600783 0 0)
(0.0004839527698996859 0 0)
(0.0004235324613475135 0 0)
(0.0003638024396330373 0 0)
(0.0003051900079917023 0 0)
(0.0002484299783777601 0 0)
(0.0001941578838586931 0 0)
(0.0001436899182682849 0 0)
(9.777211049586433e-05 0 0)
(5.773749501721528e-05 0 0)
(2.448450678759409e-05 0 0)
(-7.622052894280033e-07 0 0)
(-1.76620983269656e-05 0 0)
(-2.501215906080631e-05 0 0)
(-2.289391514773084e-05 0 0)
(-1.085244774821421e-05 0 0)
(1.083338553906491e-05 0 0)
(4.237413596898426e-05 0 0)
(8.310201862164779e-05 0 0)
(0.0001320221658009964 0 0)
(0.0001874755217354314 0 0)
(0.000246470820768961 0 0)
(0.0003064584626561842 0 0)
(0.0003668839549238824 0 0)
(0.0004271900230685777 0 0)
(0.0004872944844765825 0 0)
(0.0005466858476456674 0 0)
(0.0006050579327493842 0 0)
(0.0006615524700082268 0 0)
(0.0007154795578684938 0 0)
(0.0007658188923038218 0 0)
(0.0008117986736956529 0 0)
(0.0008520270875510695 0 0)
(0.0008858161532285173 0 0)
(0.0009119854958883985 0 0)
(0.0009299377146083891 0 0)
(0.0009388735902719308 0 0)
(0.0009384794631011246 0 0)
(0.0009284276533923942 0 0)
(0.0009087632017453462 0 0)
(0.0008794873679133745 0 0)
(0.0008410734946951113 0 0)
(0.0007939943018066426 0 0)
(0.0007402634371175371 0 0)
(0.0006822935560752546 0 0)
(0.000622772000055587 0 0)
(0.0005628057045162252 0 0)
(0.0005028502895198094 0 0)
(0.0004430395105012941 0 0)
(0.0003838259461544942 0 0)
(0.0003254205314075745 0 0)
(0.0002687757030943322 0 0)
(0.0002141852341748159 0 0)
(0.0001628304846316213 0 0)
(0.0001156904677681017 0 0)
(7.368679908675521e-05 0 0)
(3.794466598067072e-05 0 0)
(9.61948753069656e-06 0 0)
(-1.072688279610201e-05 0 0)
(-2.195594075686789e-05 0 0)
(-2.371225289781747e-05 0 0)
(-1.547810838878161e-05 0 0)
(2.761951082455074e-06 0 0)
(3.118285503073416e-05 0 0)
(6.929451154268182e-05 0 0)
(0.0001163343770046057 0 0)
(0.0001701868335556034 0 0)
(0.0002282986460464574 0 0)
(0.000287575007520056 0 0)
(0.0003472930822866967 0 0)
(0.00040691329007574 0 0)
(0.0004665010178474836 0 0)
(0.0005254656029493143 0 0)
(0.0005834398268532089 0 0)
(0.0006399216241297425 0 0)
(0.0006941177674796579 0 0)
(0.0007450261496101269 0 0)
(0.0007921532591487001 0 0)
(0.0008340120709200179 0 0)
(0.0008699981135993278 0 0)
(0.0008988833899224337 0 0)
(0.0009200083843907201 0 0)
(0.0009324506501996653 0 0)
(0.000935723015422247 0 0)
(0.0009293188754918238 0 0)
(0.0009132080160600991 0 0)
(0.0008870916484478438 0 0)
(0.0008514756576054731 0 0)
(0.0008068152619088879 0 0)
(0.000754691670815471 0 0)
(0.0006978718358827556 0 0)
(0.0006390439337514294 0 0)
(0.000579738130163084 0 0)
(0.0005202153068465867 0 0)
(0.0004610506180742809 0 0)
(0.0004022006004974329 0 0)
(0.0003440404849194141 0 0)
(0.0002873635437808641 0 0)
(0.000232550538454382 0 0)
(0.0001805271559720927 0 0)
(0.0001321541555130854 0 0)
(8.857741615908392e-05 0 0)
(5.06277034373566e-05 0 0)
(1.953334169094901e-05 0 0)
(-3.891816770404109e-06 0 0)
(-1.881088161272168e-05 0 0)
(-2.441164700206259e-05 0 0)
(-2.00348526490524e-05 0 0)
(-5.518700427818737e-06 0 0)
(1.938413246562693e-05 0 0)
(5.448585643374087e-05 0 0)
(9.912936196230841e-05 0 0)
(0.0001511408080323621 0 0)
(0.000208087422142613 0 0)
(0.0002666602116036433 0 0)
(0.0003257014262830678 0 0)
(0.0003845542792481526 0 0)
(0.0004436839819650349 0 0)
(0.0005020907891444159 0 0)
(0.0005597676201693839 0 0)
(0.0006160018636613743 0 0)
(0.0006704159651023298 0 0)
(0.0007218146110187716 0 0)
(0.0007696738727289143 0 0)
(0.0008129873013125316 0 0)
(0.0008507420906486143 0 0)
(0.0008819807073736345 0 0)
(0.0009059206011331457 0 0)
(0.0009215579032826023 0 0)
(0.0009282419895860783 0 0)
(0.0009254365170212697 0 0)
(0.0009128843835611888 0 0)
(0.0008902108009892495 0 0)
(0.0008576617473483705 0 0)
(0.000815601122978545 0 0)
(0.0007655214532778321 0 0)
(0.0007098532076826398 0 0)
(0.0006517842329114979 0 0)
(0.0005930183756323389 0 0)
(0.000534016598239512 0 0)
(0.0004752671730104576 0 0)
(0.000416784846781944 0 0)
(0.0003589090014720725 0 0)
(0.0003021405775693977 0 0)
(0.000247160817837261 0 0)
(0.0001946004831321641 0 0)
(0.0001451276913903827 0 0)
(0.0001001812069630546 0 0)
(6.02409638856154e-05 0 0)
(2.673710048881545e-05 0 0)
(3.826718939682359e-07 0 0)
(-1.773930709194008e-05 0 0)
(-2.710841469717691e-05 0 0)
(-2.656517402347431e-05 0 0)
(-1.593691041246437e-05 0 0)
(5.319171550643279e-06 0 0)
(3.693435646267064e-05 0 0)
(7.867356913003403e-05 0 0)
(0.0001286220703396664 0 0)
(0.0001840725779915449 0 0)
(0.0002418691738533361 0 0)
(0.0003002116605080037 0 0)
(0.0003584366427531788 0 0)
(0.0004168332030316224 0 0)
(0.0004747777531601722 0 0)
(0.0005321115247547669 0 0)
(0.000588087131708232 0 0)
(0.0006425009284400324 0 0)
(0.0006943069526462722 0 0)
(0.0007428029385110487 0 0)
(0.0007871730724107408 0 0)
(0.0008265138130199713 0 0)
(0.0008597728439597303 0 0)
(0.0008861449053004685 0 0)
(0.0009047073132768867 0 0)
(0.0009146361637096536 0 0)
(0.0009151985110591311 0 0)
(0.0009061527453770414 0 0)
(0.0008870264830414118 0 0)
(0.0008577166564337332 0 0)
(0.0008185615653049428 0 0)
(0.0007708502118219791 0 0)
(0.0007166149517987868 0 0)
(0.0006593303473682871 0 0)
(0.0006010223916969432 0 0)
(0.0005426682313184608 0 0)
(0.0004839252511749313 0 0)
(0.0004260353861805604 0 0)
(0.0003683596775398372 0 0)
(0.0003116605362070828 0 0)
(0.0002563991213781035 0 0)
(0.0002034612040723114 0 0)
(0.0001531638633591263 0 0)
(0.0001067765376834159 0 0)
(6.521982799629893e-05 0 0)
(2.948840315677089e-05 0 0)
(4.671923490756947e-07 0 0)
(-2.062047418605692e-05 0 0)
(-3.348931540701857e-05 0 0)
(-3.672531906286042e-05 0 0)
(-2.992291831671733e-05 0 0)
(-1.253168505425837e-05 0 0)
(1.543939772607705e-05 0 0)
(5.387624933790408e-05 0 0)
(0.0001012921479089379 0 0)
(0.0001550491012924223 0 0)
(0.0002118543774060496 0 0)
(0.0002694630920743432 0 0)
(0.0003271996485366659 0 0)
(0.0003845325245451864 0 0)
(0.0004422506794543116 0 0)
(0.0004990913099680798 0 0)
(0.0005548310083681995 0 0)
(0.0006090619941956589 0 0)
(0.0006611841821488592 0 0)
(0.0007102521804816274 0 0)
(0.0007553769264673298 0 0)
(0.0007961041815054921 0 0)
(0.0008310967963060831 0 0)
(0.0008596585701568405 0 0)
(0.0008808628090572117 0 0)
(0.0008937678069425069 0 0)
(0.0008975242060721134 0 0)
(0.0008919423953148027 0 0)
(0.000876272218341228 0 0)
(0.0008504874665898055 0 0)
(0.0008144272570027079 0 0)
(0.0007693133570382235 0 0)
(0.0007169467958089631 0 0)
(0.0006605200209417206 0 0)
(0.0006027087538122175 0 0)
(0.0005448306974067197 0 0)
(0.0004863783420969163 0 0)
(0.0004289018156985846 0 0)
(0.0003714186150241308 0 0)
(0.0003148315663739276 0 0)
(0.0002593680774133474 0 0)
(0.0002060061452183808 0 0)
(0.0001550931359274182 0 0)
(0.0001075032656358867 0 0)
(6.437392349203375e-05 0 0)
(2.669936915236907e-05 0 0)
(-4.723632675239776e-06 0 0)
(-2.872119727793156e-05 0 0)
(-4.456100130713218e-05 0 0)
(-5.151758490905858e-05 0 0)
(-4.852328707611127e-05 0 0)
(-3.506113274713205e-05 0 0)
(-1.085424619577059e-05 0 0)
(2.393822897625951e-05 0 0)
(6.842188804486898e-05 0 0)
(0.0001202156253896582 0 0)
(0.0001758085332609149 0 0)
(0.0002326964157387045 0 0)
(0.0002897533014507352 0 0)
(0.0003464730461973946 0 0)
(0.000403512493169586 0 0)
(0.0004598642738546473 0 0)
(0.0005153594533887103 0 0)
(0.0005694227290395326 0 0)
(0.0006215626154426698 0 0)
(0.0006711730287707026 0 0)
(0.0007170178150455129 0 0)
(0.0007587121349876772 0 0)
(0.0007953343066940704 0 0)
(0.0008258377863576154 0 0)
(0.0008492831087679402 0 0)
(0.0008651543862259692 0 0)
(0.0008719231031268941 0 0)
(0.0008695380238095445 0 0)
(0.0008573020156487696 0 0)
(0.0008349918951427248 0 0)
(0.0008023119245818039 0 0)
(0.0007600074740800124 0 0)
(0.0007097917328278872 0 0)
(0.0006545089091599558 0 0)
(0.0005972216978802621 0 0)
(0.0005396431971413673 0 0)
(0.0004818998093245314 0 0)
(0.0004241518995151868 0 0)
(0.0003671495934931732 0 0)
(0.0003107216975222908 0 0)
(0.0002551883632700698 0 0)
(0.0002013604457721188 0 0)
(0.0001499510020257994 0 0)
(0.0001014440380168913 0 0)
(5.673214019860402e-05 0 0)
(1.731793798366559e-05 0 0)
(-1.629961257043735e-05 0 0)
(-4.300908405663957e-05 0 0)
(-6.167349218365607e-05 0 0)
(-7.213086152861614e-05 0 0)
(-7.287581761098431e-05 0 0)
(-6.323094590994673e-05 0 0)
(-4.299022431545963e-05 0 0)
(-1.188443911818993e-05 0 0)
(2.922103640001937e-05 0 0)
(7.864745371797082e-05 0 0)
(0.0001328121859890775 0 0)
(0.0001889010416698234 0 0)
(0.0002451705565395483 0 0)
(0.0003016223140255771 0 0)
(0.0003572504154184354 0 0)
(0.0004135995603230413 0 0)
(0.0004686850121598822 0 0)
(0.0005225543556930395 0 0)
(0.0005746306744762937 0 0)
(0.0006245316533050362 0 0)
(0.0006711176131853965 0 0)
(0.0007135899005606624 0 0)
(0.0007515263535362797 0 0)
(0.0007838896834276481 0 0)
(0.0008093698403460379 0 0)
(0.0008278362304998438 0 0)
(0.0008374365489593075 0 0)
(0.0008381377389532425 0 0)
(0.0008293026653759131 0 0)
(0.0008103911940987546 0 0)
(0.0007812357231166515 0 0)
(0.0007419734636304697 0 0)
(0.000694160104510856 0 0)
(0.0006404104346831742 0 0)
(0.0005837094253107523 0 0)
(0.0005264233615144653 0 0)
(0.0004692261105140126 0 0)
(0.0004113544357603733 0 0)
(0.0003549237647107262 0 0)
(0.0002985113322651151 0 0)
(0.0002429657488632721 0 0)
(0.0001888536408937665 0 0)
(0.000136803909841194 0 0)
(8.766434663312461e-05 0 0)
(4.160403812390985e-05 0 0)
(4.650077999960877e-07 0 0)
(-3.504382955176824e-05 0 0)
(-6.431340887827642e-05 0 0)
(-8.590335394536254e-05 0 0)
(-9.921030849491631e-05 0 0)
(-0.0001036964661721434 0 0)
(-9.789557027238014e-05 0 0)
(-8.162804736340585e-05 0 0)
(-5.442094181808198e-05 0 0)
(-1.684820747438461e-05 0 0)
(2.970820929334419e-05 0 0)
(8.230734001155406e-05 0 0)
(0.0001372389295455392 0 0)
(0.0001928757471403053 0 0)
(0.0002486808759400642 0 0)
(0.0003037109645955212 0 0)
(0.0003594664320802069 0 0)
(0.0004140144277642892 0 0)
(0.000467753159314639 0 0)
(0.0005197274314423702 0 0)
(0.0005696793490744673 0 0)
(0.00061691440803533 0 0)
(0.0006601631758046093 0 0)
(0.0006990977265459048 0 0)
(0.0007330984585765996 0 0)
(0.0007605212134544101 0 0)
(0.0007810490470408966 0 0)
(0.0007938552820232365 0 0)
(0.0007973488575266292 0 0)
(0.0007916093409516798 0 0)
(0.0007761087384726902 0 0)
(0.0007503570966624595 0 0)
(0.0007145308018245771 0 0)
(0.0006692021462459468 0 0)
(0.0006174414255533283 0 0)
(0.0005612445958964304 0 0)
(0.0005044994130365228 0 0)
(0.0004475045532179239 0 0)
(0.0003904040193546794 0 0)
(0.000333430521012442 0 0)
(0.0002774292179637757 0 0)
(0.0002220277555619455 0 0)
(0.0001676939078852226 0 0)
(0.0001151279965951585 0 0)
(6.527070080257114e-05 0 0)
(1.836834256338336e-05 0 0)
(-2.465421778397351e-05 0 0)
(-6.183219835950992e-05 0 0)
(-9.329747545075277e-05 0 0)
(-0.0001178386195164072 0 0)
(-0.0001338085138395333 0 0)
(-0.0001419442343727692 0 0)
(-0.0001399038080775167 0 0)
(-0.0001274782890907528 0 0)
(-0.0001043022555128026 0 0)
(-7.041047987687149e-05 0 0)
(-2.708484402832871e-05 0 0)
(2.347184050167735e-05 0 0)
(7.721800814997275e-05 0 0)
(0.0001321311028627365 0 0)
(0.0001871429919110878 0 0)
(0.000242090973355103 0 0)
(0.0002961599788951317 0 0)
(0.0003509207357838595 0 0)
(0.0004043088723086286 0 0)
(0.0004561181892443562 0 0)
(0.0005061137376183089 0 0)
(0.0005535901036081116 0 0)
(0.0005978960088278257 0 0)
(0.0006372586972624053 0 0)
(0.000673004382316735 0 0)
(0.0007022050603405024 0 0)
(0.0007246070402424543 0 0)
(0.0007400618614520183 0 0)
(0.0007463061547013696 0 0)
(0.0007436256549689389 0 0)
(0.000731500542741068 0 0)
(0.0007091041144049369 0 0)
(0.0006766981338867619 0 0)
(0.0006344065083449125 0 0)
(0.0005844603625449254 0 0)
(0.0005299036455239021 0 0)
(0.0004729425280412228 0 0)
(0.0004163348740707048 0 0)
(0.0003599135312635905 0 0)
(0.0003024473639147513 0 0)
(0.0002471936393818889 0 0)
(0.0001916053915036907 0 0)
(0.000137238725658416 0 0)
(8.426377203844761e-05 0 0)
(3.363174374691907e-05 0 0)
(-1.388005885417855e-05 0 0)
(-5.855083189362805e-05 0 0)
(-9.730880072855875e-05 0 0)
(-0.0001308337507045785 0 0)
(-0.0001580471085350267 0 0)
(-0.0001770532047066845 0 0)
(-0.0001879050081857839 0 0)
(-0.0001897217404274944 0 0)
(-0.0001812082464843914 0 0)
(-0.0001620361695584928 0 0)
(-0.0001321415155740761 0 0)
(-9.205209383680255e-05 0 0)
(-4.434767048356423e-05 0 0)
(8.642012377564363e-06 0 0)
(6.198056863030777e-05 0 0)
(0.0001165721721896571 0 0)
(0.0001710126086893858 0 0)
(0.0002243423046191215 0 0)
(0.0002786521980378147 0 0)
(0.0003314259110523421 0 0)
(0.0003832477005977727 0 0)
(0.0004331623976464806 0 0)
(0.0004807722519469222 0 0)
(0.000525696444690484 0 0)
(0.0005660107616189516 0 0)
(0.0006025871603691733 0 0)
(0.0006337188435043779 0 0)
(0.0006579119593370577 0 0)
(0.0006753293668988622 0 0)
(0.0006850218533654394 0 0)
(0.0006849586789230016 0 0)
(0.0006758703506426964 0 0)
(0.0006569136919306638 0 0)
(0.0006278140131586256 0 0)
(0.0005888901025825691 0 0)
(0.0005410935030602225 0 0)
(0.0004881624870905372 0 0)
(0.0004316437619423338 0 0)
(0.0003750861129375513 0 0)
(0.000318905281969082 0 0)
(0.0002622601407923572 0 0)
(0.0002061678054886785 0 0)
(0.0001510221577902714 0 0)
(9.671402407031974e-05 0 0)
(4.343086853027391e-05 0 0)
(-7.806197004675898e-06 0 0)
(-5.623262867281575e-05 0 0)
(-0.0001015556809343212 0 0)
(-0.0001427668155896995 0 0)
(-0.0001776278639163392 0 0)
(-0.0002074049940825001 0 0)
(-0.0002293650319478513 0 0)
(-0.0002427750539625153 0 0)
(-0.0002484591786563269 0 0)
(-0.0002437126807585461 0 0)
(-0.0002283894230271305 0 0)
(-0.00020253720074313 0 0)
(-0.0001661089951212014 0 0)
(-0.0001211653379838784 0 0)
(-7.012717903420874e-05 0 0)
(-1.730651063004401e-05 0 0)
(3.602517879996332e-05 0 0)
(8.986593236743537e-05 0 0)
(0.0001433859311951373 0 0)
(0.0001956962975214065 0 0)
(0.0002490037815151695 0 0)
(0.0003004281801066676 0 0)
(0.0003502372212267792 0 0)
(0.0003979679979009816 0 0)
(0.0004430947047295492 0 0)
(0.0004848134038588924 0 0)
(0.0005213444238692889 0 0)
(0.0005544562441193235 0 0)
(0.0005804368178925386 0 0)
(0.0005998770814483912 0 0)
(0.0006121598901896248 0 0)
(0.0006149400241725245 0 0)
(0.0006088715717315398 0 0)
(0.0005932581125111001 0 0)
(0.0005675271795089819 0 0)
(0.0005318231681877093 0 0)
(0.0004869514514672894 0 0)
(0.0004353545563089911 0 0)
(0.0003801657825399607 0 0)
(0.0003234942436363256 0 0)
(0.0002673040205915988 0 0)
(0.0002114706720361545 0 0)
(0.0001545086835540328 0 0)
(0.0001002918015289009 0 0)
(4.551688151697004e-05 0 0)
(-7.80015462014158e-06 0 0)
(-5.9549452397154e-05 0 0)
(-0.0001088980361014115 0 0)
(-0.0001547601154242868 0 0)
(-0.0001979944103262214 0 0)
(-0.0002345235351797168 0 0)
(-0.0002661033433072078 0 0)
(-0.0002909918052048869 0 0)
(-0.0003076903102842657 0 0)
(-0.0003158351463590319 0 0)
(-0.0003151669086008555 0 0)
(-0.0003038135272613911 0 0)
(-0.000281965148096905 0 0)
(-0.0002495099289469567 0 0)
(-0.000207521601500816 0 0)
(-0.0001590348653549756 0 0)
(-0.0001067242347196623 0 0)
(-5.426093201804321e-05 0 0)
(-1.639764929159262e-06 0 0)
(5.167114534990438e-05 0 0)
(0.0001033094347860648 0 0)
(0.0001560698173178367 0 0)
(0.0002070224631311089 0 0)
(0.0002569639774108243 0 0)
(0.0003046216512992436 0 0)
(0.0003499328642841498 0 0)
(0.0003923918457584516 0 0)
(0.0004298251521034727 0 0)
(0.000463965984206147 0 0)
(0.0004920613699505402 0 0)
(0.0005127849874846701 0 0)
(0.0005272127419363531 0 0)
(0.0005337182535549056 0 0)
(0.0005300547666484242 0 0)
(0.000517589539306162 0 0)
(0.0004952535428610855 0 0)
(0.0004628277177216289 0 0)
(0.0004210373683575794 0 0)
(0.0003713197383509219 0 0)
(0.0003174203134636457 0 0)
(0.0002611905035813847 0 0)
(0.000204641098957215 0 0)
(0.000149086088433328 0 0)
(9.295603514481902e-05 0 0)
(3.747500538478566e-05 0 0)
(-1.664039559436732e-05 0 0)
(-7.004964217265287e-05 0 0)
(-0.0001222430156506513 0 0)
(-0.0001722634451018803 0 0)
(-0.00021911101098839 0 0)
(-0.00026311737646673 0 0)
(-0.0003020083040970484 0 0)
(-0.0003351441033098035 0 0)
(-0.0003628726793562967 0 0)
(-0.0003823702249098205 0 0)
(-0.000393169179744551 0 0)
(-0.0003965020815517329 0 0)
(-0.0003889861807376014 0 0)
(-0.0003709867081514665 0 0)
(-0.000342559831163913 0 0)
(-0.0003041536064281788 0 0)
(-0.0002579669462819954 0 0)
(-0.0002073482878493589 0 0)
(-0.0001552960351155528 0 0)
(-0.0001035722305085982 0 0)
(-5.116792261151187e-05 0 0)
(8.584799347992922e-07 0 0)
(5.146135751458287e-05 0 0)
(0.0001032752477809453 0 0)
(0.0001526794568059722 0 0)
(0.0002003575757451446 0 0)
(0.000245806871249371 0 0)
(0.0002884729667627659 0 0)
(0.0003275275437028238 0 0)
(0.0003613445832159898 0 0)
(0.0003913996685104064 0 0)
(0.000414434715115272 0 0)
(0.0004305360791704947 0 0)
(0.0004394918520342519 0 0)
(0.0004391046157943476 0 0)
(0.0004294219313595899 0 0)
(0.0004104958014583044 0 0)
(0.0003813838061720006 0 0)
(0.0003426544071479118 0 0)
(0.0002955421847428432 0 0)
(0.0002426660607851797 0 0)
(0.0001873058359808786 0 0)
(0.0001311116498836223 0 0)
(7.484092747575736e-05 0 0)
(1.970741445333947e-05 0 0)
(-3.68437631100587e-05 0 0)
(-9.003028389789145e-05 0 0)
(-0.0001440804250613146 0 0)
(-0.0001962841413935797 0 0)
(-0.0002469567990798886 0 0)
(-0.0002948925265168814 0 0)
(-0.0003392538120133604 0 0)
(-0.0003807078677807095 0 0)
(-0.000415510437339404 0 0)
(-0.0004446154607820429 0 0)
(-0.0004680315928765415 0 0)
(-0.0004818400552588699 0 0)
(-0.0004872579269021522 0 0)
(-0.0004842232667535939 0 0)
(-0.0004701907226634115 0 0)
(-0.0004457978851103519 0 0)
(-0.0004112355676344131 0 0)
(-0.0003678593848502261 0 0)
(-0.0003191535301084084 0 0)
(-0.0002678363328356448 0 0)
(-0.0002163800964778593 0 0)
(-0.0001655445288181812 0 0)
(-0.0001134215116564699 0 0)
(-6.334978444505605e-05 0 0)
(-1.256867236674818e-05 0 0)
(3.683475263762663e-05 0 0)
(8.462059255256122e-05 0 0)
(0.000129997198825155 0 0)
(0.0001728891779410385 0 0)
(0.0002128342551876471 0 0)
(0.00024746864717851 0 0)
(0.0002788298384834845 0 0)
(0.0003037774397554153 0 0)
(0.000321291344219263 0 0)
(0.0003324488112002647 0 0)
(0.0003358022109110894 0 0)
(0.0003284102071776027 0 0)
(0.0003125797841901739 0 0)
(0.0002869598502020558 0 0)
(0.0002514425264704861 0 0)
(0.0002069761261987146 0 0)
(0.0001559510984107841 0 0)
(0.0001011510864592117 0 0)
(4.548003725708645e-05 0 0)
(-1.085861407589011e-05 0 0)
(-6.638421063398899e-05 0 0)
(-0.000121672003838127 0 0)
(-0.0001771932765635256 0 0)
(-0.0002297775134132892 0 0)
(-0.0002824958922860411 0 0)
(-0.0003336406124468743 0 0)
(-0.0003824196776743848 0 0)
(-0.0004278509534590238 0 0)
(-0.0004701151073428649 0 0)
(-0.0005072731929262257 0 0)
(-0.0005385805732280584 0 0)
(-0.0005636947393301636 0 0)
(-0.0005815397304036737 0 0)
(-0.0005896249094502898 0 0)
(-0.0005901412335042279 0 0)
(-0.0005802796289120567 0 0)
(-0.0005596289967042203 0 0)
(-0.0005290380111079346 0 0)
(-0.000489116320771718 0 0)
(-0.0004422541459153769 0 0)
(-0.0003925755038787547 0 0)
(-0.0003412930376416702 0 0)
(-0.0002906737173945977 0 0)
(-0.0002405341564638736 0 0)
(-0.0001892157594072153 0 0)
(-0.0001412191777559769 0 0)
(-9.009719378933831e-05 0 0)
(-4.325336350018064e-05 0 0)
(2.366948296426985e-06 0 0)
(4.530901501539009e-05 0 0)
(8.545304347724746e-05 0 0)
(0.0001219657603809004 0 0)
(0.0001529430218646178 0 0)
(0.0001797873266068775 0 0)
(0.000200212363170851 0 0)
(0.0002120609867215081 0 0)
(0.0002180810352794715 0 0)
(0.0002150824087551293 0 0)
(0.0002014361849101686 0 0)
(0.0001791032416793931 0 0)
(0.0001469205126266487 0 0)
(0.0001053474225194554 0 0)
(5.642036514265253e-05 0 0)
(2.612243142922666e-06 0 0)
(-5.254971003060099e-05 0 0)
(-0.0001084508360041206 0 0)
(-0.0001648581549597351 0 0)
(-0.000219469864547641 0 0)
(-0.0002751919537389085 0 0)
(-0.0003286271782043429 0 0)
(-0.0003811532695460411 0 0)
(-0.0004325056606459078 0 0)
(-0.0004820743320765786 0 0)
(-0.0005286817398557212 0 0)
(-0.0005714466482157083 0 0)
(-0.0006109788740086332 0 0)
(-0.0006440108133521613 0 0)
(-0.0006712123592045795 0 0)
(-0.0006921495745934428 0 0)
(-0.000703836206331921 0 0)
(-0.0007062280696083963 0 0)
(-0.0007010640363371458 0 0)
(-0.0006846555383025172 0 0)
(-0.0006577463579486034 0 0)
(-0.0006214992193469802 0 0)
(-0.0005774864409569541 0 0)
(-0.0005287433835644394 0 0)
(-0.0004791667326303044 0 0)
(-0.0004283774368289848 0 0)
(-0.0003785662286631538 0 0)
(-0.0003291826176971951 0 0)
(-0.000278870998876059 0 0)
(-0.0002323279313174102 0 0)
(-0.0001825065054885786 0 0)
(-0.000137763682304288 0 0)
(-9.475651936191144e-05 0 0)
(-5.438297224848382e-05 0 0)
(-1.729057494943185e-05 0 0)
(1.530646381045165e-05 0 0)
(4.303238887914144e-05 0 0)
(6.488886760644657e-05 0 0)
(8.022719810248829e-05 0 0)
(8.639898409223592e-05 0 0)
(8.684907207152027e-05 0 0)
(7.693181892076632e-05 0 0)
(5.709171467453805e-05 0 0)
(2.842777087582405e-05 0 0)
(-1.003934147953252e-05 0 0)
(-5.678658051956396e-05 0 0)
(-0.0001087467244835075 0 0)
(-0.0001641215209583025 0 0)
(-0.0002191352703037159 0 0)
(-0.0002747934517953048 0 0)
(-0.0003314085750640909 0 0)
(-0.0003852004059692397 0 0)
(-0.0004416512014356827 0 0)
(-0.0004915513236573545 0 0)
(-0.0005447476873860387 0 0)
(-0.0005943633235293174 0 0)
(-0.0006419176436169029 0 0)
(-0.0006862894706946937 0 0)
(-0.0007259794237733228 0 0)
(-0.0007621422611943969 0 0)
(-0.000791478018179704 0 0)
(-0.0008140270648300069 0 0)
(-0.0008304062167647738 0 0)
(-0.0008358693800064917 0 0)
(-0.0008323650401709592 0 0)
(-0.000820962252197502 0 0)
(-0.0007983021373980095 0 0)
(-0.0007655554783682712 0 0)
(-0.0007246816193314774 0 0)
(-0.0006780500480639084 0 0)
(-0.000628918984047216 0 0)
(-0.0005798206077154374 0 0)
(-0.000529729529371637 0 0)
(-0.000480489390293556 0 0)
(-0.0004326484217929305 0 0)
(-0.0003827306865676421 0 0)
(-0.0003382088036400394 0 0)
(-0.0002892360565112383 0 0)
(-0.000248033554455807 0 0)
(-0.0002073268186291197 0 0)
(-0.0001702375260125917 0 0)
(-0.0001359621300001719 0 0)
(-0.0001075707021064936 0 0)
(-8.377178730155406e-05 0 0)
(-6.695741834269905e-05 0 0)
(-5.693323926699785e-05 0 0)
(-5.627701134283611e-05 0 0)
(-6.185286247801756e-05 0 0)
(-7.909604846537434e-05 0 0)
(-0.0001050044858228084 0 0)
(-0.000139774579503561 0 0)
(-0.000183927055314996 0 0)
(-0.0002344259798618622 0 0)
(-0.0002883210326973248 0 0)
(-0.0003441812135739859 0 0)
(-0.0003992402960379381 0 0)
(-0.000454215074607494 0 0)
(-0.0005107801748399606 0 0)
(-0.0005640820273367694 0 0)
(-0.0006204707077299604 0 0)
(-0.0006666692468077425 0 0)
(-0.0007216734856351628 0 0)
(-0.0007689096109073273 0 0)
(-0.0008145754104823063 0 0)
(-0.0008542840261057284 0 0)
(-0.000892539376740386 0 0)
(-0.0009236114549624909 0 0)
(-0.0009498123443939794 0 0)
(-0.0009674038228327089 0 0)
(-0.0009789604649448947 0 0)
(-0.0009764417115329445 0 0)
(-0.0009679589157772321 0 0)
(-0.000949588349245656 0 0)
)
;

boundaryField
{
    inlet
    {
        type            calculated;
        value           uniform (0.0009641202720328074 0 0);
    }
    outlet
    {
        type            calculated;
        value           uniform (-0.0009356794492166572 0 0);
    }
    frontAndBack
    {
        type            empty;
    }
}


// ************************************************************************* //
