/*--------------------------------*- C++ -*----------------------------------*\
| =========                 |                                                 |
| \\      /  F ield         | OpenFOAM: The Open Source CFD Toolbox           |
|  \\    /   O peration     | Version:  v2012                                 |
|   \\  /    A nd           | Website:  www.openfoam.com                      |
|    \\/     M anipulation  |                                                 |
\*---------------------------------------------------------------------------*/
FoamFile
{
    version     2.0;
    format      ascii;
    class       volScalarField;
    location    "0.002";
    object      pMean;
}
// * * * * * * * * * * * * * * * * * * * * * * * * * * * * * * * * * * * * * //

dimensions      [1 -1 -2 0 0 0 0];


internalField   nonuniform List<scalar> 
1000
(
101325.0418364101
101325.0149902894
101325.0758528443
101325.1338238508
101325.2236873751
101325.3332070003
101325.461113522
101325.6060394367
101325.7649815864
101325.9383266668
101326.1163951419
101326.2959032164
101326.474353391
101326.6526599019
101326.8261875962
101326.9937184061
101327.1484653204
101327.2891493685
101327.4109733361
101327.5144781425
101327.5956074224
101327.6548256712
101327.6889260977
101327.6990140874
101327.6825918902
101327.6415818656
101327.5757422683
101327.489365515
101327.3811003372
101327.2488592949
101327.0877343619
101326.9119293111
101326.7327806919
101326.5534120209
101326.3734521527
101326.1947982024
101326.0165893834
101325.8394468188
101325.6651028472
101325.4970946226
101325.3414112847
101325.203982525
101325.0895457794
101325.0008501117
101324.9358590201
101324.8954176479
101324.8810982593
101324.8929189933
101324.9299363753
101324.9892067178
101325.074108918
101325.1909527695
101325.3461639179
101325.5218636552
101325.7007930332
101325.880002457
101326.058680833
101326.2381067561
101326.417558748
101326.596323607
101326.7739662231
101326.9503660316
101327.1239402546
101327.2900277174
101327.4439244485
101327.5762944687
101327.6800919812
101327.752797968
101327.7941524738
101327.8085885526
101327.799716615
101327.7695954054
101327.7161836775
101327.6277847122
101327.490150095
101327.3180184717
101327.1391542123
101326.9593597336
101326.7800220375
101326.6006763019
101326.4212808654
101326.2424107507
101326.0635648228
101325.8847211776
101325.7067695606
101325.5302188631
101325.356846268
101325.1909687056
101325.0382308703
101324.9092358614
101324.8167417127
101324.766520876
101324.7522472576
101324.7619625078
101324.7914424658
101324.8492684381
101324.955442751
101325.1136926713
101325.2914813111
101325.4711104979
101325.6505312284
101325.8300075564
101326.0093193931
101326.188454013
101326.3676677837
101326.5467820964
101326.7256799638
101326.9042382787
101327.0819832488
101327.2579575005
101327.4301762871
101327.594314093
101327.7418773933
101327.8585107269
101327.9293830646
101327.9538574176
101327.9446215698
101327.9090434908
101327.8395304891
101327.7184173535
101327.552383674
101327.3737824415
101327.1945351449
101327.0152092387
101326.8359372248
101326.6566212216
101326.4774031404
101326.2981243939
101326.1189824634
101325.9398307676
101325.760904809
101325.5820798397
101325.4043555163
101325.2279733517
101325.0560319768
101324.8926852992
101324.7485858911
101324.6364807618
101324.5698686778
101324.5536183584
101324.5977138642
101324.7104674122
101324.8759982819
101325.0535962897
101325.233547914
101325.4117367397
101325.592026818
101325.7701302883
101325.9508106674
101326.1288028529
101326.309842389
101326.4876805786
101326.6690762437
101326.8466787004
101327.0281982529
101327.2050134941
101327.3854191195
101327.5587433066
101327.7319660185
101327.8894573995
101328.0332015539
101328.1364363644
101328.1798522742
101328.1114285016
101327.9601867253
101327.779093509
101327.6034670833
101327.4210086677
101327.2455658883
101327.0629219784
101326.8876634154
101326.7048710553
101326.529848489
101326.3469372666
101326.1720805369
101325.9890928148
101325.8144258757
101325.6315995371
101325.4571124628
101325.2750798892
101325.1018401607
101324.9230229409
101324.7561588641
101324.5936181282
101324.4687325412
101324.4166771876
101324.5012621749
101324.6641954715
101324.8460376026
101325.0229881168
101325.2048373549
101325.3820269861
101325.563556448
101325.7409433634
101325.9221628551
101326.0997811916
101326.2807174694
101326.4585421321
101326.6391656575
101326.8171610034
101326.9974994532
101327.1755121518
101327.3552925737
101327.5328914579
101327.7105620438
101327.8841590759
101328.0496252977
101328.1876846139
101328.2516669921
101328.1839467799
101328.0218346391
101327.8438060183
101327.6639388659
101327.4857877807
101327.3056917462
101327.1278830124
101326.9475897345
101326.7700518025
101326.5895361775
101326.4123113197
101326.2314843621
101326.054525025
101325.8737531653
101325.6970194082
101325.5158155461
101325.339377657
101325.1594284464
101324.9838461809
101324.8051831867
101324.6403801576
101324.4882645233
101324.4148190813
101324.4602124077
101324.6224812913
101324.7949572666
101324.9805294098
101325.153930783
101325.33900588
101325.5123082186
101325.6969154926
101325.8707746385
101326.0545949979
101326.2285897785
101326.4120604214
101326.5871870668
101326.7698173692
101326.9440918245
101327.1259669583
101327.3011930631
101327.4803319583
101327.6514897709
101327.8273593999
101327.9934886923
101328.1411034255
101328.2417735273
101328.2212767148
101328.0840323314
101327.9033326988
101327.7255034124
101327.5427882092
101327.3650909621
101327.1827712052
101327.0058089722
101326.8243692412
101326.6477737032
101326.4663179477
101326.2901929998
101326.1100377842
101325.9346743697
101325.7545491392
101325.5808136358
101325.4062703714
101325.2413715318
101325.1019935477
101325.0209793304
101325.0010813468
101325.0000057037
101325.0000000016
101325.0000000005
101325.0000000005
101325.0000000005
101325.0000000005
101325.0000000005
101325.0000000005
101325.0000000004
101325.0000000004
101325.0000000005
101325.0000000004
101325.0000000005
101325.0000000004
101325.0000000005
101325.0000000005
101325.0000000005
101325.0000000005
101325.0000000005
101325.0000000005
101325.0000000005
101325.0000000005
101325.0000000005
101325.0000000005
101325.0000000005
101325.0000000005
101325.0000000005
101325.0000000005
101325.0000000005
101325.0000000006
101325.0000000005
101325.0000000006
101325.0000000005
101325.0000000005
101325.0000000005
101325.0000000004
101325.0000000004
101325.0000000004
101325.0000000005
101325.0000000004
101325.0000000004
101325.0000000005
101325.0000000004
101325.0000000004
101325.0000000004
101325.0000000004
101325.0000000004
101325.0000000005
101325.0000000005
101325.0000000005
101325.0000000005
101325.0000000005
101325.0000000005
101325.0000000005
101325.0000000005
101325.0000000005
101325.0000000005
101325.0000000005
101325.0000000005
101325.0000000005
101325.0000000005
101325.0000000005
101325.0000000005
101325.0000000005
101325.0000000005
101325.0000000005
101325.0000000005
101325.0000000005
101325.0000000005
101325.0000000005
101325.0000000005
101325.0000000005
101325.0000000005
101325.0000000005
101325.0000000005
101325.0000000005
101325.0000000005
101325.0000000005
101325.0000000005
101325.0000000005
101325.0000000005
101325.0000000005
101325.0000000005
101325.0000000005
101325.0000000005
101325.0000000005
101325.0000000005
101325.0000000005
101325.0000000005
101325.0000000005
101325.0000000006
101325.0000000005
101325.0000000005
101325.0000000005
101325.0000000005
101325.0000000005
101325.0000000005
101325.0000000005
101325.0000000005
101325.0000000005
101325.0000000005
101325.0000000006
101325.0000000006
101325.0000000005
101325.0000000005
101325.0000000005
101325.0000000005
101325.0000000005
101325.0000000005
101325.0000000005
101325.0000000005
101325.0000000005
101325.0000000005
101325.0000000005
101325.0000000005
101325.0000000005
101325.0000000005
101325.0000000005
101325.0000000005
101325.0000000005
101325.0000000005
101325.0000000005
101325.0000000005
101325.0000000005
101325.0000000005
101325.0000000005
101325.0000000005
101325.0000000006
101325.0000000006
101325.0000000006
101325.0000000005
101325.0000000005
101325.0000000005
101325.0000000005
101325.0000000005
101325.0000000005
101325.0000000005
101325.0000000005
101325.0000000005
101325.0000000005
101325.0000000005
101325.0000000005
101325.0000000005
101325.0000000005
101325.0000000005
101325.0000000005
101325.0000000004
101325.0000000004
101325.0000000005
101325.0000000005
101325.0000000005
101325.0000000005
101325.0000000005
101325.0000000005
101325.0000000004
101325.0000000004
101325.0000000004
101325.0000000005
101325.0000000005
101325.0000000005
101325.0000000005
101325.0000000005
101325.0000000005
101325.0000000005
101325.0000000005
101325.0000000005
101325.0000000005
101325.0000000005
101325.0000000005
101325.0000000005
101325.0000000005
101325.0000000005
101325.0000000005
101325.0000000004
101325.0000000004
101325.0000000005
101325.0000000004
101325.0000000004
101325.0000000005
101325.0000000005
101325.0000000004
101325.0000000004
101325.0000000004
101325.0000000004
101325.0000000005
101325.0000000004
101325.0000000004
101325.0000000005
101325.0000000004
101325.0000000004
101325.0000000004
101325.0000000004
101325.0000000005
101325.0000000004
101325.0000000005
101325.0000000004
101325.0000000005
101325.0000000005
101325.0000000005
101325.0000000005
101325.0000000005
101325.0000000005
101325.0000000006
101325.0000000005
101325.0000000005
101325.0000000005
101325.0000000005
101325.0000000005
101325.0000000005
101325.0000000005
101325.0000000005
101325.0000000005
101325.0000000005
101325.0000000005
101325.0000000005
101325.0000000005
101325.0000000005
101325.0000000005
101325.0000000005
101325.0000000005
101325.0000000005
101325.0000000005
101325.0000000005
101325.0000000005
101325.0000000005
101325.0000000005
101325.0000000004
101325.0000000005
101325.0000000005
101325.0000000006
101325.0000000006
101325.0000000005
101325.0000000005
101325.0000000005
101325.0000000005
101325.0000000005
101325.0000000006
101325.0000000005
101325.0000000005
101325.0000000005
101325.0000000005
101325.0000000005
101325.0000000005
101325.0000000005
101325.0000000005
101325.0000000005
101325.0000000005
101325.0000000005
101325.0000000005
101325.0000000005
101325.0000000005
101325.0000000005
101325.0000000005
101325.0000000005
101325.0000000005
101325.0000000005
101325.0000000005
101325.0000000005
101325.0000000005
101325.0000000005
101325.0000000005
101325.0000000005
101325.0000000005
101325.0000000005
101325.0000000005
101325.0000000005
101325.0000000005
101325.0000000005
101325.0000000005
101325.0000000006
101325.0000000005
101325.0000000005
101325.0000000005
101325.0000000005
101325.0000000005
101325.0000000006
101325.0000000006
101325.0000000005
101325.0000000006
101325.0000000006
101325.0000000006
101325.0000000005
101325.0000000006
101325.0000000006
101325.0000000006
101325.0000000005
101325.0000000006
101325.0000000006
101325.0000000006
101325.0000000006
101325.0000000006
101325.0000000006
101325.0000000005
101325.0000000005
101325.0000000006
101325.0000000006
101325.0000000006
101325.0000000006
101325.0000000006
101325.0000000005
101325.0000000006
101325.0000000006
101325.0000000006
101325.0000000006
101325.0000000006
101325.0000000006
101325.0000000006
101325.0000000006
101325.0000000006
101325.0000000006
101325.0000000006
101325.0000000007
101325.0000000006
101325.0000000006
101325.0000000006
101325.0000000006
101325.0000000006
101325.0000000006
101325.0000000006
101325.0000000006
101325.0000000006
101325.0000000006
101325.0000000006
101325.0000000006
101325.0000000006
101325.0000000006
101325.0000000006
101325.0000000006
101325.0000000006
101325.0000000006
101325.0000000006
101325.0000000006
101325.0000000006
101325.0000000006
101325.0000000006
101325.0000000006
101325.0000000006
101325.0000000006
101325.0000000006
101325.0000000006
101325.0000000006
101325.0000000006
101325.0000000006
101325.0000000006
101325.0000000005
101325.0000000006
101325.0000000006
101325.0000000006
101325.0000000006
101325.0000000006
101325.0000000006
101325.0000000006
101325.0000000006
101325.0000000006
101325.0000000006
101325.0000000006
101325.0000000006
101325.0000000006
101325.0000000006
101325.0000000006
101325.0000000006
101325.0000000006
101325.0000000006
101325.0000000005
101325.0000000005
101325.0000000006
101325.0000000006
101325.0000000005
101325.0000000006
101325.0000000005
101325.0000000006
101325.0000000006
101325.0000000005
101325.0000000006
101325.0000000006
101325.0000000006
101325.0000000006
101325.0000000006
101325.0000000005
101325.0000000006
101325.0000000006
101325.0000000006
101325.0000000006
101325.0000000006
101325.0000000006
101325.0000000006
101325.0000000006
101325.0000000006
101325.0000000006
101325.0000000006
101325.0000000006
101325.0000000006
101325.0000000006
101325.0000000006
101325.0000000006
101325.0000000006
101325.0000000006
101325.0000000006
101325.0000000006
101325.0000000006
101325.0000000005
101325.0000000006
101325.0000000006
101325.0000000006
101325.0000000006
101325.0000000005
101325.0000000006
101325.0000000005
101325.0000000005
101325.0000000005
101325.0000000005
101325.0000000005
101325.0000000006
101325.0000000006
101325.0000000006
101325.0000000005
101325.0000000006
101325.0000000006
101325.0000000006
101325.0000000006
101325.0000000006
101325.0000000005
101325.0000000006
101325.0000000006
101325.0000000006
101325.0000000006
101325.0000000006
101325.0000000005
101325.0000000005
101325.0000000005
101325.0000000005
101325.0000000005
101325.0000000005
101325.0000000005
101325.0000000006
101325.0000000005
101325.0000000005
101325.0000000005
101325.0000000005
101325.0000000005
101325.0000000005
101325.0000000005
101325.0000000006
101325.0000000005
101325.0000000005
101325.0000000006
101325.0000000005
101325.0000000006
101325.0000000006
101325.0000000005
101325.0000000005
101325.0000000005
101325.0000000005
101325.0000000005
101325.0000000006
101325.0000000005
101325.0000000006
101325.0000000006
101325.0000000006
101325.0000000005
101325.0000000006
101325.0000000006
101325.0000000005
101325.0000000005
101325.0000000005
101325.0000000005
101325.0000000005
101325.0000000006
101325.0000000006
101325.0000000006
101325.0000000006
101325.0000000006
101325.0000000006
101325.0000000006
101325.0000000005
101325.0000000006
101325.0000000006
101325.0000000006
101325.0000000006
101325.0000000006
101325.0000000005
101325.0000000006
101325.0000000006
101325.0000000006
101325.0000000006
101325.0000000006
101325.0000000006
101325.0000000006
101325.0000000006
101325.0000000006
101325.0000000006
101325.0000000006
101325.0000000006
101325.0000000005
101325.0000000006
101325.0000000006
101325.0000000005
101325.0000000006
101325.0000000005
101325.0000000005
101325.0000000005
101325.0000000006
101325.0000000006
101325.0000000006
101325.0000000005
101325.0000000005
101325.0000000006
101325.0000000006
101325.0000000005
101325.0000000005
101325.0000000005
101325.0000000006
101325.0000000006
101325.0000000006
101325.0000000006
101325.0000000006
101325.0000000006
101325.0000000005
101325.0000000005
101325.0000000005
101325.0000000005
101325.0000000005
101325.0000000005
101325.0000000005
101325.0000000005
101325.0000000006
101325.0000000005
101325.0000000006
101325.0000000005
101325.0000000006
101325.0000000005
101325.0000000006
101325.0000000006
101325.0000000005
101325.0000000006
101325.0000000005
101325.0000000005
101325.0000000006
101325.0000000005
101325.0000000006
101325.0000000005
101325.0000000005
101325.0000000006
101325.0000000006
101325.0000000006
101325.0000000006
101325.0000000006
101325.0000000005
101325.0000000005
101325.0000000006
101325.0000000005
101325.0000000006
101325.0000000006
101325.0000000005
101325.0000000005
101325.0000000005
101325.0000000005
101325.0000000005
101325.0000000006
101325.0000000005
101325.0000000006
101325.0000000005
101325.0000000005
101325.0000000006
101325.0000000006
101325.0000000006
101325.0000000006
101325.0000000006
101325.0000000006
101325.0000000005
101325.0000000006
101325.0000000005
101325.0000000005
101325.0000000005
101325.0000000005
101325.0000000005
101325.0000000005
101325.0000000006
101325.0000000005
101325.0000000006
101325.0000000005
101325.0000000006
101325.0000000006
101325.0000000005
101325.0000000006
101325.0000000005
101325.0000000006
101325.0000000005
101325.0000000005
101325.0000000005
101325.0000000005
101325.0000000005
101325.0000000006
101325.0000000006
101325.0000000005
101325.0000000006
101325.0000000005
101325.0000000005
101325.0000000005
101325.0000000006
101325.0000000006
101325.0000000006
101325.0000000006
101325.0000000006
101325.0000000006
101325.0000000006
101325.0000000006
101325.0000000006
101325.0000000006
101325.0000000007
101325.0000000007
101325.0000000007
101325.0000000006
101325.0000000007
101325.0000000006
101325.0000000006
101325.0000000006
101325.0000000007
101325.0000000007
101325.0000000007
101325.0000000006
101325.0000000006
101325.0000000006
101325.0000000006
101325.0000000006
101325.0000000006
101325.0000000006
101325.0000000007
101325.0000000006
101325.0000000006
101325.0000000007
101325.0000000006
101325.0000000007
101325.0000000007
101325.0000000007
101325.0000000007
101325.0000000007
101325.0000000007
101325.0000000007
101325.0000000007
101325.0000000007
101325.0000000007
101325.0000000008
101325.0000000008
101325.0000000007
101325.0000000007
101325.0000000007
101325.0000000008
101325.0000000008
101325.0000000008
101325.0000000007
101325.0000000008
101325.0000000008
101325.0000000007
101325.0000000007
101325.0000000008
101325.0000000007
101325.0000000008
101325.0000000008
101325.0000000008
101325.0000000008
101325.0000000008
101325.0000000009
101325.0000000009
101325.0000000009
101325.0000000008
101325.0000000008
101325.0000000008
101325.0000000008
101325.0000000009
101325.0000000008
101325.0000000008
101325.0000000008
101325.0000000008
101325.0000000009
101325.0000000009
101325.0000000009
101325.0000000009
101325.0000000009
101325.0000000009
101325.0000000009
101325.0000000009
101325.0000000009
101325.0000000009
101325.0000000009
101325.0000000009
101325.0000000009
101325.0000000009
101325.0000000009
101325.0000000009
101325.0000000009
101325.0000000009
101325.0000000009
101325.0000000009
101325.0000000009
101325.0000000009
101325.0000000009
101325.0000000009
101325.0000000009
101325.0000000009
101325.0000000009
101325.0000000009
101325.0000000009
101325.0000000009
101325.0000000009
101325.0000000009
101325.0000000009
101325.000000001
101325.000000001
101325.0000000009
101325.0000000009
101325.000000001
101325.000000001
101325.000000001
101325.0000000009
101325.000000001
101325.0000000009
101325.000000001
101325.0000000009
101325.000000001
101325.000000001
101325.000000001
101325.000000001
101325.0000000009
)
;

boundaryField
{
    inlet
    {
        type            calculated;
        value           uniform 101324.9999999998;
    }
    outlet
    {
        type            calculated;
        value           uniform 101325.000000001;
    }
    frontAndBack
    {
        type            empty;
    }
}


// ************************************************************************* //
