/*--------------------------------*- C++ -*----------------------------------*\
| =========                 |                                                 |
| \\      /  F ield         | OpenFOAM: The Open Source CFD Toolbox           |
|  \\    /   O peration     | Version:  v2012                                 |
|   \\  /    A nd           | Website:  www.openfoam.com                      |
|    \\/     M anipulation  |                                                 |
\*---------------------------------------------------------------------------*/
FoamFile
{
    version     2.0;
    format      ascii;
    class       volScalarField;
    location    "0.002";
    object      rho;
}
// * * * * * * * * * * * * * * * * * * * * * * * * * * * * * * * * * * * * * //

dimensions      [1 -3 0 0 0 0 0];


internalField   nonuniform List<scalar> 
1000
(
1.176299559181404
1.176322990216927
1.176268870071959
1.176225566689161
1.176173592842642
1.176126145631135
1.176087224205179
1.176053530133111
1.17602168274078
1.176002510747196
1.175998909405525
1.175998399350825
1.176000282822327
1.176005577768845
1.17601924604827
1.176043293703395
1.176076506791796
1.176116074532069
1.176160162579966
1.176208086479589
1.176259608383836
1.176314471136626
1.176371968560787
1.176430879863339
1.176489684026566
1.176546079390198
1.176597477150328
1.176645334702518
1.176697851928034
1.176761422967156
1.176811314099893
1.176823742671239
1.176823888443426
1.176823347885722
1.176823160748686
1.176823641119011
1.176822442051262
1.176817618409349
1.176805323420445
1.176781338642454
1.176742728501471
1.17669157585513
1.176634837641988
1.176578377862392
1.17652250851063
1.176464111648197
1.176402044571339
1.176340958876181
1.176286650434121
1.176235335071601
1.176171710276432
1.17608482831234
1.176015486768838
1.175999074328864
1.175997665347865
1.175997858870745
1.175998813393164
1.175999857855432
1.176000507058085
1.176000718810867
1.176002401266633
1.176007845200642
1.17602042586283
1.176045198242281
1.176087649799629
1.176148905404328
1.176221700238285
1.176294798056023
1.176360953003172
1.176417962738797
1.176467416171078
1.176516925124849
1.176583202653793
1.176685828329978
1.176789689741624
1.176823101116925
1.176824880708616
1.176824840494987
1.176824816781153
1.176824714136737
1.176824497520647
1.176824127817219
1.17682345025838
1.176822194575254
1.176819731734312
1.176814309146283
1.176802321570292
1.176777759981505
1.176732169124704
1.176657667677796
1.176559179257599
1.176465739635329
1.17640167503451
1.176356574761904
1.176305032144162
1.176215815272655
1.176084942745832
1.176007963425002
1.175998772797585
1.175998609438569
1.175998655161151
1.175998610606248
1.175998636158081
1.175998823341288
1.175999166780848
1.175999605693739
1.176000179744438
1.176001382783243
1.176004227190466
1.176010663135995
1.176024620034653
1.176053891231879
1.176111552071457
1.176207992214577
1.176323928297884
1.176415543229804
1.176477994959746
1.176541939256571
1.17664224067043
1.17676614930491
1.176820343298621
1.176824604141241
1.176824639098268
1.176824644999382
1.17682460313652
1.176824518156469
1.176824411894306
1.176824287770349
1.176824105699126
1.1768237969223
1.176823223884073
1.176821955936206
1.176818994526202
1.176812201260282
1.176796854449193
1.176763645745947
1.176700020320958
1.176602197978872
1.176484723987155
1.176356254522351
1.176205027583463
1.176060186243653
1.176003453746655
1.175998891015119
1.175998843624194
1.175998853663622
1.175998870550414
1.17599889321443
1.175998934392783
1.175998982344518
1.175999035697228
1.175999131974259
1.175999323426609
1.175999662673724
1.176000347150977
1.176001981117252
1.176005852726451
1.176014658344468
1.176033373684845
1.176069358365317
1.17613384723315
1.176251662506364
1.176463279117501
1.176714155029954
1.176816724665549
1.176824382969988
1.176824439648016
1.176824449539713
1.176824421735339
1.176824384096993
1.176824377562705
1.176824399946073
1.176824381355829
1.176824320798717
1.176824245946312
1.176824228471405
1.176824102468705
1.176823722281064
1.176822976178984
1.176821349846652
1.176817745527979
1.176810016152244
1.176792310571807
1.176746240727137
1.176620603707591
1.17634753630669
1.176071148876157
1.176001251973223
1.175998894304179
1.175998870912757
1.175998905297213
1.175998940260073
1.175998944836412
1.175998966796282
1.175999013757325
1.175999059791565
1.175999051898469
1.175999054392667
1.175999122000447
1.175999229929301
1.175999305112017
1.175999705252909
1.176000661294069
1.176002514345296
1.176007214191305
1.176020251335665
1.176058208840538
1.176171864365414
1.176438324420565
1.176735530752783
1.176821055552308
1.176824468148366
1.176824505898616
1.176824561783289
1.176824494271879
1.176824378462163
1.176824321188185
1.176824421716304
1.176824388634517
1.176824146017598
1.176824030902429
1.176824372774935
1.17682421961734
1.176823365907513
1.176822925242086
1.176824198949815
1.176822282688836
1.176816981613904
1.176812700386843
1.176780136690596
1.176681610824247
1.176428455779008
1.176111513314927
1.176003661370727
1.175998241634168
1.17599827663063
1.175998182648521
1.175998299519015
1.175998822095407
1.175999413738559
1.175999127043482
1.175998383197894
1.175998955169265
1.176000274951649
1.175999992587266
1.175997936477783
1.175999772998078
1.176003776141176
1.176005305253547
1.176003789582739
1.176009597173996
1.176024649252584
1.176041745407153
1.176119433931827
1.176323671793371
1.176648035492142
1.176812195444199
1.176827291415537
1.176827974262648
1.17682712618496
1.176825735310886
1.176825127077582
1.176825302949904
1.176824707984592
1.176823416636915
1.176822552101078
1.176823275920736
1.176822432592901
1.176820058175367
1.176817703461849
1.176816328205846
1.176802852722012
1.176767045234543
1.176663792391304
1.176500265225295
1.176418769407546
1.176411765862938
1.176411716183443
1.176411716172196
1.176411716172196
1.176411716172195
1.176411716172194
1.176411716172194
1.176411716172195
1.176411716172196
1.176411716172196
1.176411716172195
1.176411716172196
1.176411716172196
1.176411716172196
1.176411716172196
1.176411716172197
1.176411716172196
1.176411716172196
1.176411716172196
1.176411716172196
1.176411716172196
1.176411716172196
1.176411716172196
1.176411716172196
1.176411716172195
1.176411716172196
1.176411716172196
1.176411716172196
1.176411716172196
1.176411716172196
1.176411716172196
1.176411716172196
1.176411716172196
1.176411716172196
1.176411716172196
1.176411716172196
1.176411716172196
1.176411716172196
1.176411716172197
1.176411716172197
1.176411716172196
1.176411716172196
1.176411716172196
1.176411716172196
1.176411716172196
1.176411716172196
1.176411716172195
1.176411716172195
1.176411716172194
1.176411716172194
1.176411716172194
1.176411716172194
1.176411716172195
1.176411716172195
1.176411716172195
1.176411716172196
1.176411716172197
1.176411716172197
1.176411716172197
1.176411716172197
1.176411716172197
1.176411716172197
1.176411716172197
1.176411716172197
1.176411716172196
1.176411716172197
1.176411716172197
1.176411716172196
1.176411716172196
1.176411716172196
1.176411716172196
1.176411716172196
1.176411716172196
1.176411716172196
1.176411716172196
1.176411716172196
1.176411716172196
1.176411716172196
1.176411716172195
1.176411716172196
1.176411716172195
1.176411716172195
1.176411716172196
1.176411716172196
1.176411716172196
1.176411716172196
1.176411716172197
1.176411716172196
1.176411716172196
1.176411716172195
1.176411716172195
1.176411716172196
1.176411716172195
1.176411716172195
1.176411716172195
1.176411716172195
1.176411716172196
1.176411716172196
1.176411716172196
1.176411716172196
1.176411716172197
1.176411716172197
1.176411716172197
1.176411716172197
1.176411716172197
1.176411716172196
1.176411716172196
1.176411716172196
1.176411716172196
1.176411716172195
1.176411716172195
1.176411716172194
1.176411716172195
1.176411716172195
1.176411716172196
1.176411716172196
1.176411716172197
1.176411716172196
1.176411716172196
1.176411716172197
1.176411716172197
1.176411716172197
1.176411716172197
1.176411716172197
1.176411716172197
1.176411716172197
1.176411716172197
1.176411716172197
1.176411716172197
1.176411716172196
1.176411716172195
1.176411716172195
1.176411716172195
1.176411716172195
1.176411716172195
1.176411716172195
1.176411716172194
1.176411716172194
1.176411716172194
1.176411716172194
1.176411716172193
1.176411716172193
1.176411716172192
1.176411716172193
1.176411716172193
1.176411716172193
1.176411716172193
1.176411716172193
1.176411716172193
1.176411716172193
1.176411716172193
1.176411716172193
1.176411716172193
1.176411716172193
1.176411716172193
1.176411716172193
1.176411716172193
1.176411716172193
1.176411716172194
1.176411716172194
1.176411716172195
1.176411716172195
1.176411716172193
1.176411716172193
1.176411716172193
1.176411716172192
1.176411716172192
1.176411716172192
1.176411716172192
1.176411716172192
1.176411716172192
1.176411716172192
1.176411716172191
1.176411716172191
1.176411716172191
1.176411716172191
1.176411716172191
1.17641171617219
1.176411716172189
1.176411716172189
1.176411716172189
1.176411716172191
1.176411716172193
1.176411716172193
1.176411716172194
1.176411716172194
1.176411716172194
1.176411716172194
1.176411716172194
1.176411716172194
1.176411716172194
1.176411716172194
1.176411716172193
1.176411716172193
1.176411716172192
1.176411716172191
1.176411716172192
1.176411716172192
1.176411716172193
1.176411716172193
1.176411716172194
1.176411716172194
1.176411716172195
1.176411716172195
1.176411716172195
1.176411716172195
1.176411716172195
1.176411716172194
1.176411716172193
1.176411716172193
1.176411716172194
1.176411716172194
1.176411716172194
1.176411716172195
1.176411716172194
1.176411716172194
1.176411716172193
1.176411716172193
1.176411716172194
1.176411716172194
1.176411716172195
1.176411716172194
1.176411716172194
1.176411716172194
1.176411716172194
1.176411716172194
1.176411716172195
1.176411716172196
1.176411716172196
1.176411716172196
1.176411716172195
1.176411716172195
1.176411716172195
1.176411716172194
1.176411716172195
1.176411716172195
1.176411716172195
1.176411716172196
1.176411716172197
1.176411716172197
1.176411716172197
1.176411716172197
1.176411716172197
1.176411716172197
1.176411716172197
1.176411716172197
1.176411716172196
1.176411716172196
1.176411716172195
1.176411716172194
1.176411716172193
1.176411716172192
1.176411716172192
1.176411716172192
1.176411716172192
1.176411716172193
1.176411716172193
1.176411716172193
1.176411716172193
1.176411716172193
1.176411716172193
1.176411716172193
1.176411716172193
1.176411716172193
1.176411716172193
1.176411716172194
1.176411716172194
1.176411716172194
1.176411716172193
1.176411716172193
1.176411716172193
1.176411716172193
1.176411716172194
1.176411716172195
1.176411716172196
1.176411716172196
1.176411716172196
1.176411716172196
1.176411716172196
1.176411716172196
1.176411716172196
1.176411716172196
1.176411716172196
1.176411716172197
1.176411716172196
1.176411716172196
1.176411716172197
1.176411716172197
1.176411716172197
1.176411716172197
1.176411716172197
1.176411716172197
1.176411716172196
1.176411716172196
1.176411716172196
1.176411716172196
1.176411716172196
1.176411716172196
1.176411716172196
1.176411716172196
1.176411716172196
1.176411716172195
1.176411716172196
1.176411716172196
1.176411716172196
1.176411716172196
1.176411716172196
1.176411716172196
1.176411716172197
1.176411716172197
1.176411716172197
1.176411716172198
1.176411716172198
1.176411716172198
1.176411716172197
1.176411716172197
1.176411716172197
1.176411716172196
1.176411716172196
1.176411716172196
1.176411716172197
1.176411716172197
1.176411716172196
1.176411716172196
1.176411716172196
1.176411716172196
1.176411716172196
1.176411716172196
1.176411716172195
1.176411716172195
1.176411716172195
1.176411716172195
1.176411716172195
1.176411716172195
1.176411716172196
1.176411716172195
1.176411716172195
1.176411716172195
1.176411716172195
1.176411716172196
1.176411716172196
1.176411716172197
1.176411716172197
1.176411716172197
1.176411716172197
1.176411716172197
1.176411716172197
1.176411716172197
1.176411716172197
1.176411716172196
1.176411716172197
1.176411716172197
1.176411716172197
1.176411716172197
1.176411716172197
1.176411716172197
1.176411716172197
1.176411716172197
1.176411716172197
1.176411716172197
1.176411716172197
1.176411716172196
1.176411716172196
1.176411716172195
1.176411716172196
1.176411716172196
1.176411716172196
1.176411716172196
1.176411716172196
1.176411716172195
1.176411716172196
1.176411716172196
1.176411716172196
1.176411716172196
1.176411716172196
1.176411716172196
1.176411716172196
1.176411716172196
1.176411716172196
1.176411716172196
1.176411716172196
1.176411716172197
1.176411716172197
1.176411716172197
1.176411716172197
1.176411716172197
1.176411716172197
1.176411716172197
1.176411716172197
1.176411716172197
1.176411716172197
1.176411716172197
1.176411716172197
1.176411716172198
1.176411716172197
1.176411716172197
1.176411716172197
1.176411716172197
1.176411716172196
1.176411716172196
1.176411716172196
1.176411716172196
1.176411716172196
1.176411716172196
1.176411716172195
1.176411716172195
1.176411716172195
1.176411716172195
1.176411716172195
1.176411716172195
1.176411716172196
1.176411716172195
1.176411716172194
1.176411716172195
1.176411716172195
1.176411716172195
1.176411716172195
1.176411716172196
1.176411716172197
1.176411716172197
1.176411716172197
1.176411716172197
1.176411716172197
1.176411716172197
1.176411716172197
1.176411716172198
1.176411716172197
1.176411716172197
1.176411716172196
1.176411716172196
1.176411716172196
1.176411716172196
1.176411716172195
1.176411716172195
1.176411716172195
1.176411716172195
1.176411716172195
1.176411716172195
1.176411716172195
1.176411716172196
1.176411716172196
1.176411716172196
1.176411716172195
1.176411716172195
1.176411716172195
1.176411716172195
1.176411716172195
1.176411716172196
1.176411716172196
1.176411716172196
1.176411716172195
1.176411716172195
1.176411716172195
1.176411716172196
1.176411716172197
1.176411716172197
1.176411716172197
1.176411716172198
1.176411716172198
1.176411716172197
1.176411716172197
1.176411716172197
1.176411716172197
1.176411716172196
1.176411716172196
1.176411716172196
1.176411716172196
1.176411716172197
1.176411716172197
1.176411716172197
1.176411716172197
1.176411716172197
1.176411716172197
1.176411716172197
1.176411716172197
1.176411716172198
1.176411716172198
1.176411716172198
1.176411716172197
1.176411716172197
1.176411716172196
1.176411716172196
1.176411716172196
1.176411716172196
1.176411716172196
1.176411716172197
1.176411716172197
1.176411716172197
1.176411716172196
1.176411716172197
1.176411716172197
1.176411716172197
1.176411716172197
1.176411716172197
1.176411716172197
1.176411716172196
1.176411716172196
1.176411716172195
1.176411716172194
1.176411716172194
1.176411716172194
1.176411716172194
1.176411716172195
1.176411716172195
1.176411716172195
1.176411716172194
1.176411716172194
1.176411716172195
1.176411716172194
1.176411716172194
1.176411716172194
1.176411716172195
1.176411716172195
1.176411716172196
1.176411716172195
1.176411716172195
1.176411716172196
1.176411716172196
1.176411716172196
1.176411716172196
1.176411716172196
1.176411716172196
1.176411716172197
1.176411716172196
1.176411716172196
1.176411716172196
1.176411716172197
1.176411716172197
1.176411716172197
1.176411716172197
1.176411716172197
1.176411716172197
1.176411716172197
1.176411716172196
1.176411716172195
1.176411716172196
1.176411716172196
1.176411716172196
1.176411716172196
1.176411716172196
1.176411716172196
1.176411716172196
1.176411716172196
1.176411716172196
1.176411716172195
1.176411716172195
1.176411716172195
1.176411716172195
1.176411716172195
1.176411716172195
1.176411716172194
1.176411716172195
1.176411716172195
1.176411716172195
1.176411716172194
1.176411716172194
1.176411716172194
1.176411716172194
1.176411716172193
1.176411716172194
1.176411716172195
1.176411716172195
1.176411716172196
1.176411716172197
1.176411716172197
1.176411716172197
1.176411716172197
1.176411716172198
1.176411716172197
1.176411716172197
1.176411716172197
1.176411716172198
1.176411716172199
1.176411716172199
1.176411716172199
1.1764117161722
1.176411716172199
1.176411716172199
1.176411716172199
1.176411716172199
1.176411716172199
1.176411716172199
1.176411716172199
1.176411716172199
1.176411716172199
1.176411716172199
1.176411716172199
1.176411716172198
1.176411716172198
1.176411716172199
1.176411716172199
1.176411716172199
1.1764117161722
1.176411716172201
1.176411716172203
1.176411716172204
1.176411716172204
1.176411716172205
1.176411716172205
1.176411716172205
1.176411716172205
1.176411716172205
1.176411716172205
1.176411716172205
1.176411716172205
1.176411716172205
1.176411716172204
1.176411716172203
1.176411716172203
1.176411716172203
1.176411716172202
1.176411716172202
1.176411716172203
1.176411716172202
1.176411716172201
1.1764117161722
1.176411716172199
1.176411716172199
1.176411716172199
1.176411716172199
1.176411716172199
1.176411716172199
1.176411716172199
1.176411716172199
1.176411716172199
1.176411716172199
1.176411716172199
1.1764117161722
1.1764117161722
1.1764117161722
1.176411716172201
1.176411716172201
1.1764117161722
1.1764117161722
1.1764117161722
1.1764117161722
1.1764117161722
1.1764117161722
1.176411716172201
1.176411716172201
1.176411716172201
1.176411716172201
1.176411716172202
1.176411716172203
1.176411716172203
1.176411716172202
1.176411716172202
1.176411716172202
1.176411716172202
1.176411716172202
1.176411716172202
1.176411716172201
1.1764117161722
1.1764117161722
1.1764117161722
1.1764117161722
1.1764117161722
1.176411716172199
1.1764117161722
1.1764117161722
1.1764117161722
1.1764117161722
1.1764117161722
1.1764117161722
1.1764117161722
1.1764117161722
1.1764117161722
1.1764117161722
1.1764117161722
1.1764117161722
1.176411716172201
1.176411716172202
1.176411716172202
1.176411716172202
1.176411716172202
1.176411716172201
1.1764117161722
1.176411716172199
1.176411716172198
1.176411716172198
1.176411716172199
1.176411716172199
1.176411716172199
1.176411716172199
1.176411716172199
1.176411716172199
1.176411716172199
1.176411716172199
1.176411716172199
1.176411716172199
1.176411716172199
1.176411716172199
1.176411716172199
1.176411716172199
1.176411716172199
1.176411716172199
1.176411716172199
1.176411716172199
1.176411716172199
1.176411716172199
1.176411716172199
1.176411716172199
1.176411716172199
1.176411716172198
1.176411716172199
1.176411716172199
1.176411716172199
1.176411716172199
1.176411716172198
1.176411716172198
1.176411716172198
1.176411716172199
1.1764117161722
1.1764117161722
1.1764117161722
1.1764117161722
1.1764117161722
1.176411716172201
1.176411716172201
1.176411716172201
1.176411716172202
1.176411716172202
1.176411716172202
1.176411716172201
)
;

boundaryField
{
    inlet
    {
        type            calculated;
        value           uniform 1.176411716172193;
    }
    outlet
    {
        type            calculated;
        value           uniform 1.176411716172207;
    }
    frontAndBack
    {
        type            empty;
    }
}


// ************************************************************************* //
