/*--------------------------------*- C++ -*----------------------------------*\
| =========                 |                                                 |
| \\      /  F ield         | OpenFOAM: The Open Source CFD Toolbox           |
|  \\    /   O peration     | Version:  v2012                                 |
|   \\  /    A nd           | Website:  www.openfoam.com                      |
|    \\/     M anipulation  |                                                 |
\*---------------------------------------------------------------------------*/
FoamFile
{
    version     2.0;
    format      ascii;
    class       volScalarField;
    location    "0.002";
    object      T;
}
// * * * * * * * * * * * * * * * * * * * * * * * * * * * * * * * * * * * * * //

dimensions      [0 0 0 1 0 0 0];


internalField   nonuniform List<scalar> 
1000
(
299.9888463114129
299.9906737814666
299.9843081399263
299.9795490476383
299.9748348108686
299.9707276961291
299.9670826780301
299.9636329127707
299.9602685261237
299.9582468889039
299.9578706534558
299.9578275619462
299.9580345171096
299.9585721773605
299.959937771783
299.9623664829498
299.9657507950989
299.9697967725987
299.9743069693585
299.9792063180637
299.9844693424091
299.9900704479457
299.9959385629756
300.0019498294917
300.0079495119742
300.0137031387519
300.018946883709
300.0238297192058
300.0291885703573
300.0356758632882
300.0407672495048
300.0420357135126
300.0420509368857
300.0419962268583
300.0419771235369
300.0420258118503
300.0419030929722
300.0414106929688
300.0401561778285
300.0377089379901
300.0337693484653
300.0285498528332
300.0227602421262
300.0169988506137
300.0112975201762
300.0053380762207
299.9990038908596
299.9927696699892
299.9872269624984
299.9819896071622
299.9754957493363
299.9666278005937
299.9595497776058
299.9578744021967
299.9577305633191
299.9577503069242
299.9578477282403
299.9579543309134
299.9580205916145
299.9580422030646
299.9582139410922
299.9587696400527
299.9600538309674
299.9625824951024
299.9669157219129
299.9731682259812
299.9805983343206
299.9880591001821
299.9948109999052
300.0006293357281
300.0056763478255
300.0107289072047
300.0174925744017
300.027965156453
300.0385631393062
300.0419722296618
300.0421538264742
300.0421497494355
300.042147367382
300.0421369252006
300.0421148514308
300.0420771601724
300.0420080589013
300.0418799687065
300.0416287064177
300.041075446733
300.0398523250607
300.037346193179
300.0326942567276
300.0250921726877
300.0150420570802
300.0055066424273
299.9989686305153
299.9943658756265
299.9891055217938
299.9799998710158
299.9666419867872
299.958784193043
299.9578459970974
299.9578293068836
299.957833945829
299.9578293646089
299.9578319420664
299.9578510108509
299.9578860221745
299.9579307778428
299.9579893234062
299.9581120665359
299.9584023505357
299.9590592444542
299.9604838449314
299.9634716459765
299.9693572354041
299.9792008560854
299.9910338065525
300.0003838711331
300.0067573287909
300.01328292344
300.023518408594
300.0361621316089
300.0416916344911
300.0421262828141
300.0421297668528
300.0421302335146
300.0421258143704
300.0421170245185
300.0421060464167
300.0420932346536
300.0420745053133
300.0420428503084
300.041984236658
300.0418547178397
300.0415524029888
300.0408591027348
300.0392930419431
300.0359044193413
300.0294120775114
300.0194300107097
300.0074420771713
299.994331375057
299.9788971828846
299.9641133504795
299.9583221496747
299.9578563344143
299.9578514795428
299.9578524985876
299.9578542332374
299.9578565923302
299.9578608714282
299.9578658666932
299.9578714351061
299.9578814102609
299.9579011220019
299.9579359319011
299.958005996047
299.9581730017219
299.9585684392439
299.9594675343858
299.9613781722973
299.9650515582468
299.9716343731699
299.9836599308838
300.0052581986486
300.0308599693595
300.0413256194188
300.0421071423399
300.0421130978175
300.0421142242042
300.0421114983122
300.0421078335918
300.04210732806
300.0421097344943
300.0421079421844
300.0421018892441
300.0420944025847
300.0420927486998
300.0420800048494
300.0420413105667
300.0419652655474
300.0417993962404
300.0414316995947
300.0406431034571
300.0388365806623
300.0341358369629
300.0213158455549
299.9934497199565
299.965239689676
299.9581044133249
299.9578637812209
299.9578614299966
299.9578649747132
299.9578685874833
299.9578690837366
299.9578713491279
299.9578761691637
299.9578809067354
299.9578801346939
299.9578804079167
299.9578873393403
299.9578983894642
299.9579060883253
299.9579469573274
299.95804456962
299.9582337452156
299.9587135122232
299.9600443197681
299.9639188693478
299.9755199593419
300.0027160705492
300.0330449313082
300.0417709162288
300.0421190979171
300.0421229599299
300.0421286735718
300.0421217961724
300.0421099956155
300.0421041666831
300.0421144408292
300.0421110807
300.0420863423133
300.042074615865
300.0421095206524
300.0420939133622
300.0420068255332
300.0419618909187
300.0420918764828
300.0418963840533
300.0413555192088
300.0409187036945
300.0375960550065
300.0275426404642
300.0017092864983
299.9693613083998
299.9583515583635
299.9577982800157
299.9578018514167
299.9577922552161
299.9578041809466
299.9578575159254
299.9579178965608
299.9578886162737
299.9578126682858
299.9578710369576
299.9580057341087
299.9579768878328
299.9577669897531
299.9579544386909
299.9583630457842
299.9585191137724
299.9583643862834
299.9589571942496
299.9604936378274
299.9622387361192
299.9701686749567
299.9910147526955
300.024117436364
300.0408672002118
300.0424073753705
300.0424770475832
300.042390513995
300.0422485964078
300.0421865351847
300.0422044797737
300.0421437725797
300.0420120103615
300.0419237976193
300.0419976519009
300.0419116033252
300.0416693305944
300.0414290681425
300.0412887449602
300.0399137714145
300.0362601161473
300.025724293901
300.009037027392
300.0007198554828
300.0000050713727
300.0000000011485
300.0000000000007
300.0000000000008
300.0000000000008
300.0000000000009
300.0000000000009
300.0000000000009
300.0000000000009
300.0000000000008
300.0000000000007
300.0000000000007
300.0000000000007
300.0000000000006
300.0000000000005
300.0000000000006
300.0000000000007
300.0000000000007
300.0000000000007
300.0000000000007
300.0000000000009
300.000000000001
300.0000000000011
300.0000000000011
300.000000000001
300.000000000001
300.000000000001
300.000000000001
300.000000000001
300.000000000001
300.0000000000008
300.0000000000008
300.0000000000009
300.000000000001
300.0000000000009
300.0000000000007
300.0000000000006
300.0000000000006
300.0000000000006
300.0000000000006
300.0000000000007
300.0000000000007
300.0000000000007
300.0000000000007
300.0000000000006
300.0000000000005
300.0000000000006
300.0000000000007
300.0000000000007
300.0000000000007
300.0000000000007
300.0000000000006
300.0000000000005
300.0000000000004
300.0000000000003
300.0000000000004
300.0000000000005
300.0000000000005
300.0000000000005
300.0000000000005
300.0000000000005
300.0000000000005
300.0000000000005
300.0000000000005
300.0000000000006
300.0000000000007
300.0000000000006
300.0000000000005
300.0000000000005
300.0000000000005
300.0000000000005
300.0000000000003
300.0000000000004
300.0000000000004
300.0000000000003
300.0000000000005
300.0000000000006
300.0000000000006
300.0000000000006
300.0000000000006
300.0000000000006
300.0000000000006
300.0000000000006
300.0000000000006
300.0000000000006
300.0000000000006
300.0000000000006
300.0000000000005
300.0000000000005
300.0000000000005
300.0000000000005
300.0000000000005
300.0000000000006
300.0000000000006
300.0000000000006
300.0000000000006
300.0000000000006
300.0000000000006
300.0000000000006
300.0000000000006
300.0000000000005
300.0000000000006
300.0000000000007
300.0000000000007
300.0000000000008
300.0000000000009
300.0000000000008
300.0000000000008
300.0000000000007
300.0000000000006
300.0000000000005
300.0000000000005
300.0000000000005
300.0000000000004
300.0000000000005
300.0000000000006
300.0000000000007
300.0000000000008
300.0000000000009
300.0000000000008
300.0000000000009
300.0000000000008
300.0000000000008
300.0000000000007
300.0000000000007
300.0000000000009
300.000000000001
300.0000000000009
300.0000000000007
300.0000000000006
300.0000000000005
300.0000000000005
300.0000000000005
300.0000000000005
300.0000000000004
300.0000000000006
300.0000000000005
300.0000000000005
300.0000000000003
300.0000000000003
300.0000000000003
300.0000000000003
300.0000000000003
300.0000000000005
300.0000000000007
300.0000000000007
300.0000000000006
300.0000000000007
300.0000000000006
300.0000000000005
300.0000000000005
300.0000000000006
300.0000000000007
300.0000000000007
300.0000000000007
300.0000000000006
300.0000000000005
300.0000000000003
300.0000000000005
300.0000000000006
300.0000000000009
300.0000000000009
300.0000000000008
300.0000000000007
300.0000000000007
300.0000000000008
300.0000000000008
300.0000000000007
300.0000000000007
300.0000000000005
300.0000000000003
300.0000000000002
300.0000000000001
300.0000000000001
300
300.0000000000001
300.0000000000002
300.0000000000003
300.0000000000003
300.0000000000003
300.0000000000002
300.0000000000004
300.0000000000006
300.0000000000006
300.0000000000006
300.0000000000006
300.0000000000006
300.0000000000007
300.0000000000007
300.0000000000006
300.0000000000007
300.0000000000007
300.0000000000006
300.0000000000006
300.0000000000006
300.0000000000007
300.0000000000008
300.0000000000006
300.0000000000006
300.0000000000007
300.0000000000008
300.0000000000008
300.0000000000009
300.0000000000009
300.0000000000011
300.0000000000012
300.0000000000014
300.0000000000015
300.0000000000015
300.0000000000014
300.0000000000014
300.0000000000013
300.0000000000012
300.0000000000011
300.0000000000012
300.0000000000013
300.0000000000014
300.0000000000015
300.0000000000013
300.0000000000011
300.0000000000011
300.000000000001
300.0000000000011
300.0000000000012
300.0000000000012
300.0000000000011
300.000000000001
300.000000000001
300.000000000001
300.000000000001
300.0000000000009
300.0000000000009
300.000000000001
300.0000000000012
300.0000000000014
300.0000000000014
300.0000000000014
300.0000000000014
300.0000000000013
300.0000000000013
300.0000000000014
300.0000000000013
300.0000000000013
300.0000000000013
300.0000000000011
300.000000000001
300.0000000000011
300.0000000000012
300.0000000000012
300.0000000000011
300.000000000001
300.0000000000008
300.0000000000008
300.0000000000006
300.0000000000006
300.0000000000006
300.0000000000006
300.0000000000007
300.0000000000007
300.0000000000007
300.0000000000006
300.0000000000006
300.0000000000006
300.0000000000006
300.0000000000005
300.0000000000004
300.0000000000005
300.0000000000005
300.0000000000006
300.0000000000007
300.0000000000008
300.0000000000009
300.0000000000009
300.0000000000007
300.0000000000006
300.0000000000006
300.0000000000006
300.0000000000006
300.0000000000005
300.0000000000003
300.0000000000004
300.0000000000004
300.0000000000005
300.0000000000007
300.0000000000006
300.0000000000006
300.0000000000006
300.0000000000007
300.0000000000006
300.0000000000006
300.0000000000006
300.0000000000006
300.0000000000006
300.0000000000006
300.0000000000006
300.0000000000007
300.0000000000006
300.0000000000006
300.0000000000006
300.0000000000005
300.0000000000005
300.0000000000005
300.0000000000005
300.0000000000005
300.0000000000005
300.0000000000005
300.0000000000005
300.0000000000006
300.0000000000007
300.0000000000006
300.0000000000006
300.0000000000006
300.0000000000007
300.0000000000006
300.0000000000006
300.0000000000007
300.0000000000007
300.0000000000007
300.0000000000007
300.0000000000007
300.0000000000007
300.0000000000007
300.0000000000007
300.0000000000007
300.0000000000007
300.0000000000007
300.0000000000007
300.0000000000008
300.0000000000009
300.0000000000009
300.0000000000008
300.0000000000007
300.0000000000006
300.0000000000006
300.0000000000008
300.0000000000009
300.000000000001
300.0000000000011
300.000000000001
300.000000000001
300.0000000000009
300.0000000000007
300.0000000000007
300.0000000000006
300.0000000000006
300.0000000000007
300.0000000000006
300.0000000000006
300.0000000000005
300.0000000000006
300.0000000000007
300.0000000000007
300.0000000000007
300.0000000000007
300.0000000000007
300.0000000000007
300.0000000000007
300.0000000000007
300.0000000000006
300.0000000000007
300.0000000000008
300.0000000000009
300.000000000001
300.0000000000009
300.0000000000007
300.0000000000006
300.0000000000007
300.0000000000006
300.0000000000005
300.0000000000006
300.0000000000007
300.0000000000007
300.0000000000007
300.0000000000007
300.0000000000006
300.0000000000006
300.0000000000006
300.0000000000005
300.0000000000006
300.0000000000005
300.0000000000006
300.0000000000007
300.0000000000008
300.0000000000007
300.0000000000006
300.0000000000006
300.0000000000007
300.0000000000007
300.0000000000007
300.0000000000007
300.0000000000007
300.0000000000007
300.0000000000007
300.0000000000006
300.0000000000007
300.0000000000007
300.0000000000008
300.0000000000007
300.0000000000007
300.0000000000006
300.0000000000007
300.0000000000008
300.000000000001
300.000000000001
300.0000000000009
300.0000000000009
300.0000000000007
300.0000000000007
300.0000000000007
300.0000000000007
300.0000000000007
300.0000000000007
300.0000000000006
300.0000000000006
300.0000000000006
300.0000000000006
300.0000000000006
300.0000000000006
300.0000000000005
300.0000000000006
300.0000000000005
300.0000000000005
300.0000000000006
300.0000000000007
300.0000000000008
300.0000000000007
300.0000000000006
300.0000000000007
300.0000000000007
300.000000000001
300.000000000001
300.000000000001
300.0000000000009
300.0000000000009
300.0000000000009
300.0000000000009
300.0000000000009
300.0000000000009
300.0000000000009
300.0000000000008
300.0000000000006
300.0000000000005
300.0000000000006
300.0000000000006
300.0000000000008
300.000000000001
300.000000000001
300.0000000000009
300.0000000000009
300.0000000000009
300.0000000000009
300.0000000000011
300.0000000000012
300.0000000000013
300.0000000000012
300.000000000001
300.0000000000009
300.0000000000009
300.0000000000007
300.0000000000007
300.0000000000007
300.0000000000007
300.0000000000006
300.0000000000006
300.0000000000006
300.0000000000006
300.0000000000006
300.0000000000006
300.0000000000006
300.0000000000007
300.0000000000007
300.0000000000009
300.000000000001
300.000000000001
300.000000000001
300.0000000000011
300.0000000000012
300.0000000000013
300.0000000000012
300.0000000000011
300.000000000001
300.000000000001
300.000000000001
300.0000000000009
300.0000000000007
300.0000000000007
300.0000000000006
300.0000000000006
300.0000000000005
300.0000000000006
300.0000000000006
300.0000000000007
300.0000000000006
300.0000000000006
300.0000000000006
300.0000000000006
300.0000000000007
300.0000000000009
300.0000000000009
300.0000000000008
300.0000000000008
300.0000000000007
300.0000000000008
300.0000000000007
300.0000000000007
300.0000000000007
300.0000000000009
300.0000000000007
300.0000000000007
300.0000000000006
300.0000000000006
300.0000000000006
300.0000000000007
300.0000000000008
300.0000000000008
300.0000000000007
300.0000000000006
300.0000000000006
300.0000000000005
300.0000000000005
300.0000000000005
300.0000000000005
300.0000000000005
300.0000000000005
300.0000000000005
300.0000000000005
300.0000000000006
300.0000000000007
300.0000000000006
300.0000000000006
300.0000000000006
300.0000000000005
300.0000000000005
300.0000000000006
300.0000000000006
300.0000000000006
300.0000000000006
300.0000000000006
300.0000000000006
300.0000000000006
300.0000000000006
300.0000000000005
300.0000000000005
300.0000000000005
300.0000000000004
300.0000000000005
300.0000000000004
300.0000000000003
300.0000000000003
300.0000000000004
300.0000000000003
300.0000000000004
300.0000000000003
300.0000000000002
300.0000000000004
300.0000000000006
300.0000000000006
300.0000000000006
300.0000000000006
300.0000000000007
300.0000000000007
300.0000000000008
300.0000000000009
300.000000000001
300.0000000000009
300.0000000000007
300.0000000000006
300.0000000000007
300.0000000000009
300.000000000001
300.0000000000011
300.0000000000011
300.000000000001
300.0000000000009
300.0000000000009
300.000000000001
300.000000000001
300.000000000001
300.000000000001
300.000000000001
300.0000000000009
300.000000000001
300.0000000000011
300.0000000000011
300.0000000000011
300.0000000000011
300.0000000000011
300.0000000000012
300.0000000000012
300.0000000000012
300.000000000001
300.0000000000009
300.000000000001
300.0000000000011
300.0000000000012
300.0000000000014
300.0000000000014
300.0000000000015
300.0000000000016
300.0000000000018
300.0000000000019
300.0000000000018
300.0000000000019
300.0000000000018
300.0000000000019
300.000000000002
300.0000000000021
300.0000000000019
300.0000000000018
300.0000000000016
300.0000000000015
300.0000000000015
300.0000000000016
300.0000000000016
300.0000000000016
300.0000000000015
300.0000000000015
300.0000000000015
300.0000000000014
300.0000000000014
300.0000000000014
300.0000000000015
300.0000000000015
300.0000000000016
300.0000000000016
300.0000000000016
300.0000000000015
300.0000000000015
300.0000000000014
300.0000000000014
300.0000000000014
300.0000000000015
300.0000000000014
300.0000000000015
300.0000000000016
300.0000000000015
300.0000000000015
300.0000000000015
300.0000000000015
300.0000000000015
300.0000000000015
300.0000000000015
300.0000000000015
300.0000000000016
300.0000000000015
300.0000000000016
300.0000000000016
300.0000000000016
300.0000000000016
300.0000000000016
300.0000000000015
300.0000000000015
300.0000000000014
300.0000000000014
300.0000000000013
300.0000000000013
300.0000000000013
300.0000000000013
300.0000000000014
300.0000000000014
300.0000000000014
300.0000000000014
300.0000000000014
300.0000000000014
300.0000000000014
300.0000000000014
300.0000000000014
300.0000000000014
300.0000000000014
300.0000000000015
300.0000000000014
300.0000000000013
300.0000000000011
300.0000000000011
300.000000000001
300.000000000001
300.0000000000011
300.0000000000013
300.0000000000014
300.0000000000014
300.0000000000013
300.0000000000014
300.0000000000013
300.0000000000013
300.0000000000013
300.0000000000013
300.0000000000012
300.0000000000013
300.0000000000013
300.0000000000012
300.0000000000012
300.0000000000012
300.0000000000012
300.0000000000012
300.0000000000012
300.0000000000012
300.0000000000012
300.0000000000013
300.0000000000013
300.0000000000013
300.0000000000012
300.0000000000012
300.0000000000012
300.0000000000014
300.0000000000013
300.0000000000013
300.0000000000014
300.0000000000012
300.0000000000013
300.0000000000013
300.0000000000013
300.0000000000013
300.0000000000013
300.0000000000013
300.0000000000013
300.0000000000012
300.0000000000012
300.0000000000013
300.0000000000014
300.0000000000014
300.0000000000015
300.0000000000015
300.0000000000015
300.0000000000015
)
;

boundaryField
{
    inlet
    {
        type            fixedValue;
        value           uniform 300;
    }
    outlet
    {
        type            inletOutlet;
        inletValue      uniform 300;
        value           uniform 300;
    }
    frontAndBack
    {
        type            empty;
    }
}


// ************************************************************************* //
