/*--------------------------------*- C++ -*----------------------------------*\
| =========                 |                                                 |
| \\      /  F ield         | OpenFOAM: The Open Source CFD Toolbox           |
|  \\    /   O peration     | Version:  v2012                                 |
|   \\  /    A nd           | Website:  www.openfoam.com                      |
|    \\/     M anipulation  |                                                 |
\*---------------------------------------------------------------------------*/
FoamFile
{
    version     2.0;
    format      ascii;
    class       volVectorField;
    location    "0.002";
    object      U;
}
// * * * * * * * * * * * * * * * * * * * * * * * * * * * * * * * * * * * * * //

dimensions      [0 1 -1 0 0 0 0];


internalField   nonuniform List<vector> 
1000
(
(-0.0009584452103388463 0 0)
(-0.0329194285111197 0 0)
(-0.04111928627104357 0 0)
(-0.0566248364652066 0 0)
(-0.07109538858943014 0 0)
(-0.08451738785280567 0 0)
(-0.09551945376128276 0 0)
(-0.1053716481605195 0 0)
(-0.1150973210638224 0 0)
(-0.12098871810988 0 0)
(-0.1219880060759417 0 0)
(-0.1218189115042987 0 0)
(-0.1215183702873597 0 0)
(-0.1198591319780632 0 0)
(-0.1158959299376798 0 0)
(-0.1088062527815388 0 0)
(-0.09896874054295096 0 0)
(-0.08728998345807006 0 0)
(-0.07432535977766694 0 0)
(-0.06017613154463704 0 0)
(-0.04487314692941665 0 0)
(-0.02862922714228238 0 0)
(-0.0117563503964855 0 0)
(0.005519953662419456 0 0)
(0.02293759110723254 0 0)
(0.03976613980034323 0 0)
(0.05503917286414239 0 0)
(0.06908079862557073 0 0)
(0.08435297222991343 0 0)
(0.1029106697285828 0 0)
(0.1176123422538595 0 0)
(0.1215024363309502 0 0)
(0.1218787131368046 0 0)
(0.1220691696476784 0 0)
(0.1218385102506963 0 0)
(0.1213313405638025 0 0)
(0.1207147634005758 0 0)
(0.1193233604149108 0 0)
(0.116074305927409 0 0)
(0.1093859139850854 0 0)
(0.09816086912794816 0 0)
(0.08293155542067172 0 0)
(0.06585160853962171 0 0)
(0.04885736078668265 0 0)
(0.03224555464430282 0 0)
(0.01519402944370439 0 0)
(-0.002741235147700655 0 0)
(-0.02046883242875074 0 0)
(-0.03652012548266472 0 0)
(-0.05202595511310303 0 0)
(-0.07122055937349508 0 0)
(-0.09697276890508166 0 0)
(-0.1171780815686178 0 0)
(-0.1216327360842089 0 0)
(-0.1218592507511995 0 0)
(-0.1218169630609937 0 0)
(-0.1219515376071107 0 0)
(-0.1220017497150975 0 0)
(-0.121840265898914 0 0)
(-0.1213658448820032 0 0)
(-0.1205426193766646 0 0)
(-0.1189255812259069 0 0)
(-0.1154467464681628 0 0)
(-0.1083708332384492 0 0)
(-0.0959112201113083 0 0)
(-0.07773688719846306 0 0)
(-0.0560970203744985 0 0)
(-0.03441399083414654 0 0)
(-0.01487048510899497 0 0)
(0.001904601075690872 0 0)
(0.01643131813603478 0 0)
(0.03099743580972131 0 0)
(0.05054458717876514 0 0)
(0.08084159154234354 0 0)
(0.1115355867911497 0 0)
(0.1214337871136029 0 0)
(0.1219880153553936 0 0)
(0.1220078347903196 0 0)
(0.1219609490059148 0 0)
(0.1218619621840231 0 0)
(0.1217367388581389 0 0)
(0.121622303723373 0 0)
(0.1215073309886622 0 0)
(0.1212552076774338 0 0)
(0.1205506666186856 0 0)
(0.1188419644850761 0 0)
(0.1151764015691575 0 0)
(0.1079132355290949 0 0)
(0.0945624634405617 0 0)
(0.07268193226004088 0 0)
(0.04362442389636891 0 0)
(0.01596101135976053 0 0)
(-0.00304978638493769 0 0)
(-0.01639632113903041 0 0)
(-0.03152224923656966 0 0)
(-0.05776378239404058 0 0)
(-0.0963790465010359 0 0)
(-0.1191674829557946 0 0)
(-0.1219716993049914 0 0)
(-0.1220664158022076 0 0)
(-0.1220365462693846 0 0)
(-0.121956086208603 0 0)
(-0.1218699427673735 0 0)
(-0.1218307912661109 0 0)
(-0.1218144355001849 0 0)
(-0.1217524416403964 0 0)
(-0.1215629838077847 0 0)
(-0.1211489433163605 0 0)
(-0.120276046186859 0 0)
(-0.1183814956429855 0 0)
(-0.1142865870105604 0 0)
(-0.1056681191098178 0 0)
(-0.08864994193642391 0 0)
(-0.06016276864921702 0 0)
(-0.02591360673580434 0 0)
(0.001144500974379555 0 0)
(0.01957442188796788 0 0)
(0.03842863920115044 0 0)
(0.06802408659549353 0 0)
(0.1045963217766781 0 0)
(0.120600144412096 0 0)
(0.1218674280216478 0 0)
(0.1218805609044649 0 0)
(0.1218716440115735 0 0)
(0.1218577904548145 0 0)
(0.1218324678425451 0 0)
(0.1217984147282518 0 0)
(0.1217601111749152 0 0)
(0.1217141649650723 0 0)
(0.1216345511385897 0 0)
(0.121456095053518 0 0)
(0.1210631311458484 0 0)
(0.1201943385590356 0 0)
(0.118207105633294 0 0)
(0.1136763654050938 0 0)
(0.1038641725777931 0 0)
(0.08508569995469159 0 0)
(0.05622112346093333 0 0)
(0.02154910959879447 0 0)
(-0.01638097907224455 0 0)
(-0.06103352026445404 0 0)
(-0.1037959742296664 0 0)
(-0.1205398445568969 0 0)
(-0.1218828084318679 0 0)
(-0.1218976589821749 0 0)
(-0.1219002935946096 0 0)
(-0.1218979249349375 0 0)
(-0.1218919414534734 0 0)
(-0.1218842257108979 0 0)
(-0.1218679431187683 0 0)
(-0.1218407716837762 0 0)
(-0.1218074486351138 0 0)
(-0.1217644351165355 0 0)
(-0.1216718015613607 0 0)
(-0.1214536660752592 0 0)
(-0.1209655297676306 0 0)
(-0.1198360125342108 0 0)
(-0.117242749388339 0 0)
(-0.1117076686791926 0 0)
(-0.1010724698426723 0 0)
(-0.08203403033716936 0 0)
(-0.04725945898690763 0 0)
(0.01521230804479948 0 0)
(0.08926821962225454 0 0)
(0.1195431203355236 0 0)
(0.1218010162479928 0 0)
(0.1218124327319013 0 0)
(0.121809580084441 0 0)
(0.1218124550606717 0 0)
(0.1218147529003669 0 0)
(0.1218060253977962 0 0)
(0.1217904610820966 0 0)
(0.1217798318969221 0 0)
(0.12178560770673 0 0)
(0.1217792507542222 0 0)
(0.1217483316010858 0 0)
(0.121699303477004 0 0)
(0.1216160185361254 0 0)
(0.1213932560400334 0 0)
(0.120889618129987 0 0)
(0.1198411149759567 0 0)
(0.1175851933345707 0 0)
(0.1123348513187519 0 0)
(0.09872617332060399 0 0)
(0.06166389024997895 0 0)
(-0.01894564167438058 0 0)
(-0.1005558249271444 0 0)
(-0.121192562905402 0 0)
(-0.1218800185325093 0 0)
(-0.1218807023752424 0 0)
(-0.1218808732827396 0 0)
(-0.1218730110651676 0 0)
(-0.1218590997404958 0 0)
(-0.1218495787402268 0 0)
(-0.1218533400846277 0 0)
(-0.1218512821051652 0 0)
(-0.1218360872485962 0 0)
(-0.1218186356703245 0 0)
(-0.1218187884551658 0 0)
(-0.1218013611200388 0 0)
(-0.1217322332523203 0 0)
(-0.121634723664893 0 0)
(-0.1214112624558857 0 0)
(-0.1207991755700696 0 0)
(-0.1193706904975964 0 0)
(-0.1156372853302543 0 0)
(-0.1043455609305429 0 0)
(-0.07078734681121875 0 0)
(0.007843890103059459 0 0)
(0.09555948826903903 0 0)
(0.1208200671864409 0 0)
(0.1218444152503668 0 0)
(0.1218528248848693 0 0)
(0.1218296826790056 0 0)
(0.1218157222344023 0 0)
(0.1218288831250761 0 0)
(0.1218144057260081 0 0)
(0.1217705334570908 0 0)
(0.1217504434607099 0 0)
(0.1218067513676181 0 0)
(0.1217892314010268 0 0)
(0.1216574959335581 0 0)
(0.1215866140769955 0 0)
(0.1217796221025409 0 0)
(0.1216968769029771 0 0)
(0.1211544250873509 0 0)
(0.1207730479075753 0 0)
(0.1208176529648549 0 0)
(0.117405224274994 0 0)
(0.1092573152075123 0 0)
(0.07944473993741594 0 0)
(0.004903762484431263 0 0)
(-0.08851976298615749 0 0)
(-0.1203956264999014 0 0)
(-0.1221231788986706 0 0)
(-0.1222112849313967 0 0)
(-0.1220503085040137 0 0)
(-0.1218819573094334 0 0)
(-0.1219126554979578 0 0)
(-0.1219637539154215 0 0)
(-0.1218725025625799 0 0)
(-0.1216511602237921 0 0)
(-0.1217164494736899 0 0)
(-0.122044205807772 0 0)
(-0.1219006324034612 0 0)
(-0.1212407783704644 0 0)
(-0.1210903062973806 0 0)
(-0.1217313358741302 0 0)
(-0.1206790242542172 0 0)
(-0.1189068694773723 0 0)
(-0.1179594511987523 0 0)
(-0.116634798614758 0 0)
(-0.1076320846383841 0 0)
(-0.08668815678500315 0 0)
(-0.02618637054075637 0 0)
(0.06983768936575635 0 0)
(0.1184016696729688 0 0)
(0.1227036627597653 0 0)
(0.1226259672542134 0 0)
(0.1225167419603529 0 0)
(0.1224595578596157 0 0)
(0.1221583238152223 0 0)
(0.1218209987985324 0 0)
(0.1216516403255029 0 0)
(0.1218187662478956 0 0)
(0.1216212995541697 0 0)
(0.1211097410476376 0 0)
(0.1207329814695226 0 0)
(0.1209892665567465 0 0)
(0.1204185064192888 0 0)
(0.1184701820927367 0 0)
(0.1159257870463909 0 0)
(0.10477616952647 0 0)
(0.0744141330453129 0 0)
(0.02613908000138036 0 0)
(0.002082129292507641 0 0)
(1.466875049666345e-05 0 0)
(3.319242080286111e-09 0 0)
(-7.126231236117395e-13 0 0)
(-7.647662789978927e-13 0 0)
(-6.25717864634676e-13 0 0)
(-6.865515459186298e-13 0 0)
(-6.430989164300959e-13 0 0)
(-6.170273387369308e-13 0 0)
(-4.779789243737091e-13 0 0)
(-4.779789243736829e-13 0 0)
(-5.909557610438819e-13 0 0)
(-5.64884183350712e-13 0 0)
(-5.040505020668624e-13 0 0)
(-4.084547171920433e-13 0 0)
(-3.650020877035453e-13 0 0)
(-3.215494582150111e-13 0 0)
(-4.258357689874828e-13 0 0)
(-2.69406302828814e-13 0 0)
(-3.3893051001045e-13 0 0)
(-3.997641912943389e-13 0 0)
(-5.301220797600059e-13 0 0)
(-5.040505020667923e-13 0 0)
(-4.171452430898191e-13 0 0)
(-2.694063028288085e-13 0 0)
(-1.477389402609601e-13 0 0)
(1.738105179543776e-14 0 0)
(-7.821473307931084e-14 0 0)
(-2.4333472513567e-13 0 0)
(-3.563115618058773e-13 0 0)
(-2.694063028287797e-13 0 0)
(-2.52025251033416e-13 0 0)
(-2.085726215448744e-13 0 0)
(-9.559578487472737e-14 0 0)
(2.085409919783216e-26 0 0)
(-4.345262948849042e-14 0 0)
(1.564294661586865e-13 0 0)
(8.690525897706378e-14 0 0)
(3.47621035908246e-14 0 0)
(1.738105179541754e-14 0 0)
(9.55957848747573e-14 0 0)
(1.390484143632818e-13 0 0)
(1.738105179542116e-14 0 0)
(-8.690525897704263e-14 0 0)
(-1.998820956471558e-13 0 0)
(-2.780968287265195e-13 0 0)
(-2.433347251356512e-13 0 0)
(-3.215494582150293e-13 0 0)
(-5.475031315552899e-13 0 0)
(-7.386947013048715e-13 0 0)
(-6.952420718162955e-13 0 0)
(-8.082189084865172e-13 0 0)
(-8.255999602818161e-13 0 0)
(-9.472673228497928e-13 0 0)
(-8.951241674634837e-13 0 0)
(-7.126231236117489e-13 0 0)
(-5.909557610438655e-13 0 0)
(-4.171452430898037e-13 0 0)
(-4.51907346680586e-13 0 0)
(-4.519073466806122e-13 0 0)
(-4.866694502714057e-13 0 0)
(-5.127410279645317e-13 0 0)
(-4.779789243736964e-13 0 0)
(-4.692883984760155e-13 0 0)
(-4.866694502713838e-13 0 0)
(-5.388126056576593e-13 0 0)
(-4.953599761690986e-13 0 0)
(-4.953599761691196e-13 0 0)
(-4.084547171920756e-13 0 0)
(-3.215494582150274e-13 0 0)
(-1.911915697494559e-13 0 0)
(-1.042863107724209e-13 0 0)
(-2.867873546242232e-13 0 0)
(-3.389305100104363e-13 0 0)
(-4.084547171920938e-13 0 0)
(-4.432168207829283e-13 0 0)
(-3.82383139498983e-13 0 0)
(-2.520252510334205e-13 0 0)
(-2.520252510334007e-13 0 0)
(-1.651199920563849e-13 0 0)
(-2.607157769310138e-14 0 0)
(1.390484143632777e-13 0 0)
(1.65119992056391e-13 0 0)
(9.559578487474983e-14 0 0)
(1.651199920563873e-13 0 0)
(1.042863107724479e-13 0 0)
(1.738105179540463e-14 0 0)
(-7.821473307935216e-14 0 0)
(1.129768366701542e-13 0 0)
(1.390484143632656e-13 0 0)
(2.607157769311254e-13 0 0)
(3.128589323173471e-13 0 0)
(3.563115618058708e-13 0 0)
(4.953599761691216e-13 0 0)
(3.21549458215014e-13 0 0)
(2.694063028288244e-13 0 0)
(1.564294661586379e-13 0 0)
(1.998820956471431e-13 0 0)
(1.564294661586291e-13 0 0)
(9.559578487469063e-14 0 0)
(2.520252510333956e-13 0 0)
(4.345262948851862e-13 0 0)
(6.170273387369557e-13 0 0)
(4.171452430898061e-13 0 0)
(3.563115618058788e-13 0 0)
(2.607157769310928e-13 0 0)
(2.346441992380067e-13 0 0)
(1.911915697495065e-13 0 0)
(3.476210359084074e-14 0 0)
(-8.690525897683285e-15 0 0)
(1.477389402609873e-13 0 0)
(1.303578884655872e-13 0 0)
(1.042863107724673e-13 0 0)
(2.433347251357198e-13 0 0)
(1.303578884655507e-13 0 0)
(-6.952420718166796e-14 0 0)
(-2.69406302828867e-13 0 0)
(-3.21549458215095e-13 0 0)
(-3.563115618058733e-13 0 0)
(-3.823831394990044e-13 0 0)
(-3.476210359081865e-13 0 0)
(-4.084547171920683e-13 0 0)
(-3.389305100104731e-13 0 0)
(-3.215494582150538e-13 0 0)
(-1.911915697494948e-13 0 0)
(-1.129768366701526e-13 0 0)
(-2.259536733402749e-13 0 0)
(-2.433347251356942e-13 0 0)
(-2.607157769311116e-13 0 0)
(-5.214315538618865e-14 0 0)
(-1.129768366701525e-13 0 0)
(1.830884548802151e-26 0 0)
(-4.345262948849199e-14 0 0)
(5.214315538624137e-14 0 0)
(1.129768366701664e-13 0 0)
(2.172631474426059e-13 0 0)
(2.346441992380294e-13 0 0)
(3.128589323173273e-13 0 0)
(4.17145243089852e-13 0 0)
(4.866694502713963e-13 0 0)
(5.822652351461766e-13 0 0)
(6.86551545918629e-13 0 0)
(5.214315538622543e-13 0 0)
(5.127410279644929e-13 0 0)
(3.389305100104192e-13 0 0)
(3.650020877035218e-13 0 0)
(3.302399841127238e-13 0 0)
(3.73692613601229e-13 0 0)
(4.692883984759801e-13 0 0)
(5.301220797599042e-13 0 0)
(6.604799682255074e-13 0 0)
(7.213136495093837e-13 0 0)
(6.51789442327777e-13 0 0)
(6.691704941231646e-13 0 0)
(6.430989164301556e-13 0 0)
(5.822652351461152e-13 0 0)
(5.301220797599211e-13 0 0)
(4.171452430897667e-13 0 0)
(3.041684064195982e-13 0 0)
(2.607157769306184e-14 0 0)
(-1.825010438518402e-13 0 0)
(4.345262948846061e-14 0 0)
(7.821473307930443e-14 0 0)
(4.432168207828806e-13 0 0)
(4.258357689874726e-13 0 0)
(5.735747092484807e-13 0 0)
(5.388126056576662e-13 0 0)
(5.73574709248473e-13 0 0)
(5.822652351461554e-13 0 0)
(7.213136495093879e-13 0 0)
(9.038146933612859e-13 0 0)
(1.147149418496888e-12 0 0)
(1.329650462348724e-12 0 0)
(1.581675713382091e-12 0 0)
(1.468698876712069e-12 0 0)
(1.468698876711992e-12 0 0)
(1.407865195428048e-12 0 0)
(1.225364151576195e-12 0 0)
(1.103696789008495e-12 0 0)
(9.472673228496769e-13 0 0)
(7.995283825887058e-13 0 0)
(6.25717864634632e-13 0 0)
(-5.214315538630595e-14 0 0)
(-5.996462869416875e-13 0 0)
(-9.211957451566977e-13 0 0)
(-8.255999602819356e-13 0 0)
(-5.475031315554302e-13 0 0)
(-4.779789243737067e-13 0 0)
(-7.039325977139923e-13 0 0)
(-8.429810120772378e-13 0 0)
(-1.034172581826762e-12 0 0)
(-1.251435729269339e-12 0 0)
(-1.425246247223416e-12 0 0)
(-1.616437816973078e-12 0 0)
(-1.651199920563792e-12 0 0)
(-1.546913609791206e-12 0 0)
(-1.503460980302829e-12 0 0)
(-1.329650462348747e-12 0 0)
(-1.173220996189973e-12 0 0)
(-1.051553633622221e-12 0 0)
(-7.821473307933994e-13 0 0)
(-5.64884183350792e-13 0 0)
(-3.736926136012881e-13 0 0)
(-3.215494582150308e-13 0 0)
(-1.651199920563883e-13 0 0)
(-1.04286310772457e-13 0 0)
(-9.559578487474955e-14 0 0)
(-1.042863107724484e-13 0 0)
(-1.998820956471949e-13 0 0)
(-3.476210359080224e-14 0 0)
(8.690525897706084e-14 0 0)
(1.129768366701596e-13 0 0)
(2.172631474426235e-13 0 0)
(6.952420718164442e-14 0 0)
(-8.690525897710387e-15 0 0)
(-3.476210359082078e-14 0 0)
(-7.821473307933033e-14 0 0)
(-1.738105179540491e-14 0 0)
(-8.690525897703637e-14 0 0)
(-2.259536733402894e-13 0 0)
(-3.041684064196464e-13 0 0)
(-2.259536733403116e-13 0 0)
(-1.21667362567849e-13 0 0)
(-1.216673625678661e-13 0 0)
(-6.083368128392611e-14 0 0)
(-9.559578487474263e-14 0 0)
(-1.042863107724547e-13 0 0)
(-2.607157769311263e-13 0 0)
(-2.172631474426353e-13 0 0)
(-2.86787354624254e-13 0 0)
(-3.910736653966667e-13 0 0)
(-3.563115618058938e-13 0 0)
(-3.041684064196518e-13 0 0)
(-2.520252510334282e-13 0 0)
(-2.694063028288498e-13 0 0)
(-1.129768366701625e-13 0 0)
(-8.690525897706079e-14 0 0)
(-8.690525897705298e-14 0 0)
(-6.083368128392589e-14 0 0)
(-1.390484143632847e-13 0 0)
(-2.780968287265519e-13 0 0)
(-2.259536733403128e-13 0 0)
(-1.303578884655634e-13 0 0)
(-8.690525897693455e-15 0 0)
(2.607157769313224e-14 0 0)
(-5.214315538620344e-14 0 0)
(-9.559578487470094e-14 0 0)
(-2.259536733402405e-13 0 0)
(-3.910736653966067e-13 0 0)
(-4.519073466805254e-13 0 0)
(-6.083368128392346e-13 0 0)
(-8.429810120771849e-13 0 0)
(-1.095006263110719e-12 0 0)
(-1.155839944394632e-12 0 0)
(-1.068934685417496e-12 0 0)
(-9.907199523382605e-13 0 0)
(-9.559578487474372e-13 0 0)
(-9.211957451566236e-13 0 0)
(-8.951241674634894e-13 0 0)
(-1.025482055928967e-12 0 0)
(-1.025482055929052e-12 0 0)
(-1.042863107724479e-12 0 0)
(-1.086315737212906e-12 0 0)
(-1.08631573721302e-12 0 0)
(-9.820294264405581e-13 0 0)
(-9.298862710543607e-13 0 0)
(-1.077625211315288e-12 0 0)
(-1.138458892599113e-12 0 0)
(-1.034172581826816e-12 0 0)
(-1.0167915300314e-12 0 0)
(-9.646483746450569e-13 0 0)
(-9.211957451566185e-13 0 0)
(-7.647662789979772e-13 0 0)
(-5.996462869415689e-13 0 0)
(-5.040505020668182e-13 0 0)
(-5.475031315552821e-13 0 0)
(-6.170273387369967e-13 0 0)
(-7.126231236117032e-13 0 0)
(-6.170273387369323e-13 0 0)
(-5.475031315553273e-13 0 0)
(-6.517894423278084e-13 0 0)
(-6.170273387369533e-13 0 0)
(-7.126231236117369e-13 0 0)
(-8.690525897703208e-13 0 0)
(-7.908378566910768e-13 0 0)
(-6.691704941232042e-13 0 0)
(-6.517894423277545e-13 0 0)
(-5.822652351462301e-13 0 0)
(-6.344083905323366e-13 0 0)
(-6.083368128392581e-13 0 0)
(-6.344083905323742e-13 0 0)
(-4.953599761690473e-13 0 0)
(-5.388126056576314e-13 0 0)
(-4.692883984759795e-13 0 0)
(-5.996462869415928e-13 0 0)
(-6.952420718163154e-13 0 0)
(-6.604799682254715e-13 0 0)
(-7.300041754071186e-13 0 0)
(-6.691704941232247e-13 0 0)
(-5.561936574529874e-13 0 0)
(-4.171452430897753e-13 0 0)
(-3.215494582150124e-13 0 0)
(-3.476210359081547e-13 0 0)
(-2.520252510334037e-13 0 0)
(-2.259536733402659e-13 0 0)
(-1.39048414363254e-13 0 0)
(-1.564294661586667e-13 0 0)
(-1.738105179540742e-13 0 0)
(-1.651199920563856e-13 0 0)
(-1.998820956472115e-13 0 0)
(-1.998820956472052e-13 0 0)
(-8.690525897705501e-14 0 0)
(1.738105179540078e-14 0 0)
(-3.476210359081823e-14 0 0)
(3.476210359083112e-14 0 0)
(8.690525897726555e-15 0 0)
(-1.738105179537926e-14 0 0)
(-8.690525897701323e-14 0 0)
(-1.825010438517649e-13 0 0)
(-2.172631474425874e-13 0 0)
(-2.433347251356806e-13 0 0)
(-2.954778805219323e-13 0 0)
(-3.650020877035544e-13 0 0)
(-3.736926136012305e-13 0 0)
(-3.997641912943891e-13 0 0)
(-3.128589323173317e-13 0 0)
(-2.085726215448775e-13 0 0)
(-1.738105179540629e-13 0 0)
(-2.607157769308121e-14 0 0)
(-8.690525897702108e-14 0 0)
(-8.690525897701452e-14 0 0)
(-2.085726215448663e-13 0 0)
(-2.259536733403208e-13 0 0)
(-3.215494582150543e-13 0 0)
(-2.607157769311469e-13 0 0)
(-1.216673625678658e-13 0 0)
(2.607157769311243e-14 0 0)
(9.559578487473631e-14 0 0)
(1.042863107724466e-13 0 0)
(1.911915697494672e-13 0 0)
(1.825010438517812e-13 0 0)
(2.259536733402839e-13 0 0)
(5.214315538620177e-14 0 0)
(1.303578884655369e-13 0 0)
(3.041684064196111e-13 0 0)
(3.997641912943992e-13 0 0)
(5.127410279645364e-13 0 0)
(3.563115618058308e-13 0 0)
(5.127410279645271e-13 0 0)
(6.691704941232235e-13 0 0)
(5.99646286941597e-13 0 0)
(5.301220797599263e-13 0 0)
(5.388126056575937e-13 0 0)
(5.735747092484473e-13 0 0)
(4.258357689874981e-13 0 0)
(3.650020877035198e-13 0 0)
(3.823831394989478e-13 0 0)
(4.258357689874916e-13 0 0)
(6.083368128392734e-13 0 0)
(7.039325977140464e-13 0 0)
(5.996462869415295e-13 0 0)
(5.214315538622299e-13 0 0)
(5.561936574530713e-13 0 0)
(4.258357689874683e-13 0 0)
(5.040505020668219e-13 0 0)
(5.301220797599818e-13 0 0)
(5.127410279645417e-13 0 0)
(3.128589323173467e-13 0 0)
(3.041684064196041e-13 0 0)
(4.605978725783163e-13 0 0)
(4.953599761691468e-13 0 0)
(4.605978725782508e-13 0 0)
(2.86787354624228e-13 0 0)
(3.12858932317331e-13 0 0)
(3.563115618058717e-13 0 0)
(3.041684064196378e-13 0 0)
(3.128589323172889e-13 0 0)
(1.998820956471781e-13 0 0)
(2.172631474425845e-13 0 0)
(3.041684064196244e-13 0 0)
(3.910736653967032e-13 0 0)
(3.215494582150584e-13 0 0)
(1.303578884655573e-13 0 0)
(-9.559578487475782e-14 0 0)
(-1.73810517954092e-13 0 0)
(-1.651199920563997e-13 0 0)
(-1.390484143632848e-13 0 0)
(-1.129768366701569e-13 0 0)
(-5.214315538622659e-14 0 0)
(3.476210359082427e-14 0 0)
(2.607157769311664e-14 0 0)
(7.821473307934236e-14 0 0)
(7.821473307932331e-14 0 0)
(3.476210359082146e-14 0 0)
(2.607157769312814e-14 0 0)
(5.214315538624849e-14 0 0)
(7.821473307935423e-14 0 0)
(-8.690525897703768e-14 0 0)
(-8.690525897703932e-14 0 0)
(-2.520252510334257e-13 0 0)
(-1.998820956471792e-13 0 0)
(-2.43334725135707e-13 0 0)
(-2.085726215449128e-13 0 0)
(-7.821473307932113e-14 0 0)
(1.738105179542629e-14 0 0)
(1.651199920564047e-13 0 0)
(2.694063028288526e-13 0 0)
(2.780968287265614e-13 0 0)
(3.30239984112741e-13 0 0)
(2.954778805219541e-13 0 0)
(2.172631474425891e-13 0 0)
(1.825010438517629e-13 0 0)
(2.520252510334413e-13 0 0)
(3.563115618058451e-13 0 0)
(4.171452430897867e-13 0 0)
(5.301220797599498e-13 0 0)
(4.605978725782541e-13 0 0)
(4.258357689874806e-13 0 0)
(5.127410279645045e-13 0 0)
(4.519073466805852e-13 0 0)
(2.520252510333765e-13 0 0)
(2.520252510333738e-13 0 0)
(1.651199920563401e-13 0 0)
(2.433347251356761e-13 0 0)
(3.563115618058202e-13 0 0)
(4.779789243737243e-13 0 0)
(4.953599761691183e-13 0 0)
(6.430989164301045e-13 0 0)
(7.908378566910855e-13 0 0)
(8.429810120772036e-13 0 0)
(6.344083905324249e-13 0 0)
(5.735747092484686e-13 0 0)
(5.127410279645222e-13 0 0)
(2.085726215449045e-13 0 0)
(1.129768366701563e-13 0 0)
(1.129768366701652e-13 0 0)
(1.651199920563947e-13 0 0)
(7.821473307933492e-14 0 0)
(3.47621035908294e-14 0 0)
(-1.303578884655576e-13 0 0)
(-2.954778805219116e-13 0 0)
(-2.954778805219349e-13 0 0)
(-4.43216820782912e-13 0 0)
(-3.910736653966915e-13 0 0)
(-3.30239984112764e-13 0 0)
(-3.650020877035571e-13 0 0)
(-1.738105179540968e-13 0 0)
(-1.738105179539915e-14 0 0)
(4.34526294885383e-14 0 0)
(-1.73810517953867e-14 0 0)
(-1.651199920563757e-13 0 0)
(-2.694063028288281e-13 0 0)
(-2.259536733403026e-13 0 0)
(-1.477389402609562e-13 0 0)
(-2.607157769311153e-13 0 0)
(-3.302399841127632e-13 0 0)
(-2.954778805218933e-13 0 0)
(-2.867873546242149e-13 0 0)
(-3.997641912943547e-13 0 0)
(-3.215494582150095e-13 0 0)
(-2.954778805219031e-13 0 0)
(-3.91073665396602e-13 0 0)
(-4.345262948851733e-13 0 0)
(-4.605978725782593e-13 0 0)
(-5.735747092484189e-13 0 0)
(-5.475031315553393e-13 0 0)
(-6.344083905323811e-13 0 0)
(-7.126231236117638e-13 0 0)
(-6.865515459186484e-13 0 0)
(-5.996462869415646e-13 0 0)
(-6.430989164301124e-13 0 0)
(-5.301220797600036e-13 0 0)
(-5.127410279645093e-13 0 0)
(-1.477389402609848e-13 0 0)
(3.476210359081121e-14 0 0)
(1.564294661586804e-13 0 0)
(1.564294661586862e-13 0 0)
(2.607157769311162e-13 0 0)
(2.346441992380547e-13 0 0)
(3.041684064196625e-13 0 0)
(1.825010438517986e-13 0 0)
(8.690525897730872e-15 0 0)
(-1.216673625678629e-13 0 0)
(-2.607157769311276e-13 0 0)
(-5.214315538622328e-14 0 0)
(-3.476210359082017e-14 0 0)
(1.738105179540056e-14 0 0)
(6.083368128394824e-14 0 0)
(1.998820956471943e-13 0 0)
(1.216673625678738e-13 0 0)
(9.559578487475621e-14 0 0)
(1.21667362567873e-13 0 0)
(2.607157769311852e-14 0 0)
(-1.564294661586458e-13 0 0)
(-3.476210359082021e-13 0 0)
(-4.171452430897658e-13 0 0)
(-3.389305100104575e-13 0 0)
(-3.389305100104542e-13 0 0)
(-2.433347251356931e-13 0 0)
(-2.607157769311205e-13 0 0)
(-1.303578884655535e-13 0 0)
(-4.345262948850465e-14 0 0)
(-5.214315538621169e-14 0 0)
(1.738105179542882e-14 0 0)
(8.69052589770463e-14 0 0)
(4.345262948853458e-14 0 0)
(-1.216673625678605e-13 0 0)
(-6.083368128392871e-14 0 0)
(-1.042863107724424e-13 0 0)
(-4.345262948851281e-14 0 0)
(-1.04286310772466e-13 0 0)
(-1.564294661586791e-13 0 0)
(-1.47738940260992e-13 0 0)
(-1.73810517954192e-14 0 0)
(6.083368128392426e-14 0 0)
(7.821473307934019e-14 0 0)
(6.952420718161935e-14 0 0)
(-1.911915697495031e-13 0 0)
(-1.216673625678583e-13 0 0)
(-4.34526294885387e-14 0 0)
(6.083368128391628e-14 0 0)
(9.559578487474508e-14 0 0)
(1.042863107724498e-13 0 0)
(2.607157769311174e-13 0 0)
(1.911915697495044e-13 0 0)
(2.259536733403088e-13 0 0)
(2.607157769310543e-14 0 0)
(-1.738105179542558e-14 0 0)
(-7.821473307936019e-14 0 0)
(-3.476210359082703e-14 0 0)
(7.821473307933538e-14 0 0)
(-6.083368128391499e-14 0 0)
(-1.042863107724276e-13 0 0)
(-2.34644199237988e-13 0 0)
(-1.12976836670114e-13 0 0)
(-1.303578884655499e-13 0 0)
(-1.998820956471956e-13 0 0)
(-5.21431553862237e-14 0 0)
(1.216673625678777e-13 0 0)
(8.690525897706714e-14 0 0)
(7.821473307934342e-14 0 0)
(-2.607157769310283e-14 0 0)
(-9.559578487474657e-14 0 0)
(1.303578884655621e-13 0 0)
(6.952420718164712e-14 0 0)
(1.129768366701691e-13 0 0)
(1.651199920564022e-13 0 0)
(3.563115618058333e-13 0 0)
(4.258357689875224e-13 0 0)
(3.997641912943983e-13 0 0)
(3.823831394989806e-13 0 0)
(5.040505020668226e-13 0 0)
(6.865515459186087e-13 0 0)
(7.386947013048591e-13 0 0)
(8.169094343841796e-13 0 0)
(7.647662789979329e-13 0 0)
(9.820294264403893e-13 0 0)
(9.385767969520577e-13 0 0)
(8.777431156680758e-13 0 0)
(9.125052192589119e-13 0 0)
(7.560757531002367e-13 0 0)
(5.909557610438359e-13 0 0)
(3.041684064195944e-13 0 0)
(1.564294661585758e-13 0 0)
(2.954778805218929e-13 0 0)
(2.780968287264801e-13 0 0)
(1.216673625678152e-13 0 0)
(-2.607157769315825e-14 0 0)
(2.607157769307592e-14 0 0)
(-1.303578884655992e-13 0 0)
(6.083368128391205e-14 0 0)
(1.564294661586736e-13 0 0)
(3.476210359079226e-14 0 0)
(-1.390484143632942e-13 0 0)
(-2.69406302828848e-13 0 0)
(-2.954778805219768e-13 0 0)
(-3.563115618058791e-13 0 0)
(-2.607157769311157e-13 0 0)
(-4.953599761691491e-13 0 0)
(-4.519073466805427e-13 0 0)
(-5.040505020668264e-13 0 0)
(-4.953599761691193e-13 0 0)
(-5.388126056576438e-13 0 0)
(-4.953599761691171e-13 0 0)
(-4.519073466805948e-13 0 0)
(-4.953599761691253e-13 0 0)
(-5.561936574530727e-13 0 0)
(-5.996462869415681e-13 0 0)
(-6.604799682253881e-13 0 0)
(-7.734568048957225e-13 0 0)
(-7.995283825887723e-13 0 0)
(-6.865515459186379e-13 0 0)
(-7.82147330793371e-13 0 0)
(-5.822652351461762e-13 0 0)
(-8.342904861796522e-13 0 0)
(-1.199292573883032e-12 0 0)
(-1.347031514144192e-12 0 0)
(-1.468698876712023e-12 0 0)
(-1.590366239279929e-12 0 0)
(-1.703343075950005e-12 0 0)
(-1.720724127745362e-12 0 0)
(-1.677271498256944e-12 0 0)
(-1.685962024154536e-12 0 0)
(-1.911915697494907e-12 0 0)
(-2.111797793141715e-12 0 0)
(-2.242155681607626e-12 0 0)
(-2.268227259300682e-12 0 0)
(-2.407275673663935e-12 0 0)
(-2.494180932640969e-12 0 0)
(-2.50287145853873e-12 0 0)
(-2.502871458538727e-12 0 0)
(-2.389894621868154e-12 0 0)
(-2.250846207505263e-12 0 0)
(-2.129178844937358e-12 0 0)
(-2.172631474425928e-12 0 0)
(-2.085726215448935e-12 0 0)
(-2.181322000323598e-12 0 0)
(-2.398585147766242e-12 0 0)
(-2.363823044175387e-12 0 0)
(-2.450728303152542e-12 0 0)
(-2.581086191617613e-12 0 0)
(-2.67668197649285e-12 0 0)
(-2.563705139822691e-12 0 0)
(-2.555014613924926e-12 0 0)
(-2.615848295208834e-12 0 0)
(-2.659300924697421e-12 0 0)
(-2.624538821106644e-12 0 0)
(-2.615848295208591e-12 0 0)
(-2.798349339060699e-12 0 0)
(-2.737515657776767e-12 0 0)
(-2.807039864958399e-12 0 0)
(-2.720134605981084e-12 0 0)
(-2.615848295208893e-12 0 0)
(-2.494180932641028e-12 0 0)
(-2.424656725459427e-12 0 0)
(-2.50287145853839e-12 0 0)
(-2.589776717515825e-12 0 0)
(-2.720134605981264e-12 0 0)
(-2.824420916753871e-12 0 0)
(-2.763587235469529e-12 0 0)
(-2.659300924697467e-12 0 0)
(-2.56370513982274e-12 0 0)
(-2.407275673663916e-12 0 0)
(-2.302989362891446e-12 0 0)
(-2.520252510334053e-12 0 0)
(-2.355132518277794e-12 0 0)
(-2.129178844937477e-12 0 0)
(-2.033583060062509e-12 0 0)
(-1.903225171597131e-12 0 0)
(-1.946677801085641e-12 0 0)
(-2.050964111858101e-12 0 0)
(-2.111797793142042e-12 0 0)
(-2.276917785198196e-12 0 0)
(-2.667991450595145e-12 0 0)
(-2.607157769311227e-12 0 0)
(-2.589776717515659e-12 0 0)
(-2.62453882110647e-12 0 0)
(-2.494180932640928e-12 0 0)
(-2.485490406743348e-12 0 0)
(-2.337751466482374e-12 0 0)
(-2.450728303152281e-12 0 0)
(-2.45941882905025e-12 0 0)
(-2.494180932641065e-12 0 0)
(-2.459418829050255e-12 0 0)
(-2.59846724341327e-12 0 0)
(-2.537633562129605e-12 0 0)
(-2.520252510334201e-12 0 0)
(-2.459418829050264e-12 0 0)
(-2.355132518277563e-12 0 0)
(-2.424656725459309e-12 0 0)
(-2.415966199561738e-12 0 0)
(-2.511561984436339e-12 0 0)
(-2.450728303152293e-12 0 0)
(-2.407275673664033e-12 0 0)
(-2.433347251357139e-12 0 0)
(-2.424656725459416e-12 0 0)
(-2.398585147766314e-12 0 0)
(-2.47679988084553e-12 0 0)
(-2.598467243413401e-12 0 0)
(-2.398585147766329e-12 0 0)
(-2.355132518277673e-12 0 0)
(-2.242155681607409e-12 0 0)
(-2.276917785198455e-12 0 0)
(-2.442037777254723e-12 0 0)
(-2.424656725459456e-12 0 0)
(-2.407275673663794e-12 0 0)
(-2.32037041468702e-12 0 0)
(-2.302989362891597e-12 0 0)
(-2.233465155709975e-12 0 0)
(-2.268227259300553e-12 0 0)
(-2.198703052119162e-12 0 0)
(-2.111797793142106e-12 0 0)
(-2.059654637755884e-12 0 0)
(-2.085726215448894e-12 0 0)
(-2.077035689551192e-12 0 0)
(-1.894534645699522e-12 0 0)
(-1.937987275188039e-12 0 0)
(-1.955368326983353e-12 0 0)
(-2.059654637755794e-12 0 0)
(-1.972749378778867e-12 0 0)
(-1.764176757233967e-12 0 0)
(-1.581675713382159e-12 0 0)
(-1.477389402609553e-12 0 0)
(-1.50346098030282e-12 0 0)
(-1.425246247223477e-12 0 0)
(-1.47738940260963e-12 0 0)
(-1.460008350814176e-12 0 0)
(-1.572985187484475e-12 0 0)
(-1.616437816973013e-12 0 0)
(-1.642509394666027e-12 0 0)
(-1.659890446461285e-12 0 0)
(-1.63381886876842e-12 0 0)
(-1.651199920563855e-12 0 0)
(-1.546913609791389e-12 0 0)
(-1.555604135689023e-12 0 0)
(-1.52084203209819e-12 0 0)
(-1.677271498256968e-12 0 0)
(-1.798938860824818e-12 0 0)
(-1.755486231336116e-12 0 0)
(-1.807629386722418e-12 0 0)
(-1.712033601847783e-12 0 0)
(-1.833700964415535e-12 0 0)
(-1.7815578090293e-12 0 0)
(-1.781557809029417e-12 0 0)
(-1.84239149031323e-12 0 0)
)
;

boundaryField
{
    inlet
    {
        type            zeroGradient;
    }
    outlet
    {
        type            pressureInletOutletVelocity;
        value           uniform (-1.84239149031323e-12 0 0);
    }
    frontAndBack
    {
        type            empty;
    }
}


// ************************************************************************* //
