/*--------------------------------*- C++ -*----------------------------------*\
| =========                 |                                                 |
| \\      /  F ield         | OpenFOAM: The Open Source CFD Toolbox           |
|  \\    /   O peration     | Version:  v2012                                 |
|   \\  /    A nd           | Website:  www.openfoam.com                      |
|    \\/     M anipulation  |                                                 |
\*---------------------------------------------------------------------------*/
FoamFile
{
    version     2.0;
    format      ascii;
    class       volVectorField;
    location    "0.002";
    object      UMean;
}
// * * * * * * * * * * * * * * * * * * * * * * * * * * * * * * * * * * * * * //

dimensions      [0 1 -1 0 0 0 0];


internalField   nonuniform List<vector> 
1000
(
(-0.0001111762971625575 0 0)
(7.71922633361114e-05 0 0)
(0.0001466465691094685 0 0)
(0.0003230513996297135 0 0)
(0.000533613148990605 0 0)
(0.0008003622952330667 0 0)
(0.001116055985710594 0 0)
(0.001468091123572051 0 0)
(0.001860287288276428 0 0)
(0.002281825069289691 0 0)
(0.002719442559300442 0 0)
(0.003157199208425836 0 0)
(0.003596402410206079 0 0)
(0.00403014026695103 0 0)
(0.004458052515759129 0 0)
(0.004865009388933244 0 0)
(0.005246687403614623 0 0)
(0.005588412610644751 0 0)
(0.00588951688942044 0 0)
(0.006139747282441482 0 0)
(0.006340861319076647 0 0)
(0.006483680651429621 0 0)
(0.006569646644613924 0 0)
(0.006591579846463248 0 0)
(0.00655324201036192 0 0)
(0.00645079269604794 0 0)
(0.006292510884031039 0 0)
(0.006079481614577164 0 0)
(0.005816331028717723 0 0)
(0.005489892989201772 0 0)
(0.005096509909784074 0 0)
(0.004664305078184398 0 0)
(0.004226304617039617 0 0)
(0.003788454738753092 0 0)
(0.003351482349978439 0 0)
(0.002913036308132074 0 0)
(0.002475289503209748 0 0)
(0.0020400689014471 0 0)
(0.001612453947543285 0 0)
(0.001202220820059511 0 0)
(0.0008222126800929907 0 0)
(0.0004876687194761612 0 0)
(0.0002084285588505581 0 0)
(-1.076093705755663e-05 0 0)
(-0.0001709318190152499 0 0)
(-0.0002699977062513417 0 0)
(-0.0003058295312247458 0 0)
(-0.0002770017765404425 0 0)
(-0.0001833092220632183 0 0)
(-3.733742425438869e-05 0 0)
(0.0001682655269737153 0 0)
(0.0004529962358422818 0 0)
(0.0008329194544109688 0 0)
(0.001263334185618487 0 0)
(0.001701562349195843 0 0)
(0.002141300359459593 0 0)
(0.002580480498072065 0 0)
(0.00301896801829815 0 0)
(0.003454968719511942 0 0)
(0.003892546247390732 0 0)
(0.004329083569955583 0 0)
(0.004761933305392378 0 0)
(0.005186722124886545 0 0)
(0.005593899677753211 0 0)
(0.005969606749963894 0 0)
(0.006292676911778809 0 0)
(0.006546668275220367 0 0)
(0.006725121865477249 0 0)
(0.006826691273037343 0 0)
(0.006862186424526832 0 0)
(0.006840414543337881 0 0)
(0.006766953328914927 0 0)
(0.006635801278554981 0 0)
(0.00641869717367098 0 0)
(0.006082265232564266 0 0)
(0.005661172287759269 0 0)
(0.005223073152577962 0 0)
(0.004783485933369151 0 0)
(0.004344741220867089 0 0)
(0.003905982779534307 0 0)
(0.003466559035343163 0 0)
(0.003028328278945419 0 0)
(0.002590411754507122 0 0)
(0.002153340817656618 0 0)
(0.001717897252278013 0 0)
(0.001286174788246995 0 0)
(0.0008618443586233468 0 0)
(0.0004550593752699588 0 0)
(8.109426601618805e-05 0 0)
(-0.0002341940199858209 0 0)
(-0.0004604721257229653 0 0)
(-0.0005832854995865314 0 0)
(-0.0006180162549767552 0 0)
(-0.0005950382169089477 0 0)
(-0.0005230283628686371 0 0)
(-0.000381081516038808 0 0)
(-0.0001212025123818666 0 0)
(0.0002665672352395993 0 0)
(0.0007018976969311477 0 0)
(0.001141205898379367 0 0)
(0.001580247405526039 0 0)
(0.002019641224438938 0 0)
(0.002458562569538413 0 0)
(0.002897695239097482 0 0)
(0.003336604371464051 0 0)
(0.003774582016585104 0 0)
(0.004212595561172226 0 0)
(0.004649524224984711 0 0)
(0.005084698224974764 0 0)
(0.005515787178276133 0 0)
(0.005937564610434922 0 0)
(0.006339009420590383 0 0)
(0.006700363553303803 0 0)
(0.006985874356570028 0 0)
(0.007159093061157256 0 0)
(0.007219269118444864 0 0)
(0.007196581667705293 0 0)
(0.007109579113559457 0 0)
(0.006939297835116784 0 0)
(0.006642895160869848 0 0)
(0.006236381493330488 0 0)
(0.005799483152419771 0 0)
(0.005360691125807198 0 0)
(0.004921845110511015 0 0)
(0.00448313104991659 0 0)
(0.00404431510065974 0 0)
(0.003605509025040469 0 0)
(0.003167012628113179 0 0)
(0.002728222979635803 0 0)
(0.002290220917927667 0 0)
(0.001851861735681808 0 0)
(0.001414808318433577 0 0)
(0.0009789746294864062 0 0)
(0.0005483150951353846 0 0)
(0.0001263911142884438 0 0)
(-0.0002721251003322798 0 0)
(-0.0006262439889117228 0 0)
(-0.0008990751966414211 0 0)
(-0.001063910746803688 0 0)
(-0.001101638459240162 0 0)
(-0.0009961418963081554 0 0)
(-0.0007174023021345867 0 0)
(-0.0003153601274296243 0 0)
(0.0001231011950663497 0 0)
(0.0005594917959406286 0 0)
(0.001000431305688987 0 0)
(0.001436537295803327 0 0)
(0.001878404782058761 0 0)
(0.00231428522200674 0 0)
(0.002757030832007007 0 0)
(0.003192621806298619 0 0)
(0.003636296010198093 0 0)
(0.004071481627560583 0 0)
(0.004515761216478198 0 0)
(0.004949913794141632 0 0)
(0.005393718391597838 0 0)
(0.005823946168725737 0 0)
(0.006260239860821403 0 0)
(0.006671659920267116 0 0)
(0.007070464896893377 0 0)
(0.007408640609772137 0 0)
(0.007675491442379718 0 0)
(0.007767176326726211 0 0)
(0.007614666311327271 0 0)
(0.00722906392042056 0 0)
(0.00680187334603127 0 0)
(0.006355579772907524 0 0)
(0.005925987014794866 0 0)
(0.005479216408010624 0 0)
(0.005050109607472592 0 0)
(0.0046029630561174 0 0)
(0.004174325935359067 0 0)
(0.003726786656059685 0 0)
(0.003298667195658445 0 0)
(0.00285092523522397 0 0)
(0.002423282398679347 0 0)
(0.001975518104669371 0 0)
(0.00154816383991678 0 0)
(0.001101432914405616 0 0)
(0.0006753358696914716 0 0)
(0.0002323782641156999 0 0)
(-0.0001868013344217284 0 0)
(-0.0006127269197575337 0 0)
(-0.0009937759887941786 0 0)
(-0.001315466886238686 0 0)
(-0.001427583300010536 0 0)
(-0.001235075565586093 0 0)
(-0.0008224270888983382 0 0)
(-0.0003902710769127178 0 0)
(5.530994071216634e-05 0 0)
(0.0004888490055925509 0 0)
(0.0009336809353121697 0 0)
(0.001367722687260107 0 0)
(0.001811789384878156 0 0)
(0.002246376898355311 0 0)
(0.002689644662337483 0 0)
(0.003124734068853017 0 0)
(0.003567369190092043 0 0)
(0.004002962197096204 0 0)
(0.00444481349604254 0 0)
(0.004880702126234263 0 0)
(0.005321726143168517 0 0)
(0.005757305160622173 0 0)
(0.006195700806740126 0 0)
(0.006628022266948153 0 0)
(0.007055103548819638 0 0)
(0.007458625777681615 0 0)
(0.007797457411029292 0 0)
(0.007954271787611142 0 0)
(0.00778729698597206 0 0)
(0.007392645644733344 0 0)
(0.006954024220143543 0 0)
(0.006517700038661828 0 0)
(0.006077124305835148 0 0)
(0.00564155999011784 0 0)
(0.005200634719171527 0 0)
(0.004765856284153531 0 0)
(0.004324290172838492 0 0)
(0.003890227761302607 0 0)
(0.003448058441150156 0 0)
(0.003014795991282408 0 0)
(0.00257225642685762 0 0)
(0.00213918576025513 0 0)
(0.00169636480342564 0 0)
(0.001264837723744607 0 0)
(0.0008222039378165337 0 0)
(0.0003897496182807492 0 0)
(-4.887505311872908e-05 0 0)
(-0.0004710559345390399 0 0)
(-0.0008961895719906817 0 0)
(-0.001242047085204413 0 0)
(-0.001450639796393936 0 0)
(-0.001310069065634827 0 0)
(-0.0009422133562800942 0 0)
(-0.0004900208960825249 0 0)
(-6.587217449828805e-05 0 0)
(0.0003879976665352945 0 0)
(0.0008125304298932066 0 0)
(0.001265332756041792 0 0)
(0.001689875016695807 0 0)
(0.002140479492891739 0 0)
(0.002566694628266269 0 0)
(0.003017014719801248 0 0)
(0.003443772083331843 0 0)
(0.003890932302382022 0 0)
(0.004319561507755819 0 0)
(0.004767769396207462 0 0)
(0.005194748451657428 0 0)
(0.005635209578494087 0 0)
(0.006060355297708104 0 0)
(0.00649960604557152 0 0)
(0.006913785765849965 0 0)
(0.007322774420772393 0 0)
(0.007693738209988729 0 0)
(0.007926499883793644 0 0)
(0.007889432532259429 0 0)
(0.007541159867948677 0 0)
(0.007111878141115726 0 0)
(0.006664005003722268 0 0)
(0.00622832616310044 0 0)
(0.005781851405596411 0 0)
(0.005348326172782343 0 0)
(0.004903183206348055 0 0)
(0.004469998647320976 0 0)
(0.004026071967199483 0 0)
(0.003595110719205702 0 0)
(0.003152551917135257 0 0)
(0.002721391528343785 0 0)
(0.002280459683008045 0 0)
(0.001853743807348866 0 0)
(0.001417326548712336 0 0)
(0.000995576097948333 0 0)
(0.000590548664946717 0 0)
(0.0002496443875479919 0 0)
(5.135079295262212e-05 0 0)
(2.646861674804745e-06 0 0)
(1.396012324616337e-08 0 0)
(2.768689011801998e-12 0 0)
(4.662873535616933e-14 0 0)
(3.30114940574567e-14 0 0)
(2.578397755548507e-14 0 0)
(3.982636688374809e-15 0 0)
(-4.062039335062851e-14 0 0)
(-5.411884328814187e-14 0 0)
(-4.326506418137569e-14 0 0)
(-3.202365010650515e-14 0 0)
(-1.374853701370847e-14 0 0)
(-1.2716927824408e-14 0 0)
(-5.852037582916523e-15 0 0)
(2.926018791456944e-14 0 0)
(4.053286287397153e-14 0 0)
(1.391359448399364e-13 0 0)
(5.204312055575634e-14 0 0)
(1.394610580389789e-13 0 0)
(6.569787491589218e-14 0 0)
(1.743231964602684e-13 0 0)
(1.302641058120057e-13 0 0)
(1.795187554681702e-13 0 0)
(1.288886268929332e-13 0 0)
(1.009976657205092e-13 0 0)
(4.741025746927664e-14 0 0)
(1.598681634563762e-14 0 0)
(1.847518275376204e-14 0 0)
(1.374853701371181e-14 0 0)
(-1.179785781939127e-14 0 0)
(-2.646546483810212e-14 0 0)
(-2.453979435142126e-14 0 0)
(-2.25828629802108e-14 0 0)
(-3.891980123251553e-14 0 0)
(2.040085324044781e-14 0 0)
(-9.555201963640204e-14 0 0)
(-3.748805272130349e-14 0 0)
(-4.469681269257378e-14 0 0)
(-2.778467416502705e-14 0 0)
(-1.791248683231206e-14 0 0)
(-4.314002064263125e-16 0 0)
(-1.427997205061063e-14 0 0)
(-1.266691040916773e-14 0 0)
(-1.633693825230728e-14 0 0)
(-6.117755101368492e-14 0 0)
(-7.181250392879814e-14 0 0)
(-8.527344080486822e-14 0 0)
(-8.593617155679239e-14 0 0)
(-1.125892017020442e-13 0 0)
(-1.661265925380618e-13 0 0)
(-1.109261226453701e-13 0 0)
(-2.163315730837953e-13 0 0)
(-1.705968990249881e-13 0 0)
(-1.735916917624172e-13 0 0)
(-1.330775854191532e-13 0 0)
(-1.021918315093343e-13 0 0)
(-1.086940954903469e-13 0 0)
(-1.120265057806265e-13 0 0)
(-6.951795500472684e-14 0 0)
(-3.544984305034778e-14 0 0)
(-2.207643665093106e-14 0 0)
(-8.51546494436898e-15 0 0)
(-6.57103792697007e-15 0 0)
(2.563392530981936e-15 0 0)
(4.755405753808292e-14 0 0)
(4.172077648588709e-14 0 0)
(8.203481316817932e-14 0 0)
(-5.990835910200909e-14 0 0)
(-9.940961278662166e-15 0 0)
(9.697126379385771e-15 0 0)
(2.733451742788598e-14 0 0)
(1.800626948593724e-15 0 0)
(1.69934168273141e-14 0 0)
(2.391457666094586e-14 0 0)
(2.050714024781404e-15 0 0)
(7.996534261272636e-15 0 0)
(1.522405076324849e-14 0 0)
(8.94248862696856e-14 0 0)
(-1.060369203057512e-14 0 0)
(5.980207209463807e-14 0 0)
(3.695036550750859e-14 0 0)
(1.290449313156033e-14 0 0)
(2.468984659714914e-14 0 0)
(4.920463224095984e-14 0 0)
(4.689132678617412e-14 0 0)
(1.237931027155211e-14 0 0)
(5.744500140151213e-14 0 0)
(1.172908387344982e-14 0 0)
(5.7288696978898e-14 0 0)
(6.256553428656678e-14 0 0)
(6.925536357472365e-14 0 0)
(7.244397379618214e-14 0 0)
(8.168469126151065e-14 0 0)
(9.670242018689332e-14 0 0)
(5.952697631081439e-14 0 0)
(4.784165767570863e-14 0 0)
(5.971454161796218e-14 0 0)
(5.499414805481903e-14 0 0)
(7.323800026309456e-14 0 0)
(4.799796209832217e-14 0 0)
(3.049186676482209e-14 0 0)
(2.437098557500306e-14 0 0)
(1.011039527278946e-13 0 0)
(2.093228827735105e-14 0 0)
(9.300113145924569e-14 0 0)
(5.895177603556853e-14 0 0)
(5.510668723910813e-14 0 0)
(3.395557277009692e-14 0 0)
(-1.969435725013996e-15 0 0)
(-5.283089484570885e-15 0 0)
(-2.00819922182872e-14 0 0)
(3.913862742421028e-15 0 0)
(-5.406257369600564e-14 0 0)
(-2.180134086711216e-14 0 0)
(-5.58944615291186e-14 0 0)
(-3.548735611178305e-14 0 0)
(-2.381454183047534e-14 0 0)
(-4.877323203452793e-14 0 0)
(-7.493859238120141e-14 0 0)
(-1.220549975359504e-13 0 0)
(-1.305642103034201e-13 0 0)
(-2.020328445024317e-13 0 0)
(-1.939925450028472e-13 0 0)
(-2.127178148327934e-13 0 0)
(-1.831262615422746e-13 0 0)
(-1.399549800144707e-13 0 0)
(-1.289198877774363e-13 0 0)
(-1.12976836670145e-13 0 0)
(-1.748983967355193e-13 0 0)
(-1.344155512767728e-13 0 0)
(-1.515277594652998e-13 0 0)
(-8.117201275532341e-14 0 0)
(-1.238243636000177e-13 0 0)
(-1.387545620487276e-13 0 0)
(-1.581238060998774e-13 0 0)
(-1.524843425317223e-13 0 0)
(-1.718285778752466e-13 0 0)
(-1.870901416999007e-13 0 0)
(-1.57729918954886e-13 0 0)
(-2.130679367394399e-13 0 0)
(-1.636194695992115e-13 0 0)
(-1.794499815222273e-13 0 0)
(-1.848206014834806e-13 0 0)
(-1.748983967355142e-13 0 0)
(-1.541786824729345e-13 0 0)
(-1.359223259108463e-13 0 0)
(-1.838202531787112e-13 0 0)
(-1.417931200244759e-13 0 0)
(-1.735354221702603e-13 0 0)
(-1.840265750165583e-13 0 0)
(-1.69534028951185e-13 0 0)
(-1.474888531847648e-13 0 0)
(-1.55785491937474e-13 0 0)
(-1.365100305398992e-13 0 0)
(-1.452630782066651e-13 0 0)
(-1.597056068567844e-13 0 0)
(-1.289448964850732e-13 0 0)
(-1.251873381652738e-13 0 0)
(-1.304329145884173e-13 0 0)
(-1.174346388032894e-13 0 0)
(-1.525030990624388e-13 0 0)
(-9.773402937619723e-14 0 0)
(-2.292735792767925e-13 0 0)
(-1.545475609103232e-13 0 0)
(-2.604031680858796e-13 0 0)
(-1.805816255420042e-13 0 0)
(-2.437911340497567e-13 0 0)
(-2.06203046497964e-13 0 0)
(-2.285295702250944e-13 0 0)
(-2.30624049488199e-13 0 0)
(-2.471673095783869e-13 0 0)
(-2.173069126809236e-13 0 0)
(-2.17081834312359e-13 0 0)
(-2.302926841122331e-13 0 0)
(-2.536695735593931e-13 0 0)
(-2.508123287138785e-13 0 0)
(-2.458355958976448e-13 0 0)
(-2.297675012522442e-13 0 0)
(-2.414590720642853e-13 0 0)
(-2.152061812409083e-13 0 0)
(-2.498619978243443e-13 0 0)
(-1.787059724705634e-13 0 0)
(-2.644858396047392e-13 0 0)
(-2.472360835243274e-13 0 0)
(-2.76902662937699e-13 0 0)
(-2.702190858264489e-13 0 0)
(-2.667303711135878e-13 0 0)
(-2.629728127937655e-13 0 0)
(-2.349568080832558e-13 0 0)
(-2.507623112986438e-13 0 0)
(-2.174507127497568e-13 0 0)
(-1.86658741493494e-13 0 0)
(-1.826073308591705e-13 0 0)
(-1.553228308465379e-13 0 0)
(-1.516715595341142e-13 0 0)
(-8.744919836776282e-14 0 0)
(-7.473227054335883e-14 0 0)
(-6.542277913207464e-14 0 0)
(-4.080170648087881e-14 0 0)
(-1.718723431136404e-14 0 0)
(-1.493019844872654e-14 0 0)
(-3.636266087845911e-14 0 0)
(-3.341163337938157e-14 0 0)
(-1.078500516082152e-14 0 0)
(6.252176899822894e-18 0 0)
(3.613758250981674e-15 0 0)
(7.133733848393001e-15 0 0)
(1.060369203057552e-14 0 0)
(-2.364573305404329e-14 0 0)
(-5.451273043315396e-14 0 0)
(-5.339359076719176e-14 0 0)
(-3.704414816107554e-14 0 0)
(-5.14491637497904e-14 0 0)
(-6.716713648851676e-14 0 0)
(-6.049606373106895e-14 0 0)
(-5.41938694110112e-14 0 0)
(-3.708166122250627e-14 0 0)
(-3.590625196440158e-14 0 0)
(-2.426469856762022e-14 0 0)
(-1.107885747534725e-14 0 0)
(-3.187985003769095e-14 0 0)
(-3.794446163537107e-14 0 0)
(-3.157974554626141e-14 0 0)
(-5.719491432532724e-14 0 0)
(-1.167218906361444e-13 0 0)
(-1.559793094215269e-13 0 0)
(-1.813756520089222e-13 0 0)
(-1.716785256295297e-13 0 0)
(-1.729352131874194e-13 0 0)
(-1.791498770308041e-13 0 0)
(-1.863711413558552e-13 0 0)
(-1.779369547112684e-13 0 0)
(-1.760175364014853e-13 0 0)
(-1.945865018088112e-13 0 0)
(-1.95668128413345e-13 0 0)
(-1.794687380529328e-13 0 0)
(-1.514902464038651e-13 0 0)
(-1.603558332549006e-13 0 0)
(-1.883343249039648e-13 0 0)
(-1.856521410118153e-13 0 0)
(-1.849706537291865e-13 0 0)
(-2.040085324043713e-13 0 0)
(-2.397022103540091e-13 0 0)
(-2.493493193181312e-13 0 0)
(-2.474424053621842e-13 0 0)
(-2.587963586213427e-13 0 0)
(-2.709255818166779e-13 0 0)
(-2.525691904241357e-13 0 0)
(-2.491805105417208e-13 0 0)
(-2.768776542300886e-13 0 0)
(-2.652923704254584e-13 0 0)
(-2.380453834742181e-13 0 0)
(-2.062343073825037e-13 0 0)
(-1.84833105837288e-13 0 0)
(-1.952304760299891e-13 0 0)
(-1.48601740673838e-13 0 0)
(-1.170094907737616e-13 0 0)
(-9.895945604953622e-14 0 0)
(-9.950339544025188e-14 0 0)
(-9.120675668753995e-14 0 0)
(-8.821821612704187e-14 0 0)
(-8.644259788607749e-14 0 0)
(-7.088092956996975e-14 0 0)
(-4.462178656972033e-14 0 0)
(-5.869543678248284e-14 0 0)
(-6.824251091614468e-14 0 0)
(-5.53567743152976e-14 0 0)
(-6.104000312177276e-14 0 0)
(-4.24522811837396e-14 0 0)
(-2.027580970233142e-14 0 0)
(-6.183402958858905e-15 0 0)
(2.972910118244232e-14 0 0)
(2.714695212074972e-14 0 0)
(1.21917449644593e-15 0 0)
(4.426541248624777e-15 0 0)
(1.363599782942958e-14 0 0)
(1.129143149011691e-14 0 0)
(-3.707540904552462e-15 0 0)
(-7.533873170306804e-15 0 0)
(4.895454516480102e-15 0 0)
(3.069193642578071e-14 0 0)
(5.198059878670464e-14 0 0)
(2.990416213577838e-14 0 0)
(3.74567918367965e-14 0 0)
(1.743106921064864e-14 0 0)
(1.51740333480059e-14 0 0)
(1.64932426749239e-14 0 0)
(3.439322515344022e-14 0 0)
(-3.751931360583566e-14 0 0)
(7.740195008176852e-15 0 0)
(2.447102040548071e-14 0 0)
(1.915041785947708e-14 0 0)
(3.475585141392065e-14 0 0)
(4.018899314420675e-14 0 0)
(2.800975253360639e-14 0 0)
(4.301497710514836e-15 0 0)
(2.582774279382409e-14 0 0)
(-5.516920900815581e-14 0 0)
(-3.511847767439191e-14 0 0)
(-5.728869697888597e-14 0 0)
(-4.951098890929189e-14 0 0)
(-4.853564931213813e-14 0 0)
(-6.041478543130947e-14 0 0)
(-3.011048397363097e-14 0 0)
(-6.943667670495487e-14 0 0)
(-5.762631453175277e-14 0 0)
(-5.425013900315204e-14 0 0)
(-6.167772516607329e-14 0 0)
(-7.45822182976341e-14 0 0)
(-9.412027112520494e-14 0 0)
(-1.104822180851278e-13 0 0)
(-1.207482925628537e-13 0 0)
(-7.612025381621649e-14 0 0)
(-8.563606706536413e-14 0 0)
(-2.750332620431318e-14 0 0)
(-2.387706359951214e-14 0 0)
(-1.743732138754193e-14 0 0)
(1.831887833120725e-15 0 0)
(-1.225426673343317e-15 0 0)
(2.435848122119548e-14 0 0)
(4.629736998021021e-14 0 0)
(7.133108630713198e-14 0 0)
(1.069122250724666e-14 0 0)
(3.104205833244322e-14 0 0)
(3.550611264249578e-14 0 0)
(8.020917751198203e-14 0 0)
(9.138181764089187e-14 0 0)
(8.788059857419762e-14 0 0)
(1.362474391098864e-13 0 0)
(6.449120477324729e-14 0 0)
(9.011262572921498e-14 0 0)
(9.091290437302199e-14 0 0)
(1.099382786944096e-13 0 0)
(8.951866892325102e-14 0 0)
(9.78215598528583e-14 0 0)
(1.246684074821651e-13 0 0)
(1.200793096340197e-13 0 0)
(1.605433985620408e-13 0 0)
(1.045489022024451e-13 0 0)
(1.594367632498757e-13 0 0)
(1.487768016271699e-13 0 0)
(1.148274810339731e-13 0 0)
(9.216333975399452e-14 0 0)
(9.259473996042005e-14 0 0)
(6.981180731924513e-14 0 0)
(3.169228473054663e-14 0 0)
(1.039049279812532e-13 0 0)
(1.896910472922772e-14 0 0)
(8.824947701157435e-14 0 0)
(7.732692395885027e-14 0 0)
(6.771732805614071e-14 0 0)
(5.526299166173115e-14 0 0)
(7.496985326572713e-14 0 0)
(5.66759836422202e-14 0 0)
(3.751931360584428e-14 0 0)
(4.112056750301897e-14 0 0)
(2.305802842498518e-14 0 0)
(2.132617542234735e-14 0 0)
(3.7181696052981e-14 0 0)
(4.512821289901211e-14 0 0)
(7.34068090395227e-14 0 0)
(8.574235407274504e-14 0 0)
(1.103696789008466e-13 0 0)
(5.251828600051138e-14 0 0)
(7.109350358474502e-14 0 0)
(4.240851594542272e-14 0 0)
(5.673225323436784e-14 0 0)
(5.437518254125041e-14 0 0)
(6.085243781463858e-14 0 0)
(9.110046968017842e-14 0 0)
(1.066183727579501e-13 0 0)
(1.54597578325539e-13 0 0)
(6.353462170681213e-14 0 0)
(1.441314341868828e-13 0 0)
(1.508837852441009e-13 0 0)
(1.568546141882067e-13 0 0)
(1.203731619485422e-13 0 0)
(1.362349347560987e-13 0 0)
(1.572047360948704e-13 0 0)
(1.371102395227643e-13 0 0)
(1.466323049488236e-13 0 0)
(1.541661781191333e-13 0 0)
(1.562731617360633e-13 0 0)
(1.589053282129828e-13 0 0)
(1.195666311278358e-13 0 0)
(1.127767670092025e-13 0 0)
(1.145461330732682e-13 0 0)
(1.24537111767164e-13 0 0)
(6.327203027681998e-14 0 0)
(1.013727963348061e-13 0 0)
(1.037486235586413e-13 0 0)
(1.092692957655971e-13 0 0)
(9.907824741072159e-14 0 0)
(7.283160876428884e-14 0 0)
(6.829878050829469e-14 0 0)
(7.904002043077549e-14 0 0)
(1.497083759859869e-13 0 0)
(3.656273053940848e-14 0 0)
(8.946239933111169e-14 0 0)
(5.423138247243682e-14 0 0)
(5.84453497062828e-14 0 0)
(4.584096106616228e-14 0 0)
(2.602156027787159e-14 0 0)
(1.062870073814128e-16 0 0)
(5.320602546004394e-15 0 0)
(3.624386951725903e-14 0 0)
(3.760059190560649e-14 0 0)
(3.118585840125535e-14 0 0)
(3.006046655838342e-14 0 0)
(5.314975586790244e-14 0 0)
(6.199658618822547e-14 0 0)
(4.916711917952651e-14 0 0)
(3.296147664223081e-14 0 0)
(1.952554847375853e-14 0 0)
(2.608408204692054e-14 0 0)
(1.186037958844461e-14 0 0)
(9.103169573412979e-15 0 0)
(-3.269888521230666e-15 0 0)
(1.468636354942402e-14 0 0)
(2.47148553047648e-14 0 0)
(1.11788923058247e-14 0 0)
(3.344914644083035e-15 0 0)
(2.798474382598671e-14 0 0)
(8.632380652488828e-14 0 0)
(3.026678839624186e-14 0 0)
(7.782084593433337e-14 0 0)
(7.877117682386086e-14 0 0)
(8.981877341468257e-14 0 0)
(1.165780905673258e-13 0 0)
(1.11813931765835e-13 0 0)
(8.167218690770205e-14 0 0)
(3.791945292774866e-14 0 0)
(6.222791673370005e-14 0 0)
(-5.316851239861644e-14 0 0)
(3.04981189417282e-14 0 0)
(5.634461826626833e-14 0 0)
(1.038299018584005e-13 0 0)
(1.091067391660589e-13 0 0)
(1.020105183790941e-13 0 0)
(8.35728486867767e-14 0 0)
(3.90510969475263e-14 0 0)
(2.744080443527306e-14 0 0)
(4.522199555259133e-14 0 0)
(8.497958849036207e-14 0 0)
(1.14396080827554e-13 0 0)
(1.253811556493101e-13 0 0)
(1.069747468415271e-13 0 0)
(5.321852981385725e-14 0 0)
(7.45071921747784e-14 0 0)
(6.632934478327877e-14 0 0)
(1.256187383717175e-13 0 0)
(1.431560945897433e-13 0 0)
(1.460320959659534e-13 0 0)
(1.619376340118253e-13 0 0)
(1.695402811280848e-13 0 0)
(1.099132699867988e-13 0 0)
(4.248979424518024e-14 0 0)
(1.270567390598252e-13 0 0)
(3.212993711389069e-14 0 0)
(8.248496990533449e-14 0 0)
(5.836407140652576e-14 0 0)
(5.939568059581418e-14 0 0)
(4.24585333606591e-14 0 0)
(9.534569779862759e-15 0 0)
(-1.387983272866916e-15 0 0)
(7.85898636936356e-15 0 0)
(1.451755477299844e-14 0 0)
(-1.0503657200063e-15 0 0)
(-1.957556588899632e-14 0 0)
(-1.702467771183056e-14 0 0)
(1.519278987874144e-15 0 0)
(1.732478220326843e-14 0 0)
(-1.860022629184264e-14 0 0)
(-1.091004869891537e-14 0 0)
(-6.539151824754753e-14 0 0)
(-8.659265013180147e-15 0 0)
(-7.383820924598336e-15 0 0)
(-1.76436432254093e-14 0 0)
(-6.752351057208905e-14 0 0)
(-7.415707026810576e-14 0 0)
(-3.928242749300159e-14 0 0)
(-7.097471222355203e-14 0 0)
(-8.803065081994049e-15 0 0)
(-7.800215906457506e-14 0 0)
(2.837237879408353e-14 0 0)
(4.645367440280452e-15 0 0)
(-2.815355260241713e-14 0 0)
(-2.229526284259734e-14 0 0)
(-1.029108318533551e-14 0 0)
(4.526576079094269e-15 0 0)
(7.139986025310341e-15 0 0)
(1.12539184287201e-15 0 0)
(-1.244808421750111e-14 0 0)
(-1.187288394225439e-14 0 0)
(1.493645062562314e-14 0 0)
(9.37826535723054e-15 0 0)
(2.19951583511605e-14 0 0)
(3.30114940574473e-15 0 0)
(2.179508869021339e-14 0 0)
(-7.757075885813998e-14 0 0)
(-5.476906968624614e-14 0 0)
(-6.641687525993018e-14 0 0)
(-8.844954667252121e-14 0 0)
(-4.679129195569319e-14 0 0)
(5.752002752475024e-16 0 0)
(-8.027795145790437e-15 0 0)
(-2.717821300526574e-14 0 0)
(1.242307550988456e-14 0 0)
(-1.051678677160253e-13 0 0)
(-2.700315205192535e-14 0 0)
(-3.277391133508416e-14 0 0)
(-5.877046290533614e-15 0 0)
(2.180134086711572e-14 0 0)
(4.235849853017828e-14 0 0)
(2.634042130001945e-14 0 0)
(-2.081974909306492e-15 0 0)
(4.502192589163032e-14 0 0)
(-9.401398411782189e-14 0 0)
(-3.166727602292343e-14 0 0)
(-3.536231257367834e-14 0 0)
(-1.357347606036434e-14 0 0)
(-4.082671518844937e-15 0 0)
(2.938523145267426e-14 0 0)
(6.587918804612066e-14 0 0)
(-2.413340285261461e-14 0 0)
(8.911227742444464e-14 0 0)
(8.071560384125846e-15 0 0)
(6.280936918584016e-14 0 0)
(4.55221000440137e-14 0 0)
(6.385973490585804e-14 0 0)
(5.984583733296265e-14 0 0)
(4.145193287897716e-14 0 0)
(1.486455059121729e-13 0 0)
(7.285036529500029e-14 0 0)
(1.463071917497371e-13 0 0)
(1.175034127492463e-13 0 0)
(1.44544077862599e-13 0 0)
(1.255312078950586e-13 0 0)
(1.028107970229094e-13 0 0)
(8.925607749325882e-14 0 0)
(6.66419536285003e-14 0 0)
(5.582568758316525e-14 0 0)
(6.132135108250385e-14 0 0)
(1.090129565124977e-13 0 0)
(1.531783341682871e-15 0 0)
(5.191182484074816e-14 0 0)
(2.544636000263274e-14 0 0)
(3.076071037172616e-14 0 0)
(3.571243448034972e-14 0 0)
(4.752279665355981e-14 0 0)
(3.747554836750859e-14 0 0)
(-2.113235793830498e-15 0 0)
(5.115531143525956e-14 0 0)
(-5.521297424650206e-14 0 0)
(2.379578529975179e-14 0 0)
(3.351166820984909e-14 0 0)
(2.047587936328978e-14 0 0)
(-1.719973866516862e-14 0 0)
(-6.294691707775585e-14 0 0)
(-2.103857528473316e-14 0 0)
(-5.250578164671079e-14 0 0)
(3.269888521219227e-15 0 0)
(3.157349336935549e-14 0 0)
(4.681630066330172e-14 0 0)
(2.170755821353888e-14 0 0)
(7.377568747682084e-15 0 0)
(1.615562512205655e-14 0 0)
(8.584238890315145e-15 0 0)
(7.131858195331321e-14 0 0)
(-7.97152555365525e-15 0 0)
(6.142763808988231e-14 0 0)
(1.960057459661889e-14 0 0)
(1.056617896914547e-14 0 0)
(5.845785406005825e-15 0 0)
(1.2679414762978e-14 0 0)
(1.683086022777924e-14 0 0)
(-8.402925760089035e-15 0 0)
(4.47593344616206e-14 0 0)
(-5.957699372606919e-14 0 0)
(8.915604266269519e-15 0 0)
(1.616187729896717e-14 0 0)
(4.809174475189961e-14 0 0)
(7.023070317188004e-14 0 0)
(6.823625873923837e-14 0 0)
(8.519216250511725e-14 0 0)
(2.575896884786902e-14 0 0)
(1.608685117610713e-14 0 0)
(-1.005350046295669e-14 0 0)
(-9.440787126320884e-16 0 0)
(-4.094550654969602e-14 0 0)
(-7.139360807617697e-14 0 0)
(-8.749296360609732e-14 0 0)
(-1.425621377837713e-13 0 0)
(-1.152526290635076e-13 0 0)
(-2.204267489564547e-13 0 0)
(-1.635444434763417e-13 0 0)
(-1.982690340057542e-13 0 0)
(-1.964684070571625e-13 0 0)
(-1.922044224080809e-13 0 0)
(-2.135118412997067e-13 0 0)
(-2.210769753545384e-13 0 0)
(-2.685122415314471e-13 0 0)
(-2.495306324483893e-13 0 0)
(-3.923866225467112e-13 0 0)
(-3.462893222273856e-13 0 0)
(-3.510722375596388e-13 0 0)
(-3.347978210763711e-13 0 0)
(-3.543546304346499e-13 0 0)
(-3.825206873908707e-13 0 0)
(-3.688971939152737e-13 0 0)
(-4.172765388047945e-13 0 0)
(-3.876287159220533e-13 0 0)
(-3.86503324079245e-13 0 0)
(-3.601441462485065e-13 0 0)
(-3.275265393360504e-13 0 0)
(-3.563428226903928e-13 0 0)
(-3.898357343695127e-13 0 0)
(-4.143442678364237e-13 0 0)
(-3.698475248047846e-13 0 0)
(-4.750654099360713e-13 0 0)
(-4.269924217148016e-13 0 0)
(-4.929716445914821e-13 0 0)
(-4.897267647778794e-13 0 0)
(-5.0353782356062e-13 0 0)
(-5.582506236547192e-13 0 0)
(-5.527987253937235e-13 0 0)
(-5.687167677934169e-13 0 0)
(-5.245701466683888e-13 0 0)
(-6.042478891435167e-13 0 0)
(-5.184617698324377e-13 0 0)
(-5.081019127011419e-13 0 0)
(-4.835183531113328e-13 0 0)
(-4.716267126384062e-13 0 0)
(-4.619733514973589e-13 0 0)
(-4.402845498145352e-13 0 0)
(-5.628397215027952e-13 0 0)
(-5.940318320810444e-13 0 0)
(-6.410044371669464e-13 0 0)
(-6.73359452649441e-13 0 0)
(-7.35124708292077e-13 0 0)
(-7.480354536006317e-13 0 0)
(-7.496860283035225e-13 0 0)
(-8.226426806058582e-13 0 0)
(-7.482480276153547e-13 0 0)
(-8.723724957068154e-13 0 0)
(-8.295700926164266e-13 0 0)
(-8.152150944429554e-13 0 0)
(-7.967149029815076e-13 0 0)
(-7.951080935170422e-13 0 0)
(-7.780021375054452e-13 0 0)
(-7.590830501914495e-13 0 0)
(-7.447530607255966e-13 0 0)
(-6.856262237366196e-13 0 0)
(-7.756263102816178e-13 0 0)
(-7.311170628961914e-13 0 0)
(-8.085565260392822e-13 0 0)
(-8.147461811750466e-13 0 0)
(-8.188663657553375e-13 0 0)
(-8.742731574859126e-13 0 0)
(-7.927697793546344e-13 0 0)
(-9.001259089872686e-13 0 0)
(-8.245933598001861e-13 0 0)
(-8.302765886066729e-13 0 0)
(-7.43008703369152e-13 0 0)
(-8.582988454940104e-13 0 0)
(-7.859236456438587e-13 0 0)
(-7.769142587240109e-13 0 0)
(-7.940327190894284e-13 0 0)
(-8.121702842902294e-13 0 0)
(-8.439626038512989e-13 0 0)
(-8.206169752887334e-13 0 0)
(-9.768963892016369e-13 0 0)
(-9.437848603136445e-13 0 0)
(-9.691374376627989e-13 0 0)
(-9.645233311070398e-13 0 0)
(-9.479363057785396e-13 0 0)
(-9.465983399209091e-13 0 0)
(-9.217021714858557e-13 0 0)
(-9.527004645799826e-13 0 0)
(-9.459793744073504e-13 0 0)
(-1.078331707305491e-12 0 0)
(-1.021893306385601e-12 0 0)
(-1.052428938388869e-12 0 0)
(-1.110174044281756e-12 0 0)
(-1.142560320648789e-12 0 0)
(-1.111493253608612e-12 0 0)
(-1.090298373901376e-12 0 0)
(-1.067853058813058e-12 0 0)
(-9.946338150806716e-13 0 0)
(-1.100727004978508e-12 0 0)
(-1.028651909619816e-12 0 0)
(-1.009882874551536e-12 0 0)
(-9.63591756748225e-13 0 0)
(-9.290422271721227e-13 0 0)
(-9.709630733189738e-13 0 0)
(-9.377390052467879e-13 0 0)
(-9.948088760340154e-13 0 0)
(-9.092415829145546e-13 0 0)
(-9.572395450128905e-13 0 0)
(-9.920704225496986e-13 0 0)
(-9.639918960701405e-13 0 0)
(-9.414027809130124e-13 0 0)
(-9.201141185520023e-13 0 0)
(-9.190700050089803e-13 0 0)
(-8.545037741128908e-13 0 0)
(-1.006881829637191e-12 0 0)
(-9.491929933363421e-13 0 0)
(-9.930082490854493e-13 0 0)
(-1.006375403307947e-12 0 0)
(-9.920641703727629e-13 0 0)
(-1.057530714743065e-12 0 0)
(-1.110680470611127e-12 0 0)
(-1.126754817433419e-12 0 0)
(-1.006581725145806e-12 0 0)
(-1.083808614274129e-12 0 0)
(-1.043319516638511e-12 0 0)
(-1.065621031658059e-12 0 0)
(-1.065621031658069e-12 0 0)
(-1.096425507268013e-12 0 0)
(-1.144310930182112e-12 0 0)
(-1.105072267927491e-12 0 0)
(-1.229709414525094e-12 0 0)
(-1.238231131646365e-12 0 0)
(-1.244164447529101e-12 0 0)
(-1.25842566304895e-12 0 0)
)
;

boundaryField
{
    inlet
    {
        type            calculated;
        value           uniform (-0.0001111762971625575 0 0);
    }
    outlet
    {
        type            calculated;
        value           uniform (-1.25842566304895e-12 0 0);
    }
    frontAndBack
    {
        type            empty;
    }
}


// ************************************************************************* //
