/*--------------------------------*- C++ -*----------------------------------*\
| =========                 |                                                 |
| \\      /  F ield         | OpenFOAM: The Open Source CFD Toolbox           |
|  \\    /   O peration     | Version:  v2012                                 |
|   \\  /    A nd           | Website:  www.openfoam.com                      |
|    \\/     M anipulation  |                                                 |
\*---------------------------------------------------------------------------*/
FoamFile
{
    version     2.0;
    format      ascii;
    class       volScalarField;
    location    "0.006";
    object      p;
}
// * * * * * * * * * * * * * * * * * * * * * * * * * * * * * * * * * * * * * //

dimensions      [1 -1 -2 0 0 0 0];


internalField   nonuniform List<scalar> 
1000
(
101310.9399174339
101313.576184692
101306.8365803115
101301.5402292577
101295.7045196649
101290.462876122
101285.9457079675
101282.079260987
101278.7607065971
101276.5358605916
101275.948729607
101275.9666473378
101276.3326719219
101277.3488657206
101279.3282149429
101282.3332715136
101286.2504622085
101290.9035086725
101296.146320222
101301.8771808015
101308.0120487259
101314.4601514675
101321.115165486
101327.8550728187
101334.5456726654
101341.0510641475
101347.2542832904
101353.084395397
101358.5337013157
101363.6170618938
101368.1796987979
101371.568213811
101373.0168455771
101373.1822153375
101373.1139275402
101372.8491229609
101372.1086960897
101370.6554888538
101368.2814571858
101364.891594953
101360.5261781849
101355.3386633687
101349.5329832609
101343.3001788519
101336.7887751752
101330.1121499271
101323.3706859614
101316.6671186799
101310.1064377569
101303.7778740011
101297.7259446849
101291.9483912721
101286.4966028208
101281.7444068381
101278.5842539984
101277.5085335751
101277.435497157
101277.4767556269
101277.7371927787
101278.3795293355
101279.6289399016
101281.6770129139
101284.6601727577
101288.6218997168
101293.5006147244
101299.1439946515
101305.3475187283
101311.901903057
101318.628332888
101325.3891923998
101332.0817656984
101338.6339994027
101345.009866385
101351.2079123465
101357.2222465455
101362.9247029951
101367.8266609497
101370.9818805638
101372.0186318132
101372.0941769625
101372.0378024754
101371.8324814938
101371.2860127053
101370.223844093
101368.4606809596
101365.8455075197
101362.2879053002
101357.7818805688
101352.4119774638
101346.3389815396
101339.770240696
101332.9231065749
101325.9896545296
101319.1111961845
101312.3692838087
101305.7924351337
101299.3754501035
101293.1300171752
101287.2277273836
101282.2689862522
101279.2678085884
101278.3938481341
101278.3495496124
101278.3858653662
101278.5939685056
101279.0992976937
101280.0781334519
101281.6959750502
101284.0982510228
101287.384539622
101291.5890322139
101296.6675435957
101302.4983032527
101308.9002871953
101315.6646773384
101322.5893148306
101329.5086984021
101336.31628946
101342.9725012967
101349.4844952018
101355.83959289
101361.8621635297
101366.973254209
101370.1774131664
101371.202729067
101371.2810252722
101371.2384963232
101371.0805020903
101370.6535189843
101369.8138588618
101368.4015509035
101366.2700942996
101363.303567106
101359.437384391
101354.6734318417
101349.0863341109
101342.8185725376
101336.0620161503
101329.0257167311
101321.8976987643
101314.814771806
101307.8516361904
101301.0366060344
101294.4141084731
101288.203820288
101283.0640488069
101280.0139181669
101279.1358882097
101279.0862590905
101279.1136027614
101279.2776205428
101279.6850696567
101280.4836009257
101281.8175566702
101283.8237010673
101286.6133000898
101290.2562045058
101294.7656175795
101300.0892546159
101306.1118297824
101312.6694146532
101319.5727747362
101326.6371766601
101333.7142724649
101340.7134524025
101347.5929941948
101354.3000639742
101360.6294200321
101365.9851552166
101369.3692639079
101370.4949530946
101370.5951724913
101370.5643509579
101370.4460324629
101370.1092872647
101369.4313421052
101368.2705792388
101366.4908242643
101363.9725775209
101360.6288852163
101356.4191200715
101351.3594474147
101345.5277691032
101339.0588873291
101332.1261507636
101324.9123733278
101317.579756348
101310.249979084
101303.0075614888
101295.9543161916
101289.3660152876
101283.9477881076
101280.7318079824
101279.7790957163
101279.7138448062
101279.7344073413
101279.8652390796
101280.1974794499
101280.8592759908
101281.9789248107
101283.683562379
101286.085295091
101289.268691528
101293.2773986108
101298.1039179648
101303.6862089819
101309.9121670115
101316.631793312
101323.6780533679
101330.8946951816
101338.1598603237
101345.385863089
101352.4717640602
101359.1742267757
101364.8768089074
101368.5599896888
101369.8626868716
101370.0014308054
101369.9798081062
101369.8903924251
101369.6215596991
101369.0666768317
101368.0996539332
101366.5948695491
101364.4349279204
101361.5232860756
101357.7958957749
101353.2317653845
101347.8609717793
101341.7662262055
101335.0740112567
101327.9362136094
101320.5080535709
101312.9295466106
101305.3232604141
101297.8400816593
101290.8082010249
101284.9844501721
101281.4607301323
101280.3605042326
101280.2692333291
101280.2825252843
101280.384967322
101280.6556696909
101281.2090054362
101282.1597786543
101283.6250345997
101285.713150563
101288.5143065088
101292.0892870638
101296.4597670103
101301.6027229807
101307.449775782
101313.8922146506
101320.7941044104
101328.0132186827
101335.4209461927
101342.9046083061
101350.3299850149
101357.4264316369
101363.5636022747
101367.6798243139
101369.2628296674
101369.4681959579
101369.4545168055
101369.3899298811
101369.1766630245
101368.7210517992
101367.9091303808
101366.625547588
101364.7581330594
101362.2076986894
101358.8974191879
101354.7824143804
101349.8583665182
101344.1659720489
101337.7879923076
101330.8390452578
101323.4512370264
101315.760159585
101307.902827834
101300.058529424
101292.5869631362
101286.2734383365
101282.284185402
101280.9159005782
101280.7714751271
101280.7795431303
101280.8584809767
101281.0782650426
101281.5413962795
101282.3521974706
101283.6192162831
101285.4463224426
101287.9249862554
101291.1251022324
101295.086743873
101299.8143647373
101305.2736948329
101311.3924675966
101318.0679346805
101325.1814176778
101332.6128791632
101340.2427424355
101347.9221190977
101355.3734716209
101361.978053445
101366.6458311717
101368.6476773274
101368.974284022
101368.9691210229
101368.9260033697
101368.7592863978
101368.387106801
101367.7046914747
101366.6053969326
101364.9828159219
101362.738468126
101359.7891783124
101356.0752369109
101351.5684121477
101346.2773542141
101340.2480675151
101333.5594095191
101326.3150565552
101318.634455826
101310.6523865157
101302.5548049103
101294.7020811411
101287.8661176043
101283.2714753256
101281.4876580752
101281.2431625795
101281.2447309249
101281.3024565219
101281.4771282436
101281.8620674469
101282.5532700609
101283.6519028011
101285.2568985801
101287.4587868206
101290.3322064615
101293.9290574461
101298.2729921031
101303.3552382724
101309.1330981466
101315.5339046385
101322.4644619066
101329.8205272998
101337.4874242195
101345.3169152237
101353.0443811515
101360.0934907665
101365.3886542302
101367.9636955014
101368.5001668984
101368.5131587034
101368.486486762
101368.3594831368
101368.0587328736
101367.4873490368
101366.5458746848
101365.1331924855
101363.1527882219
101360.5186510796
101357.1620923793
101353.0385617498
101348.1330170815
101342.4624978895
101336.0753953909
101329.0475566645
101321.4770800705
101313.4860296524
101305.251396091
101297.1096985727
101289.7777747401
101284.4879208519
101282.1246280445
101281.6995550349
101281.6928588194
101281.7294602785
101281.8638864318
101282.1785884142
101282.7637683256
101283.7148346157
101285.1262965206
101287.0867454421
101289.6728614169
101292.9438811198
101296.9366241849
101301.6609866002
101307.0973976152
101313.1985350137
101319.8948892796
101327.1001747947
101334.7110561731
101342.5898853737
101350.4981507428
101357.9248965127
101363.8604236632
101367.1455096471
101368.0223110615
101368.0769990563
101368.061831591
101367.9685104728
101367.7301222474
101367.2558456017
101366.452488918
101365.2234780074
101363.4747144461
101361.1191963241
101358.0826921446
101354.3096389265
101349.7681147104
101344.4531220217
101338.3880430012
101331.6239596484
101324.2375103349
101316.3335209254
101308.0704876092
101299.7463726939
101291.9945743154
101285.988527935
101282.8868557474
101282.1554335287
101282.120668275
101282.1439828577
101282.2432112179
101282.4965480059
101282.9878305082
101283.8078304956
101285.0473141801
101286.7929121362
101289.1223612176
101292.0997152656
101295.7706749437
101300.1585331604
101305.2616679871
101311.0534345088
101317.4843788922
101324.4853834976
101331.9679823644
101339.8112137775
101347.8080300616
101355.5215155478
101362.0488268853
101366.1292802028
101367.502855995
101367.6467940074
101367.638497824
101367.5760005294
101367.3931922709
101367.0067151369
101366.3274390338
101365.2627706263
101363.7208838694
101361.6146965869
101358.8667731318
101355.4144554688
101351.2140119358
101346.2438875947
101340.5077117944
101334.0359997278
101326.8856121464
101319.1422467622
101310.9415187286
101302.5380216246
101294.470052284
101287.7957011122
101283.843664361
101282.6409124055
101282.5361524871
101282.5519302377
101282.6202627053
101282.8197825046
101283.2269457977
101283.9291490344
101285.0139504969
101286.5662255681
101288.6637976202
101291.3737596495
101294.7484153018
101298.8210500347
101303.6031508874
101309.0840725232
101315.2318271736
101321.9934199144
101329.2940716084
101337.0289920733
101345.0242233783
101352.9202988921
101359.9479032526
101364.8539847054
101366.9037792012
101367.2311679436
101367.2361117204
101367.1931558332
101367.0569668874
101366.7448996021
101366.1739566457
101365.2546208038
101363.8974291363
101362.0159465734
101359.5309619615
101356.3746330608
101352.494347379
101347.8563811077
101342.4492391102
101336.2858233052
101329.4045350187
101321.8731553713
101313.8054668649
101305.4130075784
101297.138212775
101289.8934238556
101285.0548237132
101283.2061972715
101282.9559368803
101282.9602892039
101283.0051641048
101283.1559973797
101283.4866419242
101284.0809026168
101285.0237238272
101286.3985054042
101288.2832899207
101290.7473159937
101293.8473181559
101297.6239350944
101302.0991131612
101307.2747852831
101313.1322878975
101319.6322377802
101326.7141121256
101334.2897996549
101342.2140120487
101350.1957529003
101357.6049599745
101363.2874461126
101366.1563814531
101366.8054838092
101366.8330182108
101366.8095797979
101366.7120811143
101366.4660533879
101365.9920601991
101365.2037326445
101364.0138095807
101362.3369233487
101360.0929699178
101357.2106380536
101353.631071545
101349.3114591424
101344.2282727943
101338.3799381925
101331.7892837564
101324.5078004911
101316.6281775299
101308.3227466883
101299.9479461083
101292.260751896
101286.5678747377
101283.9013594977
101283.3741095949
101283.3595807555
101283.3865447194
101283.4967904331
101283.7608517719
101284.2583973693
101285.0724385284
101286.2851560653
101287.9746273737
101290.211623664
101293.0562082484
101296.554545154
101300.7365052184
101305.6140229475
101311.1797898089
101317.4064856918
101324.2462856881
101331.6261637084
101339.426062301
101347.4123594167
101355.0799525802
101361.4260062061
101365.185898538
101366.3304283702
101366.4297860569
101366.4163038017
101366.350860328
101366.162219552
101365.7755742577
101365.1074093546
101364.0723259392
101362.5855383755
101360.5662395031
101357.940612411
101354.6449864471
101350.6294071512
101345.861176175
101340.3275940332
101334.03842081
101327.0303086296
101319.3773329403
101311.2190911536
101302.8385724576
101294.8439400781
101288.3949458655
101284.79815721
101283.8206906081
101283.7536874159
101283.7670091215
101283.844041171
101284.0490228519
101284.4599693387
101285.1571748416
101286.2216640237
101287.7312443858
101289.7575945498
101292.3632298496
101295.5986884951
101299.5001559498
101304.0874720353
101309.3625493983
101315.3084768741
101321.8887529935
101329.0434049678
101336.6734755101
101344.5933643621
101352.4078800686
101359.2873302798
101363.9469667318
101365.7772291301
101366.0379530893
101366.0355140042
101365.9941896072
101365.8542324121
101365.5439485541
101364.9824276582
101364.0861707806
101362.7714991091
101360.9575396617
101358.5690287413
101355.539235861
101351.8130549379
101347.3501635843
101342.1281264543
101336.1455546373
101329.426182089
101322.0268939541
101314.0589133397
101305.7465558912
101297.5720068238
101290.5150964359
101285.9673918906
101284.3463049956
101284.1525528391
101284.1578999366
101284.2079454517
101284.3626137081
101284.6953220051
101285.2845934606
101286.2102530139
101287.550199306
101289.3772807867
101291.7562989977
101294.7414201126
101298.3740150947
101302.6805419022
101307.6705814263
101313.3357958242
101319.6494359385
101326.5633062664
101333.9960442577
101341.7989115092
101349.664148711
101356.9279053675
101362.4049872228
101365.0687096772
101365.6310854312
101365.6495439724
101365.6280032091
101365.52737387
101365.2837076326
101364.8183486377
101364.0498471857
101362.8953984409
101361.2740714258
101359.1093232073
101356.3317654192
101352.8821094652
101348.7141806509
101343.7979194689
101338.1225634359
101331.7005900997
101324.5743015527
101316.8314929146
101308.6485593741
101300.401987355
101292.8888134979
101287.4411362903
101284.9992142218
101284.552760383
101284.5437387408
101284.5727078271
101284.6847742747
101284.9487183693
101285.4406338096
101286.2395588949
101287.4232322025
101289.0652093083
101291.2320787609
101293.9809754511
101297.357334357
101301.3928415921
101306.1037326014
101311.4895789559
101317.532164461
101324.1929598099
101331.4053054008
101339.0504114004
101346.8891733456
101354.4010158594
101360.5636782278
101364.1375397841
101365.1823951951
101365.26610006
101365.2543004481
101365.1865110371
101364.9998881033
101364.6199082756
101363.9672452926
101362.960309984
101361.5183474617
101359.5639592473
101357.0257497207
101353.8411316566
101349.9590867662
101345.3429605802
101339.9737107379
101333.8538979038
101327.0132131276
101319.5200048341
101311.512689946
101303.2834327637
101295.4632618687
101289.2326273225
101285.851330017
101284.9762440058
101284.9218671509
101284.9382938265
101285.0150080445
101285.219847777
101285.6254146531
101286.3093375335
101287.3488837262
101288.8180055463
101290.7846432719
101293.3084851141
101296.4387456736
101300.2118673443
101304.6496952543
101309.7584574344
101315.5276933039
101321.9277346839
101328.9038903145
101336.3603021817
101344.1113729205
101351.7559747709
101358.4546828123
101362.9358147797
101364.6534342042
101364.8875912887
101364.8864474588
101364.8428483187
101364.7050748447
101364.4002679822
101363.851869099
101362.9796142536
101361.7032545037
101359.9449288763
101357.6317213857
101354.6982446632
101351.0893630193
101346.7630627965
101341.6935240925
101335.8746253051
101329.3247951488
101322.0963073789
101314.2982832084
101306.1577965997
101298.166776669
101291.3164485539
101286.9754027236
101285.4766746384
101285.3076097134
101285.3139345471
101285.3647503296
101285.5189717555
101285.8473047478
101286.4254051701
101287.3299520604
101288.6354498458
101290.4114151956
101292.7199573335
101295.6134497872
101299.1323568573
101303.3035173817
101308.1388355343
101313.6338641906
101319.7657621394
101326.4893894098
101333.7262022651
101341.3304425186
101348.9985898686
101356.0810654565
101361.4301441678
101364.0513253072
101364.6186823388
101364.6412419357
101364.6223382254
101364.5414099136
101364.338669375
101363.9498652283
101363.3076222706
101362.3466382911
101361.0070659419
101359.2381693836
101357.0021620283
101354.2782774203
101351.0671884888
101347.3963227899
101343.328114209
101338.9773518402
101334.5519983361
101330.4338329831
101327.2383191241
101325.5234866913
101325.0487015931
101325.0011831767
101325.0000049184
101324.9999999805
101324.9999999781
101324.9999999779
101324.999999978
101324.999999978
101324.9999999781
101324.9999999781
101324.9999999782
101324.9999999784
101324.9999999785
101324.9999999786
101324.9999999787
101324.9999999787
101324.9999999787
101324.9999999787
101324.9999999788
101324.9999999789
101324.9999999789
101324.9999999789
101324.999999979
101324.9999999789
101324.999999979
101324.9999999789
101324.9999999789
101324.999999979
101324.9999999789
101324.9999999789
101324.9999999789
101324.9999999789
101324.9999999789
101324.999999979
101324.999999979
101324.999999979
101324.9999999791
101324.9999999791
101324.9999999791
101324.9999999791
101324.9999999791
101324.9999999791
101324.9999999792
101324.9999999791
101324.9999999791
101324.999999979
101324.999999979
101324.999999979
101324.9999999789
101324.9999999788
101324.9999999787
101324.9999999785
101324.9999999784
101324.9999999782
101324.999999978
101324.9999999779
101324.9999999777
101324.9999999775
101324.9999999774
101324.9999999773
101324.9999999771
101324.9999999771
101324.999999977
101324.9999999769
101324.9999999768
101324.9999999767
101324.9999999765
101324.9999999764
101324.9999999763
101324.9999999763
101324.9999999763
101324.9999999763
101324.9999999762
101324.9999999762
101324.9999999761
101324.9999999761
101324.9999999761
101324.9999999761
101324.9999999761
101324.999999976
101324.999999976
101324.999999976
101324.999999976
101324.999999976
101324.999999976
101324.999999976
101324.999999976
101324.999999976
101324.9999999759
101324.999999976
101324.9999999759
101324.9999999759
101324.9999999759
101324.9999999759
101324.9999999759
101324.9999999759
101324.9999999759
101324.9999999759
101324.9999999759
101324.9999999759
101324.9999999759
101324.999999976
101324.9999999759
101324.9999999759
101324.9999999759
101324.9999999759
101324.9999999759
101324.9999999759
101324.9999999759
101324.9999999759
101324.9999999758
101324.9999999757
101324.9999999756
101324.9999999755
101324.9999999754
101324.9999999753
101324.9999999752
101324.9999999749
101324.9999999746
101324.9999999744
101324.9999999742
101324.9999999738
101324.9999999736
101324.9999999733
101324.999999973
101324.9999999727
101324.9999999724
101324.999999972
101324.9999999717
101324.9999999713
101324.999999971
101324.9999999707
101324.9999999704
101324.9999999701
101324.9999999698
101324.9999999694
101324.9999999691
101324.9999999688
101324.9999999685
101324.9999999682
101324.9999999679
101324.9999999675
101324.9999999672
101324.9999999669
101324.9999999667
101324.9999999664
101324.9999999662
101324.9999999658
101324.9999999655
101324.9999999652
101324.999999965
101324.9999999646
101324.9999999643
101324.999999964
101324.9999999637
101324.9999999633
101324.999999963
101324.9999999628
101324.9999999625
101324.9999999622
101324.999999962
101324.9999999615
)
;

boundaryField
{
    inlet
    {
        type            uniformFixedValue;
        uniformValue    sine;
        uniformValueCoeffs
        {
            frequency       constant 3000;
            scale           constant 50;
            level           constant 101325;
        }
        value           uniform 101323.6421297957;
    }
    outlet
    {
        type            pressureOutletNSCBC;
        pInf            101325;
        gamma           1.4;
        etaAc           1;
        fieldInf        1;
        lInf            2.25;
        value           uniform 101324.9999999617;
    }
    frontAndBack
    {
        type            empty;
    }
}


// ************************************************************************* //
