/*--------------------------------*- C++ -*----------------------------------*\
| =========                 |                                                 |
| \\      /  F ield         | OpenFOAM: The Open Source CFD Toolbox           |
|  \\    /   O peration     | Version:  v2012                                 |
|   \\  /    A nd           | Website:  www.openfoam.com                      |
|    \\/     M anipulation  |                                                 |
\*---------------------------------------------------------------------------*/
FoamFile
{
    version     2.0;
    format      ascii;
    class       volScalarField;
    location    "0.006";
    object      pMean;
}
// * * * * * * * * * * * * * * * * * * * * * * * * * * * * * * * * * * * * * //

dimensions      [1 -1 -2 0 0 0 0];


internalField   nonuniform List<scalar> 
1000
(
101325.0302508707
101325.0066102551
101325.0294744139
101325.0510383295
101325.0821364823
101325.1196151058
101325.1620146913
101325.2112962799
101325.2641154123
101325.3213390151
101325.3799823106
101325.4389375113
101325.4974972746
101325.5554640146
101325.6115735528
101325.6649552449
101325.7141511935
101325.7584524025
101325.7967510499
101325.8286795991
101325.853405616
101325.8707446613
101325.8801178986
101325.8815922727
101325.8748857091
101325.8603576337
101325.8380512838
101325.8086105717
101325.772257215
101325.7296465758
101325.6810112081
101325.627434295
101325.5705965862
101325.5128983603
101325.4550980255
101325.3975373667
101325.3405129843
101325.2847475854
101325.2311582512
101325.1809215949
101325.1352089704
101325.0951331483
101325.0615598643
101325.0351574248
101325.0163445732
101325.0054220728
101325.0025321201
101325.0077216067
101325.0208830615
101325.0417996826
101325.0701654314
101325.1056703663
101325.1479834275
101325.1965850241
101325.2502343296
101325.3066570925
101325.3637378043
101325.4208099408
101325.4776720932
101325.5340949167
101325.5893760238
101325.6428386324
101325.6933148567
101325.7398130199
101325.7810390036
101325.8161191467
101325.8440903573
101325.8645296998
101325.8769578126
101325.8813750258
101325.8776503547
101325.8660385496
101325.8465854991
101325.8196365432
101325.7852730373
101325.743876518
101325.6958617539
101325.6427473888
101325.5868583515
101325.5304163734
101325.4739292259
101325.4176203939
101325.3617176428
101325.306730669
101325.2533521396
101325.2025096717
101325.1552530531
101325.1127293584
101325.0760181525
101325.0460943559
101325.0236800871
101325.0092810279
101325.0031203773
101325.005255234
101325.0155600713
101325.0338754921
101325.0599923452
101325.0937547188
101325.1348885752
101325.1827638961
101325.2357321758
101325.291216055
101325.3471962415
101325.4031766553
101325.4589777226
101325.5144401786
101325.5690010486
101325.6221357172
101325.6728888744
101325.7203892931
101325.7634408744
101325.8010847484
101325.8322123519
101325.8561312135
101325.8721356925
101325.8800157386
101325.8795376024
101325.870885253
101325.8540818574
101325.8294253822
101325.7969648329
101325.7570574919
101325.7102033128
101325.6580778865
101325.603169052
101325.5477018485
101325.4921830912
101325.4368124178
101325.3817439479
101325.3274101097
101325.2743412332
101325.22333695
101325.1752718593
101325.1312222861
101325.0922220942
101325.0593545147
101325.0334957267
101325.0154059511
101325.0055324852
101325.0041573246
101325.0112850176
101325.0268613526
101325.0506984521
101325.0826591875
101325.1224016189
101325.1692088076
101325.2212468088
101325.2758424862
101325.3309281579
101325.3860314143
101325.4409835859
101325.4956717221
101325.5496215902
101325.6024094563
101325.6532137973
101325.7012870517
101325.7455428773
101325.7850640565
101325.8187257051
101325.845717339
101325.8651690009
101325.8766467523
101325.8797139226
101325.8743673383
101325.8605144701
101325.8383847429
101325.8080185602
101325.7698054931
101325.7243068896
101325.673280505
101325.6192864183
101325.5646535896
101325.5099485613
101325.4553682709
101325.4010129768
101325.3472527846
101325.2945175242
101325.2434980213
101325.1949473008
101325.1498387224
101325.1091356682
101325.073917195
101325.0451148601
101325.0236381865
101325.0101167102
101325.0050703477
101325.0087024332
101325.0211495632
101325.0423187626
101325.0721334145
101325.1102132917
101325.1557702532
101325.2068324205
101325.2606101191
101325.3149304349
101325.3692852197
101325.4235094397
101325.4775312804
101325.5309347209
101325.5833787122
101325.6341377807
101325.6825695796
101325.7276839231
101325.7686359433
101325.8043255989
101325.8339163084
101325.8564400296
101325.8713166473
101325.8779197338
101325.8760513492
101325.865447151
101325.8462074374
101325.8183009561
101325.7820962813
101325.7381754622
101325.6883316601
101325.6352117256
101325.5813075947
101325.5273091637
101325.4734158955
101325.4196915302
101325.3664557505
101325.3140617567
101325.2631127901
101325.2142602714
101325.1683870078
101325.1263740451
101325.0892629852
101325.057988114
101325.0335311175
101325.0166438392
101325.0080257893
101325.0080781448
101325.0171367653
101325.0352731063
101325.0625226111
101325.0985595748
101325.14258683
101325.1925663659
101325.245556224
101325.2991993689
101325.3528894576
101325.4064741535
101325.4599009436
101325.5128108208
101325.5649166743
101325.6155781717
101325.6642335148
101325.7099835869
101325.7520523305
101325.7893924671
101325.8211693633
101325.8463803935
101325.8643452683
101325.8743074177
101325.8758944052
101325.8686773277
101325.8525941242
101325.827498789
101325.7936706267
101325.7516398716
101325.7031595035
101325.6509398255
101325.5977077553
101325.5443418975
101325.4910682943
101325.4379135592
101325.3851652182
101325.333106557
101325.2822811343
101325.2332467484
101325.1868126996
101325.1437739259
101325.1051249957
101325.0717712827
101325.0447240234
101325.0248048327
101325.0128405481
101325.0093915501
101325.0149769131
101325.0298427007
101325.0541753446
101325.0877632721
101325.1298910185
101325.178558834
101325.2307150417
101325.2837300608
101325.33681922
101325.3898233692
101325.4427044722
101325.4951560526
101325.5469285212
101325.5974604993
101325.6462466725
101325.6924788735
101325.735434147
101325.7741355912
101325.8077588185
101325.8353101199
101325.8560400203
101325.8691163251
101325.8740201047
101325.8701922965
101325.8574010124
101325.8353800359
101325.8042661581
101325.7644859738
101325.7176399796
101325.6664381097
101325.6138565329
101325.5610797339
101325.5083737342
101325.4557564023
101325.4034636989
101325.3517466813
101325.3010726013
101325.2519475827
101325.2050914708
101325.1612447068
101325.1213277061
101325.0862237475
101325.0569274751
101325.0343088445
101325.0192651684
101325.0124851959
101325.0146303317
101325.0261110224
101325.047267442
101325.0780390551
101325.117871966
101325.1649226728
101325.2161297167
101325.2685273037
101325.3210567231
101325.373514272
101325.4258857154
101325.4778971792
101325.5293444066
101325.5797166982
101325.6285733976
101325.675166653
101325.7188425944
101325.7586713624
101325.7938731212
101325.8234555563
101325.8466563917
101325.8625743224
101325.8706097482
101325.8700744884
101325.8606179749
101325.8418266467
101325.8137130854
101325.7765238245
101325.7316533298
101325.6816548784
101325.6297605043
101325.5775314129
101325.5253694849
101325.4732540978
101325.4214110255
101325.3700286836
101325.3195433631
101325.2703831585
101325.2232232675
101325.1787224395
101325.1377610886
101325.1011638232
101325.0699207621
101325.044899138
101325.0270555139
101325.0171502189
101325.0159673989
101325.0240413507
101325.0418635753
101325.069529295
101325.1066963328
101325.1517799794
101325.2018412354
101325.2535942901
101325.3055841937
101325.3575198775
101325.4093939096
101325.4609817752
101325.5120953292
101325.56229328
101325.6111623971
101325.6580366931
101325.7022920485
101325.7430775942
101325.7796251103
101325.8109928635
101325.836385206
101325.8548987912
101325.8658416613
101325.8684700722
101325.8622961967
101325.8468205726
101325.8218894516
101325.7875996681
101325.7450375885
101325.6965218643
101325.6453900339
101325.5937076351
101325.5420569405
101325.4904395317
101325.4390285006
101325.3879988778
101325.3377181325
101325.288586606
101325.2412004459
101325.196184136
101325.1543418873
101325.1164759302
101325.0835264876
101325.0563765052
101325.0359838852
101325.023181752
101325.0188145049
101325.0235396518
101325.0379519942
101325.0623179374
101325.0964961001
101325.1392473503
101325.1878854407
101325.2389221722
101325.2903848095
101325.3418189988
101325.3932095637
101325.4443765846
101325.4951504706
101325.5451474861
101325.5939844952
101325.6410623065
101325.6857903024
101325.7273834217
101325.7650955994
101325.7980307658
101325.8253824204
101325.8462533466
101325.8598935116
101325.8655184822
101325.8625376199
101325.8503759914
101325.8287371919
101325.797563035
101325.7576223003
101325.7108983457
101325.6606879371
101325.6095692602
101325.5584262405
101325.5073008434
101325.4563331785
101325.4056643698
101325.3556224061
101325.3065608947
101325.2590275891
101325.2135953735
101325.1710191577
101325.1320573897
101325.0976174847
101325.0685665666
101325.0458664703
101325.0303801006
101325.0230047046
101325.0244757682
101325.0354854321
101325.0564347964
101325.0873903641
101325.1274621044
101325.1743516825
101325.2245227194
101325.2754551082
101325.3263950778
101325.377315323
101325.4280520863
101325.4784840016
101325.5282464332
101325.5770177426
101325.6242243034
101325.6693418129
101325.7116095055
101325.7503413522
101325.7846506663
101325.8137682968
101325.8367741428
101325.852919077
101325.8613566007
101325.8614596191
101325.8525538203
101325.8342643116
101325.8063536936
101325.7693337097
101325.7247441088
101325.6756956443
101325.6251604252
101325.574511443
101325.5238562584
101325.473324027
101325.4230226472
101325.3732409324
101325.3242937796
101325.2766799902
101325.2309278299
101325.1877423327
101325.1478414148
101325.1120944531
101325.0813473355
101325.0565531111
101325.0385892844
101325.0283848953
101325.0267309575
101325.034396423
101325.0518960677
101325.0794805357
101325.1165882365
101325.1613762794
101325.2104590023
101325.2608193846
101325.3112656914
101325.3617039868
101325.4120079498
101325.4620688158
101325.5115768953
101325.5602300021
101325.6075156259
101325.6529323466
101325.695780543
101325.7353921587
101325.770930987
101325.801628144
101325.8265914121
101325.8450424925
101325.8561309319
101325.8591662509
101325.8534391192
101325.8384700599
101325.8139119133
101325.7800021104
101325.7378847883
101325.6902829823
101325.6404458467
101325.5902790101
101325.5400993345
101325.4900054259
101325.4400871466
101325.3905904167
101325.3418000532
101325.2941639321
101325.2481754801
101325.2044859656
101325.1637810822
101325.1268833594
101325.0946213092
101325.0679223647
101325.0476751573
101325.0348153515
101325.0301817367
101325.0345903637
101325.0486576103
101325.0727769542
101325.1066909474
101325.1490179035
101325.1967239875
101325.2464312409
101325.296396062
101325.3463600896
101325.3962322929
101325.445910943
101325.495142742
101325.5436395593
101325.5909505769
101325.6365921416
101325.6799255706
101325.7202982616
101325.7569256372
101325.7890428049
101325.8157893138
101325.8363697387
101325.8499364862
101325.8557553041
101325.8530870655
101325.8413745146
101325.8201736602
101325.78950521
101325.7501372505
101325.7043293493
101325.655359628
101325.6057058941
101325.5560036242
101325.5063639682
101325.456850983
101325.4076751789
101325.3590862748
101325.3114903806
101325.2653397244
101325.221243421
101325.1798464679
101325.1419364793
101325.1083109069
101325.0798793783
101325.0575205167
101325.0421795746
101325.0347146529
101325.0359864258
101325.0466772333
101325.0673095801
101325.0978682638
101325.1374202747
101325.1833995032
101325.2323100719
101325.2817822233
101325.3312820951
101325.3807120411
101325.4300059424
101325.4789311365
101325.5272451145
101325.574523675
101325.6203302454
101325.6640556327
101325.7050899622
101325.7426744503
101325.7760747673
101325.8044442657
101325.8269969559
101325.8428792946
101325.8513397925
101325.8516101223
101325.8430802745
101325.8252243648
101325.7978888159
101325.7615129805
101325.7178503665
101325.6699842879
101325.6208745485
101325.5716357502
101325.5224386485
101325.4733299475
101325.4244848783
101325.3761232623
101325.3286084523
101325.2823595998
101325.2379393261
101325.1959605136
101325.1571662865
101325.1223304154
101325.092329596
101325.068036596
101325.0503851049
101325.0402547764
101325.0385263696
101325.0459451174
101325.0631224601
101325.0902514349
101325.1267765339
101325.1706663417
101325.2185428805
101325.2674786233
101325.316503099
101325.3654817593
101325.4143599299
101325.4629508202
101325.511031185
101325.5582272067
101325.60412637
101325.6481677696
101325.6897654488
101325.7282010016
101325.7627578327
101325.7926152227
101325.8169924392
101325.8350410648
101325.8459962245
101325.8490697011
101325.8436124023
101325.8290321078
101325.8050435965
101325.7718109608
101325.7306177721
101325.6841627973
101325.6357067464
101325.5869340013
101325.5381886299
101325.4895006977
101325.4410127871
101325.3929183302
101325.3455360586
101325.2992553711
101325.2545909509
101325.2121268491
101325.1725601865
101325.1366429558
101325.1052144398
101325.0791407241
101325.0593345233
101325.0466920645
101325.0420986108
101325.0463530663
101325.0601282156
101325.083790568
101325.1170921806
101325.1585437334
101325.2050907816
101325.2534183127
101325.3019711356
101325.3505032092
101325.3989597386
101325.4472027227
101325.4950209266
101325.5420963024
101325.5880301333
101325.6323188459
101325.674387342
101325.7135716289
101325.7491583623
101325.7803726611
101325.8064230887
101325.826492358
101325.8397869644
101325.8455295491
101325.8430173274
101325.8316316633
101325.8109613879
101325.7809778635
101325.7425218022
101325.6978300682
101325.6501907205
101325.6019101962
101325.5536152813
101325.5053601246
101325.4572511846
101325.4094563673
101325.3622547801
101325.3160023003
101325.2711726779
101325.2283142859
101325.1880865455
101325.1512089063
101325.1184922558
101325.0907801162
101325.0689732977
101325.0539634297
101325.0466487361
101325.0478537451
101325.058312726
101325.0785109799
101325.1084653883
101325.1471626211
101325.1920380863
101325.2396105268
101325.2876935071
101325.3357771883
101325.3838155226
101325.4316883735
101325.4792260889
101325.5261323722
101325.5720549784
101325.6165133389
101325.658978019
101325.6988047796
101325.7353198551
101325.7677600842
101325.7953619719
101325.8173067419
101325.832812386
101325.8410834229
101325.8414061687
101325.8331138841
101325.815725144
101325.7890346523
101325.753538993
101325.7109525615
101325.6643739143
101325.6166173613
101325.5687692481
101325.520942999
101325.4732201862
101325.4257438063
101325.3787530751
101325.3325756035
101325.2876408683
101325.2444678544
101325.2036726745
101325.1659489529
101325.1320707142
101325.102864679
101325.0792080185
101325.0619914444
101325.0521104642
101325.0504141096
101325.0576747954
101325.0744756525
101325.1010318269
101325.1367379172
101325.1795696065
101325.2261565512
101325.273724816
101325.321353307
101325.3689520486
101325.416432859
101325.4636466959
101325.510340473
101325.5561865308
101325.6007489973
101325.6435221138
101325.6839028196
101325.7212357676
101325.7547910624
101325.7838141427
101325.807507994
101325.8250867173
101325.835761496
101325.8387977148
101325.8335122805
101325.8193603006
101325.7960189166
101325.7636875485
101325.7235706301
101325.6783229155
101325.6310752297
101325.5835255389
101325.5359802581
101325.488492272
101325.4411620123
101325.3941660312
101325.3477594139
101325.3022772337
101325.2581303605
101325.2157971609
101325.1758107191
101325.1387413677
101325.1051742111
101325.0756810418
101325.0507848462
101325.0309110356
101325.0163085919
101325.006903953
101325.0020530745
101325.0003446224
101325.0000237323
101325.0000004443
101324.9999999927
101324.999999991
101324.999999991
101324.999999991
101324.999999991
101324.9999999909
101324.999999991
101324.9999999909
101324.9999999908
101324.9999999908
101324.9999999907
101324.9999999907
101324.9999999907
101324.9999999906
101324.9999999906
101324.9999999906
101324.9999999905
101324.9999999905
101324.9999999905
101324.9999999905
101324.9999999905
101324.9999999904
101324.9999999904
101324.9999999904
101324.9999999904
101324.9999999903
101324.9999999903
101324.9999999903
101324.9999999903
101324.9999999903
101324.9999999902
101324.9999999902
101324.9999999902
101324.9999999901
101324.9999999901
101324.9999999901
101324.9999999901
101324.9999999901
101324.99999999
101324.99999999
101324.99999999
101324.99999999
101324.99999999
101324.99999999
101324.9999999899
101324.9999999899
101324.9999999899
101324.9999999898
101324.9999999898
101324.9999999898
101324.9999999898
101324.9999999898
101324.9999999897
101324.9999999898
101324.9999999898
101324.9999999897
101324.9999999896
101324.9999999896
101324.9999999895
101324.9999999895
101324.9999999895
101324.9999999894
101324.9999999894
101324.9999999894
101324.9999999893
101324.9999999893
101324.9999999893
101324.9999999893
101324.9999999892
101324.9999999892
101324.9999999892
101324.9999999892
101324.9999999891
101324.9999999891
101324.9999999891
101324.9999999891
101324.999999989
101324.999999989
101324.999999989
101324.9999999889
101324.9999999889
101324.9999999888
101324.9999999888
101324.9999999887
101324.9999999887
101324.9999999887
101324.9999999887
101324.9999999887
101324.9999999887
101324.9999999887
101324.9999999886
101324.9999999886
101324.9999999886
101324.9999999885
101324.9999999885
101324.9999999885
101324.9999999883
101324.9999999883
101324.9999999883
101324.9999999883
101324.9999999882
101324.9999999882
101324.9999999882
101324.9999999882
101324.9999999881
101324.9999999881
101324.9999999881
101324.9999999881
101324.9999999881
101324.999999988
101324.999999988
101324.999999988
101324.9999999879
101324.9999999878
101324.9999999878
101324.9999999878
101324.9999999877
101324.9999999877
101324.9999999876
101324.9999999875
101324.9999999875
101324.9999999875
101324.9999999875
101324.9999999875
101324.9999999874
101324.9999999874
101324.9999999873
101324.9999999873
101324.9999999873
101324.9999999873
101324.9999999873
101324.9999999873
101324.9999999872
101324.9999999872
101324.9999999872
101324.9999999872
101324.9999999871
101324.9999999871
101324.999999987
101324.999999987
101324.999999987
101324.9999999869
101324.9999999869
101324.9999999868
101324.9999999867
101324.9999999867
101324.9999999867
101324.9999999866
101324.9999999866
101324.9999999865
101324.9999999864
101324.9999999864
101324.9999999864
101324.9999999862
101324.9999999862
101324.9999999862
101324.9999999862
101324.9999999861
101324.999999986
101324.999999986
)
;

boundaryField
{
    inlet
    {
        type            calculated;
        value           uniform 101324.9999999996;
    }
    outlet
    {
        type            calculated;
        value           uniform 101324.999999986;
    }
    frontAndBack
    {
        type            empty;
    }
}


// ************************************************************************* //
