/*--------------------------------*- C++ -*----------------------------------*\
| =========                 |                                                 |
| \\      /  F ield         | OpenFOAM: The Open Source CFD Toolbox           |
|  \\    /   O peration     | Version:  v2012                                 |
|   \\  /    A nd           | Website:  www.openfoam.com                      |
|    \\/     M anipulation  |                                                 |
\*---------------------------------------------------------------------------*/
FoamFile
{
    version     2.0;
    format      ascii;
    class       volScalarField;
    location    "0.006";
    object      rho;
}
// * * * * * * * * * * * * * * * * * * * * * * * * * * * * * * * * * * * * * //

dimensions      [1 -3 0 0 0 0 0];


internalField   nonuniform List<scalar> 
1000
(
1.176296896458444
1.176320571760318
1.176267073446546
1.176223804921504
1.17617342654226
1.176127618160941
1.176088901751091
1.176056408956062
1.176028691745579
1.176009983872527
1.176004872694359
1.176004707737545
1.176007442508836
1.176015845805317
1.176032384829274
1.176057458021831
1.176090087012892
1.176128804755323
1.176172397816033
1.176220017138669
1.176270958506446
1.176324464650977
1.176379654784535
1.176435523111929
1.176490965794859
1.176544865385535
1.17659626002495
1.176644567118832
1.176689726009366
1.176731860975891
1.176769687591346
1.176797786105578
1.176809806935469
1.176811188805251
1.176810634787596
1.176808451030893
1.176802316689146
1.176790269097739
1.17677058527882
1.17674247764388
1.17670628053941
1.176663266852074
1.176615127793782
1.176563447466657
1.176509457265717
1.176454097010372
1.176398198691669
1.176342613823841
1.176288212719023
1.176235735168942
1.176185550334537
1.176137639602475
1.176092429325448
1.17605301984029
1.176026812556831
1.176017891369007
1.176017285482726
1.176017627437313
1.176019787200017
1.176025114195086
1.176035475619411
1.176052460214158
1.176077199208692
1.176110052970099
1.176150510572674
1.176197308572464
1.176248750722318
1.176303101368404
1.176358877620719
1.176414938310248
1.176470431730885
1.176524760477736
1.176577625895992
1.176629016003257
1.176678882034657
1.176726161447224
1.176766803281112
1.176792962731359
1.176801558225391
1.176802184544725
1.176801717145319
1.176800014861955
1.176795484196528
1.176786677953408
1.176772059840574
1.176750377711543
1.176720881749791
1.176683522025038
1.17663899921273
1.176588646121427
1.176534181683691
1.176477407884431
1.176419917251227
1.176362881500676
1.176306976905242
1.176252440008236
1.176199227765167
1.176147437178303
1.176098491293034
1.176057369354714
1.176032480871131
1.176025233160451
1.176024865790723
1.176025166950367
1.176026892737755
1.176031083408869
1.176039200834697
1.176052617451262
1.176072539201924
1.176099791733213
1.176134658378513
1.176176772458796
1.176225123891495
1.176278211271049
1.176334302800503
1.17639172201936
1.176449096550425
1.176505543019208
1.176560733247879
1.176614726684774
1.176667418280759
1.176717351953217
1.17675972781483
1.176786293083664
1.176794793796233
1.176795442931752
1.176795090328536
1.176793780424835
1.176790240386316
1.176783278910146
1.176771569675861
1.176753898001676
1.176729302673411
1.176697248038847
1.176657749488398
1.176611425458383
1.176559457004696
1.176503434733147
1.176445091824422
1.176385987230238
1.176327255345487
1.176269515628846
1.176213002932985
1.176158085748066
1.176106585893498
1.176063962813362
1.176038668424743
1.176031386982026
1.176030975407224
1.176031202161386
1.176032562347468
1.176035941296685
1.176042563457908
1.176053625824736
1.176070262511663
1.176093396128428
1.1761236057727
1.176161000715417
1.176205147113178
1.176255088674194
1.176309465780627
1.176366709052306
1.176425286541628
1.176483968115335
1.176542002475395
1.176599043727026
1.176654653874847
1.176707131337692
1.176751535676404
1.176779592955581
1.176788925864353
1.176789756761278
1.176789501219979
1.17678852025647
1.176785728357011
1.176780107621867
1.176770483900929
1.176755728145926
1.176734849512021
1.176707126930932
1.176672223362337
1.176630272581296
1.17658192020136
1.176528283625739
1.176470799922515
1.176410984737271
1.176350182909554
1.176289403369961
1.176229346993575
1.17617085811528
1.176116223735837
1.176071291609562
1.176044621910149
1.17603672114577
1.176036180020096
1.176036350537279
1.176037435509354
1.176040190750814
1.176045678971912
1.176054964102636
1.17606910043099
1.176089017562227
1.176115416682222
1.176148659563743
1.176188683794076
1.176234974631724
1.17628660218247
1.176342322363938
1.176400749907802
1.176460589051074
1.176520829309528
1.176580743621726
1.17663949509748
1.176695066290716
1.176742346504152
1.176772883439675
1.176783683915219
1.176784834213961
1.176784654937779
1.176783913599645
1.176781684745954
1.176777084293344
1.176769066835197
1.176756590828366
1.176738682893227
1.176714542490436
1.176683638435329
1.176645796468292
1.176601265699013
1.176550731622655
1.176495242678147
1.176436058000364
1.176374464450292
1.1763116229074
1.176248549665406
1.176186495942977
1.176128183393911
1.176079888522603
1.17605066685109
1.176041542786438
1.176040785879782
1.176040896101917
1.176041745638495
1.176043990546306
1.176048579305135
1.176056463961082
1.176068615126873
1.176085931501078
1.176109160831027
1.176138807042242
1.176175049679659
1.176217697579479
1.176266183442512
1.176319605534746
1.17637683641523
1.176436696547201
1.17649811937207
1.176560170522007
1.17662173710292
1.176680575203799
1.176731458818538
1.17676558616794
1.176778710668092
1.176780413325821
1.176780299908946
1.176779764421473
1.176777996253128
1.17677421884246
1.17676748730448
1.176756845253554
1.176741362648763
1.176720217044282
1.176692771352863
1.176658653288336
1.176617826818576
1.176570629095751
1.176517746035082
1.176460127712255
1.176398869261561
1.176335094797071
1.176269940321707
1.17620489248321
1.176142934149494
1.17609057793603
1.176057495771896
1.176046148746213
1.176044951036468
1.176045017938247
1.176045672556351
1.176047495201129
1.176051335898836
1.176058059777539
1.176068566987399
1.176083718859661
1.176104273862868
1.176130811496087
1.176163663909977
1.176202867823696
1.176248138804429
1.176298877322938
1.176354231102198
1.176413215814632
1.176474835927054
1.176538099801229
1.176601772848229
1.176663553936929
1.176718313163773
1.176757013570688
1.176773610669958
1.176776318520318
1.17677627571091
1.176775918222892
1.176774535991858
1.176771450298446
1.176765792475221
1.176756678336475
1.176743225633791
1.176724617807779
1.176700165149327
1.176669372451474
1.176632005438045
1.176588135580283
1.176538144033481
1.176482684346
1.176422615876651
1.176358928802532
1.17629274050716
1.176225592849292
1.176160474172874
1.176103785823579
1.17606568341218
1.176050890461174
1.17604886288512
1.176048875887536
1.176049354595337
1.176050803126989
1.17605399538387
1.17605972744214
1.176068838247567
1.176082148200935
1.176100407984045
1.17612423646246
1.176154063886628
1.176190086210937
1.176232230465355
1.17628014232542
1.176333218946013
1.176390687272884
1.176451682692584
1.176515254134843
1.176580172337626
1.176644243200387
1.17670268839556
1.176746590630565
1.176767940092473
1.176772387912653
1.176772495623669
1.176772274486638
1.176771221513188
1.176768728029271
1.176763990751848
1.176756185081927
1.176744472637534
1.176728053174003
1.176706213492721
1.176678383966386
1.176644195047807
1.176603521795836
1.176556505223859
1.176503546268977
1.176445273517547
1.176382500081427
1.176316237846068
1.176247954245119
1.17618043974124
1.176119638927264
1.176075771461018
1.176056173053198
1.176052647975027
1.176052592441883
1.176052895971076
1.176054010750009
1.176056620535739
1.176061473357991
1.176069360413607
1.176081065425913
1.176097323017373
1.176118768997645
1.176145894481077
1.176179004638592
1.176218181329619
1.176263262024929
1.176313854049479
1.17636938074564
1.176429126367927
1.176492233838208
1.176557561636892
1.176623132052637
1.176684708690529
1.176733920435898
1.176761156911609
1.176768426384193
1.176768879794795
1.176768754041296
1.176767980325477
1.176766003876186
1.176762071700922
1.176755411148574
1.176745221510141
1.176730722580963
1.176711192961538
1.176686017090506
1.176654734139391
1.176617079238668
1.176573010707229
1.176522722131097
1.176466636748808
1.176405389706046
1.176339849905274
1.176271331355266
1.176202304697261
1.17613802246128
1.176088216039786
1.176062494451987
1.176056428871255
1.176056140566503
1.176056333910247
1.176057156797907
1.176059257687949
1.176063331828613
1.176070131968019
1.176080410794925
1.176094886680825
1.176114204213791
1.176138894474542
1.176169336303396
1.176205722677149
1.176248039925349
1.17629606684656
1.176349393086805
1.176407445241566
1.176469489496291
1.176534522641063
1.176600827776911
1.176664782287011
1.176718900858015
1.176752731813318
1.176764120019651
1.176765313394575
1.176765244611127
1.176764726452286
1.176763210809003
1.176760006567748
1.176754374753161
1.176745547665865
1.176732763949877
1.176715301553357
1.176692518367306
1.176663894759767
1.176629067969292
1.176587859055137
1.176540297841645
1.176486637042245
1.176427347802849
1.176363140390005
1.176295139031876
1.176225454662734
1.176158551052684
1.1761032028958
1.176070429516966
1.176060455288298
1.176059586528783
1.17605971737127
1.176060284043201
1.176061938634563
1.176065315183646
1.176071138449538
1.176080134522622
1.17609300722679
1.176110401879507
1.176132874780469
1.176160859545837
1.176194632037581
1.176234287311035
1.176279736854168
1.176330715152027
1.17638678248559
1.176447318511596
1.176511454076494
1.17657774659038
1.176643215495344
1.176701482421935
1.176742158828335
1.176759153555071
1.176761867906299
1.176761908894554
1.176761552751693
1.176760423623284
1.176757836304505
1.176753102667601
1.176745480520639
1.176734228106738
1.176718628749972
1.17669802563587
1.176671856169402
1.176639683979332
1.176601229252846
1.176556396431753
1.17650529220191
1.176448234651404
1.176385785471577
1.176318887820295
1.176249295542306
1.176180677364446
1.176120599151916
1.176080473874799
1.176065143552349
1.176063068181716
1.17606310427504
1.176063476416544
1.176064727256075
1.176067469243776
1.176072397355905
1.176080216009641
1.176091616798977
1.176107246869094
1.17612768032645
1.176153387548238
1.176184705393254
1.176221815670397
1.176264734188592
1.176313305932107
1.176367204054688
1.176425926417938
1.176488742144167
1.176554446317896
1.176620626015123
1.176682057298006
1.17672917113758
1.176752957388341
1.176758339049008
1.176758567334648
1.176758373009289
1.176757564657356
1.176755524864485
1.176751595027179
1.176745059058624
1.176735193462265
1.176721290420891
1.17670268573009
1.176678788050235
1.176649109263092
1.176613294232203
1.176571147652079
1.176522656196862
1.176468008839395
1.176407632194247
1.176342294494256
1.176273424432776
1.176203977519868
1.176140231067931
1.176093021735497
1.17607090887722
1.176066536483292
1.176066415998293
1.176066639606925
1.176067553858796
1.176069743679885
1.176073869746295
1.176080620447372
1.176090677273117
1.176104687665785
1.17612323845297
1.176146827631468
1.176175837897311
1.176210516792332
1.176250963080742
1.176297115920536
1.176348748502892
1.176405463979784
1.176466656545016
1.17653133045871
1.176597548451461
1.176661122536164
1.176713738367561
1.176744911632039
1.176754400866237
1.176755224633876
1.17675511285411
1.176754570268484
1.176753006264191
1.176749800618696
1.176744260908007
1.176735679079624
1.176723352149255
1.176706610093866
1.176684840814042
1.176657516292933
1.176624222189242
1.17658468718533
1.176538805731313
1.176486658457371
1.176428548943342
1.176365091070439
1.176297442063735
1.176227948298023
1.176161652902304
1.176108173635324
1.17607834632115
1.176070240372941
1.176069684727205
1.176069795202479
1.176070434017819
1.176072133898806
1.176075541810355
1.176081323611539
1.176090151208813
1.176102669813213
1.17611947378736
1.176141081475247
1.176167911862526
1.176200264873299
1.176238304844297
1.176282047414797
1.176331352100946
1.176385915954358
1.176445241400818
1.176508507637874
1.176574175523766
1.17663896827882
1.176696006935317
1.176734640151137
1.17674981479452
1.176751976441318
1.176751956219532
1.176751613602819
1.176750453228952
1.176747880688217
1.176743225153632
1.176735794328519
1.176724894411208
1.176709854842195
1.176690051539612
1.176664931133757
1.176634036589925
1.176597033398781
1.176553735307432
1.176504130521381
1.176448415518011
1.176387061638837
1.176320990808856
1.176252062812925
1.176184275991975
1.176125755874144
1.176088043005125
1.176074599666065
1.176072992914966
1.176073037258033
1.176073452277824
1.176074734916332
1.176077494009377
1.176082380730259
1.176090057039788
1.176101168910712
1.17611632041554
1.176136048868932
1.17616080335656
1.176190926820303
1.176226638495103
1.17626801762471
1.176314994831034
1.176367348041472
1.176424677339293
1.176486307802459
1.176551005899702
1.176616219708482
1.176676445136319
1.176721856058717
1.17674394095807
1.176748603589593
1.176748756628705
1.176748578036253
1.1767477437258
1.176745723505241
1.176741865240656
1.176735493628176
1.1767259221172
1.176712479675306
1.176694531625762
1.17667150257699
1.176642900834395
1.176608343385956
1.176567580785032
1.176520523535563
1.176467274795618
1.176408184993129
1.176343981779829
1.176276127538205
1.17620774401984
1.176145440737884
1.176100264873614
1.176080014576563
1.176076312222416
1.176076237408014
1.176076477644081
1.176077406991968
1.176079595833465
1.176083675196264
1.176090300520441
1.176100116456236
1.176113732947693
1.176131702138981
1.176154497747478
1.176182496431707
1.176215960797931
1.176255025288976
1.176299686128886
1.176349792012835
1.176405023181282
1.176464826622188
1.176528217105694
1.176593211900609
1.176655494721065
1.17670659014746
1.176736221111026
1.176744883976519
1.176745577969928
1.17674548014041
1.176744918102896
1.176743370823212
1.176740220430197
1.176734809227283
1.176726460746917
1.176714505423331
1.176698301496313
1.176677256945279
1.176650852742814
1.176618665736811
1.176580391820327
1.176535872865307
1.176485129820198
1.176428408555951
1.176366275472575
1.176299878008609
1.17623163862
1.176166790042389
1.176115121663792
1.176087081443133
1.176079824540131
1.176079373603804
1.176079509827506
1.176080146004807
1.176081844702857
1.176085207990927
1.17609087962296
1.176099500345064
1.176111683397771
1.176127992143941
1.176148921486736
1.176174879441962
1.176206168073499
1.176242968358675
1.176285331734732
1.176333171220888
1.17638624054265
1.176444085928556
1.176505912279742
1.176570180479598
1.176633564523745
1.176689104733644
1.176726258058731
1.176740498825182
1.176742440213567
1.176742430730388
1.176742069252453
1.176740926979668
1.17673839983989
1.176733853084249
1.176726621235801
1.176716038929134
1.176701460577979
1.176682281568042
1.176657959670574
1.176628037613115
1.176592166873878
1.17655013314966
1.176501885418043
1.176447576179902
1.176387638550747
1.176322977034585
1.176255474293317
1.176189209467831
1.176132402565962
1.176096403552839
1.176083974946782
1.176082572926588
1.176082625377377
1.176083046783094
1.176084325711633
1.176087048511862
1.176091842577572
1.176099343779754
1.176110169943001
1.176124897510849
1.176144041473897
1.176168036056938
1.176197216690825
1.17623180577914
1.176271901843587
1.176317467782552
1.176368313942246
1.176424065755095
1.176484071683236
1.176547122914166
1.176610702673763
1.176669425183835
1.1767137749337
1.176735507182474
1.176740211126315
1.176740398167231
1.176740241437504
1.176739570464609
1.17673788955143
1.1767346659901
1.176729341168887
1.176721373655387
1.176710267231546
1.176695601206967
1.176677062234824
1.17665447806311
1.176627854178022
1.176597417881458
1.176563686722676
1.176527612368693
1.17649091908989
1.176456772486903
1.176430275970445
1.176416056854004
1.176412119999742
1.176411725982955
1.176411716212979
1.176411716172035
1.176411716172015
1.176411716172014
1.176411716172014
1.176411716172014
1.176411716172015
1.176411716172015
1.176411716172016
1.176411716172017
1.176411716172018
1.176411716172019
1.176411716172019
1.17641171617202
1.17641171617202
1.17641171617202
1.17641171617202
1.176411716172021
1.176411716172022
1.176411716172023
1.176411716172024
1.176411716172024
1.176411716172024
1.176411716172024
1.176411716172024
1.176411716172024
1.176411716172024
1.176411716172023
1.176411716172023
1.176411716172024
1.176411716172024
1.176411716172024
1.176411716172024
1.176411716172025
1.176411716172025
1.176411716172025
1.176411716172025
1.176411716172025
1.176411716172026
1.176411716172025
1.176411716172026
1.176411716172026
1.176411716172025
1.176411716172024
1.176411716172024
1.176411716172024
1.176411716172023
1.176411716172022
1.176411716172022
1.17641171617202
1.176411716172019
1.176411716172018
1.176411716172016
1.176411716172015
1.176411716172013
1.176411716172012
1.176411716172011
1.17641171617201
1.176411716172009
1.176411716172008
1.176411716172008
1.176411716172007
1.176411716172006
1.176411716172004
1.176411716172003
1.176411716172002
1.176411716172001
1.176411716172001
1.176411716172001
1.176411716172002
1.176411716172001
1.176411716172001
1.176411716172001
1.176411716172001
1.176411716172001
1.176411716172
1.176411716172
1.176411716171999
1.176411716171999
1.176411716171999
1.176411716171999
1.176411716171999
1.176411716171999
1.176411716171999
1.176411716171999
1.176411716171999
1.176411716171998
1.176411716171999
1.176411716171998
1.176411716171998
1.176411716171998
1.176411716171998
1.176411716171998
1.176411716171998
1.176411716171998
1.176411716171998
1.176411716171998
1.176411716171998
1.176411716171998
1.176411716171999
1.176411716171998
1.176411716171998
1.176411716171998
1.176411716171998
1.176411716171998
1.176411716171999
1.176411716171998
1.176411716171998
1.176411716171997
1.176411716171996
1.176411716171995
1.176411716171994
1.176411716171994
1.176411716171993
1.176411716171992
1.17641171617199
1.176411716171988
1.176411716171986
1.176411716171984
1.17641171617198
1.176411716171978
1.176411716171976
1.176411716171974
1.176411716171971
1.176411716171969
1.176411716171966
1.176411716171963
1.17641171617196
1.176411716171957
1.176411716171955
1.176411716171952
1.17641171617195
1.176411716171947
1.176411716171944
1.176411716171941
1.176411716171939
1.176411716171937
1.176411716171934
1.176411716171931
1.176411716171929
1.176411716171926
1.176411716171924
1.176411716171922
1.176411716171919
1.176411716171917
1.176411716171913
1.176411716171911
1.176411716171907
1.176411716171906
1.176411716171904
1.176411716171901
1.176411716171899
1.176411716171897
1.176411716171894
1.176411716171892
1.17641171617189
1.176411716171889
1.176411716171886
1.176411716171883
1.176411716171878
)
;

boundaryField
{
    inlet
    {
        type            calculated;
        value           uniform 1.176395950917642;
    }
    outlet
    {
        type            calculated;
        value           uniform 1.176411716171865;
    }
    frontAndBack
    {
        type            empty;
    }
}


// ************************************************************************* //
