/*--------------------------------*- C++ -*----------------------------------*\
| =========                 |                                                 |
| \\      /  F ield         | OpenFOAM: The Open Source CFD Toolbox           |
|  \\    /   O peration     | Version:  v2012                                 |
|   \\  /    A nd           | Website:  www.openfoam.com                      |
|    \\/     M anipulation  |                                                 |
\*---------------------------------------------------------------------------*/
FoamFile
{
    version     2.0;
    format      ascii;
    class       volScalarField;
    location    "0.006";
    object      T;
}
// * * * * * * * * * * * * * * * * * * * * * * * * * * * * * * * * * * * * * //

dimensions      [0 0 0 1 0 0 0];


internalField   nonuniform List<scalar> 
1000
(
299.9876506190693
299.9894188809804
299.9831059592034
299.9784573450951
299.9740244615179
299.9701849447282
299.9666818857606
299.9635184279828
299.9607594369149
299.9589416816472
299.9585064086977
299.9586015521654
299.958988094195
299.9598544467546
299.9614982764405
299.9640031480191
299.9672821337048
299.9711872306767
299.9755951663958
299.9804211646563
299.9855958644427
299.9910435218276
299.9966738716367
300.0023820917357
300.0080523318031
300.0135672218757
300.0188258192349
300.0237667626743
300.0283828065058
300.0326863251152
300.0365467473222
300.0394120672962
300.0406348509552
300.0407719840214
300.0407111209848
300.040484133531
300.039856654881
300.0386271361461
300.0366190587764
300.0337519436957
300.0300596361619
300.0256716754878
300.0207603670286
300.015487203017
300.0099777943852
300.004328088632
299.9986230904105
299.9929498231681
299.9873972242198
299.9820408852698
299.9769185380111
299.9720283010893
299.9674136806501
299.9633911257874
299.9607161416528
299.9598055951234
299.9597438184221
299.9597787958888
299.9599992705864
299.9605429893558
299.9616005967692
299.9633342649175
299.9658594442827
299.9692128907679
299.9733424135754
299.9781190062985
299.9833694925149
299.9889166878574
299.9946092232183
300.0003306218761
300.0059939621033
300.0115382844547
300.0169331232448
300.0221772690271
300.027265758073
300.0320901800446
300.0362372024774
300.0389064169644
300.0397834631784
300.0398473731589
300.039799685734
300.0396259964736
300.0391637091054
300.0382651562949
300.0367735738198
300.0345611815287
300.0315514444829
300.0277392318937
300.0231959978324
300.0180577013806
300.0124997131284
300.0067058952848
300.0008387535875
299.9950178651115
299.9893122550532
299.9837460757234
299.9783149450681
299.9730287742267
299.968032825849
299.9638353721559
299.961294872804
299.9605550542897
299.9605175558845
299.9605482991283
299.9607244623128
299.9611522294151
299.9619808200257
299.9633503197714
299.9653838122036
299.9681655524777
299.9717244293466
299.976022975281
299.9809580482599
299.9863763639294
299.9921011364718
299.9979612456233
300.0038166233279
300.0095771209142
300.0152092565723
300.0207191071617
300.0260959623805
300.0311912525251
300.0355152272903
300.0382258567375
300.0390932322434
300.0391594682655
300.0391234916189
300.0389898361955
300.0386286260587
300.0379183039234
300.0367235322216
300.0349203584432
300.0324106844887
300.0291398253364
300.0251093142297
300.0203822140186
300.0150790001076
300.0093619499668
300.0034079066062
299.9973759513301
299.9913818538413
299.9854888414494
299.9797208932072
299.9741156302432
299.9688590200789
299.9645083548914
299.9619264302278
299.9611831705087
299.9611411597613
299.9611643078485
299.9613031515854
299.9616480607667
299.9623240204149
299.96345320959
299.9651513836019
299.9675127008762
299.9705962468931
299.97441314146
299.9789190618226
299.9840163587151
299.9895662230951
299.9954084495909
300.0013866698371
300.0073753342519
300.0132977726948
300.019118693516
300.0247934101914
300.030148303081
300.0346792822621
300.0375421624914
300.038494455021
300.0385792378315
300.0385531654116
300.038453074005
300.0381682008086
300.0375946824017
300.0366127094269
300.0351070699933
300.0329766474164
300.0301478436228
300.0265862366799
300.0223054385452
300.0173712860977
300.0118977619205
300.0060314787398
299.9999270827888
299.9937218055073
299.9875186112389
299.9813890349128
299.9754192620456
299.9698427413664
299.9652564045418
299.9625341042631
299.9617276296033
299.9616723953949
299.9616898033804
299.961800554884
299.9620817986925
299.9626420106937
299.9635897885581
299.9650327416296
299.9670657463588
299.9697603556498
299.9731534687522
299.9772386798884
299.9819634096949
299.9872327058865
299.9929195553479
299.9988825472795
300.0049894204047
300.0111370416204
300.0172512125036
300.0232465356794
300.0289171575052
300.0337416145881
300.0368575243068
300.0379595648575
300.0380769385045
300.0380586479849
300.0379830073362
300.0377555851386
300.0372861722606
300.0364680968196
300.0351950775548
300.0333677832242
300.0309045115555
300.0277510361095
300.0238895422157
300.0193454096031
300.0141885456986
300.0085258980338
300.00248592433
299.9961999247972
299.989786356946
299.9833489356157
299.9770153661894
299.9710634567115
299.966133901154
299.9631511197543
299.9622197782041
299.9621425182572
299.9621537717198
299.9622404909458
299.9624696418886
299.9629380405722
299.9637428647598
299.9649831842127
299.9667507234182
299.9691217921185
299.972147804537
299.9758470568028
299.9802000003431
299.9851486921436
299.9906010566602
299.9964419889948
300.0025510783008
300.0088194564451
300.0151517578657
300.0214344106094
300.0274384446785
300.0326306250593
300.0361129072709
300.0374520860314
300.0376258202382
300.0376142494202
300.0375596127587
300.0373791968082
300.0369937635678
300.0363068986431
300.035221011276
300.0336411947584
300.0314835152
300.028682944764
300.025201467287
300.0210353703735
300.0162190169031
300.0108223579102
300.0049423049725
299.9986905812135
299.9921818787691
299.9855321164767
299.9788930163513
299.9725690377598
299.9672249671136
299.9638481430766
299.9626898944182
299.9625676390725
299.9625744700238
299.9626412924625
299.9628273402918
299.963219379801
299.9639057171594
299.9649782308189
299.9665248330572
299.9686229311096
299.9713316573291
299.9746848891173
299.9786863419168
299.9833069464779
299.9884854710712
299.9941348901769
300.0001547078249
300.006443294036
300.0128994274643
300.0193971065234
300.0257015117563
300.0312892039151
300.035238133216
300.0369316486297
300.0372079488285
300.0372035820291
300.0371671071879
300.0370260703319
300.0367112168158
300.0361339095658
300.0352039258167
300.033831237208
300.0319325132691
300.0294373605459
300.0262952246205
300.0224821684822
300.0180054472364
300.0129039130434
300.00724421424
300.0011140056828
299.9946143002752
299.9878591042803
299.9810057615782
299.9743592768039
299.9685730647622
299.9646838259313
299.9631738377415
299.9629668733224
299.9629682018693
299.9630170675961
299.9631649271983
299.9634907763623
299.9640758731359
299.9650058493951
299.9663644409977
299.9682282627859
299.9706604687088
299.9737049533646
299.9773816893714
299.9816831942306
299.9865732644409
299.9919903306667
299.997855454728
300.0040803603081
300.0105679566668
300.0171927752273
300.0237309066733
300.0296947728733
300.034174519408
300.0363529587666
300.0368067995863
300.0368177909056
300.0367952280282
300.0366877869649
300.0364333598615
300.0359499815088
300.0351535098704
300.0339583939001
300.032282969983
300.0300544509082
300.0272146923187
300.0237259582357
300.0195754650289
300.0147775617596
300.009373117999
300.0034262345067
299.9970198470288
299.9902571851579
299.9832879847573
299.9763970388457
299.9701911229664
299.9657134567948
299.9637129591143
299.9633531371436
299.9633474693912
299.9633784529754
299.9634922443194
299.9637586371796
299.9642539855623
299.9650590480217
299.9662538177609
299.9679132722798
299.9701022977595
299.9728710046759
299.9762505171364
299.9802491592783
299.9848503057385
299.9900138382784
299.9956808609402
300.001778285703
300.0082186070023
300.0148853013443
300.0215765296822
300.0278599983322
300.0328815640146
300.0356607117155
300.0364024653142
300.0364487303114
300.0364358994757
300.0363569524064
300.0361552813562
300.0357540526005
300.0350744252252
300.0340346932281
300.0325552395013
300.0305624425079
300.0279934740751
300.0248012876191
300.0209588246928
300.0164617944304
300.011329908228
300.0056063100678
299.9993557697625
299.99266691767
299.9856738211844
299.9786286170773
299.9720674227731
299.9669835945066
299.9643580890141
299.9637389459316
299.9637095176279
299.9637292535448
299.9638132497092
299.9640276967232
299.9644435609929
299.9651376769406
299.9661868708559
299.9676644629513
299.9696362376528
299.9721563877503
299.9752635601579
299.9789774240206
299.9832965503339
299.9881983237481
299.9936408211913
299.9995654792352
300.0058973672344
300.0125340693007
300.0193003515332
300.0258265370672
300.0313488470431
300.0348009024754
300.0359629212769
300.0360846896806
300.0360776714673
300.0360248002374
300.035870148066
300.0355431951482
300.0349685371028
300.0340678369146
300.0327634020721
300.030981546485
300.0286567358164
300.0257359264992
300.0221820746375
300.0179768862298
300.0131233638068
300.0076472501456
300.001596576988
299.9950437808084
299.988103552771
299.9809913049485
299.9741626287259
299.9685132004897
299.9651679115777
299.9641497961833
299.9640611179249
299.9640744737022
299.9641323164192
299.9643012073664
299.964645864993
299.9652402671022
299.9661585257032
299.9674724772975
299.9692479825828
299.9715418109458
299.9743982032643
299.9778452918891
299.9818927481487
299.9865315018865
299.9917344135807
299.9974565628399
300.0036345966673
300.0101797750328
300.0169448489955
300.0236256470119
300.0295713212718
300.0337219080267
300.0354560061786
300.035732970434
300.0357371528009
300.0357008129074
300.03558559936
300.0353215952106
300.0348385846581
300.0340608339872
300.0329126515891
300.0313209015738
300.0292185513961
300.0265481764813
300.0232652250512
300.0193411132105
300.0147660517238
300.0095508833836
300.0037280203237
299.9973547341089
299.9905272312203
299.9834244691673
299.9764208753335
299.9702887123158
299.9661930222271
299.9646281911895
299.9644163485924
299.9644200327459
299.9644580186646
299.9645856966771
299.9648655816496
299.9653686115536
299.966166686698
299.9673303962323
299.968925788933
299.9710114538424
299.9736353866695
299.9768319486191
299.9806196687182
299.9850001269454
299.9899574633733
299.9954582778692
300.0014512798809
300.007861837717
300.0145669510968
300.0213203622826
300.0275890038858
300.0323965047042
300.0348236052712
300.0353727346748
300.0353960282163
300.0353761996071
300.0352937170647
300.0350855808389
300.0346845878381
300.0340176684879
300.0330109952665
300.0315923375733
300.0296939107695
300.0272553597666
300.0242268555464
300.020572131321
300.0162712223631
300.0113227271388
300.0057458828671
299.9995841756072
299.9929159565939
299.9858869913207
299.978798898902
299.9722923947935
299.9674736609255
299.9652165188887
299.9647702093123
299.9647579107578
299.9647807351868
299.9648740561445
299.9650975790206
299.9655187407767
299.9662078061363
299.9672343337103
299.9686644038697
299.9705579059185
299.9729656570198
299.9759266996604
299.9794662749635
299.9835944325413
299.9883049263623
299.9935745674489
299.9993628108904
300.0056077873327
300.0122078388579
300.0189652384119
300.0254526135552
300.0308215922628
300.034002470032
300.034970727258
300.0350547822043
300.0350433762773
300.0349880117735
300.034828423728
300.0345013254349
300.0339360621405
300.0330603828825
300.0318025513396
300.0300941908286
300.0278728301993
300.0250845719308
300.0216871109768
300.0176527292253
300.012970616901
300.0076489570342
300.0017186804349
299.9952423845507
299.988338124386
299.981245337933
299.9744787485005
299.9690200880786
299.9659755223511
299.9651481143769
299.965091397151
299.9651026736057
299.9651678795743
299.965341392218
299.9656892490375
299.9662794153273
299.9671804721269
299.9684582731255
299.9701734782834
299.9723789836551
299.97511753826
299.9784197325157
299.9823023115368
299.986766837755
299.9917989344794
299.9973676408798
300.0034221326747
300.0098786020527
300.0165799440194
300.0231917563597
300.0290121084997
300.0329542214871
300.0345026093306
300.0347231782416
300.0347211146793
300.0346861544998
300.0345677519132
300.0343052541547
300.0338302103985
300.0330719778989
300.0319597582409
300.0304251214172
300.0284043755568
300.0258410386264
300.022688452017
300.0189124524945
300.0144939979755
300.0094318422898
300.0037459878892
299.9974844853139
299.9907413724176
299.9837064168717
299.9767876867556
299.9708145698052
299.9669651316551
299.9655929188168
299.9654289111015
299.9654334371846
299.9654757994667
299.9656067225261
299.9658883519445
299.9663871542252
299.9671706957566
299.9683049088852
299.969851446022
299.9718651413813
299.9743918185173
299.9774664611508
299.9811114203468
299.9853347528426
299.9901293412667
299.9954724802808
300.0013233123921
300.0076129158605
300.0142153687277
300.0208702271825
300.0270158344965
300.0316495838903
300.0339030911619
300.0343788551552
300.0343944707737
300.0343762473264
300.0342911155271
300.0340849753276
300.0336912834485
300.0330411314642
300.0320644616135
300.0306927968465
300.0288613659212
300.0265114419315
300.0235928322352
300.0200664272733
300.0159067394735
300.0111045962799
300.0056704790435
299.9996400995359
299.9930876673392
299.9861623854709
299.9791828394045
299.9728236512465
299.9682124905744
299.9661454756305
299.9657675618494
299.9657599251163
299.9657844466291
299.9658793079994
299.9661027297506
299.9665191222128
299.9671953865911
299.9681973209887
299.9695871782843
299.971421307944
299.973748049693
299.9766058310294
299.980021432379
299.9840085469639
299.9885667552703
299.9936805762807
299.9993173339861
300.0054205475747
300.0118896315851
300.0185222189589
300.0248778437513
300.0300916952057
300.0331152107842
300.0339991516897
300.034069965197
300.0340599827034
300.0340026331164
300.0338447508669
300.0335232888909
300.0329711356813
300.0321192629554
300.0308993443451
300.0292458873192
300.0270984701627
300.0244041136658
300.0211196151659
300.0172139124043
300.0126708321612
300.0074924688772
300.0017038655803
299.9953627749665
299.9885862535324
299.9816215041091
299.9750026019878
299.9697287957635
299.966866655567
299.966125916837
299.9660798880171
299.9660937926941
299.9661587291419
299.966332120241
299.9666754205581
299.9672543387706
299.968134275089
299.9693778198557
299.9710424690449
299.9731787266462
299.9758282229625
299.9790217682159
299.9827778077496
299.9871015597211
299.9919841101104
299.997400283968
300.0033037286937
300.0096132604032
300.0161717768449
300.022639851952
300.0283073169337
300.0320984374708
300.0335515413449
300.0337496366973
300.033748668956
300.0337117841528
300.0335952280996
300.0333373618153
300.0328734155632
300.0321354830172
300.0310556672644
300.0295680866615
300.0276110362161
300.0251291715027
300.0220758108316
300.01841536265
300.0141259243152
300.0092022485041
300.0036598517256
299.9975428850157
299.9909436094758
299.9840541283378
299.9772907565462
299.9714925235845
299.9678180367069
299.9665494075716
299.9664062983825
299.9664116521344
299.966454666182
299.9665852100228
299.9668631336664
299.9673524760977
299.9681181404112
299.9692231856982
299.9707264443334
299.9726804722846
299.9751295770085
299.9781079767394
299.9816383475131
299.9857307155642
299.9903812598214
299.9955705856967
300.0012604247187
300.0073842433104
300.0138186433356
300.0203067681018
300.0262990321643
300.0308245172737
300.033042050689
300.033522032399
300.0335411176896
300.03352512517
300.0334566599209
300.0332851415282
300.0329562127325
300.0324128724086
300.0315998712042
300.0304665716001
300.0289700404674
300.0270782951217
300.0247737472203
300.0220569423499
300.018951059012
300.0155088938889
300.0118275469264
300.008082969278
300.0045982172627
300.0018941323838
300.0004429926977
300.0000412130134
300.000001001244
300.0000000041611
299.9999999999825
299.9999999999804
299.9999999999803
299.9999999999803
299.9999999999803
299.9999999999804
299.9999999999804
299.9999999999805
299.9999999999806
299.9999999999807
299.9999999999808
299.999999999981
299.9999999999809
299.999999999981
299.999999999981
299.9999999999811
299.9999999999811
299.999999999981
299.9999999999808
299.9999999999807
299.9999999999807
299.9999999999807
299.9999999999807
299.9999999999807
299.9999999999807
299.9999999999807
299.9999999999807
299.9999999999807
299.9999999999807
299.9999999999806
299.9999999999807
299.9999999999807
299.9999999999807
299.9999999999807
299.9999999999807
299.9999999999808
299.9999999999809
299.9999999999808
299.9999999999808
299.9999999999809
299.9999999999808
299.9999999999808
299.9999999999808
299.9999999999808
299.9999999999808
299.9999999999807
299.9999999999806
299.9999999999804
299.9999999999803
299.9999999999802
299.9999999999799
299.9999999999799
299.9999999999799
299.9999999999797
299.9999999999795
299.9999999999794
299.9999999999794
299.9999999999792
299.9999999999791
299.999999999979
299.9999999999789
299.9999999999789
299.9999999999789
299.9999999999787
299.9999999999787
299.9999999999787
299.9999999999786
299.9999999999785
299.9999999999784
299.9999999999783
299.9999999999783
299.9999999999782
299.9999999999782
299.9999999999782
299.9999999999783
299.9999999999783
299.9999999999783
299.9999999999783
299.9999999999783
299.9999999999783
299.9999999999783
299.9999999999783
299.9999999999783
299.9999999999783
299.9999999999783
299.9999999999783
299.9999999999784
299.9999999999783
299.9999999999781
299.9999999999782
299.9999999999782
299.9999999999782
299.9999999999782
299.9999999999783
299.9999999999783
299.9999999999783
299.9999999999783
299.9999999999783
299.9999999999784
299.9999999999783
299.9999999999783
299.9999999999782
299.9999999999783
299.9999999999782
299.9999999999782
299.9999999999782
299.9999999999782
299.9999999999782
299.9999999999781
299.999999999978
299.9999999999779
299.9999999999778
299.9999999999777
299.9999999999775
299.9999999999773
299.999999999977
299.9999999999769
299.9999999999768
299.9999999999765
299.9999999999764
299.9999999999761
299.9999999999758
299.9999999999756
299.9999999999754
299.999999999975
299.9999999999748
299.9999999999745
299.9999999999741
299.9999999999739
299.9999999999736
299.9999999999733
299.9999999999729
299.9999999999728
299.9999999999726
299.9999999999723
299.999999999972
299.9999999999716
299.9999999999714
299.9999999999711
299.9999999999709
299.9999999999706
299.9999999999704
299.9999999999702
299.9999999999701
299.99999999997
299.9999999999698
299.9999999999696
299.9999999999695
299.999999999969
299.9999999999686
299.9999999999682
299.9999999999679
299.9999999999675
299.9999999999672
299.9999999999669
299.9999999999666
299.9999999999662
299.9999999999662
299.9999999999662
)
;

boundaryField
{
    inlet
    {
        type            fixedValue;
        value           uniform 300;
    }
    outlet
    {
        type            temperatureOutletNSCBC;
        pInf            101325;
        gamma           1.4;
        etaAc           1;
        fieldInf        1;
        lInf            2.25;
        value           uniform 299.9999999999699;
    }
    frontAndBack
    {
        type            empty;
    }
}


// ************************************************************************* //
