/*--------------------------------*- C++ -*----------------------------------*\
| =========                 |                                                 |
| \\      /  F ield         | OpenFOAM: The Open Source CFD Toolbox           |
|  \\    /   O peration     | Version:  v2012                                 |
|   \\  /    A nd           | Website:  www.openfoam.com                      |
|    \\/     M anipulation  |                                                 |
\*---------------------------------------------------------------------------*/
FoamFile
{
    version     2.0;
    format      ascii;
    class       volVectorField;
    location    "0.006";
    object      U;
}
// * * * * * * * * * * * * * * * * * * * * * * * * * * * * * * * * * * * * * //

dimensions      [0 1 -1 0 0 0 0];


internalField   nonuniform List<vector> 
1000
(
(-0.002786347170412146 0 0)
(-0.03443786388580807 0 0)
(-0.04262743152220032 0 0)
(-0.0577901520266343 0 0)
(-0.07166462518466629 0 0)
(-0.08458513037970919 0 0)
(-0.09561298968026416 0 0)
(-0.1050450139195364 0 0)
(-0.1131858359976126 0 0)
(-0.1186836967446825 0 0)
(-0.1201375395281138 0 0)
(-0.1199798612400075 0 0)
(-0.1191710485806145 0 0)
(-0.1166563621289623 0 0)
(-0.1118143804307249 0 0)
(-0.1044566671363755 0 0)
(-0.09486494510457048 0 0)
(-0.08346996280870127 0 0)
(-0.07063340052339978 0 0)
(-0.05660567025106912 0 0)
(-0.04158728872962071 0 0)
(-0.02579747378466524 0 0)
(-0.009504154698176188 0 0)
(0.006987087949773227 0 0)
(0.02335736402943275 0 0)
(0.0392872947601498 0 0)
(0.05448022063824276 0 0)
(0.06873932267925736 0 0)
(0.08205379568458208 0 0)
(0.09449874375008621 0 0)
(0.1056960379335036 0 0)
(0.1139887788522871 0 0)
(0.1174935936277198 0 0)
(0.1178778410442744 0 0)
(0.117783484549321 0 0)
(0.1170869863861551 0 0)
(0.1152906484333611 0 0)
(0.1117325532137538 0 0)
(0.1059226817547398 0 0)
(0.09762760623701805 0 0)
(0.08694759960531261 0 0)
(0.07425423025263551 0 0)
(0.06004380223503902 0 0)
(0.04478839494025966 0 0)
(0.0288561070218561 0 0)
(0.01251832709257708 0 0)
(-0.003987990060987184 0 0)
(-0.02040448581643396 0 0)
(-0.03645911530947041 0 0)
(-0.05193961120603224 0 0)
(-0.06676146021086898 0 0)
(-0.08092807513710537 0 0)
(-0.09427554194071695 0 0)
(-0.1058808647878896 0 0)
(-0.1136104932611163 0 0)
(-0.1162812652753752 0 0)
(-0.116484082745144 0 0)
(-0.1163181238628221 0 0)
(-0.1157200084118695 0 0)
(-0.1141351958791132 0 0)
(-0.1110775294169488 0 0)
(-0.1060633035276937 0 0)
(-0.09875913713822143 0 0)
(-0.08905698923968161 0 0)
(-0.07711093161870813 0 0)
(-0.06329636301234363 0 0)
(-0.04811028199539799 0 0)
(-0.03206127594370616 0 0)
(-0.01559219087981262 0 0)
(0.0009528969844279695 0 0)
(0.01732822521937106 0 0)
(0.033369905567742 0 0)
(0.04898468874788466 0 0)
(0.06414852976234611 0 0)
(0.07884903190936007 0 0)
(0.0928045165011933 0 0)
(0.1048248245901903 0 0)
(0.1125515158205216 0 0)
(0.115057910691058 0 0)
(0.1152236863173465 0 0)
(0.1151390953104198 0 0)
(0.1146038216821939 0 0)
(0.1132766636736456 0 0)
(0.1106763602286922 0 0)
(0.106361491719884 0 0)
(0.09996191930568238 0 0)
(0.09125811640646973 0 0)
(0.08023266347738767 0 0)
(0.06708981266985753 0 0)
(0.05222602032283668 0 0)
(0.03615255853652725 0 0)
(0.01939729157521207 0 0)
(0.002423244482541166 0 0)
(-0.01441967954234632 0 0)
(-0.030920045619164 0 0)
(-0.04701068522790514 0 0)
(-0.06272325129720935 0 0)
(-0.07803040559780099 0 0)
(-0.09248337834647821 0 0)
(-0.1046029714222465 0 0)
(-0.1119419042553077 0 0)
(-0.11410674647702 0 0)
(-0.1142385533730014 0 0)
(-0.1141008739542763 0 0)
(-0.1136188734481862 0 0)
(-0.1123734118149774 0 0)
(-0.1099776768528134 0 0)
(-0.1060167478821863 0 0)
(-0.1001348424470441 0 0)
(-0.0920869038415104 0 0)
(-0.08179169401558745 0 0)
(-0.0693593047735231 0 0)
(-0.05508506928125039 0 0)
(-0.03940951886190128 0 0)
(-0.02284801317920806 0 0)
(-0.005900707504652999 0 0)
(0.01103188220998271 0 0)
(0.0276980036740519 0 0)
(0.04399628581618974 0 0)
(0.05992918779175406 0 0)
(0.07546844642460469 0 0)
(0.09020818280607268 0 0)
(0.1027336464930781 0 0)
(0.110576772102245 0 0)
(0.113063846990899 0 0)
(0.1132413247131443 0 0)
(0.1131776599870681 0 0)
(0.1127656510071695 0 0)
(0.111728669705254 0 0)
(0.1096730486439025 0 0)
(0.106216907691026 0 0)
(0.1010010939714537 0 0)
(0.09374325009434421 0 0)
(0.08428331843965996 0 0)
(0.07262403213147778 0 0)
(0.05895023453819775 0 0)
(0.04361313678571565 0 0)
(0.02707887955744974 0 0)
(0.00985413987145946 0 0)
(-0.007597282652484568 0 0)
(-0.02493232197415565 0 0)
(-0.0419714227316857 0 0)
(-0.05865878177452209 0 0)
(-0.07488424988634795 0 0)
(-0.09008894537907317 0 0)
(-0.1026573941732657 0 0)
(-0.1101213554739357 0 0)
(-0.1122909230812015 0 0)
(-0.1124257060332578 0 0)
(-0.1123240666035469 0 0)
(-0.1119433542852709 0 0)
(-0.1109392884063539 0 0)
(-0.1089849268153871 0 0)
(-0.1057190649984895 0 0)
(-0.1008069333795478 0 0)
(-0.09397531561928195 0 0)
(-0.0850553718648564 0 0)
(-0.07401599791395649 0 0)
(-0.06098259932793381 0 0)
(-0.04623576648430904 0 0)
(-0.03018095175954566 0 0)
(-0.01328523749545002 0 0)
(0.004004050448685434 0 0)
(0.02133051041183339 0 0)
(0.03846661902627616 0 0)
(0.05529830489624965 0 0)
(0.07170176964577543 0 0)
(0.08719471013799174 0 0)
(0.1003159590690158 0 0)
(0.1085954438817616 0 0)
(0.1113308562547282 0 0)
(0.1115671141727354 0 0)
(0.1115269079886482 0 0)
(0.111213314348208 0 0)
(0.1103970415528868 0 0)
(0.1087369847029794 0 0)
(0.1058964545312082 0 0)
(0.1015413057641183 0 0)
(0.0953802205556724 0 0)
(0.08719871920127893 0 0)
(0.07689594661746145 0 0)
(0.06451337808675295 0 0)
(0.05024351553084738 0 0)
(0.034413148892911 0 0)
(0.01744263919043157 0 0)
(-0.0002172405931899034 0 0)
(-0.01816322764347432 0 0)
(-0.03610115379797805 0 0)
(-0.05383472864281381 0 0)
(-0.07111198085031778 0 0)
(-0.08724087496400929 0 0)
(-0.1004943782598412 0 0)
(-0.1083673270957325 0 0)
(-0.1107155696848841 0 0)
(-0.1108850152350196 0 0)
(-0.1108062235889182 0 0)
(-0.1105038965778796 0 0)
(-0.1096846732073556 0 0)
(-0.1080651231288999 0 0)
(-0.1053239088859555 0 0)
(-0.1011499542511583 0 0)
(-0.09526824466883249 0 0)
(-0.08747354045347761 0 0)
(-0.07765971086714139 0 0)
(-0.06584289920607771 0 0)
(-0.05217410231192273 0 0)
(-0.03693144998103572 0 0)
(-0.02048467550132821 0 0)
(-0.003238183133061333 0 0)
(0.01442995312367514 0 0)
(0.03221546942073395 0 0)
(0.04989531190960143 0 0)
(0.06722929755346446 0 0)
(0.08363665977343597 0 0)
(0.09760247758795437 0 0)
(0.106611011482046 0 0)
(0.1097842362421413 0 0)
(0.1101187258609836 0 0)
(0.1100942990182843 0 0)
(0.1098541679178241 0 0)
(0.1092036406305835 0 0)
(0.1078446205261224 0 0)
(0.1054781826110422 0 0)
(0.101795978895775 0 0)
(0.09651157880018114 0 0)
(0.0893871278716126 0 0)
(0.08026492588671323 0 0)
(0.06909552368303458 0 0)
(0.05595373919910902 0 0)
(0.04103877698545772 0 0)
(0.02465729210894342 0 0)
(0.00718474425377379 0 0)
(-0.01099429663420686 0 0)
(-0.02954203780413088 0 0)
(-0.04816699392777828 0 0)
(-0.06649462819005558 0 0)
(-0.08370723253866769 0 0)
(-0.09795554994836977 0 0)
(-0.1065856995037224 0 0)
(-0.1092931908840701 0 0)
(-0.1095220371045405 0 0)
(-0.1094646713653917 0 0)
(-0.1092313513732001 0 0)
(-0.1085626607291786 0 0)
(-0.1072088814656653 0 0)
(-0.104881072773701 0 0)
(-0.1012931507472855 0 0)
(-0.09617949938452722 0 0)
(-0.08932089138777655 0 0)
(-0.08056873869245083 0 0)
(-0.06986800310897508 0 0)
(-0.05727487216224564 0 0)
(-0.04296014754089685 0 0)
(-0.02719131123119617 0 0)
(-0.01029679864845739 0 0)
(0.007377694794930299 0 0)
(0.02551093122024564 0 0)
(0.04382148190803822 0 0)
(0.06198910625213477 0 0)
(0.07936211591880042 0 0)
(0.09438826337796756 0 0)
(0.1044540963362143 0 0)
(0.1083164284045617 0 0)
(0.1088165108406028 0 0)
(0.1088086348549669 0 0)
(0.1086292910317088 0 0)
(0.1081151731020407 0 0)
(0.1069987794747145 0 0)
(0.1050120141487933 0 0)
(0.1018711630217958 0 0)
(0.09730236219139314 0 0)
(0.09106162653472166 0 0)
(0.08296045742268607 0 0)
(0.07289052809439915 0 0)
(0.06084180285072644 0 0)
(0.04691125321657903 0 0)
(0.03129971454132745 0 0)
(0.01429077621972259 0 0)
(-0.003789610769389306 0 0)
(-0.02261413129599045 0 0)
(-0.04185282278042646 0 0)
(-0.06106143909962767 0 0)
(-0.0793499832071725 0 0)
(-0.09480122745966187 0 0)
(-0.1045726728924903 0 0)
(-0.1079322398751404 0 0)
(-0.1082886154141849 0 0)
(-0.108250044285203 0 0)
(-0.1080713271611803 0 0)
(-0.1075279520963137 0 0)
(-0.1063950695401295 0 0)
(-0.1044099282245649 0 0)
(-0.101307297458002 0 0)
(-0.09683288455869536 0 0)
(-0.09076407499531695 0 0)
(-0.08292951574376374 0 0)
(-0.07322936651339271 0 0)
(-0.06165320995211401 0 0)
(-0.04828801627638959 0 0)
(-0.03331091998748844 0 0)
(-0.01696937226776669 0 0)
(0.0004467085776453776 0 0)
(0.01863691300204335 0 0)
(0.03730571756089139 0 0)
(0.05609784386585329 0 0)
(0.0743403926385006 0 0)
(0.09050716590927033 0 0)
(0.101921256737222 0 0)
(0.1068112082364763 0 0)
(0.1076099020438576 0 0)
(0.1076214941979976 0 0)
(0.1074933131362146 0 0)
(0.1070941957687829 0 0)
(0.1061814876391759 0 0)
(0.104511791149515 0 0)
(0.1018219525966757 0 0)
(0.09785207222017557 0 0)
(0.09236018612382568 0 0)
(0.08514265254216197 0 0)
(0.07605449116774803 0 0)
(0.06502658600036162 0 0)
(0.05207800047341163 0 0)
(0.03732058353228173 0 0)
(0.02094984353837154 0 0)
(0.003220529266567829 0 0)
(-0.01557919496064584 0 0)
(-0.03512239186604505 0 0)
(-0.05494852149273302 0 0)
(-0.07416983053972223 0 0)
(-0.09090302053482062 0 0)
(-0.1021575436142472 0 0)
(-0.1065315280703919 0 0)
(-0.1071312909612782 0 0)
(-0.1071121701280389 0 0)
(-0.1069840575898445 0 0)
(-0.106551280592732 0 0)
(-0.1056099705694922 0 0)
(-0.1039175676365535 0 0)
(-0.1012271792078394 0 0)
(-0.09729679084998445 0 0)
(-0.0919057815200349 0 0)
(-0.08487083668479246 0 0)
(-0.07606356694454933 0 0)
(-0.06542706265324984 0 0)
(-0.05298525635481672 0 0)
(-0.03884195473685641 0 0)
(-0.02317172062832451 0 0)
(-0.006203729923580962 0 0)
(0.01180102564367712 0 0)
(0.03056169712923834 0 0)
(0.0497239354798844 0 0)
(0.06864199431365713 0 0)
(0.08589358731047339 0 0)
(0.09884184437120508 0 0)
(0.1051368988117412 0 0)
(0.1064575732202326 0 0)
(0.10650238676782 0 0)
(0.1064171541281164 0 0)
(0.1061162406997252 0 0)
(0.1053778002833946 0 0)
(0.1039800667348241 0 0)
(0.1016763872139769 0 0)
(0.09821984507680213 0 0)
(0.09337380964647317 0 0)
(0.08692789553255276 0 0)
(0.07871438928828603 0 0)
(0.06862393937905287 0 0)
(0.05661880227866348 0 0)
(0.04274062165768372 0 0)
(0.0271086987082625 0 0)
(0.009908312256810556 0 0)
(-0.008622424608915595 0 0)
(-0.02818517916344917 0 0)
(-0.04834427784775842 0 0)
(-0.06827507151996923 0 0)
(-0.08622590035306466 0 0)
(-0.09918050895598116 0 0)
(-0.1049698666981443 0 0)
(-0.1060082003743499 0 0)
(-0.1060206098125712 0 0)
(-0.1059366766346277 0 0)
(-0.1056046852850274 0 0)
(-0.1048349579134181 0 0)
(-0.1034021165264125 0 0)
(-0.1010730201681259 0 0)
(-0.09761670897169027 0 0)
(-0.09281691565771918 0 0)
(-0.08648511251182503 0 0)
(-0.0784754654384138 0 0)
(-0.06869915516760278 0 0)
(-0.05713360783564551 0 0)
(-0.0438253401080068 0 0)
(-0.0288879530536233 0 0)
(-0.01249387856860731 0 0)
(0.005141248977793278 0 0)
(0.02376653356961766 0 0)
(0.04305179315146675 0 0)
(0.06241132448581083 0 0)
(0.08058414097401778 0 0)
(0.09510009612031441 0 0)
(0.1031374425363098 0 0)
(0.1052923633975874 0 0)
(0.1054321003858361 0 0)
(0.10537747534015 0 0)
(0.1051600759018453 0 0)
(0.1045735556026972 0 0)
(0.1034135765441687 0 0)
(0.1014478806396643 0 0)
(0.09844076238141056 0 0)
(0.09416146094565055 0 0)
(0.08839736274842513 0 0)
(0.08096722013430016 0 0)
(0.07173449114670806 0 0)
(0.06062012766385757 0 0)
(0.04761226681519098 0 0)
(0.03276907321826773 0 0)
(0.01621458490729849 0 0)
(-0.001865800341000305 0 0)
(-0.02121503321911507 0 0)
(-0.04144237872371729 0 0)
(-0.06181903619385788 0 0)
(-0.08079856932576965 0 0)
(-0.09550769789837077 0 0)
(-0.1031031320692073 0 0)
(-0.1048904720895162 0 0)
(-0.104973073797879 0 0)
(-0.1049225490561726 0 0)
(-0.1046756614915869 0 0)
(-0.1040564873146043 0 0)
(-0.1028533047950879 0 0)
(-0.1008454040284349 0 0)
(-0.09781041338661066 0 0)
(-0.09353631513623024 0 0)
(-0.08783260495930668 0 0)
(-0.08054249550180667 0 0)
(-0.07155453054707801 0 0)
(-0.0608119307929782 0 0)
(-0.04831839717795477 0 0)
(-0.03413918518540488 0 0)
(-0.01839627832409303 0 0)
(-0.00125953970400551 0 0)
(0.01705520402547366 0 0)
(0.03625252187062131 0 0)
(0.05582426134801729 0 0)
(0.07469961649619937 0 0)
(0.09067104171469445 0 0)
(0.1006566089005743 0 0)
(0.1040191307661583 0 0)
(0.1043715440784851 0 0)
(0.1043477570308565 0 0)
(0.1041979142092397 0 0)
(0.1037493909366005 0 0)
(0.1028038111855506 0 0)
(0.1011419836283817 0 0)
(0.09853698522325613 0 0)
(0.09476361333648205 0 0)
(0.08960963951331216 0 0)
(0.08288614667738815 0 0)
(0.07443839117898302 0 0)
(0.0641581312047059 0 0)
(0.05199428169629906 0 0)
(0.03795735158109344 0 0)
(0.02211918492532415 0 0)
(0.004615383686749154 0 0)
(-0.01434123706477609 0 0)
(-0.03441330328025662 0 0)
(-0.05498165891013375 0 0)
(-0.07473773131005049 0 0)
(-0.09108684562977945 0 0)
(-0.1007618509710895 0 0)
(-0.1036982907798918 0 0)
(-0.1039513639729584 0 0)
(-0.103929560631568 0 0)
(-0.1037501334818181 0 0)
(-0.1032656615226462 0 0)
(-0.1022678061573441 0 0)
(-0.1005482006378909 0 0)
(-0.09789208209872924 0 0)
(-0.09409169311504535 0 0)
(-0.0889555224868549 0 0)
(-0.08231954019700818 0 0)
(-0.07405725618359743 0 0)
(-0.0640871862916703 0 0)
(-0.05237914944906066 0 0)
(-0.03895932016351189 0 0)
(-0.02390964314047477 0 0)
(-0.00736082583615399 0 0)
(0.01050892400587407 0 0)
(0.02944502108380243 0 0)
(0.04901417413312172 0 0)
(0.06833184516497748 0 0)
(0.08552532687354633 0 0)
(0.09753633577335752 0 0)
(0.1025586573968263 0 0)
(0.1033592952639391 0 0)
(0.1033531096937846 0 0)
(0.1032656068370682 0 0)
(0.1029254892988394 0 0)
(0.1021634934895211 0 0)
(0.1007663235849381 0 0)
(0.09851681862710621 0 0)
(0.0951956447975939 0 0)
(0.09059176573612372 0 0)
(0.08451131121859681 0 0)
(0.07678751881938636 0 0)
(0.06729142567585079 0 0)
(0.05594129330910407 0 0)
(0.04270898640198992 0 0)
(0.02762439348723227 0 0)
(0.01078069162154196 0 0)
(-0.00765443273249506 0 0)
(-0.02740160398077233 0 0)
(-0.04794614281857007 0 0)
(-0.06820721864786373 0 0)
(-0.08594708992363907 0 0)
(-0.09779228192014662 0 0)
(-0.1023163785670825 0 0)
(-0.1029289616520264 0 0)
(-0.1029251345999322 0 0)
(-0.1028090348024695 0 0)
(-0.1024421431966873 0 0)
(-0.1016318931934687 0 0)
(-0.1001767640196182 0 0)
(-0.09786829971828982 0 0)
(-0.09450220937278063 0 0)
(-0.08988705223431091 0 0)
(-0.08385368721356497 0 0)
(-0.07626384167233047 0 0)
(-0.06701769499872813 0 0)
(-0.05606082532475157 0 0)
(-0.04338927345541192 0 0)
(-0.02905030380216971 0 0)
(-0.01313989062677175 0 0)
(0.004195706520162488 0 0)
(0.02273990939614993 0 0)
(0.04213356491361431 0 0)
(0.0616647338193281 0 0)
(0.07979640392207904 0 0)
(0.09370512730471184 0 0)
(0.100726235719049 0 0)
(0.1023102629125789 0 0)
(0.1023750767800344 0 0)
(0.1023246341072979 0 0)
(0.1020820365966417 0 0)
(0.1014811525085855 0 0)
(0.1003211282473157 0 0)
(0.0983921930348801 0 0)
(0.09548052223614864 0 0)
(0.0913772579297286 0 0)
(0.08588631863547716 0 0)
(0.07883309350713778 0 0)
(0.07007344932250735 0 0)
(0.05950250527058613 0 0)
(0.04706246870385591 0 0)
(0.03274917624330721 0 0)
(0.01661823291268752 0 0)
(-0.00120452205112228 0 0)
(-0.02049250220040431 0 0)
(-0.04082428338045378 0 0)
(-0.06132747694702588 0 0)
(-0.08014848823441632 0 0)
(-0.09408730908497054 0 0)
(-0.1006163652604056 0 0)
(-0.1019075385532896 0 0)
(-0.1019433663829367 0 0)
(-0.1018769384394867 0 0)
(-0.1016072760600384 0 0)
(-0.1009605277974787 0 0)
(-0.0997422112708858 0 0)
(-0.09774910914111949 0 0)
(-0.0947797319325005 0 0)
(-0.09064276793889767 0 0)
(-0.08516541761829428 0 0)
(-0.07820097125021962 0 0)
(-0.06963587279803168 0 0)
(-0.059396634876575 0 0)
(-0.04745514417372378 0 0)
(-0.03383043149144572 0 0)
(-0.01858832213194575 0 0)
(-0.001844426324013239 0 0)
(0.01622057844307795 0 0)
(0.03530955192311301 0 0)
(0.05485245644623518 0 0)
(0.07361825136996973 0 0)
(0.08915150276305776 0 0)
(0.09835100840840166 0 0)
(0.1011465916109998 0 0)
(0.1013875490549736 0 0)
(0.1013642132672998 0 0)
(0.101197283640831 0 0)
(0.1007378540014112 0 0)
(0.09979143985647501 0 0)
(0.09815642656524336 0 0)
(0.09562354028184981 0 0)
(0.0919856493144247 0 0)
(0.08704458182197652 0 0)
(0.08061925407331665 0 0)
(0.07255430219072645 0 0)
(0.06272793300436783 0 0)
(0.05105917868190508 0 0)
(0.03751577645551573 0 0)
(0.02212238703507532 0 0)
(0.004969997834695644 0 0)
(-0.01376170798619075 0 0)
(-0.03373385106983022 0 0)
(-0.05425233861056609 0 0)
(-0.07382433829391757 0 0)
(-0.08961138760998123 0 0)
(-0.09841900937088563 0 0)
(-0.1008158940092378 0 0)
(-0.1009810186350145 0 0)
(-0.1009423793393095 0 0)
(-0.1007580345860985 0 0)
(-0.1002547263088717 0 0)
(-0.09924876622861777 0 0)
(-0.09754163420981093 0 0)
(-0.09493514791064198 0 0)
(-0.09123876766966266 0 0)
(-0.086277275004305 0 0)
(-0.07989765900018105 0 0)
(-0.07197593689370904 0 0)
(-0.06242363680567925 0 0)
(-0.05119285175915558 0 0)
(-0.03827915996667858 0 0)
(-0.02372344324214646 0 0)
(-0.007615094829375939 0 0)
(0.009897753096276711 0 0)
(0.02857215346723798 0 0)
(0.04795516780375685 0 0)
(0.0670805314709145 0 0)
(0.08391602696837197 0 0)
(0.09531692648128547 0 0)
(0.09979426134299302 0 0)
(0.1004321154576857 0 0)
(0.1004296532090499 0 0)
(0.1003253245837691 0 0)
(0.09998407788389146 0 0)
(0.09922455558797692 0 0)
(0.0978506069599349 0 0)
(0.09565751989422437 0 0)
(0.09244058953517495 0 0)
(0.08800185734669379 0 0)
(0.0821570877253143 0 0)
(0.07474292486950974 0 0)
(0.06562440499618269 0 0)
(0.05470264725710694 0 0)
(0.04192251595082569 0 0)
(0.02728042171591585 0 0)
(0.01083421786318112 0 0)
(-0.0072772402873013 0 0)
(-0.02678207965459569 0 0)
(-0.04713132563451361 0 0)
(-0.06714447626086771 0 0)
(-0.08442249195600648 0 0)
(-0.09555770457448039 0 0)
(-0.09952720745481483 0 0)
(-0.1000016628566766 0 0)
(-0.09998823228112162 0 0)
(-0.09986601951853398 0 0)
(-0.09948707140036687 0 0)
(-0.09867250894108973 0 0)
(-0.09722973584133426 0 0)
(-0.09496307913316419 0 0)
(-0.09168200483143463 0 0)
(-0.08720856298212774 0 0)
(-0.0813838767905342 0 0)
(-0.07407480682670066 0 0)
(-0.06518053358086964 0 0)
(-0.05463740548136629 0 0)
(-0.042421728521056 0 0)
(-0.02855253030229456 0 0)
(-0.0130959075703433 0 0)
(0.003827340018441396 0 0)
(0.02201789705461424 0 0)
(0.04111553037080267 0 0)
(0.06036760365879321 0 0)
(0.07814380298860235 0 0)
(0.0915421281837618 0 0)
(0.09805740799761574 0 0)
(0.09943785227365148 0 0)
(0.09948872970560162 0 0)
(0.0994264934583303 0 0)
(0.09918504791836069 0 0)
(0.09858758831119561 0 0)
(0.09744909015391762 0 0)
(0.09556859764647936 0 0)
(0.09274375923204665 0 0)
(0.08877637910465432 0 0)
(0.083479140966951 0 0)
(0.0766822924238883 0 0)
(0.06824060122995866 0 0)
(0.05804074217265851 0 0)
(0.04600900350971565 0 0)
(0.03211908675515153 0 0)
(0.01640123560422333 0 0)
(-0.001041713113515272 0 0)
(-0.01999517882029903 0 0)
(-0.04002702860807097 0 0)
(-0.06021563009927014 0 0)
(-0.07861033280057084 0 0)
(-0.09194945450074772 0 0)
(-0.09792894476250164 0 0)
(-0.09902170045792517 0 0)
(-0.09904293903695302 0 0)
(-0.0989732426579186 0 0)
(-0.09869821935825841 0 0)
(-0.09805210959429266 0 0)
(-0.09684760150561618 0 0)
(-0.09489135213241807 0 0)
(-0.09199306159998956 0 0)
(-0.08797271138085881 0 0)
(-0.08266721047289985 0 0)
(-0.07593666689857406 0 0)
(-0.06767008177926867 0 0)
(-0.05779013574230853 0 0)
(-0.04625704720013241 0 0)
(-0.03307184682601905 0 0)
(-0.01827962647849865 0 0)
(-0.00197532145204124 0 0)
(0.01567800593014636 0 0)
(0.03439001685047057 0 0)
(0.05357493570394811 0 0)
(0.07195770212822625 0 0)
(0.08703737149492798 0 0)
(0.09578267323102511 0 0)
(0.09834032394149328 0 0)
(0.09854555073341875 0 0)
(0.0985148126661729 0 0)
(0.09835027717271255 0 0)
(0.09789318055769738 0 0)
(0.09696344590398404 0 0)
(0.09536647320825234 0 0)
(0.09290260001225289 0 0)
(0.08937404565367091 0 0)
(0.08459155063562901 0 0)
(0.07838055981078085 0 0)
(0.07058757011691172 0 0)
(0.06108722630104134 0 0)
(0.04979000218189226 0 0)
(0.03664973109599166 0 0)
(0.02167198141653016 0 0)
(0.004928022577142208 0 0)
(-0.01341464707976597 0 0)
(-0.03301560906538929 0 0)
(-0.05316023741565255 0 0)
(-0.07230659362771828 0 0)
(-0.08756421406927523 0 0)
(-0.09584380642584074 0 0)
(-0.0979838269581792 0 0)
(-0.09811518554455416 0 0)
(-0.09807994603737723 0 0)
(-0.09788901609867683 0 0)
(-0.0973884338426132 0 0)
(-0.09639520083846534 0 0)
(-0.09472044729330552 0 0)
(-0.09217509968477655 0 0)
(-0.08857815060969604 0 0)
(-0.08376282826183877 0 0)
(-0.07758303288039115 0 0)
(-0.06991902752538072 0 0)
(-0.06068178572733389 0 0)
(-0.04981698116827573 0 0)
(-0.03730932515034603 0 0)
(-0.0231861149073336 0 0)
(-0.007520762655981819 0 0)
(0.009554764920875251 0 0)
(0.02780679613848846 0 0)
(0.04677784787953507 0 0)
(0.06548384363769136 0 0)
(0.08187469927539796 0 0)
(0.09284242377138494 0 0)
(0.09704784617264642 0 0)
(0.09762102201203338 0 0)
(0.09761120145451713 0 0)
(0.09751085593620247 0 0)
(0.09717137401529564 0 0)
(0.09642608480057913 0 0)
(0.09508409024228388 0 0)
(0.09294973809403485 0 0)
(0.08982651026155561 0 0)
(0.08552387392608526 0 0)
(0.07986334729420995 0 0)
(0.07268482793572589 0 0)
(0.0638532683880292 0 0)
(0.05326571399181775 0 0)
(0.04085879049608868 0 0)
(0.02661725679197987 0 0)
(0.01058592964334963 0 0)
(-0.007107500825205655 0 0)
(-0.02619618425058234 0 0)
(-0.04612453818827071 0 0)
(-0.06568840526307235 0 0)
(-0.08246067899308353 0 0)
(-0.09308969625409033 0 0)
(-0.09675936182167963 0 0)
(-0.09717331729466833 0 0)
(-0.09715796064469379 0 0)
(-0.09703339582852501 0 0)
(-0.09665588662934921 0 0)
(-0.09585188634693527 0 0)
(-0.09443632049767017 0 0)
(-0.09222156491808232 0 0)
(-0.08902510427722081 0 0)
(-0.08467657692552638 0 0)
(-0.07902412427874317 0 0)
(-0.0719398671572377 0 0)
(-0.06332462344197545 0 0)
(-0.05311239706297727 0 0)
(-0.04127450052923979 0 0)
(-0.02782269433312167 0 0)
(-0.01281277254229831 0 0)
(0.003645596559140058 0 0)
(0.02135956426280371 0 0)
(0.03997051413443226 0 0)
(0.05873573948285497 0 0)
(0.07606798492624034 0 0)
(0.08915917433716847 0 0)
(0.09557357899093372 0 0)
(0.09695968694375665 0 0)
(0.09701388517461854 0 0)
(0.09697082195498508 0 0)
(0.09677089563695046 0 0)
(0.09627533006419814 0 0)
(0.09532384718153263 0 0)
(0.09375232695045019 0 0)
(0.09140082922616184 0 0)
(0.08812290923620548 0 0)
(0.08379438013193075 0 0)
(0.07832272801361896 0 0)
(0.07165706936399453 0 0)
(0.06379896816710244 0 0)
(0.0548154498186865 0 0)
(0.04485920746750403 0 0)
(0.03421108110915268 0 0)
(0.02337999223035761 0 0)
(0.01330037857712932 0 0)
(0.005478800150248053 0 0)
(0.001281362592753121 0 0)
(0.0001192094413307551 0 0)
(2.896225426281353e-06 0 0)
(1.214312826744574e-08 0 0)
(5.659592289535835e-11 0 0)
(5.093894152030615e-11 0 0)
(5.118262687184659e-11 0 0)
(5.133057869242713e-11 0 0)
(5.166999757492841e-11 0 0)
(5.192238597474089e-11 0 0)
(5.212255608492333e-11 0 0)
(5.247067801570535e-11 0 0)
(5.282750299474675e-11 0 0)
(5.314951578071435e-11 0 0)
(5.340190418052148e-11 0 0)
(5.386316573879357e-11 0 0)
(5.394149317322184e-11 0 0)
(5.41242571868674e-11 0 0)
(5.415036633168314e-11 0 0)
(5.404592975245101e-11 0 0)
(5.399371146283484e-11 0 0)
(5.40633358489894e-11 0 0)
(5.435053644187644e-11 0 0)
(5.442016082803177e-11 0 0)
(5.446367606938003e-11 0 0)
(5.438534863495342e-11 0 0)
(5.430702120051987e-11 0 0)
(5.426350595918584e-11 0 0)
(5.433313034533776e-11 0 0)
(5.437664558668538e-11 0 0)
(5.442016082803227e-11 0 0)
(5.435923949014389e-11 0 0)
(5.428091205572404e-11 0 0)
(5.441145777975346e-11 0 0)
(5.431572424880127e-11 0 0)
(5.426350595918318e-11 0 0)
(5.421999071783914e-11 0 0)
(5.412425718687381e-11 0 0)
(5.407203889725848e-11 0 0)
(5.389797793187452e-11 0 0)
(5.388057183533467e-11 0 0)
(5.365429258033404e-11 0 0)
(5.358466819416921e-11 0 0)
(5.347152856667532e-11 0 0)
(5.332357674609641e-11 0 0)
(5.323654626340534e-11 0 0)
(5.310600053936587e-11 0 0)
(5.301897005667119e-11 0 0)
(5.276658165686146e-11 0 0)
(5.274047251204541e-11 0 0)
(5.267084812589875e-11 0 0)
(5.279269080166874e-11 0 0)
(5.300156396013288e-11 0 0)
(5.32800615047527e-11 0 0)
(5.368040172513903e-11 0 0)
(5.404592975245229e-11 0 0)
(5.45420035038003e-11 0 0)
(5.475087666226791e-11 0 0)
(5.522954431706751e-11 0 0)
(5.55341510065051e-11 0 0)
(5.588227293727612e-11 0 0)
(5.616947353016475e-11 0 0)
(5.630872230247414e-11 0 0)
(5.654370460574465e-11 0 0)
(5.669165642632515e-11 0 0)
(5.713551188805079e-11 0 0)
(5.736179114306036e-11 0 0)
(5.769250697729456e-11 0 0)
(5.777953745998722e-11 0 0)
(5.795359842536862e-11 0 0)
(5.803192585979784e-11 0 0)
(5.804933195633635e-11 0 0)
(5.807544110114695e-11 0 0)
(5.809284719767755e-11 0 0)
(5.818858072864766e-11 0 0)
(5.829301730787703e-11 0 0)
(5.84061569353803e-11 0 0)
(5.861503009383657e-11 0 0)
(5.870206057653469e-11 0 0)
(5.874557581788365e-11 0 0)
(5.883260630057395e-11 0 0)
(5.891963678326414e-11 0 0)
(5.87368727696119e-11 0 0)
(5.889352763845988e-11 0 0)
(5.898926116942233e-11 0 0)
(5.901537031422484e-11 0 0)
(5.902407336249988e-11 0 0)
(5.91981343278862e-11 0 0)
(5.952014711385115e-11 0 0)
(5.978994161019951e-11 0 0)
(6.001622086519585e-11 0 0)
(5.991178428597024e-11 0 0)
(5.997270562385722e-11 0 0)
(6.001622086520159e-11 0 0)
(6.014676658923819e-11 0 0)
(6.022509402366529e-11 0 0)
(6.013806354097213e-11 0 0)
(6.036434279597438e-11 0 0)
(6.032953060289213e-11 0 0)
(6.043396718212961e-11 0 0)
(6.036434279597505e-11 0 0)
(6.039915498905201e-11 0 0)
(6.045137327866258e-11 0 0)
(6.051229461655369e-11 0 0)
(6.053840376136161e-11 0 0)
(6.064284034059497e-11 0 0)
(6.07298708232805e-11 0 0)
(6.06602464371317e-11 0 0)
(6.078208911290449e-11 0 0)
(6.072116777501685e-11 0 0)
(6.099966531962967e-11 0 0)
(6.121724152636825e-11 0 0)
(6.140870858829308e-11 0 0)
(6.167850308464186e-11 0 0)
(6.186126709829767e-11 0 0)
(6.201792196714161e-11 0 0)
(6.236604389791792e-11 0 0)
(6.28969298423486e-11 0 0)
(6.361928284869938e-11 0 0)
(6.423719927581499e-11 0 0)
(6.479419436505941e-11 0 0)
(6.552525041967963e-11 0 0)
(6.610835465372398e-11 0 0)
(6.666534974295409e-11 0 0)
(6.727456312181202e-11 0 0)
(6.779674601797171e-11 0 0)
(6.832763196239969e-11 0 0)
(6.891943924470711e-11 0 0)
(6.992028979568456e-11 0 0)
(7.077318852607741e-11 0 0)
(7.166089944954778e-11 0 0)
(7.246157989032082e-11 0 0)
(7.329707252417886e-11 0 0)
(7.415867430284092e-11 0 0)
(7.470696634380892e-11 0 0)
(7.556856812246628e-11 0 0)
(7.634313941843955e-11 0 0)
(7.714381985921745e-11 0 0)
(7.788357896210861e-11 0 0)
(7.856241672711559e-11 0 0)
(7.933698802307771e-11 0 0)
(8.013766846386202e-11 0 0)
(8.099056719425787e-11 0 0)
(8.148664094560601e-11 0 0)
(8.231343053118392e-11 0 0)
(8.305318963408574e-11 0 0)
(8.388868226793778e-11 0 0)
(8.46284413708297e-11 0 0)
(8.540301266679111e-11 0 0)
(8.622980225238729e-11 0 0)
(8.704788878970019e-11 0 0)
(8.777024179605394e-11 0 0)
(8.830983078874582e-11 0 0)
(8.911921427779687e-11 0 0)
(8.977194289799676e-11 0 0)
(9.049429590435331e-11 0 0)
(9.128627329684938e-11 0 0)
(9.19738141101334e-11 0 0)
(9.263524577860229e-11 0 0)
(9.322705306091549e-11 0 0)
(9.40712487430394e-11 0 0)
(9.502858405266441e-11 0 0)
(9.578574925209538e-11 0 0)
)
;

boundaryField
{
    inlet
    {
        type            zeroGradient;
    }
    outlet
    {
        type            velocityOutletNSCBCx;
        pInf            101325;
        gamma           1.4;
        etaAc           1;
        fieldInf        (-1 0 0);
        lInf            2.25;
        value           uniform (9.616876530570657e-11 0 0);
    }
    frontAndBack
    {
        type            empty;
    }
}


// ************************************************************************* //
