/*--------------------------------*- C++ -*----------------------------------*\
| =========                 |                                                 |
| \\      /  F ield         | OpenFOAM: The Open Source CFD Toolbox           |
|  \\    /   O peration     | Version:  v2012                                 |
|   \\  /    A nd           | Website:  www.openfoam.com                      |
|    \\/     M anipulation  |                                                 |
\*---------------------------------------------------------------------------*/
FoamFile
{
    version     2.0;
    format      ascii;
    class       volVectorField;
    location    "0.006";
    object      UMean;
}
// * * * * * * * * * * * * * * * * * * * * * * * * * * * * * * * * * * * * * //

dimensions      [0 1 -1 0 0 0 0];


internalField   nonuniform List<vector> 
1000
(
(-4.457439949971392e-05 0 0)
(1.960812353158091e-05 0 0)
(5.102959178486229e-05 0 0)
(0.0001153044511676123 0 0)
(0.0001903060692895688 0 0)
(0.0002791329349712146 0 0)
(0.0003858896460443914 0 0)
(0.0005031763852634659 0 0)
(0.0006346036958668716 0 0)
(0.0007737178376986846 0 0)
(0.0009178848560885163 0 0)
(0.001061853315380764 0 0)
(0.001205584088954371 0 0)
(0.001347116997849937 0 0)
(0.001484846344885473 0 0)
(0.00161521149643763 0 0)
(0.001735988707371911 0 0)
(0.001844093045587394 0 0)
(0.001938199284504342 0 0)
(0.002016027798094415 0 0)
(0.002076880999838774 0 0)
(0.002119012951887319 0 0)
(0.002142268049348503 0 0)
(0.002145583516158544 0 0)
(0.002129454668060475 0 0)
(0.002093609155991509 0 0)
(0.002039299455368297 0 0)
(0.001966982675468909 0 0)
(0.001878271868633524 0 0)
(0.001773714397679479 0 0)
(0.001654941256899041 0 0)
(0.0015236112768722 0 0)
(0.001384750115626127 0 0)
(0.00124330363631129 0 0)
(0.001102032581979808 0 0)
(0.0009610763466520251 0 0)
(0.0008215743586021202 0 0)
(0.0006850694556903191 0 0)
(0.0005539515672263863 0 0)
(0.0004309807658701898 0 0)
(0.0003191347984418612 0 0)
(0.0002210291231904451 0 0)
(0.000138890762995061 0 0)
(7.424403454760561e-05 0 0)
(2.822040337965907e-05 0 0)
(1.472125335984236e-06 0 0)
(-5.579862181809766e-06 0 0)
(7.108661374115175e-06 0 0)
(3.933004954806199e-05 0 0)
(9.053481634747155e-05 0 0)
(0.000159988303048037 0 0)
(0.0002469062564034598 0 0)
(0.0003504756852720677 0 0)
(0.0004694632295601354 0 0)
(0.0006008365796498506 0 0)
(0.0007389765925945513 0 0)
(0.0008787141870187974 0 0)
(0.001018389665689466 0 0)
(0.001157731656560076 0 0)
(0.00129570921106834 0 0)
(0.001431221969825887 0 0)
(0.001561939550814428 0 0)
(0.001685693118084295 0 0)
(0.001799349112595232 0 0)
(0.001900459151398248 0 0)
(0.001986160099486991 0 0)
(0.002054813081527886 0 0)
(0.002104670225373494 0 0)
(0.002135271052585605 0 0)
(0.002145919219773217 0 0)
(0.002136967712268186 0 0)
(0.002108376974080705 0 0)
(0.002060934279388204 0 0)
(0.001994826916343724 0 0)
(0.001910880619456939 0 0)
(0.00180939884290309 0 0)
(0.001692046125872456 0 0)
(0.00156193133935962 0 0)
(0.001425310178321045 0 0)
(0.001287024707915031 0 0)
(0.001148894040437349 0 0)
(0.001011045273157524 0 0)
(0.0008742617957294956 0 0)
(0.0007396791064501331 0 0)
(0.0006090652849868294 0 0)
(0.0004846222677219475 0 0)
(0.0003689889472731369 0 0)
(0.0002649016108796545 0 0)
(0.0001750763587197072 0 0)
(0.0001018177739551981 0 0)
(4.697986345013405e-05 0 0)
(1.171817035710068e-05 0 0)
(-3.332791855841975e-06 0 0)
(1.868959332082196e-06 0 0)
(2.711416282560127e-05 0 0)
(7.192911439555838e-05 0 0)
(0.0001358986753362477 0 0)
(0.0002185251549399422 0 0)
(0.0003192407533507819 0 0)
(0.0004364196882691873 0 0)
(0.0005661459542863626 0 0)
(0.0007019608800286249 0 0)
(0.0008390382729548853 0 0)
(0.00097601846633012 0 0)
(0.001112762007744248 0 0)
(0.00124840223728312 0 0)
(0.00138212935949187 0 0)
(0.001512072455611679 0 0)
(0.001636470208306537 0 0)
(0.001752616935835285 0 0)
(0.001858161366733791 0 0)
(0.001950172214705698 0 0)
(0.002026521743271902 0 0)
(0.002084926278727945 0 0)
(0.002124258096086491 0 0)
(0.002143399598083822 0 0)
(0.002142381411402015 0 0)
(0.002121048707647798 0 0)
(0.002080077074901472 0 0)
(0.002019590982592183 0 0)
(0.001940286953502487 0 0)
(0.001842470067817201 0 0)
(0.00172794051357549 0 0)
(0.001600256517293192 0 0)
(0.001466018472058247 0 0)
(0.001330130670708483 0 0)
(0.001194374584436085 0 0)
(0.001058800188247281 0 0)
(0.0009240866169393757 0 0)
(0.0007910691346759259 0 0)
(0.0006612482489533588 0 0)
(0.0005363727975355909 0 0)
(0.0004187979010047506 0 0)
(0.0003109418595698773 0 0)
(0.0002155463607045932 0 0)
(0.0001350559086442997 0 0)
(7.181374869112381e-05 0 0)
(2.749612508787136e-05 0 0)
(3.377514473766027e-06 0 0)
(-3.248926257583366e-08 0 0)
(1.745751343024311e-05 0 0)
(5.554565462665234e-05 0 0)
(0.0001139543189352665 0 0)
(0.0001921439345996016 0 0)
(0.0002894837368643998 0 0)
(0.0004040203739558798 0 0)
(0.0005314939277656509 0 0)
(0.0006651010580677099 0 0)
(0.0008000170334803195 0 0)
(0.0009348395618893847 0 0)
(0.001069498315892217 0 0)
(0.001203253013494687 0 0)
(0.001335475159639987 0 0)
(0.001464574893529382 0 0)
(0.001589092654939105 0 0)
(0.001706648999953646 0 0)
(0.00181513285114879 0 0)
(0.001911750543391145 0 0)
(0.001994292408372659 0 0)
(0.002060232865183596 0 0)
(0.002107990485960989 0 0)
(0.002135950332157225 0 0)
(0.002143599039301454 0 0)
(0.002130368206100735 0 0)
(0.002096611552668413 0 0)
(0.002042310289146355 0 0)
(0.001968131897815042 0 0)
(0.001874458559681728 0 0)
(0.001763254836196865 0 0)
(0.00163824974147831 0 0)
(0.001506254809125372 0 0)
(0.001372403089987578 0 0)
(0.001238649025158211 0 0)
(0.001104996023179671 0 0)
(0.000972037499517898 0 0)
(0.0008404163004775451 0 0)
(0.0007114162880225796 0 0)
(0.0005865009541940866 0 0)
(0.0004677397580332816 0 0)
(0.0003572886588425303 0 0)
(0.0002577329647125825 0 0)
(0.0001714788131590724 0 0)
(0.0001010473171303668 0 0)
(4.842361538825369e-05 0 0)
(1.53945278904532e-05 0 0)
(2.978030240506296e-06 0 0)
(1.193424755609394e-05 0 0)
(4.23398955105806e-05 0 0)
(9.423641121728181e-05 0 0)
(0.0001671526612713407 0 0)
(0.0002604406473626413 0 0)
(0.0003719022740811183 0 0)
(0.0004969967202414997 0 0)
(0.0006285870552201626 0 0)
(0.0007616426383559215 0 0)
(0.0008946253691753233 0 0)
(0.001027503452062072 0 0)
(0.001159625277737241 0 0)
(0.00129051103716501 0 0)
(0.001418767197810943 0 0)
(0.001543175032900364 0 0)
(0.001661608476653131 0 0)
(0.001772195814688684 0 0)
(0.001872313876412494 0 0)
(0.001959825414992073 0 0)
(0.002032123950888174 0 0)
(0.002087407411276609 0 0)
(0.002123682708963452 0 0)
(0.002139989445419308 0 0)
(0.002135272730470798 0 0)
(0.002109466032654855 0 0)
(0.002062237957017936 0 0)
(0.001994076411646846 0 0)
(0.001905322870154798 0 0)
(0.001797978232929164 0 0)
(0.001675867099049357 0 0)
(0.001546004192627991 0 0)
(0.001413943706308409 0 0)
(0.001281917577588823 0 0)
(0.001149941101990651 0 0)
(0.001018531345185787 0 0)
(0.0008881888892967811 0 0)
(0.0007600278520582496 0 0)
(0.0006352807528894077 0 0)
(0.0005157863317074252 0 0)
(0.0004034580502375125 0 0)
(0.0003007026492308797 0 0)
(0.0002098113782421654 0 0)
(0.0001333353148527413 0 0)
(7.341145597346998e-05 0 0)
(3.214982065399592e-05 0 0)
(1.09865425521562e-05 0 0)
(1.118374635964414e-05 0 0)
(3.32939731858489e-05 0 0)
(7.776412484181505e-05 0 0)
(0.0001444007602324812 0 0)
(0.0002326860844489257 0 0)
(0.0003404070276658412 0 0)
(0.0004628450462391776 0 0)
(0.0005925082195846241 0 0)
(0.0007239010510478424 0 0)
(0.0008552669613089062 0 0)
(0.0009865657913895173 0 0)
(0.001117242889044382 0 0)
(0.001246909292022386 0 0)
(0.001374345999985669 0 0)
(0.001498508110337879 0 0)
(0.001617494901118919 0 0)
(0.001729632878585943 0 0)
(0.001832491278523749 0 0)
(0.001924036746157276 0 0)
(0.002001696165333211 0 0)
(0.00206354928146208 0 0)
(0.002107393761244179 0 0)
(0.002131913602302805 0 0)
(0.00213566493553047 0 0)
(0.002118139815676548 0 0)
(0.002078643404743362 0 0)
(0.002017354577622391 0 0)
(0.001934423834040231 0 0)
(0.001831701479612287 0 0)
(0.001712926977498353 0 0)
(0.001585263243085234 0 0)
(0.00145484808472215 0 0)
(0.001324377192052188 0 0)
(0.001193904647798929 0 0)
(0.001063901884982719 0 0)
(0.0009347382116577694 0 0)
(0.0008074117034523894 0 0)
(0.0006829529850721405 0 0)
(0.0005630268368143855 0 0)
(0.0004493140675091434 0 0)
(0.0003440589070136516 0 0)
(0.0002493955110617157 0 0)
(0.0001678396552820242 0 0)
(0.0001015706138239765 0 0)
(5.289219834698935e-05 0 0)
(2.353606318786985e-05 0 0)
(1.51661282000411e-05 0 0)
(2.87720559334293e-05 0 0)
(6.523507662576867e-05 0 0)
(0.0001247310896562078 0 0)
(0.0002070211172887953 0 0)
(0.0003100935504625509 0 0)
(0.0004293144803795285 0 0)
(0.0005569374499391571 0 0)
(0.0006867915486386695 0 0)
(0.000816693938267232 0 0)
(0.0009465565263513667 0 0)
(0.001075914355182433 0 0)
(0.001204440671670586 0 0)
(0.001331079248997671 0 0)
(0.001454905356841209 0 0)
(0.001574231918473119 0 0)
(0.00168753032156774 0 0)
(0.001792579561451036 0 0)
(0.001887437256873583 0 0)
(0.00196963866832478 0 0)
(0.002037199263094465 0 0)
(0.002087834188114388 0 0)
(0.002119955271389017 0 0)
(0.002131848717974569 0 0)
(0.002122596375113171 0 0)
(0.002091178615188294 0 0)
(0.002037390011250112 0 0)
(0.001961127721379033 0 0)
(0.001863888841741014 0 0)
(0.001749135763537468 0 0)
(0.001623936024305366 0 0)
(0.001495138003699812 0 0)
(0.001366089270051657 0 0)
(0.001237022399199537 0 0)
(0.001108315890653945 0 0)
(0.0009802869327013438 0 0)
(0.0008537757113088723 0 0)
(0.0007297078955095003 0 0)
(0.0006095397526471536 0 0)
(0.0004948135615526776 0 0)
(0.0003875624334772444 0 0)
(0.0002898134362115118 0 0)
(0.000203958838342657 0 0)
(0.0001321994825544419 0 0)
(7.6902013022427e-05 0 0)
(4.001918189928263e-05 0 0)
(2.348910461949454e-05 0 0)
(2.867888989799733e-05 0 0)
(5.685103592146092e-05 0 0)
(0.0001085718590608122 0 0)
(0.0001839702311619681 0 0)
(0.0002814200644396939 0 0)
(0.0003966846678314793 0 0)
(0.0005219757013561559 0 0)
(0.0006503267784598501 0 0)
(0.0007788542403827922 0 0)
(0.0009073791244134554 0 0)
(0.001035488025172569 0 0)
(0.001162938460311954 0 0)
(0.001288777310835122 0 0)
(0.001412216831711089 0 0)
(0.001531710300703268 0 0)
(0.001645899697880455 0 0)
(0.001752704614877557 0 0)
(0.001850332656481082 0 0)
(0.001936387793509068 0 0)
(0.00200893278192973 0 0)
(0.002065603421567156 0 0)
(0.00210469499776869 0 0)
(0.002124240240923007 0 0)
(0.002123061801510968 0 0)
(0.002099788733281856 0 0)
(0.002053921520053222 0 0)
(0.001984986325298508 0 0)
(0.001894105146919077 0 0)
(0.001784164833564184 0 0)
(0.001661927549402254 0 0)
(0.001534794822053317 0 0)
(0.001407108306272159 0 0)
(0.001279345511705576 0 0)
(0.001151893872546631 0 0)
(0.001024939420065428 0 0)
(0.0008992716173497695 0 0)
(0.0007756417922837374 0 0)
(0.0006554105557235005 0 0)
(0.0005399185207073134 0 0)
(0.000431087819884943 0 0)
(0.0003307637312809466 0 0)
(0.0002412731395960627 0 0)
(0.0001647319707620859 0 0)
(0.0001035686230916272 0 0)
(5.981998930936956e-05 0 0)
(3.565279802451668e-05 0 0)
(3.268475340187936e-05 0 0)
(5.252519884595406e-05 0 0)
(9.60779623152627e-05 0 0)
(0.0001638795849865407 0 0)
(0.0002547963483054763 0 0)
(0.0003652439684111856 0 0)
(0.000487729324356427 0 0)
(0.0006145048695722653 0 0)
(0.0007417159615748213 0 0)
(0.0008689454393567707 0 0)
(0.0009958609454245372 0 0)
(0.001122246447148763 0 0)
(0.001247297066357565 0 0)
(0.001370279464682917 0 0)
(0.001489834670959853 0 0)
(0.001604679259438695 0 0)
(0.001712936471741417 0 0)
(0.001812872479627526 0 0)
(0.001902258194306331 0 0)
(0.001979137095551925 0 0)
(0.002041209797294863 0 0)
(0.002086618272806368 0 0)
(0.002113319369419612 0 0)
(0.002119845145726882 0 0)
(0.002104644779883248 0 0)
(0.002066854159712354 0 0)
(0.002005748330794326 0 0)
(0.001921921794313372 0 0)
(0.001817666929967881 0 0)
(0.001699018665873358 0 0)
(0.001573793729400964 0 0)
(0.001447408117575328 0 0)
(0.00132092589680917 0 0)
(0.001194663901541139 0 0)
(0.001068795882912332 0 0)
(0.0009439615709965162 0 0)
(0.0008208611368254745 0 0)
(0.0007006715067085905 0 0)
(0.0005846536214520375 0 0)
(0.0004745338490263262 0 0)
(0.0003720810341974141 0 0)
(0.0002794592762608496 0 0)
(0.0001987681249681143 0 0)
(0.0001323701579231582 0 0)
(8.240803782033684e-05 0 0)
(5.112616399948288e-05 0 0)
(4.038767504917286e-05 0 0)
(5.200627606580274e-05 0 0)
(8.723478487463702e-05 0 0)
(0.0001469353185498422 0 0)
(0.0002305570404486947 0 0)
(0.0003352703602163113 0 0)
(0.0004542922178788 0 0)
(0.0005792929013359299 0 0)
(0.0007052347129134636 0 0)
(0.0008312142512671086 0 0)
(0.0009569661039820455 0 0)
(0.001082301158707198 0 0)
(0.001206539804444633 0 0)
(0.001329010030558868 0 0)
(0.001448506828800229 0 0)
(0.001563828263884138 0 0)
(0.001673264609109024 0 0)
(0.001775155799973156 0 0)
(0.001867415313375998 0 0)
(0.001948107492669867 0 0)
(0.002015001706508617 0 0)
(0.002066157103254031 0 0)
(0.002099485510240325 0 0)
(0.002113318461055856 0 0)
(0.002105961124708543 0 0)
(0.002076256744372695 0 0)
(0.002023235252734088 0 0)
(0.001947000274480059 0 0)
(0.001849189107807342 0 0)
(0.00173490047581541 0 0)
(0.001611961630691745 0 0)
(0.001486921137343029 0 0)
(0.001361700826600346 0 0)
(0.001236637420017428 0 0)
(0.001111853564489302 0 0)
(0.0009879034242730345 0 0)
(0.000865385618268718 0 0)
(0.0007453684449889861 0 0)
(0.0006289895606197208 0 0)
(0.0005178520529575434 0 0)
(0.00041360296045892 0 0)
(0.0003182996605108945 0 0)
(0.0002339614967809044 0 0)
(0.0001629098340819011 0 0)
(0.0001073011801364036 0 0)
(6.944910911904005e-05 0 0)
(5.134950126593135e-05 0 0)
(5.49994702260982e-05 0 0)
(8.189905457547657e-05 0 0)
(0.000133235022434639 0 0)
(0.0002089707655665855 0 0)
(0.0003071186753854824 0 0)
(0.0004218584394702626 0 0)
(0.0005447381113723247 0 0)
(0.0006693871611009957 0 0)
(0.0007941571560568392 0 0)
(0.0009187438638472711 0 0)
(0.001043045921444838 0 0)
(0.001166423758205983 0 0)
(0.001288343329075504 0 0)
(0.001407655058119706 0 0)
(0.001523315979474644 0 0)
(0.001633680700974749 0 0)
(0.001737248775806779 0 0)
(0.001831979612422289 0 0)
(0.001916061660000608 0 0)
(0.001987252183149991 0 0)
(0.002043660821534245 0 0)
(0.002083095044608926 0 0)
(0.002103839705794802 0 0)
(0.002104001122734414 0 0)
(0.002082293197486789 0 0)
(0.002037443330306447 0 0)
(0.001969224287904963 0 0)
(0.001878527347027027 0 0)
(0.001769488124303688 0 0)
(0.001649366783174353 0 0)
(0.001525787334827561 0 0)
(0.001401745544025879 0 0)
(0.001277845708830919 0 0)
(0.001154126334124067 0 0)
(0.001031071813937907 0 0)
(0.0009091947522786673 0 0)
(0.0007894531328546819 0 0)
(0.0006728806589461712 0 0)
(0.0005609569063439953 0 0)
(0.0004552200810081757 0 0)
(0.0003576151618555446 0 0)
(0.0002700805292923014 0 0)
(0.0001948758516462865 0 0)
(0.0001341446944182206 0 0)
(9.022644581908347e-05 0 0)
(6.520276872707911e-05 0 0)
(6.120305965437576e-05 0 0)
(7.991899207267592e-05 0 0)
(0.0001228080619523398 0 0)
(0.0001902872999110274 0 0)
(0.0002811785822675995 0 0)
(0.0003907759126560791 0 0)
(0.0005109919484798166 0 0)
(0.00063423661575319 0 0)
(0.0007577905721685522 0 0)
(0.000881215419417824 0 0)
(0.001004434460036436 0 0)
(0.0011269276459686 0 0)
(0.001248200180880348 0 0)
(0.001367246042917274 0 0)
(0.0014830765054472 0 0)
(0.001594197842281645 0 0)
(0.001699163033777252 0 0)
(0.00179607156351485 0 0)
(0.001883139102203234 0 0)
(0.001958222186884995 0 0)
(0.002019397405738784 0 0)
(0.002064501997767807 0 0)
(0.002091708618967975 0 0)
(0.00209907640464323 0 0)
(0.002085121220334718 0 0)
(0.002048424733149179 0 0)
(0.001988378061052493 0 0)
(0.001905325474827405 0 0)
(0.001802307232107666 0 0)
(0.001685756376171343 0 0)
(0.001563846776525259 0 0)
(0.001441016874304921 0 0)
(0.001318261616057966 0 0)
(0.001195626047553734 0 0)
(0.001073498627473256 0 0)
(0.0009523290910822067 0 0)
(0.0008329599704789461 0 0)
(0.0007163439217153407 0 0)
(0.0006038303348854173 0 0)
(0.0004968719319165113 0 0)
(0.0003972868839753651 0 0)
(0.0003069486448569732 0 0)
(0.0002280239457733835 0 0)
(0.0001626443327527184 0 0)
(0.0001131234492763598 0 0)
(8.161384726871815e-05 0 0)
(7.030770644341326e-05 0 0)
(8.106555683285115e-05 0 0)
(0.0001155362267705212 0 0)
(0.0001745456233120058 0 0)
(0.0002576044946520287 0 0)
(0.0003611916971902689 0 0)
(0.0004780205414355283 0 0)
(0.0005996783558681964 0 0)
(0.0007220383102129489 0 0)
(0.0008443237967286523 0 0)
(0.0009664584936748336 0 0)
(0.001088043768502305 0 0)
(0.001208611538205003 0 0)
(0.001327302140621175 0 0)
(0.00144316738007808 0 0)
(0.001554865695426362 0 0)
(0.00166099304748571 0 0)
(0.001759789559393679 0 0)
(0.001849498129559204 0 0)
(0.001928080584185452 0 0)
(0.001993599902489557 0 0)
(0.002043937145652636 0 0)
(0.002077191275657346 0 0)
(0.00209138993013044 0 0)
(0.002084906635304504 0 0)
(0.002056193912978589 0 0)
(0.002004350739188942 0 0)
(0.001929240248295536 0 0)
(0.00183294266227098 0 0)
(0.001720787647647211 0 0)
(0.001600995296882637 0 0)
(0.001479421767022404 0 0)
(0.001357834532353644 0 0)
(0.001236312238767892 0 0)
(0.00111517316344452 0 0)
(0.0009947914731904201 0 0)
(0.0008759133478508347 0 0)
(0.0007593963157791135 0 0)
(0.0006464854840062496 0 0)
(0.0005385309441565271 0 0)
(0.0004372537037594094 0 0)
(0.0003444358322339772 0 0)
(0.0002621765576940956 0 0)
(0.0001925539527111106 0 0)
(0.0001378686698570612 0 0)
(0.0001002818532977326 0 0)
(8.204910828723381e-05 0 0)
(8.512466833901916e-05 0 0)
(0.0001113353456471888 0 0)
(0.0001618021606373495 0 0)
(0.0002366493442392905 0 0)
(0.0003334380110347809 0 0)
(0.0004460452575703288 0 0)
(0.0005657470204777133 0 0)
(0.0006869028680972123 0 0)
(0.0008080454360056028 0 0)
(0.0009291088243398231 0 0)
(0.001049737876447691 0 0)
(0.001169568249458404 0 0)
(0.001287798395297068 0 0)
(0.001403595313057431 0 0)
(0.00151568750874492 0 0)
(0.00162278292734602 0 0)
(0.001723191828704367 0 0)
(0.001815249676403634 0 0)
(0.001896969181595121 0 0)
(0.001966464495865006 0 0)
(0.002021628068901 0 0)
(0.002060550862434256 0 0)
(0.002081218194991964 0 0)
(0.002081923571638165 0 0)
(0.002061004634183019 0 0)
(0.002017341315868179 0 0)
(0.001950397651482248 0 0)
(0.001861411048131042 0 0)
(0.00175451523444078 0 0)
(0.001637408582146815 0 0)
(0.00151718360356848 0 0)
(0.001396717543272898 0 0)
(0.001276284922364234 0 0)
(0.001156129607748443 0 0)
(0.001036562680341736 0 0)
(0.0009182338539318374 0 0)
(0.0008019225416387746 0 0)
(0.0006887631806221553 0 0)
(0.0005800243172277078 0 0)
(0.0004773134989253074 0 0)
(0.0003823418541217764 0 0)
(0.0002971103552077401 0 0)
(0.0002236575569124336 0 0)
(0.0001642270742144923 0 0)
(0.0001209970125249352 0 0)
(9.622922779271258e-05 0 0)
(9.197190350852387e-05 0 0)
(0.0001101599547574119 0 0)
(0.0001521810025460852 0 0)
(0.0002186212643189708 0 0)
(0.0003080090872275095 0 0)
(0.0004154870778734398 0 0)
(0.0005326675233487272 0 0)
(0.0006525016310129719 0 0)
(0.0007724917952561369 0 0)
(0.0008924326613609964 0 0)
(0.001012062726944568 0 0)
(0.001131055811010842 0 0)
(0.001248730940960679 0 0)
(0.001364309659244362 0 0)
(0.001476642908332859 0 0)
(0.001584498950608873 0 0)
(0.001686298339273402 0 0)
(0.001780429693942738 0 0)
(0.001864989159814284 0 0)
(0.001938120320459234 0 0)
(0.001997755511947996 0 0)
(0.002041976923553286 0 0)
(0.002068753908497644 0 0)
(0.002076319690004497 0 0)
(0.002062920985220188 0 0)
(0.002027273879539034 0 0)
(0.001968520142020177 0 0)
(0.001887229480535617 0 0)
(0.001786372913521182 0 0)
(0.001672720565645895 0 0)
(0.001554089464827346 0 0)
(0.001434770595799752 0 0)
(0.001315442374316262 0 0)
(0.00119631037638543 0 0)
(0.001077626218166496 0 0)
(0.0009599409182329653 0 0)
(0.0008439641980816183 0 0)
(0.0007307157637746206 0 0)
(0.0006213908343279538 0 0)
(0.0005174801461915917 0 0)
(0.0004206308803066769 0 0)
(0.0003327394109100612 0 0)
(0.0002558069360484128 0 0)
(0.0001920030900519086 0 0)
(0.00014351524299801 0 0)
(0.0001125818795921137 0 0)
(0.0001013294893693626 0 0)
(0.0001117529496093607 0 0)
(0.0001454644420067242 0 0)
(0.0002033972204595458 0 0)
(0.0002849142207448994 0 0)
(0.000386399768171829 0 0)
(0.0005003474363340761 0 0)
(0.0006186679867989122 0 0)
(0.0007375280162620146 0 0)
(0.0008563504519790015 0 0)
(0.0009749725251353619 0 0)
(0.001093088362072499 0 0)
(0.001210147225165419 0 0)
(0.001325403898398037 0 0)
(0.001437848978751299 0 0)
(0.001546282341875959 0 0)
(0.001649262990741688 0 0)
(0.001745198395964467 0 0)
(0.0018323088609678 0 0)
(0.001908731216172415 0 0)
(0.001972493505320779 0 0)
(0.002021631068689741 0 0)
(0.002054165510451431 0 0)
(0.002068232726374367 0 0)
(0.002062073218602016 0 0)
(0.002034216147425258 0 0)
(0.001983613284940671 0 0)
(0.001910241748325448 0 0)
(0.001816111131079794 0 0)
(0.00170674727169449 0 0)
(0.001590144147722561 0 0)
(0.001472001016596017 0 0)
(0.001353793565334918 0 0)
(0.001235709889968859 0 0)
(0.001117959824053679 0 0)
(0.001001002005660439 0 0)
(0.0008854716680256748 0 0)
(0.0007722885962638357 0 0)
(0.0006625618246640963 0 0)
(0.0005576843524615099 0 0)
(0.0004592179459237888 0 0)
(0.0003689762656628268 0 0)
(0.0002888904214049866 0 0)
(0.0002210781747178828 0 0)
(0.0001676913846680653 0 0)
(0.0001309667371659552 0 0)
(0.0001130504184345483 0 0)
(0.0001160126469712082 0 0)
(0.0001416015652598447 0 0)
(0.000191058222157396 0 0)
(0.0002643766192880013 0 0)
(0.0003591223887564428 0 0)
(0.0004689709582113103 0 0)
(0.0005854470530640469 0 0)
(0.0007031529155652153 0 0)
(0.0008208841104215372 0 0)
(0.0009384707047665847 0 0)
(0.001055693619871697 0 0)
(0.001172051132500142 0 0)
(0.001286908101291177 0 0)
(0.001399311059054855 0 0)
(0.001508174082762349 0 0)
(0.001612110040902656 0 0)
(0.001709632587385159 0 0)
(0.001799002044842216 0 0)
(0.001878439231446488 0 0)
(0.001945986035533808 0 0)
(0.001999727689418549 0 0)
(0.002037662928044108 0 0)
(0.002057930745920502 0 0)
(0.002058698696701663 0 0)
(0.002038422635426563 0 0)
(0.001995842991353661 0 0)
(0.001930538738360014 0 0)
(0.001843643416763273 0 0)
(0.001739436539292558 0 0)
(0.001625424850296938 0 0)
(0.001508569885928187 0 0)
(0.001391450882527339 0 0)
(0.001274414661473976 0 0)
(0.001157615889417178 0 0)
(0.001041428678923575 0 0)
(0.0009264230855166721 0 0)
(0.0008134141512443436 0 0)
(0.0007034391730706334 0 0)
(0.0005977824841886763 0 0)
(0.0004979365822935316 0 0)
(0.0004056150818507094 0 0)
(0.0003226951322113556 0 0)
(0.0002512184178205998 0 0)
(0.0001933126239142593 0 0)
(0.0001511789717397869 0 0)
(0.0001269878731479386 0 0)
(0.0001228420341102443 0 0)
(0.0001406081782640093 0 0)
(0.0001817422044557777 0 0)
(0.0002467436966420071 0 0)
(0.0003341623568720939 0 0)
(0.0004390112387146863 0 0)
(0.0005530719858813002 0 0)
(0.000669517958307792 0 0)
(0.0007861295802186246 0 0)
(0.0009026494366082406 0 0)
(0.001018900208620814 0 0)
(0.001134476956248969 0 0)
(0.001248801067588961 0 0)
(0.001361028552038062 0 0)
(0.001470134160678159 0 0)
(0.001574837239187618 0 0)
(0.001673704105442218 0 0)
(0.001765087372099691 0 0)
(0.001847242723825057 0 0)
(0.001918280539536985 0 0)
(0.001976292804141527 0 0)
(0.002019313691122988 0 0)
(0.002045453979830921 0 0)
(0.00205287541148238 0 0)
(0.002039948424984735 0 0)
(0.002005300647748317 0 0)
(0.001948180637037656 0 0)
(0.001869040323842696 0 0)
(0.001770866972310911 0 0)
(0.001660122295539283 0 0)
(0.001544499548780687 0 0)
(0.001428120324429281 0 0)
(0.00131176648243326 0 0)
(0.001195545219125205 0 0)
(0.001079712359563459 0 0)
(0.000964696919611867 0 0)
(0.0008511237124517547 0 0)
(0.0007398125493341038 0 0)
(0.0006317688517088262 0 0)
(0.0005281632187078142 0 0)
(0.0004303001925335245 0 0)
(0.0003395755320622752 0 0)
(0.0002574212307740134 0 0)
(0.0001852368119872112 0 0)
(0.0001243024751862601 0 0)
(7.565974007493508e-05 0 0)
(3.991842748847771e-05 0 0)
(1.689897218131574e-05 0 0)
(5.025432772103287e-06 0 0)
(8.435939037121963e-07 0 0)
(5.813613292826836e-08 0 0)
(1.132872287637373e-09 0 0)
(2.757937683603334e-11 0 0)
(2.376613958105558e-11 0 0)
(2.381192881772284e-11 0 0)
(2.39500865738942e-11 0 0)
(2.391466826074168e-11 0 0)
(2.406421480414088e-11 0 0)
(2.411344847489917e-11 0 0)
(2.420342595519922e-11 0 0)
(2.425982020313928e-11 0 0)
(2.432350461254457e-11 0 0)
(2.43883678209973e-11 0 0)
(2.443644777353818e-11 0 0)
(2.456939916726026e-11 0 0)
(2.453210815207913e-11 0 0)
(2.466716842564887e-11 0 0)
(2.471984862056815e-11 0 0)
(2.479209395353557e-11 0 0)
(2.486074436742941e-11 0 0)
(2.49120555669995e-11 0 0)
(2.501029091082894e-11 0 0)
(2.502118017151214e-11 0 0)
(2.511351315983982e-11 0 0)
(2.515506164604142e-11 0 0)
(2.521607494696756e-11 0 0)
(2.52730544142933e-11 0 0)
(2.534840559013361e-11 0 0)
(2.542602449108914e-11 0 0)
(2.547585174150733e-11 0 0)
(2.561688543293688e-11 0 0)
(2.557942303207885e-11 0 0)
(2.572238376733377e-11 0 0)
(2.577766191830538e-11 0 0)
(2.585150824430127e-11 0 0)
(2.592124131405709e-11 0 0)
(2.598342714382444e-11 0 0)
(2.606236278839411e-11 0 0)
(2.610355178269039e-11 0 0)
(2.624065614396951e-11 0 0)
(2.620683464370762e-11 0 0)
(2.634335796573723e-11 0 0)
(2.639907294117703e-11 0 0)
(2.64607571543302e-11 0 0)
(2.652535492398999e-11 0 0)
(2.658504312103021e-11 0 0)
(2.668670617839493e-11 0 0)
(2.669691825664758e-11 0 0)
(2.679881540176194e-11 0 0)
(2.685063866829773e-11 0 0)
(2.691927654177556e-11 0 0)
(2.698040270644579e-11 0 0)
(2.703649598441271e-11 0 0)
(2.710446085559828e-11 0 0)
(2.714948930706766e-11 0 0)
(2.728865029646796e-11 0 0)
(2.725330722580829e-11 0 0)
(2.740542246428482e-11 0 0)
(2.744377314457172e-11 0 0)
(2.751690048675376e-11 0 0)
(2.760003717047363e-11 0 0)
(2.767440810384721e-11 0 0)
(2.775384536503149e-11 0 0)
(2.780194412819765e-11 0 0)
(2.793664490986054e-11 0 0)
(2.790014394084974e-11 0 0)
(2.803432011514003e-11 0 0)
(2.809069973259079e-11 0 0)
(2.817522840241441e-11 0 0)
(2.824423830821827e-11 0 0)
(2.830456188630405e-11 0 0)
(2.841242617907179e-11 0 0)
(2.843412736787233e-11 0 0)
(2.853606004417148e-11 0 0)
(2.860382426871126e-11 0 0)
(2.867746158778629e-11 0 0)
(2.874894404548191e-11 0 0)
(2.882268377795101e-11 0 0)
(2.890404390282655e-11 0 0)
(2.894895322034787e-11 0 0)
(2.909272281239736e-11 0 0)
(2.905867976479823e-11 0 0)
(2.920099257859742e-11 0 0)
(2.925179589134519e-11 0 0)
(2.933127913404995e-11 0 0)
(2.939879464035527e-11 0 0)
(2.946839812581748e-11 0 0)
(2.954333128781364e-11 0 0)
(2.959767726790457e-11 0 0)
(2.973676719494943e-11 0 0)
(2.970994742660648e-11 0 0)
(2.98483246400475e-11 0 0)
(2.990434476559003e-11 0 0)
(2.999001879335167e-11 0 0)
(3.007407719760326e-11 0 0)
(3.01315123000149e-11 0 0)
(3.026173197325492e-11 0 0)
(3.021914263257414e-11 0 0)
(3.03691050997536e-11 0 0)
(3.039728759323667e-11 0 0)
(3.053348695454054e-11 0 0)
(3.04955250271326e-11 0 0)
(3.063692448068104e-11 0 0)
(3.069282756234754e-11 0 0)
(3.076710235253678e-11 0 0)
(3.08401251912544e-11 0 0)
(3.09029505822096e-11 0 0)
(3.104008420445973e-11 0 0)
(3.100877496740945e-11 0 0)
(3.115626906282417e-11 0 0)
(3.121888753692617e-11 0 0)
(3.129002722327163e-11 0 0)
(3.136492485409079e-11 0 0)
(3.144216545251558e-11 0 0)
(3.151185254074457e-11 0 0)
(3.157598213489813e-11 0 0)
(3.171362573404019e-11 0 0)
(3.168979058455272e-11 0 0)
(3.183222462236409e-11 0 0)
(3.188962837374034e-11 0 0)
(3.197929652379944e-11 0 0)
(3.205670641783213e-11 0 0)
(3.214076900221733e-11 0 0)
(3.223030547791874e-11 0 0)
(3.229369518756351e-11 0 0)
(3.243342258572608e-11 0 0)
(3.240984033461275e-11 0 0)
(3.255724664712546e-11 0 0)
(3.262592423191929e-11 0 0)
(3.271399556908828e-11 0 0)
(3.280101142129434e-11 0 0)
(3.287418474500171e-11 0 0)
(3.303517441743053e-11 0 0)
(3.301605655419356e-11 0 0)
(3.31745465038216e-11 0 0)
(3.324904493142009e-11 0 0)
(3.335522253832011e-11 0 0)
(3.344546127727971e-11 0 0)
(3.353111649442027e-11 0 0)
(3.363426559100401e-11 0 0)
(3.370904199781096e-11 0 0)
(3.38723516470841e-11 0 0)
(3.386206850647683e-11 0 0)
(3.404184999134011e-11 0 0)
(3.411802047432312e-11 0 0)
(3.422942743443311e-11 0 0)
(3.433268312455023e-11 0 0)
(3.44435027752039e-11 0 0)
(3.455035965460696e-11 0 0)
(3.463172813975839e-11 0 0)
(3.481387976313013e-11 0 0)
(3.480725633374077e-11 0 0)
(3.499525388074785e-11 0 0)
(3.508969156878886e-11 0 0)
(3.520124274367658e-11 0 0)
(3.532121062734464e-11 0 0)
(3.542086303811439e-11 0 0)
(3.561621553873641e-11 0 0)
(3.561892426845673e-11 0 0)
(3.581058152668149e-11 0 0)
(3.592153494176933e-11 0 0)
(3.604596512324508e-11 0 0)
)
;

boundaryField
{
    inlet
    {
        type            calculated;
        value           uniform (-4.457439949971392e-05 0 0);
    }
    outlet
    {
        type            calculated;
        value           uniform (3.609471246836992e-11 0 0);
    }
    frontAndBack
    {
        type            empty;
    }
}


// ************************************************************************* //
