/*--------------------------------*- C++ -*----------------------------------*\
| =========                 |                                                 |
| \\      /  F ield         | OpenFOAM: The Open Source CFD Toolbox           |
|  \\    /   O peration     | Version:  v2012                                 |
|   \\  /    A nd           | Website:  www.openfoam.com                      |
|    \\/     M anipulation  |                                                 |
\*---------------------------------------------------------------------------*/
FoamFile
{
    version     2.0;
    format      ascii;
    class       volScalarField;
    location    "0.006";
    object      p;
}
// * * * * * * * * * * * * * * * * * * * * * * * * * * * * * * * * * * * * * //

dimensions      [1 -1 -2 0 0 0 0];


internalField   nonuniform List<scalar> 
100
(
100000
100000
100000
100000
100000
100000
100000
100000
100000
100000
100000
100000
100000
100000
100000
100000
100000
100000
100000
100000
100000
100000
100000
99998.7
99948.6
99484.3
97924.3
95168.6
91697.6
87932.9
84091.7
80274
76528.6
72881.2
69345.6
65929.3
62635.3
59464.2
56415.1
53485.5
50672.6
47973.3
45384.6
42904.1
40530.6
38265.2
36113.2
34095.3
32267
30809.6
30029.8
30004.5
30395.8
30341.1
30305.1
30295.8
30288.8
30283.8
30273.9
30266.1
30270.6
30277.1
30279
30278
30281.1
30292.2
30312.8
30334.3
30357.7
30344.5
30157.6
30255.4
30338.7
30356.5
30347.7
30312.6
30272
30253
30244.2
30229.8
30159.2
29722.2
27420.2
19852
11642.5
10034.1
10000
10000
10000
10000
10000
10000
10000
10000
10000
10000
10000
10000
10000
10000
)
;

boundaryField
{
    sides
    {
        type            zeroGradient;
    }
    empty
    {
        type            empty;
    }
}


// ************************************************************************* //
