/*--------------------------------*- C++ -*----------------------------------*\
| =========                 |                                                 |
| \\      /  F ield         | OpenFOAM: The Open Source CFD Toolbox           |
|  \\    /   O peration     | Version:  v2012                                 |
|   \\  /    A nd           | Website:  www.openfoam.com                      |
|    \\/     M anipulation  |                                                 |
\*---------------------------------------------------------------------------*/
FoamFile
{
    version     2.0;
    format      ascii;
    class       volScalarField;
    location    "0.006";
    object      rho;
}
// * * * * * * * * * * * * * * * * * * * * * * * * * * * * * * * * * * * * * //

dimensions      [1 -3 0 0 0 0 0];


internalField   nonuniform List<scalar> 
100
(
0.999645
0.999645
0.999645
0.999645
0.999645
0.999645
0.999645
0.999645
0.999645
0.999645
0.999645
0.999645
0.999645
0.999645
0.999645
0.999645
0.999645
0.999645
0.999645
0.999645
0.999645
0.999645
0.999645
0.999636
0.999278
0.995958
0.98477
0.964888
0.939616
0.911897
0.883265
0.854435
0.825769
0.797464
0.769638
0.742363
0.715679
0.68961
0.664165
0.639345
0.615146
0.59156
0.568582
0.54621
0.524454
0.503346
0.482962
0.463531
0.445624
0.431098
0.423487
0.42305
0.426877
0.426317
0.425935
0.425926
0.426011
0.426206
0.426279
0.426178
0.426015
0.425331
0.423397
0.419015
0.410272
0.394725
0.370856
0.340338
0.309026
0.283934
0.268525
0.264229
0.26391
0.263991
0.26402
0.264027
0.264065
0.26424
0.264449
0.264579
0.264341
0.261742
0.247178
0.196971
0.137856
0.12524
0.124956
0.124955
0.124955
0.124955
0.124955
0.124955
0.124955
0.124955
0.124955
0.124955
0.124955
0.124955
0.124955
0.124955
)
;

boundaryField
{
    sides
    {
        type            calculated;
        value           nonuniform List<scalar> 2(0.124955 0.999645);
    }
    empty
    {
        type            empty;
    }
}


// ************************************************************************* //
