/*--------------------------------*- C++ -*----------------------------------*\
| =========                 |                                                 |
| \\      /  F ield         | OpenFOAM: The Open Source CFD Toolbox           |
|  \\    /   O peration     | Version:  v2012                                 |
|   \\  /    A nd           | Website:  www.openfoam.com                      |
|    \\/     M anipulation  |                                                 |
\*---------------------------------------------------------------------------*/
FoamFile
{
    version     2.0;
    format      ascii;
    class       volScalarField;
    location    "0.006";
    object      T;
}
// * * * * * * * * * * * * * * * * * * * * * * * * * * * * * * * * * * * * * //

dimensions      [0 0 0 1 0 0 0];


internalField   nonuniform List<scalar> 
100
(
348.432
348.432
348.432
348.432
348.432
348.432
348.432
348.432
348.432
348.432
348.432
348.432
348.432
348.432
348.432
348.432
348.432
348.432
348.432
348.432
348.432
348.432
348.432
348.431
348.381
347.919
346.354
343.543
339.916
335.869
331.609
327.235
322.797
318.323
313.831
309.333
304.835
300.342
295.858
291.383
286.919
282.465
278.022
273.592
269.178
264.79
260.445
256.201
252.205
248.928
246.988
247.035
248.014
247.891
247.82
247.749
247.643
247.489
247.365
247.36
247.492
247.943
249.09
251.687
257.078
267.301
284.698
310.447
342.167
372.243
391.179
398.829
400.411
400.523
400.362
399.889
399.294
398.781
398.349
397.965
397.393
395.523
386.389
351.048
294.16
279.062
278.746
278.746
278.746
278.746
278.746
278.746
278.746
278.746
278.746
278.746
278.746
278.746
278.746
278.746
)
;

boundaryField
{
    sides
    {
        type            zeroGradient;
    }
    empty
    {
        type            empty;
    }
}


// ************************************************************************* //
