/*--------------------------------*- C++ -*----------------------------------*\
| =========                 |                                                 |
| \\      /  F ield         | OpenFOAM: The Open Source CFD Toolbox           |
|  \\    /   O peration     | Version:  v2012                                 |
|   \\  /    A nd           | Website:  www.openfoam.com                      |
|    \\/     M anipulation  |                                                 |
\*---------------------------------------------------------------------------*/
FoamFile
{
    version     2.0;
    format      ascii;
    class       volVectorField;
    location    "0.006";
    object      U;
}
// * * * * * * * * * * * * * * * * * * * * * * * * * * * * * * * * * * * * * //

dimensions      [0 1 -1 0 0 0 0];


internalField   nonuniform List<vector> 
100
(
(-4.10503e-13 0 0)
(-4.49816e-13 0 0)
(-4.42413e-13 0 0)
(-3.4881e-13 0 0)
(-3.13221e-13 0 0)
(-2.96548e-13 0 0)
(-2.32378e-13 0 0)
(-2.6376e-13 0 0)
(-2.07912e-13 0 0)
(-1.41591e-13 0 0)
(-1.12747e-13 0 0)
(-2.26527e-14 0 0)
(-1.25288e-13 0 0)
(-1.89718e-13 0 0)
(-1.56221e-13 0 0)
(-1.04005e-13 0 0)
(-2.05808e-14 0 0)
(1.54823e-14 0 0)
(2.58913e-14 0 0)
(2.53453e-14 0 0)
(4.2918e-13 0 0)
(7.58942e-09 0 0)
(1.54564e-05 0 0)
(0.00355825 0 0)
(0.137499 0 0)
(1.38099 0 0)
(5.59366 0 0)
(13.1754 0 0)
(22.9997 0 0)
(34.0262 0 0)
(45.7046 0 0)
(57.7749 0 0)
(70.1053 0 0)
(82.6213 0 0)
(95.2768 0 0)
(108.043 0 0)
(120.9 0 0)
(133.837 0 0)
(146.847 0 0)
(159.927 0 0)
(173.078 0 0)
(186.299 0 0)
(199.593 0 0)
(212.955 0 0)
(226.376 0 0)
(239.831 0 0)
(253.258 0 0)
(266.502 0 0)
(279.068 0 0)
(289.628 0 0)
(295.301 0 0)
(295.566 0 0)
(292.678 0 0)
(293.092 0 0)
(293.383 0 0)
(293.433 0 0)
(293.47 0 0)
(293.523 0 0)
(293.578 0 0)
(293.63 0 0)
(293.583 0 0)
(293.526 0 0)
(293.505 0 0)
(293.513 0 0)
(293.523 0 0)
(293.558 0 0)
(293.652 0 0)
(293.777 0 0)
(293.967 0 0)
(293.883 0 0)
(292.236 0 0)
(293.018 0 0)
(293.809 0 0)
(293.933 0 0)
(293.828 0 0)
(293.488 0 0)
(293.078 0 0)
(292.871 0 0)
(292.789 0 0)
(292.622 0 0)
(291.936 0 0)
(287.79 0 0)
(265.391 0 0)
(177.42 0 0)
(37.3211 0 0)
(0.815459 0 0)
(0.00116303 0 0)
(7.03093e-08 0 0)
(1.3664e-12 0 0)
(-2.65285e-13 0 0)
(-2.5931e-13 0 0)
(-2.4526e-13 0 0)
(-1.97301e-13 0 0)
(-1.82963e-13 0 0)
(-1.88437e-13 0 0)
(-2.53803e-13 0 0)
(-3.6552e-13 0 0)
(-2.82124e-13 0 0)
(-3.42241e-13 0 0)
(-3.73885e-13 0 0)
)
;

boundaryField
{
    sides
    {
        type            zeroGradient;
    }
    empty
    {
        type            empty;
    }
}


// ************************************************************************* //
