/*--------------------------------*- C++ -*----------------------------------*\
| =========                 |                                                 |
| \\      /  F ield         | OpenFOAM: The Open Source CFD Toolbox           |
|  \\    /   O peration     | Version:  v2012                                 |
|   \\  /    A nd           | Website:  www.openfoam.com                      |
|    \\/     M anipulation  |                                                 |
\*---------------------------------------------------------------------------*/
FoamFile
{
    version     2.0;
    format      ascii;
    class       volScalarField;
    location    "0.004";
    object      pMean;
}
// * * * * * * * * * * * * * * * * * * * * * * * * * * * * * * * * * * * * * //

dimensions      [1 -1 -2 0 0 0 0];


internalField   nonuniform List<scalar> 
1000
(
101325.0339676287
101325.0109888269
101325.0448431743
101325.0757567499
101325.1063240656
101325.1629512458
101325.2209470268
101325.2988430565
101325.3827250147
101325.4777682138
101325.5671800688
101325.6477891286
101325.7402151109
101325.8196318214
101325.907597343
101325.9983008338
101326.0791178747
101326.1458046484
101326.2120342336
101326.2584859411
101326.2879135081
101326.3205783375
101326.342923738
101326.345602815
101326.34411887
101326.3283686672
101326.2809621143
101326.2267849942
101326.174211877
101326.1084326414
101326.0374482419
101325.9629408186
101325.8715677622
101325.7760840082
101325.6800891798
101325.5920266126
101325.4990158133
101325.4154098782
101325.3310946258
101325.2504408123
101325.179420586
101325.1179229201
101325.0604166517
101325.0057761965
101324.9716759516
101324.9456008234
101324.9433417826
101324.9531481289
101324.9727601839
101325.0028088748
101325.0408749372
101325.0953353003
101325.1586783853
101325.2470028819
101325.3354698414
101325.4253481643
101325.5232528557
101325.6148373514
101325.7109093994
101325.7976191248
101325.8884750199
101325.9771790302
101326.0573285263
101326.143673041
101326.2194596641
101326.2811031873
101326.3347374224
101326.3770237625
101326.3988532665
101326.4042685326
101326.4007082666
101326.3805892033
101326.3484863575
101326.3078404466
101326.2529851659
101326.1748179067
101326.0857367312
101325.9919064532
101325.8993784575
101325.8062252615
101325.7122197109
101325.6233930221
101325.531859539
101325.4440071717
101325.3540333077
101325.2652994093
101325.1809690532
101325.0987420069
101325.0259633841
101324.9646822526
101324.9235632404
101324.8965196033
101324.8849540608
101324.8845047974
101324.8927108659
101324.9176669858
101324.9575347903
101325.0254676761
101325.1140183884
101325.2088013578
101325.3040456012
101325.3986306919
101325.494943881
101325.5888100541
101325.6843769628
101325.7772716164
101325.869614782
101325.9600137407
101326.0470022179
101326.1339986157
101326.2175556175
101326.2974069958
101326.3675208108
101326.4265024248
101326.4635230042
101326.475156175
101326.4684599419
101326.4494964314
101326.4200214282
101326.3735067177
101326.3031512596
101326.2132240775
101326.1182853741
101326.0227523163
101325.9276999624
101325.8334278565
101325.7386395547
101325.6453965158
101325.5538960535
101325.4637117283
101325.3745387849
101325.2855233235
101325.1979317728
101325.1109466999
101325.0266089212
101324.9459190636
101324.8753956025
101324.8209458449
101324.7898567962
101324.7824688126
101324.7988577869
101324.8387520767
101324.9078866482
101324.9966892081
101325.0906234466
101325.1836249038
101325.2776429504
101325.3702535225
101325.4645078227
101325.5568593398
101325.6493835861
101325.7396132502
101325.8294562278
101325.916122507
101326.0045631513
101326.091054238
101326.179089106
101326.2638182407
101326.3482542397
101326.4257623111
101326.4962030892
101326.5472567966
101326.5747870595
101326.5579237572
101326.4951969119
101326.404186645
101326.3131282171
101326.2179411997
101326.1266413865
101326.031628772
101325.9406013114
101325.84606687
101325.7555656341
101325.6613704562
101325.5726443403
101325.481897825
101325.3961949705
101325.3067928942
101325.2215937695
101325.1321307808
101325.0473800681
101324.9593831284
101324.8772766255
101324.7964469546
101324.7318317043
101324.6965131505
101324.7262353734
101324.8050237972
101324.8987535411
101324.9903090008
101325.0844604306
101325.1761497023
101325.2699713946
101325.3615607012
101325.4550210674
101325.5465690093
101325.6389356227
101325.728500752
101325.818074125
101325.9059698165
101325.994812504
101326.0826062103
101326.1711718932
101326.2589851045
101326.3470567418
101326.4330876008
101326.5164933095
101326.5879568321
101326.6290907664
101326.6066903952
101326.5290171624
101326.4367348575
101326.344539404
101326.2516844579
101326.1595574
101326.0667198164
101325.9747670282
101325.882131351
101325.7905354851
101325.6977959546
101325.6074911278
101325.5164864989
101325.4281499998
101325.3375469637
101325.2498855461
101325.1598238059
101325.0728635465
101324.9816560758
101324.8974190695
101324.8119096596
101324.7362763128
101324.6907792406
101324.707705332
101324.7841833968
101324.8755072911
101324.9676363879
101325.060078156
101325.1514715303
101325.2442490401
101325.3352218884
101325.4286351999
101325.5184564453
101325.6117787884
101325.7012403963
101325.79417939
101325.8816975836
101325.9736638892
101326.0612588593
101326.1538737275
101326.239824551
101326.3295178208
101326.4159081003
101326.5020317037
101326.5740894915
101326.6310236892
101326.6189095168
101326.5530091493
101326.4591600376
101326.3712218517
101326.2773380732
101326.1879794832
101326.0955308735
101326.005298969
101325.914392601
101325.8228409518
101325.7330312159
101325.6409758292
101325.5526029948
101325.4598797332
101325.372000739
101325.279949744
101325.1934006907
101325.1019511048
101325.0150699863
101324.9263598604
101324.8439203419
101324.7628492883
101324.710609918
101324.7052451768
101324.7713790811
101324.8580217808
101324.9513794379
101325.0408398786
101325.1334432892
101325.2230159831
101325.315213623
101325.4049204698
101325.496467983
101325.5860011724
101325.6773304825
101325.767020513
101325.8575425402
101325.9465296902
101326.0367119542
101326.1256792012
101326.2146459327
101326.3021187807
101326.3901773025
101326.4759317244
101326.5534150643
101326.616097019
101326.6245664473
101326.5709563093
101326.4805849701
101326.392493045
101326.2988112718
101326.210557622
101326.1172668966
101326.0295621464
101325.9367294708
101325.848995166
101325.7563962089
101325.6689668503
101325.5768888852
101325.4891490483
101325.3973260499
101325.3104709479
101325.2198104878
101325.1326602049
101325.042537776
101324.9577804624
101324.8716288643
101324.7905666489
101324.7277911485
101324.7046607409
101324.7540126507
101324.8375125429
101324.9303104407
101325.018887034
101325.1116279595
101325.200023336
101325.2924611456
101325.3804094528
101325.4724043506
101325.5602235022
101325.6522840534
101325.7401447504
101325.8315218942
101325.9190434227
101326.0105308313
101326.097870141
101326.1877562329
101326.2739731102
101326.3636830473
101326.4479015596
101326.5290856439
101326.5986268818
101326.6273511229
101326.5923105967
101326.5081873048
101326.4193561709
101326.3270220372
101326.2378429782
101326.1458585206
101326.0572934901
101325.9657346514
101325.8774460299
101325.7861485733
101325.6982232067
101325.6070051788
101325.5188029601
101325.4278632523
101325.3406840367
101325.2502839612
101325.1628970082
101325.0732424356
101324.9883103483
101324.9009991196
101324.8186646343
101324.7485251862
101324.7081983136
101324.7359287074
101324.8130156693
101324.9049004365
101324.9938505973
101325.0860724715
101325.1749650245
101325.266835753
101325.354999902
101325.4463074945
101325.5342511142
101325.6256307786
101325.7135395068
101325.8044572296
101325.8921941812
101325.9833097602
101326.0704088552
101326.1600724698
101326.2465068307
101326.3362595952
101326.4204799223
101326.5037655009
101326.5788257949
101326.6232071147
101326.6101826644
101326.5352442647
101326.4471303613
101326.3549080228
101326.2658562472
101326.1739197093
101326.0853766324
101325.993828662
101325.9058219699
101325.8147481638
101325.7271180174
101325.6358216652
101325.5478208327
101325.4569837454
101325.3698862059
101325.279174518
101325.1919560478
101325.1025379041
101325.0174532292
101324.9291430714
101324.8462036939
101324.7709860415
101324.7169912925
101324.7222512455
101324.7878461104
101324.8786832853
101324.9678018374
101325.06017809
101325.1493698505
101325.241408376
101325.3297192816
101325.4209789312
101325.5087928901
101325.5998522063
101325.6874838203
101325.7783966498
101325.866187438
101325.9572070302
101326.0440286049
101326.1338621566
101326.220519447
101326.3102630308
101326.3944089011
101326.4794091603
101326.5581292671
101326.6149293561
101326.6248288836
101326.5645981365
101326.4779203585
101326.3851373998
101326.2955069279
101326.2029495376
101326.1137262664
101326.0215960482
101325.9335686445
101325.8427597303
101325.7553991232
101325.6644399049
101325.5767905792
101325.486267724
101325.3991865831
101325.3084859945
101325.2216013395
101325.1324955773
101325.0471824226
101324.9583211591
101324.8751770657
101324.7963226333
101324.7317723754
101324.7147738819
101324.7626075087
101324.8507742979
101324.9403673453
101325.0333792332
101325.1232001924
101325.2158217041
101325.3046546285
101325.3962427634
101325.4838984231
101325.5745881073
101325.6618588069
101325.7525873345
101325.8402327016
101325.9308814515
101326.0175199468
101326.1074053991
101326.1941878064
101326.2835302001
101326.3677944605
101326.4540409096
101326.5349704355
101326.6007918085
101326.6313423404
101326.5912581122
101326.5090230393
101326.4157663096
101326.3256281718
101326.232340054
101326.1424454154
101326.0496085292
101325.9613013724
101325.8703403628
101325.7832125429
101325.6924630851
101325.6052868291
101325.5148950929
101325.427908423
101325.3371870688
101325.2507649261
101325.1616183426
101325.0760824695
101324.9868133294
101324.9037000809
101324.8220497962
101324.7502196734
101324.714092719
101324.7393551402
101324.8210106184
101324.9111487439
101325.0051323189
101325.0959026079
101325.1894493142
101325.2792689424
101325.3717634186
101325.4594158917
101325.5498003878
101325.6365297996
101325.7269812804
101325.8141265815
101325.9041408344
101325.9903001533
101326.0801515856
101326.1664327389
101326.2548357872
101326.3386904621
101326.4257753736
101326.5071637701
101326.5793978648
101326.6281529237
101326.6143312215
101326.5427914697
101326.449290245
101326.3581197084
101326.2637194304
101326.1726537585
101326.0784504374
101325.9882340987
101325.8956242893
101325.807159558
101325.7177507024
101325.6323469925
101325.5442901988
101325.4591587869
101325.3707304272
101325.2869225364
101325.2013975353
101325.1207878229
101325.0518367425
101325.010980527
101325.0005946785
101325.0000033737
101325.0000000015
101325.0000000008
101325.0000000007
101325.0000000008
101325.0000000008
101325.0000000008
101325.0000000007
101325.0000000007
101325.0000000007
101325.0000000007
101325.0000000007
101325.0000000007
101325.0000000007
101325.0000000007
101325.0000000007
101325.0000000007
101325.0000000008
101325.0000000008
101325.0000000008
101325.0000000008
101325.0000000008
101325.0000000008
101325.0000000008
101325.0000000008
101325.0000000008
101325.0000000008
101325.0000000008
101325.0000000008
101325.0000000008
101325.0000000008
101325.0000000008
101325.0000000008
101325.0000000008
101325.0000000008
101325.0000000008
101325.0000000008
101325.0000000008
101325.0000000008
101325.0000000008
101325.0000000008
101325.0000000008
101325.0000000008
101325.0000000008
101325.0000000008
101325.0000000008
101325.0000000008
101325.0000000008
101325.0000000008
101325.0000000008
101325.0000000008
101325.0000000008
101325.0000000008
101325.0000000008
101325.0000000008
101325.0000000008
101325.0000000008
101325.0000000008
101325.0000000008
101325.0000000008
101325.0000000008
101325.0000000007
101325.0000000007
101325.0000000008
101325.0000000008
101325.0000000008
101325.0000000008
101325.0000000008
101325.0000000008
101325.0000000008
101325.0000000008
101325.0000000008
101325.0000000008
101325.0000000008
101325.0000000008
101325.0000000008
101325.0000000008
101325.0000000008
101325.0000000008
101325.0000000008
101325.0000000008
101325.0000000008
101325.0000000008
101325.0000000009
101325.0000000009
101325.0000000009
101325.0000000009
101325.0000000009
101325.0000000009
101325.0000000009
101325.0000000009
101325.0000000009
101325.0000000009
101325.0000000009
101325.0000000009
101325.0000000009
101325.0000000009
101325.0000000009
101325.0000000009
101325.0000000009
101325.0000000009
101325.0000000009
101325.0000000009
101325.0000000009
101325.0000000009
101325.0000000009
101325.0000000008
101325.0000000008
101325.0000000008
101325.0000000008
101325.0000000008
101325.0000000008
101325.0000000008
101325.0000000008
101325.0000000008
101325.0000000009
101325.0000000008
101325.0000000009
101325.0000000009
101325.0000000009
101325.0000000009
101325.0000000009
101325.0000000009
101325.0000000009
101325.0000000009
101325.0000000009
101325.0000000009
101325.0000000009
101325.0000000009
101325.0000000009
101325.0000000009
101325.0000000009
101325.0000000009
101325.0000000009
101325.0000000009
101325.0000000009
101325.0000000009
101325.0000000009
101325.0000000009
101325.0000000009
101325.0000000009
101325.0000000009
101325.0000000009
101325.0000000009
101325.0000000009
101325.0000000009
101325.0000000008
101325.0000000009
101325.0000000009
101325.0000000009
101325.0000000009
101325.0000000009
101325.0000000009
101325.0000000009
101325.0000000009
101325.0000000009
101325.000000001
101325.000000001
101325.000000001
101325.0000000009
101325.0000000009
101325.0000000009
101325.0000000009
101325.0000000009
101325.000000001
101325.000000001
101325.000000001
101325.000000001
101325.000000001
101325.000000001
101325.000000001
101325.000000001
101325.000000001
101325.000000001
101325.000000001
101325.000000001
101325.000000001
101325.000000001
101325.000000001
101325.000000001
101325.000000001
101325.000000001
101325.000000001
101325.000000001
101325.000000001
101325.000000001
101325.000000001
101325.000000001
101325.000000001
101325.000000001
101325.000000001
101325.000000001
101325.000000001
101325.000000001
101325.000000001
101325.000000001
101325.000000001
101325.000000001
101325.000000001
101325.000000001
101325.000000001
101325.0000000011
101325.000000001
101325.000000001
101325.000000001
101325.000000001
101325.000000001
101325.000000001
101325.000000001
101325.000000001
101325.000000001
101325.000000001
101325.000000001
101325.000000001
101325.000000001
101325.000000001
101325.000000001
101325.000000001
101325.000000001
101325.000000001
101325.000000001
101325.000000001
101325.000000001
101325.000000001
101325.000000001
101325.000000001
101325.0000000011
101325.000000001
101325.000000001
101325.000000001
101325.000000001
101325.0000000011
101325.0000000011
101325.0000000011
101325.0000000011
101325.0000000011
101325.0000000011
101325.0000000011
101325.0000000011
101325.0000000011
101325.0000000011
101325.0000000011
101325.0000000011
101325.0000000011
101325.0000000011
101325.0000000011
101325.0000000011
101325.0000000011
101325.0000000011
101325.0000000011
101325.0000000011
101325.0000000011
101325.0000000011
101325.0000000011
101325.0000000011
101325.0000000011
101325.0000000011
101325.0000000011
101325.0000000011
101325.0000000011
101325.0000000011
101325.0000000011
101325.0000000011
101325.0000000011
101325.0000000011
101325.0000000011
101325.0000000011
101325.0000000011
101325.0000000011
101325.0000000011
101325.0000000011
101325.0000000012
101325.0000000012
101325.0000000012
101325.0000000012
101325.0000000012
101325.0000000012
101325.0000000012
101325.0000000012
101325.0000000012
101325.0000000012
101325.0000000013
101325.0000000013
101325.0000000013
101325.0000000013
101325.0000000013
101325.0000000013
101325.0000000013
101325.0000000013
101325.0000000013
101325.0000000013
101325.0000000013
101325.0000000013
101325.0000000013
101325.0000000013
101325.0000000013
101325.0000000013
101325.0000000013
101325.0000000013
101325.0000000013
101325.0000000012
101325.0000000012
101325.0000000012
101325.0000000012
101325.0000000012
101325.0000000012
101325.0000000013
101325.0000000012
101325.0000000012
101325.0000000012
101325.0000000012
101325.0000000012
101325.0000000013
101325.0000000012
101325.0000000013
101325.0000000013
101325.0000000012
101325.0000000013
101325.0000000012
101325.0000000012
101325.0000000012
101325.0000000013
101325.0000000012
101325.0000000013
101325.0000000012
101325.0000000013
101325.0000000013
101325.0000000013
101325.0000000012
101325.0000000013
101325.0000000013
101325.0000000013
101325.0000000013
101325.0000000013
101325.0000000013
101325.0000000013
101325.0000000013
101325.0000000013
101325.0000000013
101325.0000000013
101325.0000000014
101325.0000000013
101325.0000000013
101325.0000000013
101325.0000000013
101325.0000000013
101325.0000000013
101325.0000000013
101325.0000000013
101325.0000000013
101325.0000000013
101325.0000000013
101325.0000000013
101325.0000000013
101325.0000000013
101325.0000000014
101325.0000000014
101325.0000000013
101325.0000000014
101325.0000000014
101325.0000000013
101325.0000000014
101325.0000000013
101325.0000000014
101325.0000000013
101325.0000000014
101325.0000000014
101325.0000000014
101325.0000000014
101325.0000000014
101325.0000000014
101325.0000000014
101325.0000000014
101325.0000000014
101325.0000000014
101325.0000000013
101325.0000000014
101325.0000000014
101325.0000000013
101325.0000000014
101325.0000000014
101325.0000000014
101325.0000000014
101325.0000000013
101325.0000000014
101325.0000000014
101325.0000000014
101325.0000000014
101325.0000000014
101325.0000000014
101325.0000000014
101325.0000000014
101325.0000000014
101325.0000000014
101325.0000000014
101325.0000000014
101325.0000000015
101325.0000000015
101325.0000000015
101325.0000000015
101325.0000000015
101325.0000000015
101325.0000000015
101325.0000000015
101325.0000000015
101325.0000000015
101325.0000000015
101325.0000000015
101325.0000000015
101325.0000000015
101325.0000000015
101325.0000000015
101325.0000000015
101325.0000000015
101325.0000000015
101325.0000000014
101325.0000000015
101325.0000000015
101325.0000000015
101325.0000000015
101325.0000000015
101325.0000000015
101325.0000000015
101325.0000000015
101325.0000000015
101325.0000000015
101325.0000000015
101325.0000000015
101325.0000000015
101325.0000000015
101325.0000000015
101325.0000000015
101325.0000000015
101325.0000000016
101325.0000000016
101325.0000000015
101325.0000000015
101325.0000000015
101325.0000000015
101325.0000000015
101325.0000000015
101325.0000000015
101325.0000000015
101325.0000000015
101325.0000000015
101325.0000000015
)
;

boundaryField
{
    inlet
    {
        type            calculated;
        value           uniform 101324.9999999997;
    }
    outlet
    {
        type            calculated;
        value           uniform 101325.0000000015;
    }
    frontAndBack
    {
        type            empty;
    }
}


// ************************************************************************* //
