/*--------------------------------*- C++ -*----------------------------------*\
| =========                 |                                                 |
| \\      /  F ield         | OpenFOAM: The Open Source CFD Toolbox           |
|  \\    /   O peration     | Version:  v2012                                 |
|   \\  /    A nd           | Website:  www.openfoam.com                      |
|    \\/     M anipulation  |                                                 |
\*---------------------------------------------------------------------------*/
FoamFile
{
    version     2.0;
    format      ascii;
    class       volVectorField;
    location    "0.004";
    object      UMean;
}
// * * * * * * * * * * * * * * * * * * * * * * * * * * * * * * * * * * * * * //

dimensions      [0 1 -1 0 0 0 0];


internalField   nonuniform List<vector> 
1000
(
(-6.015951294026062e-05 0 0)
(1.483284105334926e-05 0 0)
(5.852937809726326e-05 0 0)
(0.0001575058178769974 0 0)
(0.0002634789016641008 0 0)
(0.0004038373109871765 0 0)
(0.0005391526509671168 0 0)
(0.0007301659593309774 0 0)
(0.0009179644716846703 0 0)
(0.001121771620174838 0 0)
(0.001356875150753842 0 0)
(0.001581339679746943 0 0)
(0.001807335753013399 0 0)
(0.002014057671243329 0 0)
(0.002225518271772615 0 0)
(0.002398481294115472 0 0)
(0.002595852666574085 0 0)
(0.002796563891747098 0 0)
(0.002950263850028466 0 0)
(0.003079465790548347 0 0)
(0.003177397972247854 0 0)
(0.003205734988003292 0 0)
(0.003235528906271685 0 0)
(0.003273984667384607 0 0)
(0.003268295417485144 0 0)
(0.003229651556926622 0 0)
(0.003155432449758754 0 0)
(0.003020639138649024 0 0)
(0.002843322843978952 0 0)
(0.002677763564683635 0 0)
(0.002510138838595381 0 0)
(0.002323910304925826 0 0)
(0.002121130081318679 0 0)
(0.00191179494979606 0 0)
(0.001669102328400493 0 0)
(0.001431745385860934 0 0)
(0.001197178704482206 0 0)
(0.0009797281256830508 0 0)
(0.0007753705750606067 0 0)
(0.000610299481643994 0 0)
(0.0004485197980081622 0 0)
(0.0002798789669668204 0 0)
(0.0001297549578707586 0 0)
(-7.572783497251193e-06 0 0)
(-0.0001077620231537266 0 0)
(-0.0001560476252074628 0 0)
(-0.0001452207237454738 0 0)
(-0.0001212153824179756 0 0)
(-6.862256297492934e-05 0 0)
(-2.838990897187527e-07 0 0)
(7.257101425684803e-05 0 0)
(0.0002092170528974574 0 0)
(0.0003749637006902822 0 0)
(0.0005868025733108864 0 0)
(0.0008063715416828389 0 0)
(0.001035000763387403 0 0)
(0.001268347899343849 0 0)
(0.001481056172760532 0 0)
(0.001715938097940314 0 0)
(0.001940422657565859 0 0)
(0.002156900729049636 0 0)
(0.002376677838393062 0 0)
(0.002587795624687047 0 0)
(0.002785894633868373 0 0)
(0.002951710726693776 0 0)
(0.003124627356537916 0 0)
(0.003253563287703811 0 0)
(0.003342048488860638 0 0)
(0.003415638831672551 0 0)
(0.00343633364824704 0 0)
(0.003408171911984606 0 0)
(0.003360398705279002 0 0)
(0.003289127391782741 0 0)
(0.003183739415061997 0 0)
(0.003047704101561068 0 0)
(0.002857832880536359 0 0)
(0.002643772501651632 0 0)
(0.002413162652834084 0 0)
(0.002182875863848844 0 0)
(0.001960941844683403 0 0)
(0.001734406853831934 0 0)
(0.001508087173808277 0 0)
(0.001283496448564329 0 0)
(0.001067516369601929 0 0)
(0.0008448966331546335 0 0)
(0.0006376288489824376 0 0)
(0.0004322921787061561 0 0)
(0.000224241369811107 0 0)
(5.227293818699733e-05 0 0)
(-0.0001035309794058493 0 0)
(-0.0002074355404172055 0 0)
(-0.0002685417491665116 0 0)
(-0.0002978676022235396 0 0)
(-0.0002970958555259529 0 0)
(-0.0002749273585065401 0 0)
(-0.0002176844358754646 0 0)
(-0.0001195176355945486 0 0)
(4.810824676537236e-05 0 0)
(0.0002597220913364592 0 0)
(0.0004946061764602264 0 0)
(0.0007284961589380745 0 0)
(0.0009595113737158685 0 0)
(0.001197867703607371 0 0)
(0.001425621863551218 0 0)
(0.001658529754117624 0 0)
(0.001886797822244646 0 0)
(0.002111373676470139 0 0)
(0.002334013061625332 0 0)
(0.00255104310329388 0 0)
(0.002760979814715822 0 0)
(0.002963191537312267 0 0)
(0.003157831673270742 0 0)
(0.003331135367673116 0 0)
(0.003476758839381298 0 0)
(0.003567120548357193 0 0)
(0.003597136933491045 0 0)
(0.003582254597218726 0 0)
(0.003531091298378429 0 0)
(0.003457689240815926 0 0)
(0.003347211437291758 0 0)
(0.003173202499632462 0 0)
(0.002951931877005477 0 0)
(0.002721664594279453 0 0)
(0.002488528477945422 0 0)
(0.002255802233073161 0 0)
(0.002025188401940816 0 0)
(0.001792956428556185 0 0)
(0.001565127572983652 0 0)
(0.001339385490545806 0 0)
(0.001117230223747909 0 0)
(0.0009003021090943268 0 0)
(0.0006847774933771733 0 0)
(0.0004695722419589359 0 0)
(0.0002572919696528295 0 0)
(4.897996181967579e-05 0 0)
(-0.0001474542330874415 0 0)
(-0.0003215617855763553 0 0)
(-0.0004546691906268027 0 0)
(-0.0005300291084741972 0 0)
(-0.00054564803606449 0 0)
(-0.0005090711747656301 0 0)
(-0.000410899005289076 0 0)
(-0.0002412865253999587 0 0)
(-2.279171850063521e-05 0 0)
(0.0002046551603463323 0 0)
(0.0004348458961443031 0 0)
(0.0006625832576608786 0 0)
(0.0008924124290896422 0 0)
(0.001119450181590316 0 0)
(0.001349336623953097 0 0)
(0.001572136831376118 0 0)
(0.00179682148729991 0 0)
(0.002011995402040074 0 0)
(0.002229851666169179 0 0)
(0.002441900802177967 0 0)
(0.002656908403099169 0 0)
(0.00286639296298349 0 0)
(0.003080545507022555 0 0)
(0.003282477928769793 0 0)
(0.003478376068632832 0 0)
(0.003643093025490631 0 0)
(0.003775179110462118 0 0)
(0.003835144939263133 0 0)
(0.003801552580311818 0 0)
(0.0036401920886062 0 0)
(0.003426057225845734 0 0)
(0.003193878475524074 0 0)
(0.002969725867554826 0 0)
(0.002738098530886757 0 0)
(0.002514560472855506 0 0)
(0.002282666129818611 0 0)
(0.002059588115900243 0 0)
(0.001829037909072985 0 0)
(0.001608583396085159 0 0)
(0.001381560597948132 0 0)
(0.00116946044441027 0 0)
(0.0009496547514033458 0 0)
(0.0007406430147741221 0 0)
(0.0005219992775351446 0 0)
(0.0003131523662496973 0 0)
(9.572657696638267e-05 0 0)
(-0.0001094894159642747 0 0)
(-0.000319910842888564 0 0)
(-0.0005090182820726628 0 0)
(-0.0006755506186756662 0 0)
(-0.0007539509025450762 0 0)
(-0.0006888823026262006 0 0)
(-0.0004887965952883585 0 0)
(-0.0002660014596157551 0 0)
(-3.55098201890079e-05 0 0)
(0.0001889825967838185 0 0)
(0.0004188993429609849 0 0)
(0.0006433171978220749 0 0)
(0.0008729944690711146 0 0)
(0.001097101844887808 0 0)
(0.001324825748639651 0 0)
(0.001547483767257007 0 0)
(0.001770407448766585 0 0)
(0.001986602380004432 0 0)
(0.002204479650109671 0 0)
(0.002419269663875059 0 0)
(0.002636400714224886 0 0)
(0.002851726057759212 0 0)
(0.003068169691225387 0 0)
(0.003281973261798215 0 0)
(0.003494867090991204 0 0)
(0.003696604042634102 0 0)
(0.003873807386469488 0 0)
(0.003972544269635977 0 0)
(0.003919410500783533 0 0)
(0.003727713224003743 0 0)
(0.003503616134388185 0 0)
(0.003276324146543594 0 0)
(0.003050552553589089 0 0)
(0.002823289357826581 0 0)
(0.002598327491630659 0 0)
(0.002371303505534546 0 0)
(0.002146274028571633 0 0)
(0.001919558713059566 0 0)
(0.001696725361731543 0 0)
(0.00147117354469063 0 0)
(0.001252570292759349 0 0)
(0.001031277807784881 0 0)
(0.0008167541973800211 0 0)
(0.0005955091274530748 0 0)
(0.0003804617289962185 0 0)
(0.0001585258212090963 0 0)
(-5.001612353094594e-05 0 0)
(-0.0002690324670308503 0 0)
(-0.0004731332748009485 0 0)
(-0.0006576700031142907 0 0)
(-0.0007715366029436437 0 0)
(-0.000727653128665695 0 0)
(-0.0005417263379374196 0 0)
(-0.0003177018242336488 0 0)
(-9.216510894168942e-05 0 0)
(0.000132662669251229 0 0)
(0.0003597130539602156 0 0)
(0.0005830824428738841 0 0)
(0.0008104171143416636 0 0)
(0.001031754151185793 0 0)
(0.001261146966003301 0 0)
(0.001481004477047086 0 0)
(0.00170821892958774 0 0)
(0.001924626284077605 0 0)
(0.002151773504157103 0 0)
(0.002366508726714447 0 0)
(0.002591017065826537 0 0)
(0.002802791785375978 0 0)
(0.003028292347198357 0 0)
(0.003242174564786625 0 0)
(0.003455436236633614 0 0)
(0.003655164777465069 0 0)
(0.003853526783411553 0 0)
(0.003967244168179735 0 0)
(0.00396176392139858 0 0)
(0.00377935287024352 0 0)
(0.00356839139681574 0 0)
(0.003336920602267017 0 0)
(0.003119784421413026 0 0)
(0.002892114436735558 0 0)
(0.00267243312905137 0 0)
(0.00244782902533365 0 0)
(0.002225125551189299 0 0)
(0.002004504959196297 0 0)
(0.001779903101376781 0 0)
(0.001561615527865002 0 0)
(0.001334739109972855 0 0)
(0.001119848885252724 0 0)
(0.0008939937549035408 0 0)
(0.0006802443236992393 0 0)
(0.0004544415193594204 0 0)
(0.000243144419332918 0 0)
(2.281151720771667e-05 0 0)
(-0.0001872836416157482 0 0)
(-0.0004007047859231526 0 0)
(-0.0005830006509406001 0 0)
(-0.0007279276048897465 0 0)
(-0.0007256007656791784 0 0)
(-0.0005769809821091305 0 0)
(-0.0003529496703876285 0 0)
(-0.0001350497520268887 0 0)
(9.272718480422243e-05 0 0)
(0.0003121818242550829 0 0)
(0.0005384621770997094 0 0)
(0.0007576400760954476 0 0)
(0.0009824465827598769 0 0)
(0.00120211334118256 0 0)
(0.001426300457205834 0 0)
(0.00164528560567986 0 0)
(0.001867699254484516 0 0)
(0.002086813720257138 0 0)
(0.002308729525754452 0 0)
(0.002525915406549741 0 0)
(0.00274471904305951 0 0)
(0.002961307104817019 0 0)
(0.003179693170204769 0 0)
(0.003391746617492156 0 0)
(0.003599232042052724 0 0)
(0.003797746460392973 0 0)
(0.003938896296469051 0 0)
(0.003972885058063896 0 0)
(0.003828574812680611 0 0)
(0.003620638189801779 0 0)
(0.003391425055795077 0 0)
(0.00317549589047788 0 0)
(0.002946800777308606 0 0)
(0.002731408451126761 0 0)
(0.002503517011204242 0 0)
(0.002288912933433791 0 0)
(0.002062356165962603 0 0)
(0.001848055890242777 0 0)
(0.001621655415447129 0 0)
(0.001407041228819349 0 0)
(0.001182723244555965 0 0)
(0.0009691811072279296 0 0)
(0.0007449824765393867 0 0)
(0.0005313702055647976 0 0)
(0.0003115114464917649 0 0)
(0.0001010737960509506 0 0)
(-0.0001177634090200626 0 0)
(-0.0003235823703111474 0 0)
(-0.0005183113910542979 0 0)
(-0.0006807001530906067 0 0)
(-0.0007270272567040041 0 0)
(-0.0006164458069782655 0 0)
(-0.0004017487517973602 0 0)
(-0.0001852704109276569 0 0)
(4.222531659211495e-05 0 0)
(0.0002591576618268736 0 0)
(0.0004858311981774771 0 0)
(0.0007013906084843828 0 0)
(0.0009271454719785724 0 0)
(0.001142526003401264 0 0)
(0.001367850026391599 0 0)
(0.001582460237093168 0 0)
(0.001807077761086539 0 0)
(0.002022415194800919 0 0)
(0.002246506247744645 0 0)
(0.002459656555660023 0 0)
(0.002681667899498449 0 0)
(0.002895393778403134 0 0)
(0.003115933763507404 0 0)
(0.00332400921589242 0 0)
(0.003536853418924928 0 0)
(0.003736861261567551 0 0)
(0.003900768804382971 0 0)
(0.003979045874627301 0 0)
(0.003885447750066992 0 0)
(0.003687211561912199 0 0)
(0.00346187229550952 0 0)
(0.003243806244007836 0 0)
(0.003018249217428865 0 0)
(0.002800450124867809 0 0)
(0.002575774473711652 0 0)
(0.002359640420722487 0 0)
(0.002136192685184002 0 0)
(0.001920528661367632 0 0)
(0.00169681510583662 0 0)
(0.001481304981024378 0 0)
(0.001258987187028286 0 0)
(0.001044187552746304 0 0)
(0.0008212694501406405 0 0)
(0.0006077185884527473 0 0)
(0.0003885611024200504 0 0)
(0.000177280916196371 0 0)
(-4.218658617122651e-05 0 0)
(-0.0002479061660608916 0 0)
(-0.0004490611426928146 0 0)
(-0.0006270308467336336 0 0)
(-0.0007173518134578892 0 0)
(-0.0006578220745120326 0 0)
(-0.0004610284798146748 0 0)
(-0.0002443897408393135 0 0)
(-1.8270295631479e-05 0 0)
(0.0001997026880776473 0 0)
(0.0004250479651423601 0 0)
(0.0006416669503691995 0 0)
(0.0008659458791815767 0 0)
(0.001081603340602572 0 0)
(0.001304986958202533 0 0)
(0.001519848904488758 0 0)
(0.001743342654695831 0 0)
(0.001959035284361965 0 0)
(0.002181612340690809 0 0)
(0.002394958605158418 0 0)
(0.002616586163123894 0 0)
(0.002830352236102821 0 0)
(0.003049670352477944 0 0)
(0.00325808709067181 0 0)
(0.003473078900150073 0 0)
(0.003675865965171138 0 0)
(0.003854476538806427 0 0)
(0.003970823351681908 0 0)
(0.003931038730672887 0 0)
(0.003755204163474943 0 0)
(0.003531772585276431 0 0)
(0.003314082571134859 0 0)
(0.003088633866216386 0 0)
(0.002870923202362124 0 0)
(0.002646308226885953 0 0)
(0.00243061126428551 0 0)
(0.002207400445625337 0 0)
(0.001992365751158101 0 0)
(0.001769067834167952 0 0)
(0.001554381105363048 0 0)
(0.001331798087764569 0 0)
(0.001117071121726466 0 0)
(0.0008939976260546736 0 0)
(0.0006814254163283345 0 0)
(0.0004617473016534134 0 0)
(0.0002500576284516545 0 0)
(3.025380860794291e-05 0 0)
(-0.0001752041258924839 0 0)
(-0.0003811149778130332 0 0)
(-0.0005696627422836729 0 0)
(-0.0006940360740915745 0 0)
(-0.0006893447236359949 0 0)
(-0.0005209933167510222 0 0)
(-0.0003065065804521363 0 0)
(-8.017210914758584e-05 0 0)
(0.0001383155705032423 0 0)
(0.0003640023697536476 0 0)
(0.0005814057061442654 0 0)
(0.000806094337843864 0 0)
(0.001021543181668792 0 0)
(0.001244222731933717 0 0)
(0.001458610321453661 0 0)
(0.001681870151768768 0 0)
(0.001897157773936603 0 0)
(0.002119276466305703 0 0)
(0.002332715739881637 0 0)
(0.002554843645717564 0 0)
(0.00276822955915134 0 0)
(0.002986932415525992 0 0)
(0.003195866397298121 0 0)
(0.003412979505125309 0 0)
(0.003616797949189397 0 0)
(0.003806070964341634 0 0)
(0.003952537329872646 0 0)
(0.003968639953187492 0 0)
(0.003828897995995759 0 0)
(0.003609043552225442 0 0)
(0.00339007275367938 0 0)
(0.003163047155766278 0 0)
(0.002943728042903981 0 0)
(0.002717604372790206 0 0)
(0.002500746899290091 0 0)
(0.002277035532369799 0 0)
(0.002062516545031901 0 0)
(0.001840356916999586 0 0)
(0.001626616748843279 0 0)
(0.001404505138292793 0 0)
(0.001190008638245458 0 0)
(0.0009677707872348905 0 0)
(0.0007558750502698481 0 0)
(0.0005360757410619968 0 0)
(0.000324085374672427 0 0)
(0.0001051118999010473 0 0)
(-0.0001003775373929394 0 0)
(-0.0003097964825330096 0 0)
(-0.0005052277765404833 0 0)
(-0.0006559534031811599 0 0)
(-0.0007059083379035061 0 0)
(-0.0005808979387260272 0 0)
(-0.0003728966185083772 0 0)
(-0.0001453291512413648 0 0)
(7.450033911131189e-05 0 0)
(0.0003017097299163432 0 0)
(0.0005207580549496874 0 0)
(0.0007468527812055265 0 0)
(0.0009626156292908757 0 0)
(0.001184991667984678 0 0)
(0.001398848978977482 0 0)
(0.001621306455410821 0 0)
(0.001835660029394578 0 0)
(0.002057086399051266 0 0)
(0.002270500304650377 0 0)
(0.002492499310878225 0 0)
(0.00270508879810598 0 0)
(0.002923260606106662 0 0)
(0.003132847484857566 0 0)
(0.003350918003559469 0 0)
(0.003555127968477615 0 0)
(0.003751844931392954 0 0)
(0.003919855054910768 0 0)
(0.003986205117266024 0 0)
(0.003896178469336804 0 0)
(0.003687013552958035 0 0)
(0.003467143745459183 0 0)
(0.003238369681575038 0 0)
(0.003017615375857922 0 0)
(0.002789804075744172 0 0)
(0.002571494724894323 0 0)
(0.002346294613117206 0 0)
(0.00213204856193079 0 0)
(0.001910338832380243 0 0)
(0.001697544722415151 0 0)
(0.001475576678703352 0 0)
(0.001261750659831391 0 0)
(0.001040244769922042 0 0)
(0.0008288364639272558 0 0)
(0.0006084986590008102 0 0)
(0.0003965569388082297 0 0)
(0.0001783677686082135 0 0)
(-2.743491838168953e-05 0 0)
(-0.000240124028329179 0 0)
(-0.000439276162058205 0 0)
(-0.0006091403724405933 0 0)
(-0.0007058545178227486 0 0)
(-0.0006358872917027317 0 0)
(-0.0004437258795441849 0 0)
(-0.0002148857960612433 0 0)
(7.030444850351995e-06 0 0)
(0.0002366774054593197 0 0)
(0.0004583476651487459 0 0)
(0.0006867552906677186 0 0)
(0.0009040221007387618 0 0)
(0.001127117977125999 0 0)
(0.001340193509251362 0 0)
(0.001561629581703067 0 0)
(0.001774209909490221 0 0)
(0.001994765613072871 0 0)
(0.002207443833392633 0 0)
(0.002428727688880241 0 0)
(0.002639013693001427 0 0)
(0.002856396874055861 0 0)
(0.003065570124015845 0 0)
(0.003283058517782433 0 0)
(0.003485237098461351 0 0)
(0.003686860746872659 0 0)
(0.003869404748845783 0 0)
(0.00398000578917839 0 0)
(0.003954538287995349 0 0)
(0.00377159619822317 0 0)
(0.003551307845942248 0 0)
(0.003319650921217618 0 0)
(0.003096146354101483 0 0)
(0.002865679403780468 0 0)
(0.002643967496707388 0 0)
(0.002414519777525183 0 0)
(0.002194723020338931 0 0)
(0.001972085795144978 0 0)
(0.001760698842674056 0 0)
(0.001544027213246159 0 0)
(0.001334931954680238 0 0)
(0.001119299393323257 0 0)
(0.0009128163522819791 0 0)
(0.0006984877357090562 0 0)
(0.0004941398910088179 0 0)
(0.0002954255522479105 0 0)
(0.0001268834473670112 0 0)
(2.687680782959677e-05 0 0)
(1.455619826900994e-06 0 0)
(8.255863193786157e-09 0 0)
(1.584214097186573e-12 0 0)
(-1.461321307963973e-13 0 0)
(-1.668424667936381e-13 0 0)
(-1.563231791512647e-13 0 0)
(-1.72822674003114e-13 0 0)
(-1.656264183856575e-13 0 0)
(-1.666799101941064e-13 0 0)
(-1.383512966383808e-13 0 0)
(-1.971811552242806e-13 0 0)
(-1.526187643351649e-13 0 0)
(-1.373603265989438e-13 0 0)
(-1.366163175472453e-13 0 0)
(-1.186725698304166e-13 0 0)
(-1.226145673689041e-13 0 0)
(-1.276288132465926e-13 0 0)
(-1.505524198681215e-13 0 0)
(-1.288855008044472e-13 0 0)
(-2.024642447088564e-13 0 0)
(-1.822353263333114e-13 0 0)
(-2.117831143854774e-13 0 0)
(-2.238716984309797e-13 0 0)
(-2.1897937000295e-13 0 0)
(-2.408995022312829e-13 0 0)
(-2.054183982964115e-13 0 0)
(-2.457699480401093e-13 0 0)
(-2.371513221768439e-13 0 0)
(-2.368574698623247e-13 0 0)
(-2.354100909088373e-13 0 0)
(-2.487334798930339e-13 0 0)
(-2.684778545584764e-13 0 0)
(-2.79925590471201e-13 0 0)
(-2.93680379661822e-13 0 0)
(-2.512249723895889e-13 0 0)
(-2.723104390011217e-13 0 0)
(-2.140026371867275e-13 0 0)
(-2.138369544987298e-13 0 0)
(-2.027174578735073e-13 0 0)
(-1.990161691458704e-13 0 0)
(-1.970279768901441e-13 0 0)
(-1.744451139099341e-13 0 0)
(-1.644885221889915e-13 0 0)
(-1.330306940923888e-13 0 0)
(-1.944301973862e-13 0 0)
(-1.59980702640611e-13 0 0)
(-1.584145323259698e-13 0 0)
(-1.144523504196985e-13 0 0)
(-1.092880522963146e-13 0 0)
(-1.18994556941058e-13 0 0)
(-7.758326321194795e-14 0 0)
(-1.443908995284507e-13 0 0)
(-1.150775681101842e-13 0 0)
(-1.332276376648808e-13 0 0)
(-1.202700010296658e-13 0 0)
(-1.323460807213245e-13 0 0)
(-1.286572963474926e-13 0 0)
(-9.993166955827246e-14 0 0)
(-1.03692353966513e-13 0 0)
(-6.176525564278246e-14 0 0)
(-1.141772546359075e-13 0 0)
(-6.522896164804509e-14 0 0)
(-7.215324757013854e-14 0 0)
(-9.540196739071876e-14 0 0)
(-1.110167792105167e-13 0 0)
(-1.117983013236115e-13 0 0)
(-1.301453144507921e-13 0 0)
(-1.641571568130479e-13 0 0)
(-9.362009697282427e-14 0 0)
(-1.999977609199396e-13 0 0)
(-1.246684074821923e-13 0 0)
(-1.3535337781254e-13 0 0)
(-1.457913871551475e-13 0 0)
(-1.582457235495505e-13 0 0)
(-1.551665264239135e-13 0 0)
(-1.573078970138235e-13 0 0)
(-1.687024894228834e-13 0 0)
(-1.673113800615364e-13 0 0)
(-1.75842475448181e-13 0 0)
(-1.722005824011332e-13 0 0)
(-1.524405772934218e-13 0 0)
(-1.374759918717345e-13 0 0)
(-1.218049104597788e-13 0 0)
(-1.296576446522465e-13 0 0)
(-1.002130175189765e-13 0 0)
(-1.54297473834144e-13 0 0)
(-1.337934596747746e-13 0 0)
(-1.541849346498542e-13 0 0)
(-1.513214376274344e-13 0 0)
(-1.6455417004651e-13 0 0)
(-1.648323919187613e-13 0 0)
(-1.481828448212251e-13 0 0)
(-1.539160910429491e-13 0 0)
(-1.045989196176978e-13 0 0)
(-1.965746940645756e-13 0 0)
(-1.132363020117233e-13 0 0)
(-1.137927457562564e-13 0 0)
(-1.047302153327206e-13 0 0)
(-1.386920402796952e-13 0 0)
(-1.405801977049769e-13 0 0)
(-1.386732837490009e-13 0 0)
(-1.635444434763752e-13 0 0)
(-1.595743111418154e-13 0 0)
(-1.465353962068066e-13 0 0)
(-1.331744941612154e-13 0 0)
(-1.280320786569992e-13 0 0)
(-1.541536737653491e-13 0 0)
(-1.575017144978988e-13 0 0)
(-1.558855267679989e-13 0 0)
(-1.472637748162247e-13 0 0)
(-2.078848820854084e-13 0 0)
(-1.720223953593273e-13 0 0)
(-1.708626165435063e-13 0 0)
(-1.540411345810648e-13 0 0)
(-1.698247551772854e-13 0 0)
(-1.888344990564163e-13 0 0)
(-1.864743022748383e-13 0 0)
(-1.838483879747866e-13 0 0)
(-1.132456802770853e-13 0 0)
(-2.291860488001447e-13 0 0)
(-1.656483010048663e-13 0 0)
(-2.09760535156854e-13 0 0)
(-2.173850648922705e-13 0 0)
(-2.369700090466364e-13 0 0)
(-2.581242496041254e-13 0 0)
(-2.742267312224614e-13 0 0)
(-2.725136347505504e-13 0 0)
(-2.571364056531329e-13 0 0)
(-2.592683979776674e-13 0 0)
(-2.613503728869919e-13 0 0)
(-2.507091677949553e-13 0 0)
(-2.284701745445271e-13 0 0)
(-2.325372156211045e-13 0 0)
(-2.476799880845798e-13 0 0)
(-2.651704529758626e-13 0 0)
(-2.801662992820322e-13 0 0)
(-2.783813027757076e-13 0 0)
(-2.973066422666203e-13 0 0)
(-3.086355868181336e-13 0 0)
(-3.180576174137368e-13 0 0)
(-2.948214019469447e-13 0 0)
(-2.808571648300235e-13 0 0)
(-2.888912121527108e-13 0 0)
(-3.008391222178156e-13 0 0)
(-3.077196429016066e-13 0 0)
(-2.619161948968562e-13 0 0)
(-3.182576870746548e-13 0 0)
(-2.946338366398075e-13 0 0)
(-3.020395401835678e-13 0 0)
(-2.87546994118187e-13 0 0)
(-2.739703919693578e-13 0 0)
(-2.81979430584407e-13 0 0)
(-2.997793782324881e-13 0 0)
(-3.388336012684378e-13 0 0)
(-3.048061284639263e-13 0 0)
(-4.137190501459726e-13 0 0)
(-3.286237963828785e-13 0 0)
(-3.140405937523726e-13 0 0)
(-2.782249983530908e-13 0 0)
(-2.78471959340818e-13 0 0)
(-2.899228213420139e-13 0 0)
(-3.122712276883196e-13 0 0)
(-3.501562936430565e-13 0 0)
(-3.581246931082828e-13 0 0)
(-3.43397690408977e-13 0 0)
(-3.175605693497975e-13 0 0)
(-2.975223423698385e-13 0 0)
(-2.939429710918047e-13 0 0)
(-3.088106477715069e-13 0 0)
(-3.482712623062682e-13 0 0)
(-3.244192074143503e-13 0 0)
(-3.469489268909001e-13 0 0)
(-3.088419086560189e-13 0 0)
(-3.171666822047884e-13 0 0)
(-3.149627898458312e-13 0 0)
(-3.010704527633028e-13 0 0)
(-3.040277324392924e-13 0 0)
(-3.495123194218994e-13 0 0)
(-3.968319203259935e-13 0 0)
(-3.340975772630462e-13 0 0)
(-4.429167162914819e-13 0 0)
(-3.794383641768103e-13 0 0)
(-4.096144960079534e-13 0 0)
(-4.260702256213982e-13 0 0)
(-4.335134422266435e-13 0 0)
(-4.576749798753053e-13 0 0)
(-4.755749623538151e-13 0 0)
(-4.756406102113462e-13 0 0)
(-4.838059532490446e-13 0 0)
(-4.932436142869036e-13 0 0)
(-5.150449551540173e-13 0 0)
(-5.252641383049172e-13 0 0)
(-5.090866305637068e-13 0 0)
(-4.944596626949129e-13 0 0)
(-5.25526729734894e-13 0 0)
(-5.034534191724709e-13 0 0)
(-5.74650083676152e-13 0 0)
(-5.483315449952958e-13 0 0)
(-5.685510851054884e-13 0 0)
(-5.823090003844681e-13 0 0)
(-6.107532792130417e-13 0 0)
(-6.156612380832928e-13 0 0)
(-5.845879188663073e-13 0 0)
(-6.142795069873667e-13 0 0)
(-5.524267208679554e-13 0 0)
(-6.319512850088394e-13 0 0)
(-5.290435792439085e-13 0 0)
(-5.558873007847408e-13 0 0)
(-5.821058046350996e-13 0 0)
(-5.728307001968677e-13 0 0)
(-5.620519472128393e-13 0 0)
(-5.533207821653268e-13 0 0)
(-5.546243610499741e-13 0 0)
(-5.648810572623348e-13 0 0)
(-5.847098363160088e-13 0 0)
(-5.91706022272415e-13 0 0)
(-5.89427103790742e-13 0 0)
(-6.052419852713939e-13 0 0)
(-6.019814750155642e-13 0 0)
(-6.207942753221875e-13 0 0)
(-6.052107243869005e-13 0 0)
(-6.993216172467893e-13 0 0)
(-6.705522252192211e-13 0 0)
(-6.966019202931376e-13 0 0)
(-7.187096178285786e-13 0 0)
(-6.916595744499571e-13 0 0)
(-6.698332248750786e-13 0 0)
(-6.799273644879968e-13 0 0)
(-7.103973486336749e-13 0 0)
(-6.75550840654658e-13 0 0)
(-8.006350179009774e-13 0 0)
(-7.245085119077618e-13 0 0)
(-7.4683816172351e-13 0 0)
(-7.420021028875272e-13 0 0)
(-7.227235154015363e-13 0 0)
(-7.112820316657166e-13 0 0)
(-7.266342520555294e-13 0 0)
(-7.689271027281636e-13 0 0)
(-7.187721395976937e-13 0 0)
(-8.469167574389474e-13 0 0)
(-7.795307947587079e-13 0 0)
(-7.826475049458939e-13 0 0)
(-7.628531128650652e-13 0 0)
(-7.617621079952583e-13 0 0)
(-7.550191352034077e-13 0 0)
(-7.179968696614691e-13 0 0)
(-8.048458590463873e-13 0 0)
(-7.052955722793505e-13 0 0)
(-8.00069195891117e-13 0 0)
(-7.419739680913824e-13 0 0)
(-7.663637101972267e-13 0 0)
(-7.595175764864318e-13 0 0)
(-7.569323013362626e-13 0 0)
(-7.894092342683855e-13 0 0)
(-7.161524774745704e-13 0 0)
(-8.146180115486355e-13 0 0)
(-7.546408785005076e-13 0 0)
(-8.011101833457688e-13 0 0)
(-7.884682816442218e-13 0 0)
(-7.959740200186079e-13 0 0)
(-8.109573619708323e-13 0 0)
(-8.211390320604007e-13 0 0)
(-8.371664875557269e-13 0 0)
(-8.434593036105813e-13 0 0)
(-8.5018664596019e-13 0 0)
(-7.948798890601293e-13 0 0)
(-9.08707021789309e-13 0 0)
(-8.521373251544436e-13 0 0)
(-8.82335339604772e-13 0 0)
(-8.826010571230593e-13 0 0)
(-8.801283211573725e-13 0 0)
(-8.869775809566106e-13 0 0)
(-9.026424101916674e-13 0 0)
(-9.403086499547204e-13 0 0)
(-8.866743503766858e-13 0 0)
(-1.004802980816461e-12 0 0)
(-9.49446206501162e-13 0 0)
(-9.576771973963495e-13 0 0)
(-9.733826657810995e-13 0 0)
(-1.003846397750035e-12 0 0)
(-1.040531045739034e-12 0 0)
(-1.009329556895562e-12 0 0)
(-1.060644298841889e-12 0 0)
(-1.021233701722345e-12 0 0)
(-1.0067849208953e-12 0 0)
(-9.994136043243061e-13 0 0)
(-1.014543872434227e-12 0 0)
(-1.024788064292715e-12 0 0)
(-1.018654678749096e-12 0 0)
(-1.028545622612511e-12 0 0)
(-9.571551406247765e-13 0 0)
(-1.057824567057801e-12 0 0)
(-9.959123852577449e-13 0 0)
(-1.026238569334666e-12 0 0)
(-1.03853034912929e-12 0 0)
(-1.049302849936536e-12 0 0)
(-1.043266373134903e-12 0 0)
(-1.040556054446719e-12 0 0)
(-1.063192060930565e-12 0 0)
(-1.008688708762731e-12 0 0)
(-1.122137584789244e-12 0 0)
(-1.05707743191748e-12 0 0)
(-1.062670004159008e-12 0 0)
(-1.040799889345936e-12 0 0)
(-1.023731446395767e-12 0 0)
(-1.028170491998179e-12 0 0)
(-9.938991842943823e-13 0 0)
(-1.051147242123408e-12 0 0)
(-1.043019412147158e-12 0 0)
(-1.063389004503047e-12 0 0)
(-1.067399775987273e-12 0 0)
(-1.101993070801942e-12 0 0)
(-1.113015658685052e-12 0 0)
(-1.128199070298456e-12 0 0)
(-1.177450593866169e-12 0 0)
(-1.146377274649175e-12 0 0)
(-1.268316606912462e-12 0 0)
(-1.223819863880643e-12 0 0)
(-1.262770925997866e-12 0 0)
(-1.267472563030301e-12 0 0)
(-1.271598999787505e-12 0 0)
(-1.290861956831232e-12 0 0)
(-1.286626106978171e-12 0 0)
(-1.318984248549179e-12 0 0)
(-1.278201298598927e-12 0 0)
(-1.407027403722856e-12 0 0)
(-1.351351768385167e-12 0 0)
(-1.359282654789171e-12 0 0)
(-1.350045063412255e-12 0 0)
(-1.367438619561449e-12 0 0)
(-1.393103805755736e-12 0 0)
(-1.363677935153237e-12 0 0)
(-1.407837060631999e-12 0 0)
(-1.369701907600779e-12 0 0)
(-1.365287870706195e-12 0 0)
(-1.339713341076991e-12 0 0)
(-1.309849818091123e-12 0 0)
(-1.332179467906719e-12 0 0)
(-1.356562957835493e-12 0 0)
(-1.383125331415637e-12 0 0)
(-1.340701185027941e-12 0 0)
(-1.459151802578329e-12 0 0)
(-1.417540439188021e-12 0 0)
(-1.466807593198295e-12 0 0)
(-1.464844409650198e-12 0 0)
(-1.474485266437383e-12 0 0)
(-1.521454745434851e-12 0 0)
(-1.520338731857403e-12 0 0)
(-1.543515551643585e-12 0 0)
(-1.497233812105454e-12 0 0)
(-1.582310309338015e-12 0 0)
(-1.499947256882331e-12 0 0)
(-1.494132732360837e-12 0 0)
(-1.477439420024808e-12 0 0)
(-1.466629406156513e-12 0 0)
(-1.468945837699752e-12 0 0)
(-1.445003126242732e-12 0 0)
(-1.551218233590078e-12 0 0)
(-1.565035544549996e-12 0 0)
(-1.60729088216117e-12 0 0)
(-1.63652918745666e-12 0 0)
(-1.692201696705402e-12 0 0)
(-1.707288199577001e-12 0 0)
(-1.716228812550897e-12 0 0)
(-1.78183603090156e-12 0 0)
(-1.721118014890332e-12 0 0)
(-1.848862493409714e-12 0 0)
(-1.794552958726049e-12 0 0)
(-1.796713085846668e-12 0 0)
(-1.779222620955236e-12 0 0)
(-1.769769329475309e-12 0 0)
(-1.757221210427321e-12 0 0)
(-1.739086771314885e-12 0 0)
(-1.737448700965834e-12 0 0)
(-1.674073509769926e-12 0 0)
(-1.770666516861169e-12 0 0)
(-1.726491760940137e-12 0 0)
(-1.786412624395863e-12 0 0)
(-1.796400477001288e-12 0 0)
(-1.817373404428548e-12 0 0)
(-1.861904534433251e-12 0 0)
(-1.782870766179378e-12 0 0)
(-1.885353323914591e-12 0 0)
(-1.803140323704819e-12 0 0)
(-1.818220574399262e-12 0 0)
(-1.731609167736755e-12 0 0)
(-1.833944799314718e-12 0 0)
(-1.762157304093721e-12 0 0)
(-1.758209054378338e-12 0 0)
(-1.771785656527136e-12 0 0)
(-1.784624501801016e-12 0 0)
(-1.805472385690231e-12 0 0)
(-1.766477558334931e-12 0 0)
(-1.912097010625063e-12 0 0)
(-1.86050717289484e-12 0 0)
(-1.888754508151026e-12 0 0)
(-1.879276207963314e-12 0 0)
(-1.867034445583662e-12 0 0)
(-1.866418606158542e-12 0 0)
(-1.854667639665797e-12 0 0)
(-1.897779525513041e-12 0 0)
(-1.864786787986375e-12 0 0)
(-1.999092926167239e-12 0 0)
(-1.938943858254298e-12 0 0)
(-1.965449962242481e-12 0 0)
(-2.010581301229863e-12 0 0)
(-2.031379167703869e-12 0 0)
(-2.004294737351961e-12 0 0)
(-1.984212745133889e-12 0 0)
(-1.971789669623998e-12 0 0)
(-1.897595086294475e-12 0 0)
(-1.99243435776352e-12 0 0)
(-1.922913276670541e-12 0 0)
(-1.917999065623343e-12 0 0)
(-1.887347768347452e-12 0 0)
(-1.873799300994572e-12 0 0)
(-1.916357869185729e-12 0 0)
(-1.860735377352089e-12 0 0)
(-1.932469729069567e-12 0 0)
(-1.861716969126006e-12 0 0)
(-1.906479429676114e-12 0 0)
(-1.916886178134301e-12 0 0)
(-1.899383208889247e-12 0 0)
(-1.885053219423378e-12 0 0)
(-1.868191098310884e-12 0 0)
(-1.86980103386406e-12 0 0)
(-1.80667905583296e-12 0 0)
(-1.953511430442634e-12 0 0)
(-1.890974030952058e-12 0 0)
(-1.928521479354154e-12 0 0)
(-1.940338093704279e-12 0 0)
(-1.934470425678993e-12 0 0)
(-1.982443379069502e-12 0 0)
(-2.018918579132543e-12 0 0)
(-2.044833852403047e-12 0 0)
(-1.939003253935089e-12 0 0)
(-2.030166245384182e-12 0 0)
(-1.991834148780759e-12 0 0)
(-2.00920269622247e-12 0 0)
(-2.010503149018667e-12 0 0)
(-2.033332972986432e-12 0 0)
(-2.059529594217738e-12 0 0)
(-2.004707381027905e-12 0 0)
(-2.119650527334522e-12 0 0)
(-2.088108294849679e-12 0 0)
(-2.095295172201889e-12 0 0)
(-2.099612300354553e-12 0 0)
)
;

boundaryField
{
    inlet
    {
        type            calculated;
        value           uniform (-6.015951294026062e-05 0 0);
    }
    outlet
    {
        type            calculated;
        value           uniform (-2.099612300354553e-12 0 0);
    }
    frontAndBack
    {
        type            empty;
    }
}


// ************************************************************************* //
