/*--------------------------------*- C++ -*----------------------------------*\
| =========                 |                                                 |
| \\      /  F ield         | OpenFOAM: The Open Source CFD Toolbox           |
|  \\    /   O peration     | Version:  v2012                                 |
|   \\  /    A nd           | Website:  www.openfoam.com                      |
|    \\/     M anipulation  |                                                 |
\*---------------------------------------------------------------------------*/
FoamFile
{
    version     2.0;
    format      ascii;
    class       volVectorField;
    location    "0.007";
    object      U;
}
// * * * * * * * * * * * * * * * * * * * * * * * * * * * * * * * * * * * * * //

dimensions      [0 1 -1 0 0 0 0];


internalField   nonuniform List<vector> 
1000
(
(-0.02055352528015246 0 0)
(-0.04879347513906229 0 0)
(-0.04797237256665376 0 0)
(-0.07478313265951185 0 0)
(-0.08197709029439529 0 0)
(-0.09391146322463656 0 0)
(-0.1050981588118427 0 0)
(-0.1063389909708648 0 0)
(-0.1186061603660488 0 0)
(-0.1194522105095787 0 0)
(-0.1188623490515216 0 0)
(-0.1190110890275431 0 0)
(-0.115555398682111 0 0)
(-0.1114426811359766 0 0)
(-0.1079386597178145 0 0)
(-0.09505065513584893 0 0)
(-0.08698586907874485 0 0)
(-0.07385863466135933 0 0)
(-0.05797650738908864 0 0)
(-0.04571061622903454 0 0)
(-0.02911744752067603 0 0)
(-0.01326220917997197 0 0)
(0.002941718762504514 0 0)
(0.01958767864470782 0 0)
(0.03509215797893503 0 0)
(0.05115385886714034 0 0)
(0.06535303561174914 0 0)
(0.07859481598186864 0 0)
(0.09110569150578332 0 0)
(0.1012103168080269 0 0)
(0.1142544133556713 0 0)
(0.1172864971357625 0 0)
(0.1171291991065967 0 0)
(0.1170163854211119 0 0)
(0.116260423820286 0 0)
(0.112582206237754 0 0)
(0.1124485748771491 0 0)
(0.1058503279520164 0 0)
(0.09694016994177312 0 0)
(0.09219075745964368 0 0)
(0.07664095334621226 0 0)
(0.06441705128970419 0 0)
(0.05081513516866092 0 0)
(0.03186375864188291 0 0)
(0.01756173512814546 0 0)
(0.0002267120217207325 0 0)
(-0.01646597484276115 0 0)
(-0.03171633513057752 0 0)
(-0.04787170646423664 0 0)
(-0.06258002061368652 0 0)
(-0.07654216313642161 0 0)
(-0.08936820246689345 0 0)
(-0.1028771968485443 0 0)
(-0.1147807013340789 0 0)
(-0.1159909343349209 0 0)
(-0.1157596220387934 0 0)
(-0.1152064011394574 0 0)
(-0.1152378886521109 0 0)
(-0.111627352775019 0 0)
(-0.1094589085605422 0 0)
(-0.1066791345434593 0 0)
(-0.09695641715681561 0 0)
(-0.09208668410870474 0 0)
(-0.08072788184893467 0 0)
(-0.06705949317817908 0 0)
(-0.05549743888965442 0 0)
(-0.03751289561527649 0 0)
(-0.02186676911593029 0 0)
(-0.004943375058834416 0 0)
(0.01290112788677341 0 0)
(0.02864926949824787 0 0)
(0.04490129763076658 0 0)
(0.0597689794302169 0 0)
(0.0739207948010985 0 0)
(0.08706034982495564 0 0)
(0.1016120212135124 0 0)
(0.1143082583093261 0 0)
(0.1148098349938307 0 0)
(0.1146495876506508 0 0)
(0.1149666784797204 0 0)
(0.1125068389632488 0 0)
(0.1121845273438171 0 0)
(0.1092618031876811 0 0)
(0.1034978322454852 0 0)
(0.1008604707299967 0 0)
(0.09130100636872186 0 0)
(0.08202866393361562 0 0)
(0.07295815249828094 0 0)
(0.05671373362883171 0 0)
(0.04388245739200827 0 0)
(0.02729608234855962 0 0)
(0.00923411424567458 0 0)
(-0.007074123884764016 0 0)
(-0.02536869569323227 0 0)
(-0.04195973842305024 0 0)
(-0.05793576079195158 0 0)
(-0.07340873651500676 0 0)
(-0.08653398554252947 0 0)
(-0.1032660926531912 0 0)
(-0.1134124253140034 0 0)
(-0.1136143963671493 0 0)
(-0.1133102428683189 0 0)
(-0.1134524141077591 0 0)
(-0.1117662487696261 0 0)
(-0.1103831169482148 0 0)
(-0.1088233688467917 0 0)
(-0.1030348176343624 0 0)
(-0.09955747148827533 0 0)
(-0.092602047242743 0 0)
(-0.08247060514819057 0 0)
(-0.0741623436206086 0 0)
(-0.06049992733736127 0 0)
(-0.04638340010958843 0 0)
(-0.03203438724977385 0 0)
(-0.01419687314697202 0 0)
(0.002780599572846377 0 0)
(0.0200784074712749 0 0)
(0.03806548958166434 0 0)
(0.05441760848417798 0 0)
(0.07028629256072826 0 0)
(0.08461379415219336 0 0)
(0.1019434070969769 0 0)
(0.112263344261721 0 0)
(0.1125182062211064 0 0)
(0.1122488141283149 0 0)
(0.1122227623558131 0 0)
(0.1111400926216391 0 0)
(0.1094521231239155 0 0)
(0.1083672684940739 0 0)
(0.1030651240583871 0 0)
(0.09952045591482625 0 0)
(0.09411392545804299 0 0)
(0.08342514036889423 0 0)
(0.07700103585487174 0 0)
(0.06417405659371249 0 0)
(0.04926843587066353 0 0)
(0.0372310675907022 0 0)
(0.01877067369115912 0 0)
(0.002047533374284237 0 0)
(-0.01525620057564348 0 0)
(-0.03422480081321974 0 0)
(-0.05099982967651395 0 0)
(-0.06859795389424551 0 0)
(-0.08374655918757545 0 0)
(-0.10401646608303 0 0)
(-0.111888910146855 0 0)
(-0.1119109777339952 0 0)
(-0.1116533111682714 0 0)
(-0.1116959400375534 0 0)
(-0.1102137293951999 0 0)
(-0.1089820774558682 0 0)
(-0.1076241882956589 0 0)
(-0.1025518732476318 0 0)
(-0.09965955340340794 0 0)
(-0.09344242912474005 0 0)
(-0.08476384157253831 0 0)
(-0.0773694796507215 0 0)
(-0.06492957833015291 0 0)
(-0.05278066355103274 0 0)
(-0.03888686509913915 0 0)
(-0.02236990690262941 0 0)
(-0.006451128983994667 0 0)
(0.01152274255742393 0 0)
(0.02924847087591941 0 0)
(0.04671072298309548 0 0)
(0.06453914356896004 0 0)
(0.08010103973444654 0 0)
(0.1011141408443057 0 0)
(0.1106859633883157 0 0)
(0.1108913919854278 0 0)
(0.1106052979805841 0 0)
(0.1104667937985692 0 0)
(0.1100493307159512 0 0)
(0.1076512688333353 0 0)
(0.1071729928666185 0 0)
(0.1036291489275008 0 0)
(0.09843339800066503 0 0)
(0.09529358040439674 0 0)
(0.0863004891888791 0 0)
(0.07836006121925325 0 0)
(0.06906802563806305 0 0)
(0.0552178721650764 0 0)
(0.04312869406053565 0 0)
(0.02696601299148038 0 0)
(0.01051401121145594 0 0)
(-0.006440123873151784 0 0)
(-0.02563803789915902 0 0)
(-0.04317470155003075 0 0)
(-0.06216635870931699 0 0)
(-0.07932131323203268 0 0)
(-0.1030255599588534 0 0)
(-0.1098909427769299 0 0)
(-0.1099924776743736 0 0)
(-0.1099536580344506 0 0)
(-0.1092660310823321 0 0)
(-0.1092217316426007 0 0)
(-0.1073756981192498 0 0)
(-0.1050392939553467 0 0)
(-0.1037664327848863 0 0)
(-0.09782479342875214 0 0)
(-0.09371928556988801 0 0)
(-0.0881256170045718 0 0)
(-0.07744316697506434 0 0)
(-0.07029184150992554 0 0)
(-0.05776777651535221 0 0)
(-0.04383135937413443 0 0)
(-0.03136661727616247 0 0)
(-0.01352297693787656 0 0)
(0.002616043292069207 0 0)
(0.01993905462211135 0 0)
(0.03915318261817489 0 0)
(0.05667483373423884 0 0)
(0.07397109307054563 0 0)
(0.09625113078272803 0 0)
(0.1093870340380347 0 0)
(0.1097898097741706 0 0)
(0.1097607857133473 0 0)
(0.1091387962028928 0 0)
(0.1090792435585183 0 0)
(0.1075011460669258 0 0)
(0.1051462901506721 0 0)
(0.1040513588745646 0 0)
(0.09852480552109932 0 0)
(0.09428673057579715 0 0)
(0.08948018242430883 0 0)
(0.07901354161744814 0 0)
(0.07221214154772414 0 0)
(0.06072065424667186 0 0)
(0.04677615921199294 0 0)
(0.03497222689275404 0 0)
(0.01744430343336038 0 0)
(0.001116687295810753 0 0)
(-0.01609774898096837 0 0)
(-0.03589965930643989 0 0)
(-0.05422923971405076 0 0)
(-0.07227045875605109 0 0)
(-0.09743313254566155 0 0)
(-0.108594781988959 0 0)
(-0.1088427851209606 0 0)
(-0.1089512955911607 0 0)
(-0.1083511296207769 0 0)
(-0.1081986080508963 0 0)
(-0.1067399104948412 0 0)
(-0.105138004068618 0 0)
(-0.1023922814097323 0 0)
(-0.09827385041464293 0 0)
(-0.09465279658462934 0 0)
(-0.0874472355937663 0 0)
(-0.08082318998686819 0 0)
(-0.07196744629318119 0 0)
(-0.06102648906797142 0 0)
(-0.04989813064141844 0 0)
(-0.03537910539277965 0 0)
(-0.02124731172109189 0 0)
(-0.004656262264700451 0 0)
(0.01297971060969346 0 0)
(0.03022811065708934 0 0)
(0.04969246123893831 0 0)
(0.06732618094109764 0 0)
(0.08895158953599178 0 0)
(0.1069437260004181 0 0)
(0.1080885270066165 0 0)
(0.1081765892788265 0 0)
(0.1076200815592069 0 0)
(0.1073122669271435 0 0)
(0.1067558798405794 0 0)
(0.1040333931718742 0 0)
(0.1028079526624689 0 0)
(0.09943058557739617 0 0)
(0.09365951045203684 0 0)
(0.09084571773982611 0 0)
(0.08213857951526585 0 0)
(0.07308921941018343 0 0)
(0.06562150530654073 0 0)
(0.05149678907157497 0 0)
(0.03943719921680478 0 0)
(0.0251105378382304 0 0)
(0.007626221367419035 0 0)
(-0.008429130601174725 0 0)
(-0.02760893529255611 0 0)
(-0.04685252478819594 0 0)
(-0.06486947021462726 0 0)
(-0.08865931413636939 0 0)
(-0.1061037408360576 0 0)
(-0.1075322425741461 0 0)
(-0.1074941879444639 0 0)
(-0.1070174189114877 0 0)
(-0.1070953669254384 0 0)
(-0.1051246105399589 0 0)
(-0.1042168270041143 0 0)
(-0.1023942947835582 0 0)
(-0.09749288961941618 0 0)
(-0.09526096316997083 0 0)
(-0.08878192191729993 0 0)
(-0.08155329437910969 0 0)
(-0.07536056120622825 0 0)
(-0.0637088743452514 0 0)
(-0.05363510463970764 0 0)
(-0.04152100605672115 0 0)
(-0.02604794382377605 0 0)
(-0.01196832582174348 0 0)
(0.005274654391567069 0 0)
(0.02327315606679209 0 0)
(0.04092007242052309 0 0)
(0.06047418269720132 0 0)
(0.07867285598045756 0 0)
(0.1032251852320001 0 0)
(0.1071105915320723 0 0)
(0.1072903864863138 0 0)
(0.1072323877006108 0 0)
(0.1064235694290969 0 0)
(0.10585635760781 0 0)
(0.104474957614802 0 0)
(0.1015887989882714 0 0)
(0.1001881816461901 0 0)
(0.09489603528432901 0 0)
(0.08971771224995212 0 0)
(0.08565711222376113 0 0)
(0.07478904689381134 0 0)
(0.06691274389031332 0 0)
(0.05723896888494014 0 0)
(0.0423889371457707 0 0)
(0.03056384311413194 0 0)
(0.01458976729772185 0 0)
(-0.002842855963507243 0 0)
(-0.0194118826363377 0 0)
(-0.03910222062185828 0 0)
(-0.05837993980903892 0 0)
(-0.07756287935523902 0 0)
(-0.1029668487836443 0 0)
(-0.1062094096349788 0 0)
(-0.1063516061744356 0 0)
(-0.1062168243555063 0 0)
(-0.1057938773923917 0 0)
(-0.1045735854400562 0 0)
(-0.1040814466449056 0 0)
(-0.1010520606462579 0 0)
(-0.09808177097414818 0 0)
(-0.09610326882829801 0 0)
(-0.08869347655401312 0 0)
(-0.08373794403509205 0 0)
(-0.07686756393304793 0 0)
(-0.06615018833666531 0 0)
(-0.05755252410335795 0 0)
(-0.04476907797944203 0 0)
(-0.03157976917892858 0 0)
(-0.01776346080821119 0 0)
(-0.0007711374511032769 0 0)
(0.01532356820744921 0 0)
(0.03345353684554034 0 0)
(0.05274546570945707 0 0)
(0.06970496750220319 0 0)
(0.09470479602216793 0 0)
(0.1057123767167333 0 0)
(0.1057876886706693 0 0)
(0.1056329724039613 0 0)
(0.105656943461283 0 0)
(0.1041285669939912 0 0)
(0.1035991290948803 0 0)
(0.1020421677296936 0 0)
(0.09803928336814552 0 0)
(0.09626858158903802 0 0)
(0.09079444357319702 0 0)
(0.08447496121434349 0 0)
(0.07903370604571813 0 0)
(0.0687491469061081 0 0)
(0.05969468964788253 0 0)
(0.04850906882429839 0 0)
(0.03438146333922763 0 0)
(0.02104573830600393 0 0)
(0.004512467491621931 0 0)
(-0.01283874588297511 0 0)
(-0.03058525201766101 0 0)
(-0.05048438794564073 0 0)
(-0.06834345324346518 0 0)
(-0.09462393860814595 0 0)
(-0.1047316120088497 0 0)
(-0.1048349520223443 0 0)
(-0.1051864055227266 0 0)
(-0.1043133037209047 0 0)
(-0.1038344738126664 0 0)
(-0.1032086542516888 0 0)
(-0.100113711731057 0 0)
(-0.09882984898061366 0 0)
(-0.09510729967888606 0 0)
(-0.08941519876538907 0 0)
(-0.08573635305682546 0 0)
(-0.07739264131486351 0 0)
(-0.0693400851192177 0 0)
(-0.06094046542110571 0 0)
(-0.04819645082332154 0 0)
(-0.03679514278480669 0 0)
(-0.02290782620492552 0 0)
(-0.0071224468693797 0 0)
(0.0087141103039365 0 0)
(0.0265128786019303 0 0)
(0.04446278842642178 0 0)
(0.06267093423959794 0 0)
(0.08382303847630768 0 0)
(0.1033088359682147 0 0)
(0.1045690944263562 0 0)
(0.1045903645508639 0 0)
(0.1041287738140325 0 0)
(0.1038529838186347 0 0)
(0.1030413750329982 0 0)
(0.1005571653192992 0 0)
(0.09929094670324833 0 0)
(0.09544544690526176 0 0)
(0.09053134194983799 0 0)
(0.08756934550103559 0 0)
(0.07883556055742093 0 0)
(0.07119272414895088 0 0)
(0.06371889984358414 0 0)
(0.05069333539094551 0 0)
(0.03993354770703796 0 0)
(0.0259427136286395 0 0)
(0.01009843909312149 0 0)
(-0.005283075536017527 0 0)
(-0.0239954915200954 0 0)
(-0.04223885504562026 0 0)
(-0.0605240960696406 0 0)
(-0.08319033321619579 0 0)
(-0.1026760646019995 0 0)
(-0.103651726715578 0 0)
(-0.1034008498251107 0 0)
(-0.1035580014134105 0 0)
(-0.1028140411173639 0 0)
(-0.1024763927858949 0 0)
(-0.09964688444404482 0 0)
(-0.09852782329480354 0 0)
(-0.09572659104594573 0 0)
(-0.08986092362396006 0 0)
(-0.08665773770694905 0 0)
(-0.07927616745268791 0 0)
(-0.0712798159964224 0 0)
(-0.06352543603727448 0 0)
(-0.05180761492611582 0 0)
(-0.0408247571017237 0 0)
(-0.02761112852475738 0 0)
(-0.01257902248578132 0 0)
(0.002486491477738006 0 0)
(0.0197883017865327 0 0)
(0.03734218773673714 0 0)
(0.05561923883142886 0 0)
(0.07377990451501627 0 0)
(0.09832580132815652 0 0)
(0.1027882475044795 0 0)
(0.1027216766408867 0 0)
(0.1026469256410919 0 0)
(0.1024859303605396 0 0)
(0.1009552152445164 0 0)
(0.1007618821245416 0 0)
(0.09804870308660205 0 0)
(0.09484811442326142 0 0)
(0.09296081440736881 0 0)
(0.08601500306027079 0 0)
(0.08125725578498363 0 0)
(0.07466890789919303 0 0)
(0.06401234546928536 0 0)
(0.05611661083271282 0 0)
(0.04363724533942468 0 0)
(0.03020549286952789 0 0)
(0.01707568477993467 0 0)
(7.671653043435825e-06 0 0)
(-0.01647292434721933 0 0)
(-0.03430991970833504 0 0)
(-0.05385986281876311 0 0)
(-0.07174979629086235 0 0)
(-0.09755743331861219 0 0)
(-0.1023476877036579 0 0)
(-0.1023399695146285 0 0)
(-0.1024637056678694 0 0)
(-0.1016258190174921 0 0)
(-0.1015467690683854 0 0)
(-0.09939720870458953 0 0)
(-0.09740939751283538 0 0)
(-0.09592501443439257 0 0)
(-0.09035682968747993 0 0)
(-0.08695247276197224 0 0)
(-0.08133307191024838 0 0)
(-0.07286915330069177 0 0)
(-0.06619223660701096 0 0)
(-0.05536633516923455 0 0)
(-0.04444771430717043 0 0)
(-0.03269145934774451 0 0)
(-0.01784468724550256 0 0)
(-0.003758958060235994 0 0)
(0.01286979533127439 0 0)
(0.03007111444598555 0 0)
(0.04768365654456285 0 0)
(0.06528404253749151 0 0)
(0.08846941801263163 0 0)
(0.1015362525078973 0 0)
(0.1017797200394415 0 0)
(0.1015680843906866 0 0)
(0.1015550399046037 0 0)
(0.1006830527282262 0 0)
(0.0994986700592882 0 0)
(0.09852893210600588 0 0)
(0.09503699506416696 0 0)
(0.09234808308872691 0 0)
(0.08828521716957161 0 0)
(0.08177243224594924 0 0)
(0.07613957360162198 0 0)
(0.06768038183258944 0 0)
(0.05788675326989952 0 0)
(0.04791403582528857 0 0)
(0.03500693911434778 0 0)
(0.02129421031855668 0 0)
(0.00666498033456781 0 0)
(-0.01020076508676761 0 0)
(-0.02749086565427411 0 0)
(-0.04568272641747861 0 0)
(-0.06359143781128468 0 0)
(-0.08758415400015912 0 0)
(-0.1009719221263033 0 0)
(-0.1012710097106515 0 0)
(-0.1011902076751312 0 0)
(-0.1007825472036732 0 0)
(-0.1007312886109689 0 0)
(-0.09885141964834572 0 0)
(-0.09771302781570597 0 0)
(-0.09489099037211789 0 0)
(-0.09101901439191551 0 0)
(-0.08821779168982891 0 0)
(-0.08080314384267373 0 0)
(-0.07560934835835423 0 0)
(-0.06825420801756385 0 0)
(-0.05710267163658999 0 0)
(-0.0488409325997022 0 0)
(-0.03612455806595025 0 0)
(-0.02252839712115807 0 0)
(-0.009398056592599638 0 0)
(0.007154299686069942 0 0)
(0.02331777926922243 0 0)
(0.04047512774736158 0 0)
(0.05846329057299748 0 0)
(0.07741664792327892 0 0)
(0.09856103459239218 0 0)
(0.1003289798564441 0 0)
(0.100432027668395 0 0)
(0.10005578408926 0 0)
(0.09974442746264636 0 0)
(0.09909555546086479 0 0)
(0.09675054907539934 0 0)
(0.09549998644015321 0 0)
(0.09264087435957347 0 0)
(0.08714962674203187 0 0)
(0.08453010509418074 0 0)
(0.07703268919162776 0 0)
(0.06879189616219436 0 0)
(0.0622770745742614 0 0)
(0.0499408908610724 0 0)
(0.03913692580889307 0 0)
(0.02691702267478256 0 0)
(0.01104422394578394 0 0)
(-0.003354672946687352 0 0)
(-0.0207854270835536 0 0)
(-0.03879811706503331 0 0)
(-0.05621811649383898 0 0)
(-0.07691946317258944 0 0)
(-0.09819002074200672 0 0)
(-0.09973898476388003 0 0)
(-0.09979256395838401 0 0)
(-0.09959230533475397 0 0)
(-0.09922383505590306 0 0)
(-0.09815640956426006 0 0)
(-0.09703638661221531 0 0)
(-0.09456600205214545 0 0)
(-0.09180431956610349 0 0)
(-0.08782870262542153 0 0)
(-0.08266842630074381 0 0)
(-0.0772404746700411 0 0)
(-0.06924685954561047 0 0)
(-0.0612576720751632 0 0)
(-0.05151934251155502 0 0)
(-0.03984923040273494 0 0)
(-0.02804741472943209 0 0)
(-0.0140133940540184 0 0)
(0.0008210035062104691 0 0)
(0.01669384492361228 0 0)
(0.03348857241934064 0 0)
(0.05105786840996445 0 0)
(0.06777203953437011 0 0)
(0.0918506747491038 0 0)
(0.09903743728307775 0 0)
(0.09908608778837477 0 0)
(0.09898997577308723 0 0)
(0.09849961066943051 0 0)
(0.0981881172028656 0 0)
(0.0969049351246901 0 0)
(0.09463982655624356 0 0)
(0.09270377834337801 0 0)
(0.08890896028253972 0 0)
(0.0839771440949542 0 0)
(0.07919337488568552 0 0)
(0.0716366341818401 0 0)
(0.06362901684123617 0 0)
(0.05437723321632891 0 0)
(0.04308830008461986 0 0)
(0.03098846161357249 0 0)
(0.01704114877646932 0 0)
(0.002253074441914661 0 0)
(-0.01432426122201179 0 0)
(-0.03144271774442463 0 0)
(-0.04942219625194222 0 0)
(-0.0670704227878251 0 0)
(-0.09162208668299215 0 0)
(-0.09861288552643137 0 0)
(-0.09865004988645219 0 0)
(-0.09838728340444791 0 0)
(-0.09807419563741213 0 0)
(-0.09782495336869471 0 0)
(-0.09543384641265369 0 0)
(-0.09427544147044634 0 0)
(-0.09253838008638955 0 0)
(-0.08697247553516411 0 0)
(-0.08441908926762809 0 0)
(-0.07851186295663475 0 0)
(-0.07055995133210552 0 0)
(-0.06444603702796844 0 0)
(-0.0537855462824247 0 0)
(-0.04360333891759214 0 0)
(-0.03243622103543166 0 0)
(-0.01823766817188903 0 0)
(-0.004934755590648345 0 0)
(0.01074755203002432 0 0)
(0.02717791249382486 0 0)
(0.04381121586753067 0 0)
(0.06069364674653409 0 0)
(0.08191407012920385 0 0)
(0.09708762234446057 0 0)
(0.09770579396175806 0 0)
(0.0977174194012987 0 0)
(0.09722403067128103 0 0)
(0.09710030387387922 0 0)
(0.09600869678916357 0 0)
(0.09408920838175448 0 0)
(0.0925659978836242 0 0)
(0.08871210762893562 0 0)
(0.08497058065173804 0 0)
(0.0799902657206488 0 0)
(0.07306694567447701 0 0)
(0.06612914119556212 0 0)
(0.05685565256240995 0 0)
(0.04650659278127085 0 0)
(0.03528329220299911 0 0)
(0.02182127071240187 0 0)
(0.007625832059267765 0 0)
(-0.00776444888574966 0 0)
(-0.02472408674038342 0 0)
(-0.04218065295988759 0 0)
(-0.05916807007989738 0 0)
(-0.08153206752722958 0 0)
(-0.09683378808257237 0 0)
(-0.09730135338449673 0 0)
(-0.09712266132483094 0 0)
(-0.09697098406983783 0 0)
(-0.09651814625121583 0 0)
(-0.09539198106498027 0 0)
(-0.09373013025969841 0 0)
(-0.09170537012480781 0 0)
(-0.0881780284619285 0 0)
(-0.08453203640124821 0 0)
(-0.07926012878343643 0 0)
(-0.07299707477951622 0 0)
(-0.06575818602627645 0 0)
(-0.05697183850101865 0 0)
(-0.04704572288232429 0 0)
(-0.03582216036975417 0 0)
(-0.02353390169223819 0 0)
(-0.009461970559859763 0 0)
(0.00486733167557922 0 0)
(0.02076521976769717 0 0)
(0.03739140056026872 0 0)
(0.05398164993417478 0 0)
(0.07111917362393642 0 0)
(0.09324238209474314 0 0)
(0.09647335565155227 0 0)
(0.09671270021233005 0 0)
(0.09668826097476899 0 0)
(0.09577254485795696 0 0)
(0.09518556988096208 0 0)
(0.09404317751900931 0 0)
(0.0910966225789159 0 0)
(0.08948233833232921 0 0)
(0.08515571662435881 0 0)
(0.08022119455670303 0 0)
(0.07538861682338763 0 0)
(0.0672724797891132 0 0)
(0.05979803638265919 0 0)
(0.05007532797679735 0 0)
(0.03861177785295377 0 0)
(0.02696443412135067 0 0)
(0.01278476586007133 0 0)
(-0.001977138558465843 0 0)
(-0.01799940107233934 0 0)
(-0.03515111470760213 0 0)
(-0.05256522267796197 0 0)
(-0.0706488340203964 0 0)
(-0.0932432880834352 0 0)
(-0.09602613507338952 0 0)
(-0.09618594176258335 0 0)
(-0.0959730760423881 0 0)
(-0.0955453700814564 0 0)
(-0.09451169903343656 0 0)
(-0.09354247883017881 0 0)
(-0.0910536672357027 0 0)
(-0.08866536535610954 0 0)
(-0.08504636366548513 0 0)
(-0.08001255182651601 0 0)
(-0.07485701582363077 0 0)
(-0.0672982564555626 0 0)
(-0.0596990009045791 0 0)
(-0.0500923092947187 0 0)
(-0.03924763407216393 0 0)
(-0.02792577346697257 0 0)
(-0.01441771999393431 0 0)
(-0.0006285845259707763 0 0)
(0.01450074247875074 0 0)
(0.03053205441104664 0 0)
(0.04710607778677103 0 0)
(0.06290915986512388 0 0)
(0.08546677813444355 0 0)
(0.0950867769865722 0 0)
(0.09506736949003687 0 0)
(0.09546656754722432 0 0)
(0.09495535842025433 0 0)
(0.09413733795948326 0 0)
(0.09341416810628783 0 0)
(0.0915005512764262 0 0)
(0.08887914431954932 0 0)
(0.08598575475116228 0 0)
(0.08134517232469723 0 0)
(0.07624417377776316 0 0)
(0.06993497314538678 0 0)
(0.06184684944016069 0 0)
(0.05325196586229677 0 0)
(0.04275506482644065 0 0)
(0.03102474068630884 0 0)
(0.01809812988860099 0 0)
(0.003872979892672211 0 0)
(-0.01181585231205124 0 0)
(-0.02804830370993444 0 0)
(-0.04539392455659558 0 0)
(-0.06200633372382643 0 0)
(-0.08530219436133783 0 0)
(-0.09470637399720745 0 0)
(-0.09462968079420207 0 0)
(-0.09472900339124198 0 0)
(-0.09439480085004134 0 0)
(-0.09400893746466517 0 0)
(-0.09197473867824761 0 0)
(-0.09116807709762068 0 0)
(-0.08898134142168154 0 0)
(-0.08422598322201834 0 0)
(-0.08177968441701093 0 0)
(-0.07563857411800534 0 0)
(-0.06905593481969517 0 0)
(-0.06280490888863188 0 0)
(-0.05260328802395579 0 0)
(-0.04364098952447298 0 0)
(-0.03231229402614676 0 0)
(-0.01930841734157351 0 0)
(-0.006585328623023389 0 0)
(0.008679369017550316 0 0)
(0.02394777644147473 0 0)
(0.04013687992010687 0 0)
(0.05651268357710722 0 0)
(0.07541785181499625 0 0)
(0.09281801144520829 0 0)
(0.093861171412588 0 0)
(0.09386715140655358 0 0)
(0.09362050372531279 0 0)
(0.09317829591835754 0 0)
(0.09233688619873945 0 0)
(0.09119054365970299 0 0)
(0.08822051397744857 0 0)
(0.08572987157082573 0 0)
(0.08326505675159343 0 0)
(0.07603154635288085 0 0)
(0.07199687094316411 0 0)
(0.0648173784020567 0 0)
(0.05483434671499782 0 0)
(0.047181475274626 0 0)
(0.03478251364849312 0 0)
(0.02249272090031306 0 0)
(0.009750958646775427 0 0)
(-0.006356272978967907 0 0)
(-0.02152785147186497 0 0)
(-0.03844814390585911 0 0)
(-0.05544399677270611 0 0)
(-0.07526928816375163 0 0)
(-0.09268354775589571 0 0)
(-0.09348675422958157 0 0)
(-0.09355634584640539 0 0)
(-0.09307796322938661 0 0)
(-0.09292884866849721 0 0)
(-0.09184162939826276 0 0)
(-0.08994508825535448 0 0)
(-0.08877277873844748 0 0)
(-0.08494587695624167 0 0)
(-0.08140677604545454 0 0)
(-0.07752880126643992 0 0)
(-0.07003915141414133 0 0)
(-0.06465098361856157 0 0)
(-0.05588237288026433 0 0)
(-0.0458004193568348 0 0)
(-0.03675496055156694 0 0)
(-0.02322879717732934 0 0)
(-0.01093341771617489 0 0)
(0.002487945344382941 0 0)
(0.01889268058967913 0 0)
(0.03346519708383586 0 0)
(0.05012549874597667 0 0)
(0.06622540694704127 0 0)
(0.08799803703151224 0 0)
(0.09279267076380202 0 0)
(0.09294162937798774 0 0)
(0.09293801135835299 0 0)
(0.09231423700910317 0 0)
(0.09154573557600243 0 0)
(0.09075821989714966 0 0)
(0.08811360653699003 0 0)
(0.08628779662247761 0 0)
(0.0826505268522877 0 0)
(0.07776286329087041 0 0)
(0.07324057662320853 0 0)
(0.06563530404684256 0 0)
(0.05834096863632772 0 0)
(0.04927428561728859 0 0)
(0.03821739430631457 0 0)
(0.02726784933252686 0 0)
(0.01369664637529312 0 0)
(-0.0002696849498331839 0 0)
(-0.01546292094136091 0 0)
(-0.03193168711788573 0 0)
(-0.04851552022804191 0 0)
(-0.06542943337296632 0 0)
(-0.08802253321530834 0 0)
(-0.09206459173999251 0 0)
(-0.09201706798111714 0 0)
(-0.09182411066557403 0 0)
(-0.09174759821681004 0 0)
(-0.09066732390206136 0 0)
(-0.08966263437642635 0 0)
(-0.08793992668643649 0 0)
(-0.08505686746135516 0 0)
(-0.08199554786507839 0 0)
(-0.07735081484246005 0 0)
(-0.07242029600006096 0 0)
(-0.06546994458439591 0 0)
(-0.05832531482774907 0 0)
(-0.04965228997569601 0 0)
(-0.03898460721095019 0 0)
(-0.02873295174663477 0 0)
(-0.01590397273809989 0 0)
(-0.00223022718651647 0 0)
(0.01148297082148676 0 0)
(0.02740084042057401 0 0)
(0.04342082266817399 0 0)
(0.05840696565546338 0 0)
(0.07934017290149541 0 0)
(0.09144178793342501 0 0)
(0.09169564672684763 0 0)
(0.09151663528705024 0 0)
(0.09153362867926214 0 0)
(0.09055539280134305 0 0)
(0.08966024079527199 0 0)
(0.08865669682487066 0 0)
(0.08524165188169462 0 0)
(0.08330979439964965 0 0)
(0.07904044723217209 0 0)
(0.07332492484423185 0 0)
(0.06873262396497042 0 0)
(0.05998916848736102 0 0)
(0.05211410164512407 0 0)
(0.04283441229583126 0 0)
(0.03027689858844165 0 0)
(0.01934651823558877 0 0)
(0.004883377783592884 0 0)
(-0.01011805235071954 0 0)
(-0.02474462128854139 0 0)
(-0.04255231381109882 0 0)
(-0.05787110056515487 0 0)
(-0.07917371318896689 0 0)
(-0.09110250289660894 0 0)
(-0.09132490275344363 0 0)
(-0.09125459697363497 0 0)
(-0.09101820029988204 0 0)
(-0.08982908574394952 0 0)
(-0.08968459869374816 0 0)
(-0.08785123747129042 0 0)
(-0.08475534398436838 0 0)
(-0.08298312653465219 0 0)
(-0.07803982869204978 0 0)
(-0.07329418451722465 0 0)
(-0.06794394740419205 0 0)
(-0.05973047237605373 0 0)
(-0.05225750644257677 0 0)
(-0.04259417754924553 0 0)
(-0.03164226392251319 0 0)
(-0.02019440822804947 0 0)
(-0.007065866061444637 0 0)
(0.006748981567900028 0 0)
(0.02158662379291018 0 0)
(0.03698956233440173 0 0)
(0.05264763825004246 0 0)
(0.06948485245624537 0 0)
(0.08872915422300755 0 0)
(0.09037073059632539 0 0)
(0.09045711201640216 0 0)
(0.09031282504740737 0 0)
(0.08982762288729117 0 0)
(0.08913975878681341 0 0)
(0.08759878689585952 0 0)
(0.08577724713498312 0 0)
(0.08345454791873626 0 0)
(0.07862204910730199 0 0)
(0.07563122863165618 0 0)
(0.06954332195852583 0 0)
(0.06146911415981535 0 0)
(0.05552668533739837 0 0)
(0.04483342909370795 0 0)
(0.03432370960143252 0 0)
(0.02368701109620179 0 0)
(0.009379095340440262 0 0)
(-0.003960899087379532 0 0)
(-0.01913716723602219 0 0)
(-0.03553458393254659 0 0)
(-0.05116609493629398 0 0)
(-0.06928214676602014 0 0)
(-0.08829787650650747 0 0)
(-0.09004244332581762 0 0)
(-0.09006934238728842 0 0)
(-0.08965407097311312 0 0)
(-0.08951367116629137 0 0)
(-0.08846767161997536 0 0)
(-0.08677133514639329 0 0)
(-0.08551223742283735 0 0)
(-0.08213481762000183 0 0)
(-0.07883286830029465 0 0)
(-0.07474925932295791 0 0)
(-0.06844221491243425 0 0)
(-0.06265701670454664 0 0)
(-0.0543586513064092 0 0)
(-0.04561863229777735 0 0)
(-0.03578465802281338 0 0)
(-0.02391380736601075 0 0)
(-0.01221649163437125 0 0)
(0.00158726920371727 0 0)
(0.01598802033674693 0 0)
(0.03065139269730657 0 0)
(0.04705712369312873 0 0)
(0.06171194832440998 0 0)
(0.0824983004304306 0 0)
(0.09202984805601294 0 0)
(0.09213843118980451 0 0)
(0.09204098962371868 0 0)
(0.09203940274959274 0 0)
(0.0911852056564796 0 0)
(0.09061351082710536 0 0)
(0.08971454001483679 0 0)
(0.08747642547109669 0 0)
(0.08560486913145229 0 0)
(0.08225935571326287 0 0)
(0.07910520044794717 0 0)
(0.07429146459861774 0 0)
(0.06889271752441462 0 0)
(0.06359767990223922 0 0)
(0.05555384151818282 0 0)
(0.04852208944786081 0 0)
(0.04026142449327182 0 0)
(0.03061796091311092 0 0)
(0.02216974591330091 0 0)
(0.01159541055670247 0 0)
(0.000855197881982142 0 0)
(4.402977592168479e-07 0 0)
(-1.234130026143163e-11 0 0)
(-1.216368328449453e-11 0 0)
(-1.207633152018151e-11 0 0)
(-1.184560016996348e-11 0 0)
(-1.032690560010757e-11 0 0)
(-9.019661459425549e-12 0 0)
(-8.628549709531292e-12 0 0)
(-7.68835473246337e-12 0 0)
(-5.490865270668406e-12 0 0)
(-4.654428890819691e-12 0 0)
(-2.746605687906124e-12 0 0)
(-2.638385872957829e-12 0 0)
(-5.490832271730952e-13 0 0)
(-7.070547044522507e-13 0 0)
(2.077891374840024e-13 0 0)
(-7.734990579508949e-14 0 0)
(4.196685528398917e-13 0 0)
(-2.638781860201633e-13 0 0)
(1.579054794051998e-13 0 0)
(1.057747129931617e-13 0 0)
(-7.860545570950102e-14 0 0)
(1.567489263016153e-13 0 0)
)
;

boundaryField
{
    inlet
    {
        type            zeroGradient;
    }
    outlet
    {
        type            pressureInletOutletVelocity;
        value           uniform (1.567489263016153e-13 0 0);
    }
    frontAndBack
    {
        type            empty;
    }
}


// ************************************************************************* //
