/*--------------------------------*- C++ -*----------------------------------*\
| =========                 |                                                 |
| \\      /  F ield         | OpenFOAM: The Open Source CFD Toolbox           |
|  \\    /   O peration     | Version:  v2012                                 |
|   \\  /    A nd           | Website:  www.openfoam.com                      |
|    \\/     M anipulation  |                                                 |
\*---------------------------------------------------------------------------*/
FoamFile
{
    version     2.0;
    format      ascii;
    class       volScalarField;
    location    "0.009";
    object      pMean;
}
// * * * * * * * * * * * * * * * * * * * * * * * * * * * * * * * * * * * * * //

dimensions      [1 -1 -2 0 0 0 0];


internalField   nonuniform List<scalar> 
1000
(
101325.0352069694
101325.0209700751
101325.0132562455
101325.040716798
101325.0580725382
101325.0825418617
101325.1104174733
101325.1514218961
101325.1709053552
101325.2204944869
101325.2577303186
101325.2917332383
101325.3294471822
101325.3838902261
101325.403572285
101325.4354551905
101325.4896584553
101325.5091743301
101325.5239615979
101325.5543844133
101325.5785965785
101325.5833723329
101325.5756547024
101325.5960150024
101325.5959868116
101325.5750724981
101325.5442701362
101325.5515892525
101325.5343189807
101325.4689960238
101325.4548859598
101325.4423336076
101325.3763538446
101325.3248712248
101325.3286908607
101325.2712203559
101325.2132629478
101325.2010049809
101325.171801597
101325.1153021725
101325.0907807213
101325.081199257
101325.0394069821
101325.0245223217
101325.0186019712
101325.007610161
101325.0012434672
101325.0066092203
101325.0183020464
101325.0289339966
101325.0449236115
101325.0741417753
101325.1007416337
101325.1217267125
101325.1714964001
101325.2108974088
101325.2337289802
101325.2812986765
101325.3271910913
101325.3463776354
101325.390011578
101325.4359468012
101325.4517482781
101325.4831932537
101325.5311464556
101325.5400471305
101325.5504178507
101325.5816253642
101325.5929902476
101325.5817178271
101325.5852756979
101325.5859164813
101325.567306029
101325.5461658191
101325.5308539105
101325.5019222774
101325.4670903719
101325.4356225187
101325.3977039458
101325.3556792021
101325.3193822397
101325.2883320548
101325.2459679148
101325.2082074897
101325.1791707637
101325.1441596387
101325.1103826567
101325.0843217359
101325.0587994439
101325.0372299756
101325.0253975655
101325.0070808403
101325.0045061885
101325.0088475539
101325.0115618083
101325.0187947429
101325.0416603886
101325.0623190954
101325.0876830376
101325.120208545
101325.1537579666
101325.1938022951
101325.2343320496
101325.265162283
101325.3008631859
101325.3471659861
101325.3746546392
101325.406908371
101325.4494627167
101325.4745412097
101325.4993368862
101325.5328727306
101325.5530643977
101325.5582595766
101325.5822741244
101325.5928369649
101325.5791043505
101325.5847005933
101325.5818269211
101325.5501388615
101325.5340367843
101325.5217485816
101325.4741156306
101325.4394236021
101325.4180945557
101325.3660600073
101325.3263577781
101325.3058986079
101325.2618397922
101325.2150586348
101325.2004214255
101325.15968894
101325.1163879962
101325.1034271154
101325.0775452273
101325.039957221
101325.0324198006
101325.0273655148
101324.9996650108
101325.0050650307
101325.0171530118
101325.0140413253
101325.0262025295
101325.0598992503
101325.0753409235
101325.1038135379
101325.153366529
101325.1746021664
101325.2183828659
101325.262310911
101325.2851733645
101325.3225971971
101325.3737979811
101325.3914250278
101325.420464356
101325.4755019509
101325.4859212412
101325.5064038869
101325.5483641329
101325.5600148135
101325.5598688809
101325.5878779351
101325.5941996576
101325.5706499501
101325.5811716391
101325.5738961538
101325.5367270863
101325.5179163457
101325.5055735281
101325.4489732648
101325.4149306189
101325.3931193495
101325.3422610671
101325.3073391902
101325.2814255858
101325.2384537478
101325.1993078681
101325.183279047
101325.1381084239
101325.1059774173
101325.0935480275
101325.0608174732
101325.03509272
101325.0327395357
101325.0169855692
101325.0000630197
101325.0173365376
101325.016848412
101325.0177352463
101325.0498861209
101325.0730255371
101325.0901201126
101325.1353831876
101325.1755649155
101325.2028629671
101325.2407551721
101325.2826793501
101325.3121994078
101325.3451894743
101325.388975725
101325.412947535
101325.4456121312
101325.478611629
101325.5040825058
101325.5270998319
101325.5460047936
101325.5641743677
101325.5760203055
101325.583055076
101325.5791975626
101325.5834253743
101325.5680762943
101325.5508007596
101325.5311041759
101325.5065127842
101325.4620661719
101325.4324703963
101325.3985706253
101325.354871949
101325.3254505302
101325.293031721
101325.2506095391
101325.2180132192
101325.192835975
101325.1542164732
101325.1228289963
101325.1018496264
101325.0745149929
101325.0516302882
101325.0366100329
101325.0236960947
101325.0106739852
101325.0165323849
101325.0150107925
101325.0215130986
101325.0401725284
101325.062291715
101325.0873399643
101325.1241656436
101325.1617600818
101325.1948144099
101325.2319823366
101325.2660966531
101325.3021293003
101325.3361673315
101325.3700920693
101325.4030707506
101325.4336300523
101325.4648593404
101325.4898525155
101325.5174355836
101325.5358422591
101325.5557544325
101325.5686935949
101325.5781788508
101325.5784741665
101325.5814867019
101325.5719002071
101325.5565587843
101325.5390954513
101325.5127054649
101325.4770184655
101325.4435465455
101325.4090359018
101325.3706183905
101325.3340589766
101325.3075130606
101325.2658023244
101325.2313994817
101325.202362745
101325.174079992
101325.1333822954
101325.1124314717
101325.0907514105
101325.0609744562
101325.04470395
101325.0342423217
101325.0203963116
101325.0127072723
101325.0200720717
101325.0225710384
101325.0340021318
101325.0564954999
101325.0790950076
101325.1145850503
101325.1479399944
101325.1883214781
101325.2144258526
101325.2596175535
101325.2879154114
101325.3227119347
101325.358063499
101325.3911871596
101325.4193729252
101325.4497750504
101325.4832265189
101325.5018292383
101325.5280816231
101325.5435965029
101325.5629181588
101325.5696124653
101325.575577226
101325.5785760569
101325.5702547085
101325.562917526
101325.5398297998
101325.5232149344
101325.4871758442
101325.455390316
101325.41789468
101325.3828528388
101325.3500738779
101325.3142057535
101325.2801810945
101325.244183144
101325.2172018604
101325.1811087022
101325.1515711187
101325.1238189652
101325.0992038572
101325.0720964838
101325.0566415026
101325.0403514328
101325.0234488246
101325.0224724249
101325.020079796
101325.0229669303
101325.0318862135
101325.0521629866
101325.0701399972
101325.1035039221
101325.1391562312
101325.1722471096
101325.208432133
101325.242611235
101325.2753081369
101325.3122768821
101325.3456119761
101325.3759147098
101325.4076056542
101325.4393490469
101325.4674245615
101325.4922289669
101325.5134494091
101325.5363931958
101325.5518566243
101325.5651421299
101325.5692277182
101325.5738200186
101325.5746241431
101325.5642959711
101325.5443130126
101325.5278407362
101325.5037692527
101325.4625198807
101325.4315536998
101325.3981175468
101325.3612833734
101325.3260782675
101325.2961760154
101325.2611476846
101325.225687093
101325.197282378
101325.1658159621
101325.1374673557
101325.1096089776
101325.0878997282
101325.0666761759
101325.0480001881
101325.0353370513
101325.027532515
101325.0259810791
101325.0205471277
101325.0343892355
101325.0480334343
101325.0671022688
101325.0900763171
101325.132704222
101325.1617159357
101325.1974762381
101325.2317496697
101325.2640374217
101325.2999991414
101325.3337743586
101325.364931486
101325.3925910761
101325.4307704412
101325.4545272367
101325.4787348681
101325.5054842025
101325.5283677462
101325.5413691913
101325.5550436041
101325.569761544
101325.5673745838
101325.5703316056
101325.5632027289
101325.5513934287
101325.53030251
101325.5107664493
101325.475150271
101325.4401759696
101325.4098248275
101325.3724506149
101325.3401169113
101325.3069483313
101325.2725452826
101325.2396139791
101325.2106873497
101325.1793529281
101325.1462561073
101325.1253649171
101325.0995690571
101325.0748116559
101325.0585790808
101325.0461128064
101325.0321575044
101325.0281114401
101325.0299715839
101325.031272735
101325.04591415
101325.0652259224
101325.0830302316
101325.1165349417
101325.1573396706
101325.1858014984
101325.2166690172
101325.2576727883
101325.2868713513
101325.3183547372
101325.3529193118
101325.3868653455
101325.4107332997
101325.4447039048
101325.4717353785
101325.4913906797
101325.5159105741
101325.5356958519
101325.5494461942
101325.5581203223
101325.5677589024
101325.5670956805
101325.5628256138
101325.553224055
101325.537927582
101325.5162371334
101325.4863101294
101325.4529748004
101325.4206473313
101325.3854426277
101325.3496500824
101325.3208369869
101325.2858008191
101325.2522068955
101325.221243422
101325.1938609643
101325.1602076006
101325.134191766
101325.1124147515
101325.0859756386
101325.0682002734
101325.0523337945
101325.0422824718
101325.030530227
101325.0335949978
101325.0347795514
101325.0417114116
101325.0604253682
101325.0803612134
101325.1064925283
101325.1429566271
101325.1787274912
101325.2060054431
101325.2445402453
101325.2747550656
101325.3081416486
101325.3408782548
101325.3748426845
101325.3972769254
101325.4308100443
101325.4615632248
101325.479824103
101325.5063348883
101325.5255676113
101325.5406615481
101325.551403288
101325.5631216777
101325.5617353036
101325.5599150401
101325.5576509796
101325.5404204896
101325.5194947724
101325.4975820516
101325.4667339569
101325.4278112156
101325.3964674077
101325.3672052242
101325.3293589351
101325.2980954772
101325.2685294451
101325.2342906918
101325.2022980023
101325.1784556264
101325.1469531131
101325.1194732508
101325.100692919
101325.0801632951
101325.0583044287
101325.0492006559
101325.0416054626
101325.031821202
101325.0380946214
101325.0454991123
101325.0534816024
101325.0731565119
101325.1018910838
101325.1324234621
101325.1626301409
101325.2008267154
101325.2302881329
101325.2652389811
101325.2968601189
101325.3292011683
101325.3586457187
101325.3924400307
101325.4202417171
101325.4437282215
101325.475878098
101325.4952018333
101325.5156683921
101325.530622802
101325.5503595565
101325.5542579383
101325.5598586559
101325.5610088879
101325.5531637058
101325.5446269413
101325.5267601153
101325.5073178666
101325.4703980793
101325.4429188504
101325.4102931038
101325.3746321907
101325.3407645924
101325.3125424967
101325.2803937838
101325.2455893223
101325.2180821202
101325.1867467472
101325.1618294353
101325.1325590262
101325.1103377902
101325.0886050984
101325.0711311015
101325.0559839288
101325.0468596266
101325.0388822001
101325.0391533028
101325.0456920566
101325.0536126938
101325.0704420398
101325.0912780361
101325.1241204471
101325.154771148
101325.1880830867
101325.2206780023
101325.2536786449
101325.2849692845
101325.3173085981
101325.3484902501
101325.3785045418
101325.4092075661
101325.4339309629
101325.4618410472
101325.4853522578
101325.5058385261
101325.5240418247
101325.539073116
101325.548077203
101325.5573843975
101325.557265742
101325.5513307342
101325.5481357125
101325.5305282671
101325.5082052752
101325.4860918834
101325.4519512852
101325.4160085239
101325.3864410538
101325.3577455869
101325.3180909769
101325.2904244143
101325.2626454654
101325.2257575675
101325.1962988826
101325.1734821714
101325.1456866387
101325.1151670376
101325.101110298
101325.0796128468
101325.0609414268
101325.0512819298
101325.0470175566
101325.0398436405
101325.0447458978
101325.0536919397
101325.0656418649
101325.086182431
101325.1115228149
101325.145439577
101325.1774330092
101325.2108136988
101325.2410588755
101325.2724790003
101325.3085709588
101325.3342104272
101325.3686959067
101325.3937920537
101325.4271477793
101325.4476623102
101325.4757216388
101325.4965103242
101325.5143133308
101325.5333746169
101325.5418315735
101325.5504579554
101325.553376814
101325.5565266956
101325.5425727448
101325.5350932439
101325.5185983301
101325.4917028438
101325.4607407823
101325.4312426291
101325.3984913532
101325.3639006543
101325.3368117193
101325.3014952051
101325.2708659454
101325.2415152345
101325.2128239044
101325.1829100028
101325.154855398
101325.1332963894
101325.1097527344
101325.0886014964
101325.072161052
101325.0607124489
101325.0502012793
101325.046838618
101325.0474232633
101325.0511928402
101325.065313118
101325.0815365337
101325.1034614857
101325.1356684213
101325.1687049673
101325.2001033427
101325.2286112833
101325.2646242552
101325.2926847095
101325.3247690318
101325.3547241351
101325.3842921408
101325.4119777532
101325.439232767
101325.4636915602
101325.4839281871
101325.5070175786
101325.5227071004
101325.5354225497
101325.5447385132
101325.551234687
101325.5505808596
101325.5458285565
101325.536731595
101325.5191645638
101325.5023166805
101325.472205791
101325.4390278262
101325.4086400091
101325.378862504
101325.3446125052
101325.314071915
101325.2835376987
101325.2544095742
101325.2225232448
101325.1949647091
101325.168147818
101325.142442011
101325.1206611618
101325.0974528183
101325.0816165068
101325.0673965054
101325.0578922627
101325.0496271467
101325.0494673164
101325.0543338275
101325.0628359123
101325.0764289863
101325.0987777966
101325.1270191481
101325.1559653986
101325.1905828273
101325.2215314182
101325.2502159258
101325.2826136532
101325.3163363846
101325.3417667655
101325.3709023126
101325.4036618708
101325.4289113898
101325.4508695991
101325.4752258517
101325.5004763484
101325.5104495194
101325.5280785036
101325.541278054
101325.5449346805
101325.5447405472
101325.5491870913
101325.5377913194
101325.5215325649
101325.5088003696
101325.4823142533
101325.4479194002
101325.4186020941
101325.3886892341
101325.3538578462
101325.3227984397
101325.2952055385
101325.2623337257
101325.2327803411
101325.2061655499
101325.180096921
101325.1536722163
101325.1320611462
101325.113846815
101325.0937786594
101325.0781701252
101325.0708558426
101325.0627699152
101325.055191103
101325.0613498361
101325.0666844675
101325.0754454698
101325.0932425646
101325.1135301766
101325.1446718619
101325.1675766136
101325.1959470158
101325.22290017
101325.2477182493
101325.2680052019
101325.2930707213
101325.3138156878
101325.3290351603
101325.3490090178
101325.3642181277
101325.3778770642
101325.3874984513
101325.3996100361
101325.4048223248
101325.4084780153
101325.4069423837
101325.4096280857
101325.3961399972
101325.38422369
101325.3745319246
101325.3504483446
101325.3243846189
101325.3007812644
101325.2702795584
101325.238138953
101325.2128823983
101325.1860993359
101325.1607338909
101325.1404441909
101325.1209109403
101325.1057373163
101325.0865482297
101325.0759698589
101325.0629972042
101325.0542219533
101325.0445373366
101325.041524378
101325.0376532885
101325.0373179586
101325.040218808
101325.0492316435
101325.0556697521
101325.0745652451
101325.0919770103
101325.1131815289
101325.1422044088
101325.1729928099
101325.1980684953
101325.2315865743
101325.2600941982
101325.2881972369
101325.3058638034
101325.3344162511
101325.3560159569
101325.3712296531
101325.3868515416
101325.4056805878
101325.4145546629
101325.4269951847
101325.4357800014
101325.4368759044
101325.4429529277
101325.4396423436
101325.4348959149
101325.4253609838
101325.411141662
101325.3969436918
101325.3729217576
101325.3497087197
101325.3201586587
101325.2919129457
101325.2612992791
101325.2343702934
101325.2110290738
101325.1840558927
101325.1672572048
101325.1484121904
101325.1343009333
101325.1174434494
101325.1119017997
101325.0964989321
101325.0919572578
101325.0890138286
101325.0811581661
101325.080245591
101325.0874607859
101325.0885450337
101325.0993807273
101325.1106759875
101325.1315764164
101325.1499669286
101325.1713066969
101325.2056341744
101325.2327748209
101325.2562098386
101325.2986329916
101325.3166486722
101325.3430384531
101325.3733849584
101325.3909769511
101325.409655371
101325.4300255599
101325.4436595089
101325.4542578867
101325.4687768656
101325.4740786759
101325.4818812614
101325.4847772064
101325.4835270458
101325.4806595887
101325.4778781318
101325.4625433657
101325.4483984425
101325.4349276572
101325.4074312747
101325.3840130417
101325.3540181405
101325.3273207575
101325.2947193209
101325.2733408925
101325.2446449916
101325.225994537
101325.2044700325
101325.1919979806
101325.1748000546
101325.1624885462
101325.158235033
101325.1455505853
101325.1438134299
101325.1401701845
101325.1384533636
101325.1340060013
101325.1460233806
101325.1526452552
101325.1540073248
101325.1792367234
101325.1989084928
101325.215531878
101325.2371162298
101325.2789557803
101325.2976419157
101325.3265438399
101325.3622107098
101325.3853549198
101325.4115115537
101325.4359970976
101325.4581470006
101325.4721681896
101325.4930090962
101325.5050863395
101325.514682864
101325.5279102865
101325.5272811851
101325.5373585013
101325.538109408
101325.5335590207
101325.5265952604
101325.5280832232
101325.5094570035
101325.4942607701
101325.4770368282
101325.4572570086
101325.4222830307
101325.4034390421
101325.3779062553
101325.3347295015
101325.3228570626
101325.3018499256
101325.2710233203
101325.2567800056
101325.2535498127
101325.2237448506
101325.2251954997
101325.2229024241
101325.2072936016
101325.2083584548
101325.2118534848
101325.2055054479
101325.2119629438
101325.2220461432
101325.2260308216
101325.2364848201
101325.2667395574
101325.2770237799
101325.2973372599
101325.3326715141
101325.3591232833
101325.3852761229
101325.4149289828
101325.4463017601
101325.4662922389
101325.4943325775
101325.5218804925
101325.5340016311
101325.5512071875
101325.5719544015
101325.5790096661
101325.5864730079
101325.598133748
101325.5999037004
101325.5975483281
101325.6026510409
101325.5947179858
101325.5869957898
101325.5809996938
101325.5651710532
101325.5510793323
101325.5249137589
101325.507234311
101325.4776804937
101325.452588718
101325.4230990789
101325.3976473169
101325.3767947168
101325.3509367209
101325.3282344431
101325.3189133546
101325.3020804332
101325.2875360554
101325.2899677946
101325.2764428397
101325.2813217484
101325.2765256524
101325.2782353055
101325.2822744373
101325.2896942931
101325.2870195599
101325.3168232049
101325.3225721465
101325.3414639864
101325.3630732071
101325.3920586337
101325.4138480601
101325.4528032553
101325.4701233449
101325.5082907727
101325.5399693623
101325.5512365389
101325.5818980277
101325.6172747012
101325.6147687767
101325.6344207689
101325.6615188244
101325.6602010576
101325.6699155495
101325.6710388933
101325.6851571864
101325.6678764526
101325.6754354388
101325.6649969583
101325.6504995557
)
;

boundaryField
{
    inlet
    {
        type            calculated;
        value           uniform 101325.0039252906;
    }
    outlet
    {
        type            calculated;
        value           uniform 101325.6446930272;
    }
    frontAndBack
    {
        type            empty;
    }
}


// ************************************************************************* //
