/*--------------------------------*- C++ -*----------------------------------*\
| =========                 |                                                 |
| \\      /  F ield         | OpenFOAM: The Open Source CFD Toolbox           |
|  \\    /   O peration     | Version:  v2012                                 |
|   \\  /    A nd           | Website:  www.openfoam.com                      |
|    \\/     M anipulation  |                                                 |
\*---------------------------------------------------------------------------*/
FoamFile
{
    version     2.0;
    format      ascii;
    class       volScalarField;
    location    "0.009";
    object      rho;
}
// * * * * * * * * * * * * * * * * * * * * * * * * * * * * * * * * * * * * * //

dimensions      [1 -3 0 0 0 0 0];


internalField   nonuniform List<scalar> 
1000
(
1.1762369656892
1.176288260030774
1.176250738384968
1.176168593066738
1.176145910593659
1.176096346958328
1.176056517683476
1.176052910966674
1.176010925332821
1.176007913958817
1.176009383230972
1.176008681253701
1.176019086169189
1.176032697129917
1.176046353336999
1.176088583833134
1.176116380100754
1.17616140157851
1.176214754848733
1.176256821040482
1.176313068358535
1.176366888672259
1.176421815701395
1.176478206732021
1.176530650436381
1.176585195381633
1.176633394952601
1.176677804201607
1.176720806616314
1.176754477903898
1.176798809061554
1.176809079274185
1.176808515956713
1.176808063218709
1.176805691072128
1.176792953547385
1.176792306867034
1.176770802992832
1.17673966860796
1.176723973608383
1.176672027803464
1.176629229524101
1.176584113674475
1.176519789241784
1.176470935432767
1.176412746315972
1.176355878891714
1.176304302506799
1.176249621555341
1.176199713994671
1.17615242692059
1.176109046540627
1.176063834069501
1.176021907623295
1.176019434985389
1.176020087498416
1.176020831091612
1.17602187708561
1.176033717994339
1.17603782942813
1.176054060235382
1.176082896151644
1.176097418300684
1.176142004369123
1.176182558046189
1.176223735881651
1.176285765989271
1.176335910162244
1.176395729929213
1.17645465573794
1.176508812025625
1.1765642552593
1.176613785628736
1.176662420505555
1.176706250574259
1.17675677597141
1.176798709547216
1.176800291374698
1.176799598408633
1.176800326768235
1.176793408923091
1.176792310072336
1.176779967549466
1.176763453019973
1.176754284327461
1.176718834289567
1.176691775729886
1.17665827627004
1.176603738733293
1.176562012066301
1.176503205669792
1.176443724836698
1.176387787203564
1.176325277297982
1.176269933431239
1.176215257772816
1.176163457644523
1.176119346632554
1.176060944845532
1.176028455790647
1.176027358155439
1.17602548093473
1.176029054493621
1.176032509601023
1.176033509359446
1.17604942615781
1.176058054935434
1.176072827102516
1.176106386778045
1.176123553715367
1.17616352923823
1.176210614886821
1.176247766997778
1.176308858416166
1.17636272521233
1.17641909797807
1.176482916785924
1.176538489592875
1.176596378796633
1.176650439034533
1.176696966537686
1.176756410533157
1.176792581821564
1.176793618582092
1.176792759988769
1.176792057458856
1.176789866998806
1.1767828067566
1.17677869666153
1.176763400739166
1.17674665012739
1.176732874346835
1.176695349632816
1.176668084839547
1.176632732749186
1.176576147115822
1.176535327436198
1.176477774981667
1.176415605426825
1.176360769816511
1.176296685318846
1.1762378880464
1.176180789959437
1.176128226514051
1.176060057288449
1.176032851326754
1.176032923200426
1.176033405038349
1.176033304457139
1.176039098405649
1.176041823652542
1.176047408919644
1.176065351247899
1.176072641796571
1.176096029743291
1.176125728251828
1.176147470343953
1.176193742325386
1.176233019558972
1.176277837818039
1.176337952332043
1.176387975792554
1.176449527387786
1.176510919748676
1.176567733097221
1.176629640581322
1.176681692994159
1.176751161563937
1.17678821356726
1.176788617997161
1.17678802835343
1.176788290050492
1.176783145424138
1.176780265433445
1.176775120031607
1.17675927441059
1.176751581322297
1.176729942375378
1.176703678848516
1.176681677581678
1.176638669988137
1.176602283153486
1.1765569788643
1.176500483663057
1.176450417723131
1.176387531236735
1.17632696359568
1.176266966521602
1.176201195539496
1.176146263141868
1.176067641980017
1.176037579556394
1.176037308067603
1.176038164512437
1.176038093681408
1.176041528517787
1.176045333875487
1.176052291437141
1.176062161088157
1.176075107197056
1.176097002158703
1.176113018424434
1.176145664938595
1.176180244908215
1.176213719666137
1.176263936431866
1.176309645345793
1.176364101465565
1.176422481568482
1.176480178508736
1.176543581627191
1.176604592123352
1.176662211121155
1.176737006215414
1.176782175217913
1.176782975322345
1.176782882681105
1.176782950568011
1.176777726275532
1.176776758389777
1.176770398315635
1.176757610297799
1.176751149474969
1.176730507798403
1.176709685015783
1.176688069559272
1.176650482423346
1.176618364666646
1.176574551855971
1.176524886168502
1.176475191238741
1.176415067506243
1.176355893814698
1.176292794742493
1.176226299209834
1.176167079069082
1.176082664075256
1.176042759502005
1.176042168876426
1.176042900759553
1.17604319598137
1.176045721452573
1.176050001836839
1.176055056007806
1.176065168720918
1.176076415220743
1.176094208639653
1.176111711001545
1.176138671581782
1.176170384764814
1.176200690505063
1.176247713143087
1.176290856778176
1.176339295507911
1.176399163611356
1.176453354063795
1.176515909830094
1.176579880335185
1.176638854908053
1.17671226519205
1.176775368828521
1.176778542363339
1.176778233740639
1.17677812729664
1.176775003616301
1.176773747415945
1.17676608841664
1.176756989847707
1.176751367881143
1.176729670163324
1.176714138126821
1.176693276667077
1.176658416268785
1.176631092878323
1.176589049758903
1.176543265510463
1.176497201797277
1.176438792145488
1.176382176989011
1.176319286262678
1.1762532028894
1.176191305089958
1.17611282605161
1.176049831142937
1.176046934268983
1.176046833884157
1.176048497888956
1.176048872739582
1.176053236621526
1.17605952641212
1.176064070537732
1.176078979366723
1.1760911406212
1.176107853977012
1.176135998861864
1.176158373866385
1.17619401833959
1.176232341212955
1.176272063335874
1.176323469719009
1.176373226171891
1.176429647435807
1.176490948316551
1.176551016277771
1.176615649069848
1.176678634803957
1.176759839853145
1.176774610228584
1.176774334320823
1.176774580415832
1.17677139911302
1.176771698448181
1.176762930535383
1.176756522240433
1.176751200675301
1.176730684456064
1.176717985175817
1.176698287645204
1.176666127984497
1.176641192672185
1.176601757621258
1.176559124791918
1.176515566629253
1.176460104849564
1.176405818042322
1.176344667129899
1.176280531840734
1.17621609475795
1.176149285117429
1.176064293338272
1.176051528999683
1.176051565924883
1.17605213754778
1.176053232318172
1.176056632658822
1.176059944149751
1.176068603123868
1.176080002718613
1.176087435874367
1.176110355417958
1.176129375929599
1.176151609890844
1.176186716512236
1.17621731898072
1.176258885750893
1.176304441816442
1.17635143206772
1.176407459635047
1.176464655267023
1.176524642356978
1.176589702658597
1.176649141506465
1.176732871312187
1.176769592846657
1.176769807639185
1.176769371437439
1.176769308561396
1.176764103018406
1.176762854928277
1.176757044415414
1.176743861166092
1.17673824777403
1.176719069137243
1.176698306384234
1.176679637059481
1.176644483242925
1.176614687328912
1.176575733873365
1.176528526044689
1.176483326441235
1.176426191681915
1.176368621432712
1.176307639474082
1.176239871251842
1.17617989602951
1.176090348738059
1.17605623641363
1.176055793329432
1.176056320584238
1.17605754418123
1.176058821570595
1.176064446128195
1.176068820996318
1.176078777679475
1.176090862912792
1.176104260443698
1.176126346275671
1.176147384643492
1.176176312988405
1.176210057895303
1.17624542598452
1.176290307461686
1.176335485142343
1.176387329924323
1.176443563373709
1.176500990123909
1.176564078344829
1.176624152264913
1.1766966115511
1.176761376165391
1.176764838818996
1.176764862804103
1.176763776018004
1.176762465747185
1.176758787518904
1.176752761133784
1.176746505504823
1.176734696174038
1.176720326450603
1.176704864788873
1.176679359309957
1.176655600325121
1.176623388162364
1.176585982072107
1.176547182412274
1.176497902729031
1.176448227661276
1.176392441891283
1.176330767380349
1.176269090297026
1.176205513147818
1.17613043223993
1.176063635159092
1.176060561829084
1.176061187310924
1.176060258997262
1.176064147207794
1.176064705513823
1.176073273301595
1.176079589245639
1.176087880968031
1.17610807265058
1.176117757297437
1.176142516674547
1.176171965797644
1.176194926811738
1.176236244913805
1.176274385446263
1.176316720630873
1.176369638151172
1.17641950305584
1.176478405136559
1.176537915643606
1.176599141564981
1.176661074198228
1.176743966289487
1.176760540485747
1.176760693311365
1.17676014939187
1.176759299597569
1.176755773969369
1.17675222639965
1.176745265480597
1.176735232367214
1.17672342894554
1.176706302628375
1.176686180530617
1.176661418065632
1.176632411698384
1.176597601770625
1.17655955002553
1.176514888247063
1.176465916309656
1.176413557541308
1.176354119807199
1.176294451879271
1.176230371218398
1.17616649194173
1.176081161255633
1.176065851361327
1.176065852770875
1.176066560963105
1.176067047342211
1.176070739000652
1.176074510022305
1.176081067190154
1.176091192681641
1.17610322519545
1.176119788894158
1.176138096096961
1.17616447160939
1.176189833169582
1.176222944949789
1.176262903701455
1.176300271695571
1.176349853021829
1.176400843479182
1.176452254494367
1.176513622638941
1.176573838652812
1.176630767104712
1.176711236280056
1.176754957027697
1.17675604545507
1.17675519779197
1.176754822856448
1.176753163128928
1.176746970202779
1.176745385409719
1.176733880173194
1.176722018582702
1.176713180794442
1.176686799125108
1.176669764720796
1.176644236264268
1.176604872553587
1.176576107455652
1.176530784400245
1.176482489209656
1.176435884802691
1.176376060891468
1.176319238502228
1.176256794926291
1.176195772792751
1.176114651592107
1.176069430402107
1.176068653341129
1.176069276506635
1.176069468725576
1.176072276380526
1.176075697481725
1.176080655091776
1.176091084164712
1.176100316282683
1.176116509237477
1.176135074892544
1.176156035995792
1.176184227607027
1.176214376195474
1.176249072917231
1.176289923397154
1.176333936199172
1.176381502878113
1.176435034976029
1.176490857455368
1.176548294048902
1.176609243300206
1.176673169492807
1.176744156249889
1.176751477397955
1.176751265531524
1.176749933356573
1.176749907630096
1.176744950218223
1.176740128545275
1.176735998941047
1.176721231901601
1.176712380409121
1.176695248088166
1.176671108666603
1.176651164551783
1.176617310311589
1.17658434577199
1.176546389190378
1.176499155024843
1.176453560273359
1.176398685533533
1.176341384555455
1.17628235554775
1.176219446039336
1.17615260741954
1.176080061712805
1.176073278829915
1.176073431374242
1.176074958206293
1.17607507716983
1.176079765798247
1.176085346506779
1.176089613347616
1.176103729148197
1.176113849535699
1.176130063198551
1.176153823142276
1.17617409099225
1.176206169134156
1.176238240606897
1.176274924861037
1.176319762532305
1.17636333142057
1.176415399280886
1.176469615709712
1.176524955175748
1.176586526292745
1.176642472411986
1.176721948874831
1.17674788540378
1.176748183766657
1.176747100779542
1.176746837990973
1.176743491446062
1.1767383777889
1.176735741876212
1.176722843855385
1.176713170040293
1.176699504246399
1.176675527588682
1.176657358541534
1.176627205914806
1.176593026128813
1.176560169740708
1.176514517905195
1.176468990681394
1.176419464885866
1.176361555845115
1.176304978379333
1.176243261069247
1.176184253661879
1.176100938098001
1.17607751398408
1.176077573117873
1.176078060838523
1.176079326302177
1.176080289608335
1.176088116357561
1.176092410468173
1.17609813142874
1.176116973427043
1.176125820346814
1.17614564050819
1.176172634894674
1.176193406930206
1.176229321806209
1.176263896628164
1.176301677598486
1.176349647831973
1.176394792810677
1.176447870385146
1.176503530053823
1.17655995669763
1.176617271881883
1.176688906552691
1.176741224670267
1.176742784151018
1.176742525132802
1.176741936733245
1.176739990682032
1.176737867163717
1.176730123579415
1.176724728531246
1.176714115295027
1.176697753338679
1.176683949167042
1.176659749701717
1.176634745110816
1.176605863898731
1.1765686762131
1.176531532728888
1.176486055119221
1.176437157867124
1.176385642050166
1.176327700807486
1.176268579543269
1.176211331621341
1.176134643411686
1.176084364929201
1.176082747968099
1.176082751038927
1.176084457326002
1.176085040405832
1.176088623489135
1.176095838399819
1.17610065337246
1.176113025562161
1.17612681864854
1.176142279152842
1.176164505454062
1.176189057029236
1.17621783712922
1.176250834117245
1.176290335691195
1.176330561693095
1.176377249987144
1.176428603357362
1.176479398500064
1.176536837114888
1.176594721988676
1.176650983330616
1.176727836619897
1.176738734730912
1.17673950370331
1.176739404054331
1.176736800222363
1.176734425719885
1.176732115325533
1.176721335180305
1.176715975322476
1.176703233738697
1.176683497392821
1.176668882244507
1.176640610349033
1.176613931712974
1.176582587316706
1.176540500631341
1.176503600869145
1.176454886527046
1.17640329499516
1.1763522874842
1.17629096811812
1.176234142612625
1.176172767954283
1.176095331280238
1.176086564350562
1.17608662073459
1.176085680338835
1.176089637306576
1.176090484236264
1.176095821156101
1.176105280614906
1.176110379809805
1.176126263158197
1.176140881038344
1.176157008171268
1.176184388795101
1.176207662472775
1.176240595714321
1.17627712225683
1.17631452845874
1.176361913114485
1.176410632753352
1.176462912875099
1.17651810986848
1.176575270320047
1.176629536521849
1.176701391840662
1.17673350908326
1.176733628547267
1.176731260340383
1.176727820891253
1.176724668501454
1.176721460631151
1.176718666721352
1.176708963009228
1.176703680520814
1.176690943198357
1.176674399803536
1.176659453209116
1.176630575225553
1.176602708744733
1.176567570847114
1.176523872047319
1.176481297406046
1.176429183091814
1.176370679788908
1.176312114601883
1.176249385366048
1.176187048511509
1.17611277628219
1.176069295667086
1.176058033601651
1.17605014419747
1.176045553610763
1.176041995386482
1.176037391768884
1.176035830548934
1.176034488844107
1.176036969673882
1.176045808169683
1.176050750058668
1.17607487423363
1.176100308532348
1.176125645369891
1.176169319099477
1.176209402595345
1.176252654269293
1.17631267400814
1.176363985556649
1.176421949569693
1.17649160863267
1.176546015737177
1.176615423246047
1.176683355580106
1.176717566600407
1.176735350124168
1.176754680945078
1.176765470642916
1.17677530289055
1.17678471648818
1.176792055621808
1.176797462224531
1.176796400866452
1.176792114269585
1.176781140283646
1.176757788024892
1.176730929781013
1.176694618416687
1.17664666037244
1.176598185144265
1.176543146973003
1.176478008847423
1.176415666648066
1.176342490388286
1.176279763033605
1.176210322920256
1.176140539281429
1.176106924171825
1.176085381554298
1.176069116621832
1.176062261352998
1.176060475777513
1.176060032728493
1.176060125464461
1.176061080557075
1.176065622577036
1.176073483844608
1.176081809317367
1.176099317232892
1.176127219621248
1.176158517723987
1.176198911849676
1.176246407844218
1.176295724822683
1.176350848769059
1.176409472481795
1.176468300172109
1.176527236453546
1.176587495427694
1.176645149678684
1.176701675888314
1.176728709295854
1.176748910028201
1.176764272227649
1.176775844404959
1.176784425330328
1.176789006321966
1.17679219519899
1.176792254046162
1.176785410713927
1.176778682296044
1.176764532339099
1.176740230116458
1.176713903891411
1.176672712513379
1.176620311228555
1.176570426600079
1.176506871250502
1.176443093919012
1.176379502631675
1.176305591288789
1.17624551176272
1.176184626601896
1.176123071363774
1.176095456816169
1.176075935407993
1.176060817530707
1.176057259946468
1.17605875732147
1.176060498312472
1.176065309103551
1.176071761593237
1.176079900915649
1.176092145440794
1.176105278673066
1.176123420145516
1.176151837154027
1.176183001601906
1.176225965317166
1.176277159601489
1.176328045612965
1.176387127612665
1.176449430564277
1.17650720286824
1.176566103276495
1.176625746922414
1.176674376050734
1.176722878854772
1.176740340801661
1.176762929033834
1.176774644122074
1.176783017115491
1.176789804499653
1.176792581930695
1.176790133141579
1.176790129131255
1.176776775283346
1.176762254521389
1.176748816775923
1.176720836990463
1.176683126249219
1.176646824870073
1.176591949546723
1.176532410823118
1.176475178696019
1.176405575602497
1.17633998704345
1.176276611103163
1.176208340542877
1.176153735799918
1.176105688220458
1.176083044444681
1.176066100493994
1.176054119634043
1.176055678782538
1.17606088771033
1.17606441772323
1.176074538664209
1.176083421898846
1.176095773077151
1.176112857582649
1.176128479104967
1.176151092196291
1.176180590217926
1.176215135487092
1.17625789557822
1.17630485526243
1.17636180900496
1.176425278210057
1.176486208159249
1.176546047008249
1.176608145872881
1.176660412296475
1.17671534297508
1.176739318173996
1.176762044438204
1.176777289137806
1.176782994508367
1.176788062503959
1.176791928886746
1.176794011391106
1.176787631358208
1.176784103495911
1.176771732216426
1.176749842552992
1.176731298105634
1.176703673610417
1.17666101699838
1.176615177910437
1.176565109075815
1.176501597304949
1.176440151032231
1.176375305455959
1.176302587302715
1.17624443489114
1.176181599746906
1.176124521264609
1.176091575396526
1.176073182675088
1.176055176007444
1.176052236675613
1.176054238723851
1.176060058541153
1.176069418153548
1.176080491050282
1.176094701028157
1.176111241637579
1.176128153068741
1.176148551645154
1.176175510545427
1.176205923138231
1.176240033977852
1.176287295819866
1.176337761912039
1.176391534757284
1.176454066446347
1.176513258289768
1.176573863850972
1.176635087283312
1.176689506730435
1.17673219419567
1.17675852566314
1.176775367565496
1.176785255963938
1.17678905970053
1.176787469882064
1.176785435002967
1.176782410565286
1.17677693944777
1.176767498565368
1.176756876591815
1.176739882260237
1.176712821946527
1.176681545755926
1.176640842643416
1.176586580796067
1.176531484295673
1.176471718999621
1.176404765152962
1.176340109251214
1.176278825985496
1.17621449908866
1.176159616952972
1.17611281293042
1.176088418410976
1.176073583216796
1.176058386451279
1.1760584781427
1.176063996441791
1.176068538425863
1.176077716791521
1.176092231602447
1.176109385303767
1.176129485385317
1.176150135783207
1.176178475091407
1.17621134673298
1.176238106699379
1.176274094735895
1.176325252480278
1.176359558713697
1.176404809521658
1.176505222144969
)
;

boundaryField
{
    inlet
    {
        type            calculated;
        value           uniform 1.176271021779363;
    }
    outlet
    {
        type            calculated;
        value           uniform 1.176509303196693;
    }
    frontAndBack
    {
        type            empty;
    }
}


// ************************************************************************* //
