/*--------------------------------*- C++ -*----------------------------------*\
| =========                 |                                                 |
| \\      /  F ield         | OpenFOAM: The Open Source CFD Toolbox           |
|  \\    /   O peration     | Version:  v2012                                 |
|   \\  /    A nd           | Website:  www.openfoam.com                      |
|    \\/     M anipulation  |                                                 |
\*---------------------------------------------------------------------------*/
FoamFile
{
    version     2.0;
    format      ascii;
    class       volScalarField;
    location    "0.009";
    object      T;
}
// * * * * * * * * * * * * * * * * * * * * * * * * * * * * * * * * * * * * * //

dimensions      [0 0 0 1 0 0 0];


internalField   nonuniform List<scalar> 
1000
(
299.9817160544761
299.9851867038012
299.9803768388769
299.972164859014
299.9706505325256
299.9664896489834
299.9629747156733
299.963012268004
299.9586880873268
299.9584812420918
299.958849894633
299.9590052115863
299.9601856026989
299.9616254172594
299.9630170036872
299.9672826604104
299.9700806344644
299.9746297108406
299.9800230640001
299.9842603438522
299.9899476305263
299.9953988213248
300.0009790001219
300.0067230957716
300.0120735968117
300.0176456030908
300.0225698106532
300.0271129142403
300.0315193765499
300.0349786970216
300.0395150128429
300.040562487668
300.0405087503371
300.0404666695181
300.0402247158709
300.0389208329567
300.0388507162588
300.0366524666118
300.0334720610713
300.0318670203026
300.0265642606543
300.0221956384623
300.0175913974078
300.011028177049
300.0060436602444
300.0001064635265
299.994303912582
299.9890409941273
299.9834609547603
299.9783674433426
299.9735411026493
299.9691126651043
299.9644974960856
299.9602175983686
299.9599648563838
299.9600315791055
299.9601070020968
299.9602138194836
299.9614225449231
299.961842306636
299.9634991565878
299.9664426945994
299.967924999793
299.9724760290639
299.9766153595
299.9808181020388
299.9871492468139
299.9922669336627
299.9983720042329
300.0043857056439
300.0099124388191
300.0155704139777
300.0206248172879
300.02558773953
300.0300602563975
300.0352157959024
300.039494645719
300.0396560453707
300.0395853489631
300.0396596658358
300.0389537941952
300.0388416677064
300.0375822700973
300.0358971795781
300.0349615660506
300.0313443173105
300.0285832393608
300.0251647600946
300.019599615497
300.0153414301898
300.0093402542823
300.0032701221798
299.9975613000481
299.9911816735345
299.98553317434
299.9799527469518
299.974665679302
299.9701632358842
299.9642020624352
299.960885795974
299.960773756149
299.9605821385094
299.9609469190332
299.9612996045907
299.9614016537101
299.9630263723417
299.9639071411462
299.9654149551451
299.968840542297
299.970592721392
299.9746729847384
299.9794789905881
299.9832707803708
299.9895060102331
299.9950036451232
300.0007568001329
300.0072698299131
300.0129410510501
300.0188485593383
300.0243651735388
300.0291129011157
300.0351785912807
300.0388694726961
300.0389752697978
300.0388876797144
300.038816019968
300.0385925300684
300.0378721364942
300.0374527726503
300.0358920365927
300.0341828443811
300.0327771451568
300.0289481972201
300.0261660352704
300.0225584725133
300.0167842938538
300.0126186166376
300.0067453030508
300.000400747884
299.9948043184819
299.9882638698361
299.9822628738942
299.9764351159218
299.9710699378127
299.9641118906499
299.9613348834937
299.9613422364432
299.9613914408985
299.9613812060214
299.9619726383603
299.9622508387168
299.9628209569835
299.9646524330557
299.9653966013334
299.9677838720415
299.9708152894751
299.9730344319888
299.9777574000068
299.9817662715944
299.9863405020594
299.9924759697794
299.9975812090576
300.0038629008116
300.0101281706807
300.0159259024055
300.0222433929021
300.0275549276274
300.0346435883685
300.0384243373395
300.0384656157765
300.0384054659465
300.0384321896298
300.0379072570457
300.0376134072646
300.0370883932126
300.0354715778819
300.0346865970088
300.0324785901827
300.0297986978748
300.0275536029467
300.0231650394765
300.0194519359431
300.0148287016166
300.0090634498346
300.0039540158238
299.9975361535027
299.9913546873753
299.9852312632309
299.9785184657861
299.9729114199298
299.9648866255052
299.9618180590088
299.9617903546431
299.9618777958898
299.9618705838386
299.9622212060529
299.9626096570516
299.9633198548023
299.9643273023032
299.9656487600727
299.9678836687119
299.9695184424816
299.9728506878123
299.9763802581198
299.9797968450259
299.9849222559845
299.9895873860783
299.9951451416887
300.0011032434265
300.006991375933
300.0134617622707
300.0196877338751
300.0255673426071
300.0331995646218
300.0378086012464
300.0378902446225
300.0378808035567
300.0378877429105
300.037354682209
300.0372559327279
300.0366069710892
300.0353021297724
300.0346428736644
300.0325366318897
300.0304118971578
300.0282061861371
300.0243707405736
300.0210932715538
300.0166223132481
300.0115540266218
300.0064825375339
300.0003466943793
299.9943075532773
299.9878676562506
299.9810809383218
299.975036335993
299.9664201994875
299.9623470482916
299.962286765088
299.9623614833169
299.9623916268729
299.962649420171
299.963086348411
299.9636022491723
299.9646345030094
299.9657824760782
299.967598699133
299.9693851884438
299.9721370721161
299.9753740239098
299.9784671866344
299.9832666208023
299.9876699878171
299.9926136010638
299.998723679483
300.0042540395485
300.0106379728828
300.0171661088044
300.0231841918123
300.0306750437294
300.0371142304631
300.0374380451802
300.0374065618763
300.0373957104682
300.0370769784819
300.0369488018756
300.036167298717
300.0352389070202
300.0346652338518
300.0324512438856
300.0308663576249
300.0287375975827
300.0251804148829
300.0223921854819
300.0181018585554
300.0134297000294
300.0087288059433
300.0027679532681
299.9969900128872
299.9905714282615
299.9838268163091
299.9775091455011
299.9694987763128
299.9630688890632
299.9627731894277
299.9627629402086
299.9629327983751
299.9629710637171
299.9634165061066
299.9640585364396
299.9645223719453
299.966044178574
299.9672855169847
299.9689914591069
299.9718642606148
299.9741480319414
299.9777861868799
299.9816976625626
299.9857518023188
299.9909984473566
299.9960765056426
300.0018346368182
300.0080905764135
300.0142204891127
300.0208161601697
300.0272431746564
300.0355296096344
300.0370367355706
300.0370085844992
300.0370336954331
300.036709083365
300.036739625886
300.0358449758871
300.0351910917163
300.0346480740166
300.0325546461164
300.0312588103342
300.029248825581
300.0259672321517
300.0234227016832
300.0193985442452
300.0150480086547
300.0106028554214
300.0049428967664
299.9994026465511
299.9931616509305
299.9866159519993
299.9800393016686
299.9732198944589
299.9645449548587
299.9632420325443
299.9632457961856
299.9633041462763
299.963415886704
299.9637629737107
299.964100987207
299.9649848379443
299.9661484376756
299.9669071334661
299.9692465890694
299.9711880331275
299.9734574059299
299.9770407101834
299.9801641586862
299.9844066496744
299.9890562279037
299.9938519995713
299.9995700399261
300.0054070671004
300.0115288379308
300.0181681760922
300.0242334132251
300.0327774828542
300.0365245361733
300.0365464518548
300.0365019428479
300.0364955254009
300.0359643640213
300.0358370094273
300.0352441101388
300.0338989234583
300.0333261254495
300.0313691454403
300.0292505179713
300.0273454206629
300.0237582534724
300.0207177182553
300.016742616639
300.011925155231
300.0073124254333
300.0014816293767
299.995606151886
299.9893823375122
299.9824657949251
299.9763440541748
299.9672041840587
299.9637222640482
299.9636770342049
299.9637308519356
299.9638557489949
299.9639861341453
299.9645602529761
299.965006807607
299.9660231140784
299.9672566859468
299.9686241808868
299.9708785106087
299.9730258811998
299.9759785447109
299.9794227942584
299.9830326061208
299.9876133633386
299.99222421561
299.9975153884524
300.0032543275283
300.0091148220009
300.0155529445711
300.0216832789739
300.0290771009425
300.0356858311266
300.0360391415355
300.0360415838562
300.0359306898551
300.0357969926501
300.035421673928
300.0348067514716
300.0341684329019
300.032963416704
300.031497140208
300.0299194074261
300.0273168066425
300.024892365145
300.0216052937295
300.0177881667428
300.0138287008645
300.0087997115518
300.0037302008292
299.9980369294242
299.9917425360677
299.9854476230618
299.978958650478
299.9712951256771
299.9644772081987
299.9641634851918
299.9642273225923
299.9641325575161
299.9645294451353
299.9645864308274
299.9654609744871
299.9661056573768
299.9669519995332
299.9690130272011
299.9700015181239
299.9725287018236
299.975534578494
299.9778780805805
299.9820952721298
299.9859880377095
299.9903087708245
299.9957095286141
300.0007985423372
300.0068096874064
300.0128827876619
300.0191307817678
300.0254504153875
300.0339090501993
300.0356002423297
300.035615836118
300.0355603250244
300.0354736081763
300.035113859256
300.0347518714904
300.0340415890483
300.0330178219384
300.0318133959141
300.0300658201143
300.0280125288939
300.0254857056845
300.0225257763881
300.0189735775533
300.0150904842337
300.0105327608641
300.0055350710227
300.0001916081843
299.9941255214229
299.9880357673753
299.9814955264296
299.9749752817053
299.9662658048536
299.9647030612495
299.9647032069146
299.9647754859585
299.9648251290606
299.9652019488078
299.9655868670798
299.9662561712384
299.9672897095751
299.9685178824921
299.9702085568998
299.9720771687821
299.974769300429
299.9773578748913
299.9807374583124
299.9848158513802
299.9886296570732
299.9936899447242
299.9988939220675
300.0041405729672
300.0104033711132
300.0165483644876
300.0223575078044
300.0305688745724
300.0350301811167
300.0351412374136
300.0350547399387
300.0350164798055
300.0348471181372
300.0342151992367
300.0340534858867
300.0328795059876
300.0316691570034
300.0307673222697
300.0280753457905
300.0263371029105
300.0237320468243
300.0197152471061
300.0167797895153
300.0121546207174
300.0072260862096
300.0024698669039
299.9963644825081
299.9905652269736
299.9841920736233
299.9779637290133
299.9696838285254
299.9650680768626
299.9649887559996
299.9650523626354
299.9650719814381
299.9653585670734
299.965707770369
299.9662138036397
299.9672783287781
299.9682206620198
299.9698734977036
299.9717685001045
299.9739079684294
299.976785440403
299.9798625945973
299.9834038953724
299.9875732242022
299.9920651911671
299.9969197423608
300.0023830206481
300.0080798475755
300.0139412144009
300.0201609983744
300.0266840541663
300.0339277941778
300.0346748206279
300.0346532025038
300.0345172709786
300.0345146474869
300.0340088012655
300.0335168046666
300.0330954141639
300.0315886021177
300.0306853868695
300.0289371731625
300.026473961003
300.0244387655237
300.0209841418415
300.0176202315037
300.0137467972684
300.0089265713087
300.0042734593164
299.9986732038974
299.9928251481474
299.9868005387153
299.9803798301164
299.9735575482765
299.966152966692
299.9654606074362
299.9654761766984
299.9656320249628
299.9656441652169
299.9661227450891
299.9666923819765
299.9671278978274
299.9685687310175
299.9696017275604
299.9712566474074
299.9736818336685
299.9757505134965
299.9790246435734
299.9822980270402
299.9860421215455
299.9906183466604
299.9950649155499
300.0003788014839
300.005911776585
300.0115592268404
300.0178425383788
300.0235513200203
300.0316614544791
300.0343080106491
300.034338450582
300.0342279377051
300.0342011173671
300.0338596365257
300.0333378448403
300.0330688720142
300.0317527699763
300.0307656504763
300.0293711647091
300.0269245685574
300.0250705175439
300.0219936153766
300.0185057374386
300.0151527700841
300.0104940434011
300.0058479019708
300.0007935474181
299.9948835159225
299.9891092108649
299.9828101934185
299.9767872963665
299.9682835422362
299.9658925900351
299.9658986220534
299.965948405103
299.966077571173
299.9661758981446
299.9669747982804
299.9674131066315
299.9679970406872
299.9699202912774
299.9708232878517
299.9728463112007
299.9756016235149
299.977721726585
299.9813874298912
299.9849162806082
299.9887722444237
299.9936681279788
299.9982754820772
300.0036923081106
300.0093725270663
300.0151307973843
300.0209796064545
300.0282894089136
300.033628074814
300.0337871999365
300.0337607734186
300.0337007351473
300.0335021606267
300.0332854742235
300.0324953235437
300.0319448088722
300.0308618224676
300.0291922456653
300.0277836287305
300.0253142584971
300.0227626973996
300.0198154856352
300.0160206108232
300.0122301311389
300.0075890920354
300.0025989628131
299.9973414213724
299.9914280306943
299.9853939998176
299.9795509359913
299.9717235239992
299.9665916328416
299.9664265802371
299.9664268908064
299.966601052049
299.9666605631597
299.9670262936353
299.9677627387443
299.9682542056125
299.969517054161
299.9709249268121
299.9725029615685
299.9747715838767
299.9772775033275
299.9802149727321
299.9835827927005
299.9876144489465
299.9917199217179
299.996484848907
300.0017258054745
300.0069095484699
300.0127712130175
300.0186783216091
300.024419232948
300.0322616986134
300.0333737209149
300.0334521858908
300.0334420137925
300.0331763238703
300.0329340361225
300.0326982851702
300.0315982927773
300.0310513718525
300.0297511994543
300.0277372885643
300.0262458981944
300.0233609464254
300.0206385221918
300.0174399000443
300.0131450736116
300.0093793902506
300.0044079601601
299.9991428228474
299.9939370233847
299.9876787558039
299.9818790202404
299.9756144526436
299.9677107377113
299.9668158655437
299.9668216199376
299.9667256270411
299.967129521589
299.9672159647717
299.9677607096985
299.968726257121
299.9692467283916
299.9708679590032
299.9723600107959
299.9740060686152
299.9768007801575
299.9791762281773
299.9825375614011
299.9862656044194
299.9900833035132
299.9949193649458
299.9998915353049
300.0052269041941
300.0108598769253
300.0166930563709
300.0222305402669
300.0295629709252
300.0328402623043
300.0328524509989
300.0326107988507
300.0322598365053
300.0319381631681
300.0316108289004
300.0313257303031
300.0303355661927
300.0297965284792
300.0284967887642
300.0268086865574
300.0252834619955
300.0223366510043
300.0194930100212
300.015907249628
300.0114478571397
300.0071030376288
300.0017845558698
299.9958139118726
299.9898367605814
299.9834344619171
299.9770719037758
299.9694910622268
299.9650529501365
299.9639033826686
299.9630980735128
299.9626294876061
299.9622662775456
299.9617963501921
299.9616369963401
299.9615000369265
299.9617532515029
299.9626554612407
299.9631598607093
299.9656223150226
299.9682184732994
299.9708045675521
299.9752623467813
299.9793535511737
299.9837679691576
299.9898937656758
299.9951305629158
300.0010461557896
300.0081551296752
300.0137073794228
300.0207901216214
300.0277222838047
300.0312132191144
300.0330278375449
300.0350003106577
300.0361012585706
300.037104522198
300.0380650544494
300.0388138960948
300.03936555127
300.0392572774077
300.0388198997242
300.0377001258115
300.0353173161355
300.0325767384437
300.0288714700962
300.023977688387
300.0190310656879
300.0134144779298
300.0067670799325
300.000404816906
299.9929365699568
299.986534637382
299.9794471524707
299.9723245886152
299.9688934929694
299.9666945860221
299.9650343762906
299.9643346212365
299.9641523493091
299.9641071309603
299.9641165900972
299.9642140708557
299.9646776886303
299.9654801225327
299.9663299138165
299.9681169670507
299.9709650001525
299.9741595633733
299.9782824768207
299.9831301676818
299.9881635899984
299.9937895420899
299.999772512764
300.0057761336312
300.0117906626892
300.0179399775051
300.0238232882504
300.0295914198443
300.0323499158017
300.0344111676672
300.0359786933683
300.03715947551
300.0380350354457
300.0385024668523
300.0388278393957
300.0388338407868
300.0381355829315
300.0374490288382
300.0360052052325
300.0335254575745
300.0308391045914
300.0266358515183
300.0212886102194
300.0161980431164
300.009712234675
300.0032035680407
299.9967137068782
299.9891703613994
299.9830384940405
299.9768241527096
299.9705413357221
299.9677226957598
299.9657300941698
299.9641869566339
299.9638238141702
299.9639766564725
299.9641543592288
299.9646454122297
299.9653040348722
299.9661348390815
299.9673846780388
299.9687252006357
299.9705769084134
299.9734774378419
299.9766583173005
299.9810434248278
299.9862685175407
299.9914619819056
299.9974917651514
300.0038501384825
300.0097459248299
300.0157566714585
300.0218430885885
300.0268053909402
300.0317546951163
300.0335365017733
300.0358413540358
300.0370367311321
300.0378910731061
300.0385836184661
300.0388670206015
300.0386171670307
300.0386167381154
300.0372541678903
300.035772523426
300.0344013379303
300.0315462878108
300.0276982589924
300.023993919658
300.0183941104634
300.0123183045038
300.0064776695101
299.9993743283477
299.9926805264245
299.9862123087948
299.9792442852032
299.9736709457007
299.9687667462964
299.9664554438153
299.964725928425
299.9635029923532
299.9636621360228
299.9641938327281
299.9645541439328
299.9655872316576
299.966493957721
299.9677546674245
299.9694985278365
299.9710930044075
299.9734011047555
299.9764119298495
299.9799378104046
299.9843021000731
299.9890949014799
299.9949075251516
300.0013849901878
300.0076031113502
300.013709678453
300.0200467109632
300.025380190722
300.0309854547269
300.0334318831828
300.035750817636
300.037306333635
300.0378885010857
300.0384056047177
300.038800129729
300.0390126172865
300.0383616267842
300.0380016344324
300.036739296527
300.0345057596272
300.0326134816553
300.0297946374642
300.0254418965475
300.0207642311444
300.0156548588644
300.0091734809916
300.002902697751
299.9962847952373
299.9888632132818
299.9829280495608
299.9765146647756
299.9706887778908
299.9673259558376
299.9654485565149
299.9636105514679
299.9633105144052
299.9635148668142
299.9641089185482
299.9650642932965
299.9661945280154
299.9676449763233
299.9693333129016
299.9710594618313
299.9731415277753
299.9758931935974
299.9789973031554
299.9824788166975
299.9873024930666
299.9924530893196
299.9979410264802
300.0043226671917
300.0103633445118
300.0165480830493
300.0227956649242
300.0283488193788
300.0327046801902
300.0353915226627
300.0371100331064
300.0381190160012
300.0385071297098
300.0383449086704
300.0381372593453
300.0378286148967
300.0372703098227
300.0363069627325
300.0352231028199
300.0334890903401
300.0307280926748
300.0275369208946
300.0233838266848
300.0178470556734
300.0122246457068
300.0061247729639
299.9992899479373
299.9926877766288
299.9864293466448
299.979861699357
299.9742583046286
299.9694916416147
299.9670128389322
299.9655139004886
299.963972035159
299.9639949025434
299.964580115719
299.9650432872766
299.965958219997
299.9673709592904
299.968980630061
299.9707789856356
299.9724796076026
299.9748478181169
299.9777040631163
299.9803917440105
299.9845065801297
299.9915956965362
299.99487890066
300.0054544086197
300.0109863936809
)
;

boundaryField
{
    inlet
    {
        type            fixedValue;
        value           uniform 300;
    }
    outlet
    {
        type            inletOutlet;
        inletValue      uniform 300;
        value           uniform 300.0154500719215;
    }
    frontAndBack
    {
        type            empty;
    }
}


// ************************************************************************* //
