/*--------------------------------*- C++ -*----------------------------------*\
| =========                 |                                                 |
| \\      /  F ield         | OpenFOAM: The Open Source CFD Toolbox           |
|  \\    /   O peration     | Version:  v2012                                 |
|   \\  /    A nd           | Website:  www.openfoam.com                      |
|    \\/     M anipulation  |                                                 |
\*---------------------------------------------------------------------------*/
FoamFile
{
    version     2.0;
    format      ascii;
    class       volScalarField;
    location    "0.018";
    object      p;
}
// * * * * * * * * * * * * * * * * * * * * * * * * * * * * * * * * * * * * * //

dimensions      [1 -1 -2 0 0 0 0];


internalField   nonuniform List<scalar> 
1000
(
101310.8132944199
101313.2884065346
101306.3172370336
101300.7061981413
101294.5305014372
101289.0340946191
101284.3194392393
101280.2641243012
101276.8063684507
101274.4593385111
101273.6754297188
101273.7059342744
101274.1722685745
101275.3602512673
101277.549701506
101280.7870474485
101284.949228576
101289.8555545301
101295.3519307495
101301.3267542699
101307.6882804565
101314.3415833136
101321.1798043554
101328.0869339344
101334.9438828358
101341.6331421012
101348.0484784806
101354.1151918863
101359.8035377019
101365.0979967191
101369.8469804376
101373.4947066804
101375.3505329231
101375.7534674606
101375.7597516409
101375.4449511417
101374.6115688833
101373.0203812535
101370.4777367869
101366.8924915779
101362.3072653484
101356.8780407375
101350.815003959
101344.3198913779
101337.5517097041
101330.6283159319
101323.647848872
101316.7082336394
101309.9111317257
101303.3462197166
101297.0666227759
101291.091426582
101285.4910763964
101280.6044819756
101277.1675362997
101275.6327334656
101275.3605437255
101275.4242032578
101275.7679726443
101276.5762056696
101278.0372993064
101280.3303678299
101283.5791770606
101287.8147698173
101292.962126674
101298.8587860438
101305.2961712285
101312.0652807441
101318.9890132617
101325.9337534521
101332.804730351
101339.5359408767
101346.0865545313
101352.440073384
101358.5747854908
101364.3788240953
101369.4813843609
101373.106557856
101374.7207430826
101375.0584024367
101375.0989717987
101374.8599684252
101374.2304696811
101373.0283492119
101371.0829543702
101368.2545134962
101364.4641479875
101359.7138092816
101354.0929603852
101347.7664020286
101340.9445505376
101333.8458538574
101326.662816162
101319.5400075855
101312.5678571402
101305.7882139665
101299.2092090804
101292.8508942185
101286.8614480075
101281.71797278
101278.2556546899
101276.8117128302
101276.5419591646
101276.5587916917
101276.8326274876
101277.4853705914
101278.6666053848
101280.5294377805
101283.2063120437
101286.7827412934
101291.2773776975
101296.6328750771
101302.719971991
101309.3553510236
101316.3304731282
101323.4452695995
101330.538016316
101337.5020097126
101344.287628004
101350.8896142057
101357.2936175291
101363.3649653986
101368.6967489905
101372.496105321
101374.2003696847
101374.5874473982
101374.6756419643
101374.5053890697
101374.0185929209
101373.0543131
101371.4649915958
101369.1163040828
101365.9059361816
101361.7808664959
101356.7520033767
101350.9009938584
101344.3745796972
101337.3658655049
101330.084843308
101322.7242910025
101315.4325169588
101308.3014190377
101301.3733783158
101294.6905565333
101288.4223734111
101283.0564428589
101279.4247237439
101277.8925403427
101277.5765624295
101277.5386376287
101277.7458666244
101278.2734007088
101279.2565654371
101280.8270148217
101283.1091201022
101286.1993433795
101290.150483038
101294.9603393429
101300.5659857054
101306.8460059394
101313.6327806009
101320.7353312888
101327.9691089657
101335.1828109999
101342.2740770431
101349.19100684
101355.8905344119
101362.2240773965
101367.7920360661
101371.8386022328
101373.7518451535
101374.2242436371
101374.3520624195
101374.247386415
101373.8772628124
101373.0989364912
101371.7774046509
101369.7872809265
101367.0228976657
101363.4100662862
101358.9198483852
101353.5790936199
101347.4738187712
101340.7436149025
101333.565772902
101326.1296879103
101318.6093664229
101311.144234829
101303.8323999826
101296.7634367831
101290.1416522214
101284.4722136672
101280.5857229647
101278.8945740617
101278.5113799289
101278.4310321772
101278.5827420645
101279.0046861792
101279.8258222859
101281.1645824825
101283.1368156901
101285.8407189508
101289.3437920524
101293.6727453971
101298.8062886721
101304.6720639576
101311.1499538064
101318.0840206687
101325.3033281518
101332.6456855244
101339.9759704802
101347.1967897956
101354.2259212463
101360.8905339068
101366.7788035508
101371.1546548791
101373.3522870303
101373.9381525743
101374.0888327142
101374.0437482853
101373.7673426625
101373.1400380735
101372.0350996999
101370.3345148119
101367.9337892355
101364.7493369428
101360.730315378
101355.8691677118
101350.2075998455
101343.8370362245
101336.891950507
101329.5341995579
101321.9320842787
101314.2427934426
101306.602086771
101299.1436500161
101292.10927754
101286.0340542473
101281.7762746297
101279.8367604276
101279.3694487831
101279.2572170996
101279.3557293956
101279.6898562238
101280.3756959829
101281.5227260286
101283.2388820929
101285.6210101781
101288.7440670615
101292.6517901595
101297.3498008743
101302.8010840428
101308.925096574
101315.6028897396
101322.6901723616
101330.035423138
101337.4953063028
101344.9462203021
101352.2768334652
101359.2971392597
101365.5756043953
101370.3692168834
101372.9477387542
101373.6956450613
101373.8583108988
101373.8686878532
101373.6693361828
101373.1673734035
101372.2445576442
101370.7886107841
101368.6964648575
101365.8797894756
101362.2750591376
101357.8527186011
101352.6231611507
101346.6396606644
101339.9970155889
101332.8231883272
101325.2651551777
101317.4764650532
101309.6089037689
101301.8219690147
101294.3768697871
101287.8302255397
101283.0880066425
101280.7797662191
101280.1793451785
101280.0476909341
101280.0961446516
101280.3548776214
101280.9241568767
101281.9072123521
101283.4054775468
101285.5129989569
101288.307940127
101291.8442022
101296.1453058543
101301.1997401939
101306.9581754243
101313.3345741368
101320.2135770755
101327.4634647467
101334.9480579043
101342.5345794529
101350.0935813961
101357.4318569504
101364.1191581344
101369.4008610493
101372.4764044742
101373.4733760167
101373.6573807749
101373.7156213876
101373.5758197678
101373.1802910926
101372.412131893
101371.1657346677
101369.3399688885
101366.8438381683
101363.6058924574
101359.5819741595
101354.760228673
101349.1647651006
101342.8572236383
101335.9333423777
101328.5138701736
101320.736236628
101312.7511316036
101304.728129554
101296.9280940325
101289.9010213
101284.588938182
101281.7754156968
101280.9533736846
101280.8104999081
101280.8083503437
101281.002453179
101281.4692478828
101282.3067908929
101283.6121561029
101285.4776677141
101287.9833427749
101291.1891914797
101295.1303502215
101299.813291467
101305.2123860579
101311.2686992905
101317.8936310371
101324.9777510809
101332.399483913
101340.0291908814
101347.7309755778
101355.3202234201
101362.3946731514
101368.1992892258
101371.8629520563
101373.2229964149
101373.4654061856
101373.552122931
101373.4652694259
101373.1624280139
101372.5301962655
101371.467320253
101369.8755157761
101367.6624643227
101364.751332081
101361.0880996663
101356.645388738
101351.4256043871
101345.4637466073
101338.8272376824
101331.6107930017
101323.9312014635
101315.92828557
101307.7704669458
101299.7033421364
101292.2351850862
101286.3085317383
101282.8597920215
101281.7056830077
101281.5205591477
101281.478968687
101281.619078207
101281.9955902326
101282.7042858441
101283.8373540187
101285.4860846304
101287.7321183734
101290.6399259603
101294.2529527522
101298.5907780001
101303.6456510089
101309.3801234073
101315.7282897453
101322.6016403831
101329.8956926304
101337.4914239593
101345.2539535929
101353.0103112614
101360.4096790237
101366.7273314006
101371.0348145605
101372.8991571418
101373.2673469308
101373.3646052665
101373.3233647866
101373.0975333956
101372.5828119831
101371.6823557144
101370.3005449873
101368.3430585089
101365.7278618175
101362.3936440214
101358.3022663449
101353.4402912707
101347.8220248962
101341.4915553564
101334.5205574762
101327.0049132702
101319.0679237842
101310.8680428388
101302.6290265233
101294.7937001351
101288.2553586472
101284.0855948666
101282.4582470725
101282.165091683
101282.1031103195
101282.197938618
101282.4946704622
101283.0881534923
101284.0658473111
101285.5173155395
101287.5259780785
101290.1602510145
101293.4698480082
101297.48408827
101302.2090793412
101307.6247324741
101313.6841284083
101320.317093416
101327.4356322072
101334.9340380776
101342.6842077935
101350.5248893846
101358.1652440662
101364.9520819395
101369.9116486703
101372.4012516237
101373.006447631
101373.1022889335
101373.0971899409
101372.9339475401
101372.5195911822
101371.7612415748
101370.5659310802
101368.8384930089
101366.4926766588
101363.4607964445
101359.6959758322
101355.1726658049
101349.889255227
101343.8710393745
101337.170178778
101329.8634788727
101322.0556892135
101313.8898587272
101305.5683454573
101297.4611277452
101290.356651313
101285.4046654621
101283.1431424643
101282.6364984691
101282.5600390154
101282.6155873564
101282.8434062521
101283.3331235864
101284.1680072388
101285.4353976393
101287.221046248
101289.5977672401
101292.6205477553
101296.326211406
101300.7318617583
101305.8316103003
101311.5945492776
101317.9664874707
101324.8743327035
101332.2264098505
101339.9061863164
101347.7636401097
101355.5580660595
101362.7424556905
101368.3473168051
101371.545232565
101372.5359513889
101372.6476291455
101372.6716749831
101372.5604224463
101372.2348342732
101371.6049692233
101370.5837688606
101369.0773707573
101366.9958366349
101364.2656070312
101360.833489746
101356.6661871999
101351.7513525498
101346.1005731285
101339.7508995371
101332.7636119408
101325.2269980448
101317.2679427874
101309.0681961297
101300.9341588082
101293.5272535008
101287.9877357448
101285.1205673375
101284.3159011532
101284.2271909007
101284.2473694512
101284.4209546128
101284.8214979982
101285.5266216991
101286.6193500459
101288.1848329883
101290.2979890192
101293.0171248926
101296.3842339211
101300.4245534623
101305.1434546718
101310.5236115094
101316.52500594
101323.0882470717
101330.1363687085
101337.5681741919
101345.2474082813
101352.9744807944
101360.3293997972
101366.4309506295
101370.3118516547
101371.8227906415
101372.0313393048
101372.0615469257
101371.9883663822
101371.7404095238
101371.228684106
101370.373423586
101369.0827006137
101367.263383925
101364.8360740543
101361.740627975
101357.9350437964
101353.3953968907
101348.118655039
101342.1254845232
101335.4604202416
101328.1929933707
101320.4287702742
101312.3261020636
101304.1361280815
101296.3818163457
101290.1104435218
101286.389954844
101285.0759278265
101284.8985169151
101284.8991104803
101285.023947223
101285.3483182782
101285.9436456647
101286.8883527463
101288.2677814578
101290.1610497613
101292.6316457752
101295.7268800471
101299.4788527371
101303.9023939282
101308.9918474684
101314.7197088784
101321.0386780371
101327.8838738518
101335.1669799347
101342.7656036907
101350.5078017521
101358.0673698802
101364.6942767076
101369.3179284435
101371.4801879929
101371.9196810849
101371.935160021
101371.8909950137
101371.6991274985
101371.2773518573
101370.5501447851
101369.4302041039
101367.8232850873
101365.6440291508
101362.8245893826
101359.3150732284
101355.0830359168
101350.1152089119
101344.420275716
101338.0300444555
101331.000110067
101323.4189921282
101315.4247999619
101307.2312889944
101299.2519110722
101292.3800449651
101287.8323497294
101285.9106352298
101285.5454883427
101285.5325821173
101285.6218133405
101285.8829010682
101286.3853003109
101287.2014629501
101288.415073615
101290.1084673718
101292.3498242227
101295.1911523516
101298.6703907086
101302.8104541075
101307.6157605946
101313.0698217783
101319.13589491
101325.7592452442
101332.8642942284
101340.344018522
101348.0448107901
101355.7069425696
101362.7431010596
101368.0863851848
101370.978638636
101371.7904828238
101371.8310824047
101371.8008066572
101371.6465892124
101371.2999340406
101370.6844209663
101369.7180235334
101368.3063641599
101366.3591491887
101363.8019073437
101360.5776870477
101356.6458859623
101351.9835411294
101346.5883351904
101340.4807687402
101333.7048007428
101326.3331896886
101318.4843406994
101310.3452852073
101302.2452958949
101294.9003284023
101289.5405159943
101286.8979017929
101286.2028335268
101286.1620302412
101286.2252019045
101286.4338702841
101286.858190142
101287.5629294269
101288.6274295614
101290.1360675053
101292.1617869507
101294.7614065698
101297.9780983881
101301.8416748283
101306.3654666203
101311.5432349274
101317.3484112824
101323.7360213878
101330.6422060855
101337.9730830964
101345.5902410115
101353.2815961864
101360.6056749022
101366.6044867355
101370.255993051
101371.5967885997
101371.758990064
101371.7132892578
101371.5915411864
101371.3024912763
101370.7782790469
101369.9435142752
101368.7063345108
101366.9739815826
101364.6660576566
101361.7178236922
101358.0800530055
101353.7207203376
101348.6276925992
101342.8109675424
101336.3034651782
101329.1639881229
101321.4929970552
101313.4542577334
101305.3148810912
101297.6310928615
101291.5273513393
101288.0755673056
101286.9132468334
101286.7814691806
101286.8338590017
101286.9953614285
101287.3521775708
101287.9596537468
101288.8913383525
101290.2314006454
101292.0570238333
101294.4296955696
101297.3970325976
101300.9943753462
101305.2424421516
101310.1440058226
101315.6823003038
101321.8219442663
101328.5091880706
101335.6638300872
101343.1653415123
101350.8329155459
101358.3237992137
101364.8624834716
101369.3071000136
101371.3155238396
101371.6880444127
101371.6575059099
101371.5539412956
101371.3065447109
101370.854839136
101370.1292167972
101369.045418989
101367.5090584143
101365.4337812415
101362.7481883576
101359.3957985102
101355.3360481486
101350.5471137299
101345.0285646043
101338.8027792394
101331.9166453247
101324.4526014892
101316.5513148524
101308.4405756494
101300.5551419995
101293.8228683668
101289.4926962965
101287.7319853253
101287.4091763383
101287.44444476
101287.5695101574
101287.8718508355
101288.3985468675
101289.215218013
101290.402936375
101292.0424980767
101294.200870091
101296.9305355921
101300.2717118203
101304.251094325
101308.8789470487
101314.1472260145
101320.0294079438
101326.4813256368
101333.437001162
101340.7930610871
101348.3881617542
101355.9489818258
101362.8922236103
101368.1171105797
101370.8501121414
101371.6104523687
101371.6448059224
101371.5430214542
101371.3266429809
101370.9291086213
101370.2913644324
101369.3370199214
101367.9739447477
101366.112725263
101363.6757816373
101360.5983390819
101356.8305013691
101352.3414589246
101347.1220969824
101341.1858214818
101334.5690876057
101327.3377442955
101319.6092245755
101311.581073967
101303.5964544962
101296.3770022058
101291.179891115
101288.7045807787
101288.056582485
101288.0354652791
101288.1426462035
101288.3953169267
101288.8563003528
101289.5758940505
101290.6290108555
101292.0977056912
101294.054040739
101296.5563942425
101299.6509230847
101303.3704034158
101307.7313387757
101312.7322183663
101318.3534548677
101324.5587056152
101331.2932265119
101338.470492512
101345.9531332416
101353.5210051827
101360.7268346526
101366.6303579615
101370.163551376
101371.4819377044
101371.6348867596
101371.5491962671
101371.3636697504
101371.006232696
101370.4320759764
101369.5796180975
101368.3654764014
101366.698659751
101364.4951623859
101361.6819603337
101358.1996886449
101354.0074694587
101349.0868547975
101343.4431885882
101337.1050842275
101330.1262405501
101322.6028119158
101314.7023657065
101306.7032961426
101299.1646462463
101293.1915334524
101289.8684242143
101288.7521574166
101288.6069868212
101288.6965215512
101288.9049974779
101289.3157912445
101289.9615553798
101290.9050015304
101292.2230221237
101293.9903834333
101296.2724034797
101299.1243082342
101302.5881508097
101306.6881683889
101311.4286486021
101316.7944595099
101322.7530708721
101329.2563442611
101336.233214701
101343.5689944774
101351.0782875456
101358.4154926849
101364.8499035489
101369.2451640084
101371.1957848163
101371.6259384544
101371.5987062075
101371.4358510822
101371.113599625
101370.5855676122
101369.8061896678
101368.7070078163
101367.2052823054
101365.2169656034
101362.6609906063
101359.4640113215
101355.5697082602
101350.947334705
101345.5943122336
101339.5344683294
101332.8161564115
101325.5202809291
101317.7863797485
101309.8458053902
101302.1311641174
101295.5345590035
101291.286915273
101289.5864925168
101289.2319104416
101289.2367400287
101289.4085943722
101289.768392148
101290.3583761197
101291.2223932694
101292.4241869194
101294.0314486993
101296.1090676962
101298.719826901
101301.9202717954
101305.7507606726
101310.2276932678
101315.3422750975
101321.063311484
101327.3419190529
101334.1118563109
101341.2736622915
101348.6726207532
101356.0489069286
101362.8401891563
101368.0078320194
101370.7161579495
101371.5516595411
101371.647651424
101371.5363578738
101371.2705586968
101370.7838594194
101370.0517836579
101369.026753041
101367.6446347925
101365.8319624923
101363.5097470978
101360.5963822857
101357.0161557507
101352.7127502044
101347.6619948071
101341.8781185153
101335.4103958801
101328.3378811379
101320.7860285042
101312.954510838
101305.1745111347
101298.1420511256
101293.04930209
101290.5972201778
101289.9170321968
101289.8159628161
101289.9068852575
101290.1885653763
101290.71267499
101291.5159612907
101292.643378217
101294.1425538964
101296.0620443182
101298.4567345946
101301.3904687642
101304.92680788
101309.111445729
101313.9573279225
101319.440558712
101325.5074643083
101332.0862507243
101339.0820769963
101346.354658767
101353.6939215605
101360.6851665632
101366.4521768342
101370.0023543387
101371.3400266593
101371.5855602842
101371.6049047812
101371.4397909732
101371.0494941456
101370.3811305423
101369.397802697
101368.064478823
101366.3454161391
101364.1932892612
101361.5378231267
101358.2879469745
101354.3500901346
101349.6541557476
101344.1765356623
101337.954718211
101331.0808645594
101323.6914597981
101315.9785737229
101308.2091465204
101300.9026792437
101295.1134960642
101291.8094459129
101290.681795924
101290.5016704833
101290.4986188341
101290.6631878657
101291.0509806669
101291.7250325436
101292.7531882477
101294.1895514951
101296.0595527725
101298.3668703495
101301.1175003755
101304.3443940806
101308.1231790765
101312.5650355568
101317.7606891201
101323.6926685111
101330.1814480186
101337.0683377273
101343.9919871576
101351.9397248468
)
;

boundaryField
{
    inlet
    {
        type            uniformFixedValue;
        uniformValue    sine;
        uniformValueCoeffs
        {
            frequency       constant 3000;
            scale           constant 50;
            level           constant 101325;
        }
        value           uniform 101323.6421297957;
    }
    outlet
    {
        type            pressureOutletNSCBC;
        pInf            101325;
        gamma           1.4;
        etaAc           1;
        fieldInf        1;
        lInf            2.25;
        value           uniform 101355.6687318661;
    }
    frontAndBack
    {
        type            empty;
    }
}


// ************************************************************************* //
