/*--------------------------------*- C++ -*----------------------------------*\
| =========                 |                                                 |
| \\      /  F ield         | OpenFOAM: The Open Source CFD Toolbox           |
|  \\    /   O peration     | Version:  v2012                                 |
|   \\  /    A nd           | Website:  www.openfoam.com                      |
|    \\/     M anipulation  |                                                 |
\*---------------------------------------------------------------------------*/
FoamFile
{
    version     2.0;
    format      ascii;
    class       volScalarField;
    location    "0.018";
    object      pMean;
}
// * * * * * * * * * * * * * * * * * * * * * * * * * * * * * * * * * * * * * //

dimensions      [1 -1 -2 0 0 0 0];


internalField   nonuniform List<scalar> 
1000
(
101325.048399677
101325.0035289643
101325.0122982426
101325.0206982775
101325.0316734336
101325.0449808041
101325.0585361627
101325.0759113571
101325.0940449343
101325.1140731831
101325.1345359694
101325.1548680734
101325.1752720464
101325.1952937339
101325.2148123179
101325.2333404425
101325.2505579665
101325.2661095494
101325.2796789105
101325.2911353929
101325.3001875873
101325.3068807107
101325.3107220611
101325.3120446156
101325.3106071483
101325.3066162501
101325.3000743736
101325.2911620235
101325.2799182352
101325.2665863277
101325.2512501849
101325.2342560246
101325.2161183715
101325.1975127581
101325.1791340467
101325.1606439119
101325.1423598488
101325.1244656356
101325.1072995653
101325.0912130079
101325.0766676552
101325.0639534424
101325.0534535217
101325.04531909
101325.0398719913
101325.0367788914
101325.0365984931
101325.0390010151
101325.0441347625
101325.0518540878
101325.0620889096
101325.0746565537
101325.0894591775
101325.106299177
101325.1247744079
101325.1442382114
101325.1638641798
101325.1839157545
101325.2036453806
101325.2232272121
101325.2424412391
101325.2610323691
101325.278618806
101325.2949281595
101325.3094382374
101325.3219463212
101325.3320682314
101325.3398021958
101325.3446735628
101325.3470281133
101325.3465248104
101325.3435196393
101325.337883167
101325.3298221271
101325.3192985749
101325.3064618552
101325.2914579568
101325.2746846938
101325.2569024025
101325.2385367561
101325.2206240105
101325.2025418125
101325.1845674046
101325.1669680254
101325.1498640521
101325.1336062227
101325.1185530142
101325.105066925
101325.0935098036
101325.0842361335
101325.0775090213
101325.0734371558
101325.0720753653
101325.0734401045
101325.0776530292
101325.084483504
101325.0939698272
101325.1059608744
101325.1203089672
101325.1368847287
101325.15511027
101325.1743540525
101325.1935866379
101325.2133752303
101325.2328073982
101325.25206706
101325.271096245
101325.2895900427
101325.3073087277
101325.3239368646
101325.3390930807
101325.3524383875
101325.3636516525
101325.3724394691
101325.3787687202
101325.3821044979
101325.3827229006
101325.380728737
101325.3759606809
101325.3686890725
101325.3588836965
101325.3466215725
101325.3321138413
101325.3157258596
101325.2982781491
101325.2802215768
101325.2625298506
101325.2447987658
101325.2270507172
101325.2096774902
101325.1926735088
101325.1764061894
101325.1610609302
101325.1471263574
101325.1347960915
101325.1245946411
101325.1166492747
101325.1115565697
101325.1087730174
101325.1090781643
101325.1122072632
101325.1181295668
101325.1268180921
101325.1382037143
101325.1520693825
101325.168268616
101325.1862045289
101325.2051846958
101325.2242911992
101325.2435653766
101325.2629487683
101325.2819943968
101325.3008462149
101325.3192822178
101325.3370602945
101325.3538767646
101325.3694768614
101325.3834482372
101325.3955240355
101325.4053152483
101325.4128795615
101325.4173144401
101325.4192604739
101325.4183333478
101325.4146177769
101325.4081946105
101325.3991462009
101325.3875572869
101325.3735737133
101325.3576596895
101325.3404915933
101325.3229043177
101325.3050425597
101325.2877927723
101325.2702932807
101325.2530759353
101325.2362076303
101325.2199537189
101325.2044706503
101325.1902028724
101325.1773391703
101325.1663727799
101325.1574664266
101325.1512756223
101325.1472639446
101325.1464788117
101325.1483543376
101325.1533129407
101325.1610416975
101325.1716955353
101325.1850187282
101325.2007765233
101325.218433194
101325.2371520816
101325.2562572065
101325.2749844324
101325.2944084487
101325.3133287199
101325.3319930877
101325.3503753339
101325.3681743769
101325.385173838
101325.4010519612
101325.4155583131
101325.4283025775
101325.4390170717
101325.4475096702
101325.4533122496
101325.4564292336
101325.456612056
101325.454077843
101325.4486189729
101325.440442166
101325.4296273816
101325.4162541513
101325.4008550606
101325.3839979609
101325.3667758733
101325.3489537899
101325.3320110613
101325.3147577843
101325.2976469838
101325.280903444
101325.2646902402
101325.249172417
101325.2346316719
101325.2214032227
101325.2098071674
101325.2001693912
101325.1928283003
101325.18813909
101325.1859314391
101325.1866558393
101325.1905065207
101325.1972240431
101325.2069840569
101325.2196239668
101325.2348760439
101325.2521939929
101325.2707080719
101325.2896980293
101325.3082838864
101325.3274896778
101325.3463855564
101325.3648994021
101325.3832273442
101325.4010459544
101325.4181971004
101325.4342915066
101325.4492313682
101325.4625260146
101325.4740546263
101325.4833065498
101325.4905157194
101325.4945002811
101325.4959989604
101325.4946016553
101325.4903002969
101325.4830722004
101325.4731185352
101325.460505581
101325.4456589947
101325.4292103445
101325.4121964547
101325.3947820905
101325.3776279762
101325.3607974524
101325.3438396793
101325.327212579
101325.3110493536
101325.2955253202
101325.2808325431
101325.2672958251
101325.2552264406
101325.2449541265
101325.2367216329
101325.2312112909
101325.2277377589
101325.2274642301
101325.2301212832
101325.2358240756
101325.2445662148
101325.2563726388
101325.2710308679
101325.2879128329
101325.306238408
101325.3250166596
101325.3438219462
101325.3623064483
101325.3814519948
101325.3999251021
101325.4182018003
101325.4360159076
101325.453294189
101325.4696314966
101325.4848654898
101325.4986782961
101325.5108512023
101325.5209100963
101325.5290906918
101325.5341166408
101325.5369044424
101325.5366052575
101325.5335306704
101325.5273609771
101325.5183676388
101325.5066204541
101325.4924408414
101325.4764928418
101325.4596722096
101325.4427704233
101325.4252878073
101325.4089079559
101325.3921660479
101325.3756212314
101325.3595073716
101325.344005702
101325.3292559241
101325.3154571074
101325.3030380053
101325.2922108339
101325.2833220012
101325.2768275852
101325.2726280141
101325.271239737
101325.2727002906
101325.2773519116
101325.2850639058
101325.2959072141
101325.3098137464
101325.3261968834
101325.3442552328
101325.3628758985
101325.3817750586
101325.3999214782
101325.4191185908
101325.437628
101325.4558096956
101325.473651553
101325.4910176195
101325.5075888636
101325.5230960343
101325.5373467428
101325.5500637906
101325.5609330582
101325.5697164211
101325.5762900878
101325.5798670731
101325.5807564233
101325.5788609691
101325.5738848478
101325.5659110225
101325.5550906984
101325.541737773
101325.5263589691
101325.5098736333
101325.4932129491
101325.4760117772
101325.4595694205
101325.4431905012
101325.4267108663
101325.4107121758
101325.3951853398
101325.3804426644
101325.3664933842
101325.3537611534
101325.3424964416
101325.3330922804
101325.3256541478
101325.3210168064
101325.3183030032
101325.3188207231
101325.3223599243
101325.3290699119
101325.3388783016
101325.3518897752
101325.3676710586
101325.385375157
101325.4038904598
101325.4226485421
101325.4410845984
101325.4595766783
101325.4784318667
101325.4966079043
101325.5145163779
101325.5319190404
101325.5487245628
101325.5645337399
101325.5791212408
101325.5923519516
101325.6039058738
101325.6133893179
101325.6210717701
101325.6254741908
101325.6276622238
101325.6268723518
101325.6231350797
101325.6163052435
101325.6064854617
101325.5940331596
101325.5793600701
101325.5633294793
101325.5468097496
101325.5302629059
101325.5132724408
101325.4974360217
101325.4811757375
101325.4652615253
101325.449745506
101325.4350060157
101325.4210117169
101325.4080311904
101325.3964197268
101325.38652791
101325.3784721711
101325.3730463571
101325.3694876688
101325.3691339742
101325.3715310284
101325.3772331279
101325.3860458278
101325.3980670645
101325.4130911116
101325.4303774739
101325.4487676023
101325.4673927853
101325.4861355599
101325.5040675121
101325.5231857415
101325.5414867891
101325.5593882278
101325.5768975759
101325.5938533186
101325.6100017318
101325.6249544505
101325.6386299729
101325.6507717978
101325.6610781922
101325.6693685213
101325.6752476337
101325.6783302425
101325.6786520724
101325.6761395904
101325.6705440583
101325.661826017
101325.6503352695
101325.6365112612
101325.6210772306
101325.6048192141
101325.5886957704
101325.571785254
101325.5561050522
101325.5402169872
101325.524359074
101325.5089811513
101325.4942008551
101325.4802628917
101325.4671770904
101325.4552772585
101325.4449899638
101325.4365480678
101325.4301783966
101325.4265000395
101325.4248628951
101325.4263827287
101325.4310898779
101325.4389428021
101325.4500183747
101325.4641752697
101325.4809645962
101325.4992138181
101325.5178372608
101325.5366200377
101325.5548761781
101325.5734708507
101325.5922289645
101325.6102433814
101325.6279840444
101325.6451016217
101325.6616414364
101325.6770593275
101325.6912083307
101325.7039411181
101325.7150783217
101325.7240664492
101325.731350725
101325.735190788
101325.736878105
101325.735594581
101325.7313331714
101325.7239292807
101325.7135373565
101325.7006832477
101325.6860203882
101325.670282397
101325.6543944376
101325.6383248212
101325.6220758037
101325.6068959039
101325.591341622
101325.5761591327
101325.5614576247
101325.5475737732
101325.5345508006
101325.5224919026
101325.5118926479
101325.5030720574
101325.4961093139
101325.4918382431
101325.4892213203
101325.4899551773
101325.4934696356
101325.5002129142
101325.5101234706
101325.5230678641
101325.5388184648
101325.5563907126
101325.5746056276
101325.5927779177
101325.6110787917
101325.6285242891
101325.647259119
101325.6650092547
101325.682376238
101325.699245673
101325.7155474439
101325.7310157059
101325.7451813926
101325.7580562794
101325.7694470839
101325.7789733447
101325.7866234715
101325.7916454648
101325.7941192773
101325.7937846077
101325.7907087072
101325.7845308176
101325.775355841
101325.7634772536
101325.7497647174
101325.7347054708
101325.7191200013
101325.7038210023
101325.687608344
101325.6728532931
101325.6577828656
101325.6427884214
101325.6283365499
101325.614485312
101325.6016185667
101325.5895278985
101325.5787395625
101325.5695103646
101325.5622298443
101325.5569954254
101325.5543614396
101325.5537666314
101325.5563286672
101325.5620368498
101325.5708658082
101325.582825752
101325.5975974449
101325.6147179433
101325.6326971632
101325.6508242881
101325.6691939488
101325.6867725651
101325.7049371081
101325.7230971821
101325.7405158065
101325.7575657935
101325.7739750465
101325.7897457866
101325.8043888441
101325.8176085857
101325.8295569372
101325.8398157807
101325.8479979724
101325.8544269706
101325.857441153
101325.8583360193
101325.8563842218
101325.8514175979
101325.843456005
101325.8325258862
101325.8195669019
101325.8050683105
101325.7898647695
101325.7746861185
101325.7592446895
101325.7437266973
101325.7293030233
101325.7144690336
101325.7000861142
101325.6861888551
101325.6731897432
101325.6611691075
101325.649913391
101325.6405806571
101325.6327187971
101325.6268166649
101325.6237005883
101325.6220773351
101325.6239371111
101325.6285667065
101325.6364465692
101325.6474255766
101325.6613634355
101325.6777118488
101325.6956953212
101325.7135977228
101325.7318491107
101325.7499961857
101325.7673449327
101325.7859671273
101325.8035362844
101325.8206543684
101325.83725938
101325.853172072
101325.868356677
101325.8818160019
101325.8945569165
101325.905202453
101325.914172804
101325.9212281014
101325.925586263
101325.9273568414
101325.9264214523
101325.9226719138
101325.9158699841
101325.9061168293
101325.8937704316
101325.8802143065
101325.8650897816
101325.8502329816
101325.8353976653
101325.819702833
101325.805510091
101325.7909792861
101325.7765894866
101325.762766396
101325.7496048008
101325.7375502221
101325.7261556614
101325.7164728616
101325.7081847732
101325.7018488739
101325.6977124631
101325.696137193
101325.6966221261
101325.7003624287
101325.7072922051
101325.7172676145
101325.7303673243
101325.7458567685
101325.7635711435
101325.781315147
101325.7995040564
101325.817768024
101325.8353107012
101325.8533102823
101325.871361801
101325.8885727577
101325.9053958231
101325.9214766141
101325.9369217999
101325.9511121691
101325.9638212615
101325.9754684943
101325.9850007267
101325.9925755766
101325.9984051434
101326.0006231836
101326.0009269022
101325.9982913547
101325.9926940971
101325.9841153036
101325.9727145683
101325.9596734733
101325.9452718287
101325.9304308861
101325.9160039235
101325.9010131616
101325.8860419995
101325.8721837663
101325.8579474847
101325.8441516827
101325.8309525836
101325.8186470162
101325.807523026
101325.7968814175
101325.7889176201
101325.7817705249
101325.7769882353
101325.7749727768
101325.7744280809
101325.7774571016
101325.7832873616
101325.7923650274
101325.8044742941
101325.8193124853
101325.8362103806
101325.8542373459
101325.872010107
101325.890426961
101325.9083033686
101325.9255860686
101325.9441024905
101325.961474227
101325.9783587946
101325.9946907834
101326.0102603425
101326.0251117046
101326.0379151059
101326.0505051589
101326.0604934206
101326.0687860932
101326.0752662625
101326.0788907404
101326.0799849352
101326.0783542429
101326.0740042476
101326.0665537719
101326.0563423684
101326.0437028787
101326.0302471456
101326.0155841573
101326.0012914965
101325.9868944624
101325.9718623242
101325.9580836011
101325.9441943465
101325.9303798881
101325.9172404223
101325.9047456123
101325.8935468927
101325.8827854208
101325.8743440778
101325.867016844
101325.861437023
101325.8584974722
101325.8580964622
101325.8596356927
101325.8646281954
101325.8727658518
101325.8839198881
101325.8980004069
101325.9141645961
101325.9319890788
101325.9498583694
101325.9678277705
101325.9861946161
101326.0035939331
101326.0213671699
101326.0393303585
101326.0563336306
101326.0729093971
101326.0886849002
101326.1038151458
101326.1174484303
101326.1299490677
101326.140967566
101326.1498194761
101326.1567975337
101326.1621197004
101326.1634520108
101326.1631972663
101326.1598709105
101326.1536909987
101326.1445731826
101326.1328945201
101326.1197633182
101326.1057771764
101326.091441205
101326.0777151994
101326.0631579473
101326.0486396073
101326.0354551065
101326.0217568364
101326.0086037643
101325.9960874322
101325.9845509536
101325.9742029834
101325.9644979579
101325.9573604895
101325.9515333195
101325.9474692199
101325.9467890051
101325.9473058731
101325.9515871496
101325.9585667442
101325.9689024249
101325.982032102
101325.9977173385
101326.0148673399
101326.0328391007
101326.0507694806
101326.0689533116
101326.0869248715
101326.1039411355
101326.1223848932
101326.1396010485
101326.1562305892
101326.1723217148
101326.1875531939
101326.2020146016
101326.2143796235
101326.2263938893
101326.2362295528
101326.2432918135
101326.249411896
101326.2525342638
101326.2527887253
101326.2505315336
101326.2455722825
101326.2375891406
101326.2270068254
101326.2143229903
101326.2008705205
101326.1870608515
101326.1729823809
101326.1596040047
101326.1448377241
101326.1314213571
101326.118261355
101326.1050493903
101326.092587247
101326.0808357642
101326.0704167915
101326.0604746879
101326.0530513219
101326.0467894476
101326.0421264313
101326.0401820238
101326.0412980703
101326.0436208437
101326.0499915687
101326.0592672266
101326.0715806004
101326.0865235013
101326.103289123
101326.1208865447
101326.1389965323
101326.156788711
101326.1752476005
101326.192542214
101326.2097856255
101326.2278950985
101326.2446843179
101326.2610026453
101326.2765211479
101326.2912540235
101326.304471096
101326.3165057471
101326.3268877661
101326.3355443573
101326.3413104908
101326.3464152064
101326.3469084168
101326.3461603401
101326.3420469572
101326.3353821481
101326.325789299
101326.3140955732
101326.3008107062
101326.2874295873
101326.2738126098
101326.2602305431
101326.2468630876
101326.2321196971
101326.2198737044
101326.2068227579
101326.1941890763
101326.1824564119
101326.1716430048
101326.1621091216
101326.1533316738
101326.1471108821
101326.1427055344
101326.1390718792
101326.1395305726
101326.1420032849
101326.1469034522
101326.1552130237
101326.1666366238
101326.1807627136
101326.1971504303
101326.2144267781
101326.2323222098
101326.250465955
101326.268054412
101326.286821589
101326.3032069861
101326.3210240275
101326.3385255212
101326.3548858936
101326.3707833053
101326.3857515546
101326.3996928819
101326.4117145646
101326.423182296
101326.4324385387
101326.4391633777
101326.4440607322
101326.4475310726
101326.4462124445
101326.4437809787
101326.438052741
101326.4296574303
101326.4187970417
101326.4063705762
101326.392811652
101326.3797396373
101326.3663380889
101326.3532819798
101326.3399384773
101326.3255153545
101326.3137738402
101326.3012425328
101326.2893471774
101326.2785304673
101326.2686441199
101326.2599264592
101326.2529284113
101326.2477778602
101326.2451070449
101326.242881323
101326.2456891513
101326.2493677945
101326.2570962719
101326.267338512
101326.2807020231
101326.2963661207
101326.3137007574
101326.3311425493
101326.3492369303
101326.3672964618
101326.3848417578
101326.4035856577
101326.4190450248
101326.4376976944
101326.4545536145
101326.4702572286
101326.4857907445
101326.5000101725
101326.5128830415
101326.5240907045
101326.5342921275
101326.5425597623
101326.547411297
101326.5512445046
101326.5528867734
101326.5500744683
101326.5460288154
101326.5385926449
101326.5287214999
101326.5168734078
101326.5041653376
101326.4906460942
101326.4778239052
101326.4647813414
101326.4519640611
101326.4392881332
101326.4246855934
101326.4136107619
101326.4017376855
101326.3907300313
101326.3809235149
101326.3716726204
101326.364296074
101326.3588579888
101326.3552597934
101326.3541962483
101326.353706959
101326.3584880154
101326.3636694208
101326.3742724484
101326.3862982347
101326.4013183714
101326.4180544675
101326.4357871961
101326.4534780789
101326.471490038
101326.4895151157
101326.5069427031
101326.52576837
101326.5404373449
101326.5592507519
101326.5757260888
101326.5905791471
101326.6064227839
101326.6186004149
101326.6310482157
101326.6414557575
101326.6499109077
101326.6572521617
101326.6602665155
101326.6626654163
101326.6625143978
101326.6628686487
)
;

boundaryField
{
    inlet
    {
        type            calculated;
        value           uniform 101324.9999999996;
    }
    outlet
    {
        type            calculated;
        value           uniform 101326.65582481;
    }
    frontAndBack
    {
        type            empty;
    }
}


// ************************************************************************* //
