/*--------------------------------*- C++ -*----------------------------------*\
| =========                 |                                                 |
| \\      /  F ield         | OpenFOAM: The Open Source CFD Toolbox           |
|  \\    /   O peration     | Version:  v2012                                 |
|   \\  /    A nd           | Website:  www.openfoam.com                      |
|    \\/     M anipulation  |                                                 |
\*---------------------------------------------------------------------------*/
FoamFile
{
    version     2.0;
    format      ascii;
    class       volScalarField;
    location    "0.018";
    object      rho;
}
// * * * * * * * * * * * * * * * * * * * * * * * * * * * * * * * * * * * * * //

dimensions      [1 -3 0 0 0 0 0];


internalField   nonuniform List<scalar> 
1000
(
1.17630191452188
1.176325683629638
1.176271155457563
1.176224688720962
1.176170267181903
1.176121393999225
1.176080273822343
1.176045405584779
1.176015657879132
1.17599502675045
1.17598759782492
1.175986838146124
1.175989558447261
1.175998779265959
1.176016623575029
1.176043262994173
1.17607766979102
1.176118363660583
1.17616406105385
1.176213820783776
1.176266864989372
1.176322387351587
1.176379474397252
1.176437126322751
1.17649431569999
1.176550039288103
1.176603404701485
1.176653794612414
1.176700971347634
1.176744818648325
1.176784094389348
1.176814201970052
1.176829438273147
1.176832673044386
1.176832612516814
1.176829859452445
1.176822863963298
1.176809636386173
1.176788541385554
1.176758822331188
1.176720832046346
1.176675857563147
1.176625634762314
1.176571830905093
1.176515760066277
1.17645839549005
1.17640054705568
1.17634302377634
1.176286667749803
1.176232224201475
1.176180137007979
1.176130568299256
1.176084105676824
1.176043562435803
1.176015043697413
1.176002303536088
1.176000040202922
1.176000564971617
1.176003415697123
1.176010124029732
1.176022248475374
1.176041272116971
1.176068220879839
1.176103351581389
1.17614604131979
1.176194942300331
1.176248324612942
1.176304455105748
1.176361865440692
1.176419448124314
1.17647641789488
1.176532228005612
1.176586540290778
1.17663921816473
1.176690081675162
1.17673820331591
1.176780508773759
1.176810565285793
1.176823949044733
1.176826749198785
1.176827086200381
1.176825105342958
1.176819886580611
1.176809919986965
1.176793790918975
1.176770340486739
1.176738914563304
1.176699529126339
1.17665292565601
1.176600470252692
1.176543907277603
1.176485047784531
1.176425487830054
1.176366426121787
1.176308612516027
1.176252394092997
1.17619783835923
1.176145111686257
1.176095442989488
1.17605278899678
1.176024076200596
1.176012101557182
1.176009864449461
1.176010003999274
1.176012274867333
1.176017688039698
1.176027483988358
1.176042932353198
1.176065131384814
1.176094790069975
1.176132062855928
1.176176473903849
1.176226950999328
1.176281973714407
1.176339812570116
1.176398808448794
1.176457620307767
1.176515363419118
1.176571626411986
1.176626365784907
1.176679462640192
1.176729800501863
1.176774005895229
1.176805505662112
1.176819635294116
1.176822844438127
1.176823575621105
1.176822164084753
1.176818128174829
1.176810133567977
1.176796956855736
1.17677748430581
1.176750867512616
1.176716666679787
1.176674971983904
1.176626460062447
1.176572347274708
1.17651423445447
1.176453862568031
1.176392829978854
1.17633236643609
1.176273234018184
1.17621578424832
1.17616036685682
1.176108386916618
1.17606388833405
1.176033770844058
1.176021064496619
1.176018444082629
1.176018129556278
1.176019848081972
1.176024222893966
1.176032376231309
1.176045399854059
1.176064325091103
1.176089951768746
1.176122717551933
1.17616260395889
1.176209088881904
1.176261165185542
1.176317442646078
1.176376337433133
1.176436319145306
1.176496133170928
1.176554930803179
1.176612281782268
1.176667829127855
1.176720341047974
1.176766504677357
1.176800054081301
1.176815916321235
1.176819832832244
1.176820892525378
1.176820024664284
1.176816956043803
1.176810503121933
1.17679954659329
1.17678304684863
1.176760127715346
1.176730173946462
1.176692945394898
1.176648664398875
1.176598043833159
1.176542240788958
1.176482725009436
1.176421066707078
1.176358708616671
1.176296806848008
1.176236174969869
1.176177555866155
1.176122643917951
1.176075628607796
1.176043398434395
1.176029373831176
1.176026195991757
1.176025529648117
1.176026787748961
1.17603028688899
1.176037096509766
1.176048198729294
1.176064554217492
1.176086977215824
1.176116027341401
1.176151925895266
1.176194496074475
1.176243137568688
1.176296854035626
1.176354352155642
1.176414214325491
1.176475095566477
1.176535875447177
1.176595746452641
1.176654026918876
1.176709283995891
1.176758103465076
1.176794383000365
1.17681260306787
1.176817460303918
1.176818709533118
1.17681833572574
1.176816044088113
1.17681084324297
1.176801682440318
1.176787583218412
1.176767679158653
1.176741277135148
1.17670795543357
1.176667651162046
1.176620709826979
1.176567889148326
1.176510303809735
1.176449295612327
1.176386259888476
1.176322499940708
1.176259141485562
1.176197293137841
1.17613896011353
1.176088579978264
1.176053270890459
1.176037186657798
1.176033311242502
1.176032380487815
1.176033197418501
1.176035968282074
1.176041655883597
1.176051168085266
1.176065399943954
1.176085154517001
1.176111053289064
1.176143458794962
1.176182417433219
1.176227621996113
1.176278404308578
1.17633377774491
1.176392545593283
1.176453451274417
1.176515306177925
1.176577085414327
1.176637865911096
1.176696072373852
1.176748127149226
1.176787870394241
1.176809248373289
1.17681544905441
1.17681679765503
1.176816883662894
1.176815230856473
1.176811069187236
1.176803418323159
1.17679134735761
1.176774001714928
1.176750648961045
1.176720762261071
1.176684096368262
1.176640737200116
1.176591126171704
1.176536048988492
1.176476566368255
1.176413896754495
1.176349313183159
1.176284074175471
1.176219502312132
1.176157763743082
1.176103474562401
1.176064148275928
1.176045006296164
1.176040027028074
1.176038935208639
1.176039337007711
1.176041482630666
1.176046203596321
1.176054355962198
1.176066780870307
1.176084258176762
1.176107435981506
1.176136761132281
1.176172428489877
1.176214342367641
1.176262093437989
1.176314967978866
1.176372009155365
1.176432124532147
1.176494184773609
1.176557088842188
1.176619763394339
1.176680606547923
1.176736051252708
1.176779841351015
1.176805340089981
1.176813605726654
1.176815131244671
1.176815614080099
1.176814454992793
1.176811175742311
1.176804807102692
1.176794473479198
1.17677933637368
1.176758641270008
1.176731795658821
1.176698433256214
1.176658455549928
1.176612062164221
1.176559763880422
1.176502354206127
1.176440834067647
1.176376342773668
1.176310129678248
1.176243600839689
1.17617891946174
1.176120646631174
1.176076594803228
1.176053262671296
1.17604644554401
1.176045260687828
1.176045242839059
1.176046852488432
1.176050723554163
1.176057669192319
1.176068494398578
1.17608396475812
1.176104743758945
1.176131328932196
1.176164011489916
1.176202844899303
1.176247616388301
1.17629783698476
1.176352771731812
1.176411512983797
1.176473052446988
1.176536315046531
1.176600173908993
1.176663098327594
1.176721753220306
1.176769878949062
1.176800253762729
1.176811529573109
1.176813539312553
1.176814258241603
1.17681353814151
1.17681102733793
1.176805785642744
1.176796973562656
1.176783776207655
1.176765428116954
1.176741292167558
1.176710920338446
1.176674085436975
1.176630807159803
1.176581375419529
1.176526348939725
1.17646651275993
1.176402834991142
1.17633647480872
1.176268828634264
1.176201932986069
1.176140002862983
1.176090854840175
1.17606225506824
1.176052684178316
1.176051148951621
1.176050804029023
1.176051965921379
1.176055088277906
1.176060965394259
1.176070361759961
1.176084034391266
1.176102660254903
1.176126773891018
1.176156735437884
1.176192707075568
1.176234624309455
1.176282176351831
1.176334816433336
1.176391810364535
1.176452291548434
1.176515272887367
1.176579635872181
1.176643946279923
1.176705295472827
1.176757675016997
1.176793387759288
1.176808844626142
1.176811897187211
1.176812703519851
1.176812361588576
1.176810489258505
1.176806221815853
1.176798756327676
1.176787300004473
1.176771070794628
1.176749388476264
1.176721744597985
1.176687822777354
1.17664751138216
1.176600928764868
1.176548440182347
1.176490639620492
1.176428321804778
1.176362508865818
1.17629451450519
1.176226194051818
1.176161219660701
1.176106999432307
1.1760724205011
1.176058925150366
1.176056494039681
1.176055980023772
1.176056766407851
1.176059227153245
1.176064148819935
1.176072256682363
1.176084293448385
1.176100950851273
1.176122796165474
1.176150241530029
1.17618352991626
1.176222711769759
1.176267620271134
1.176317866094996
1.176372867087367
1.176431893341272
1.176494068134364
1.176558329106388
1.176623339137801
1.176686686811029
1.176742956684402
1.176784075934339
1.176804716759517
1.176809734294366
1.17681052888291
1.176810486595798
1.176809133176523
1.176805697835405
1.176799410522329
1.17678950044178
1.176775178544338
1.17675572966783
1.176730592528735
1.176699378322543
1.176661875022662
1.176618069028644
1.176568169791566
1.176512609493942
1.176452024667679
1.176387283582651
1.176319572149995
1.176250568189354
1.176183339672856
1.176124425076189
1.176083359551516
1.176064605143869
1.17606040361148
1.176059769535873
1.176060230180007
1.176062119438687
1.17606618058746
1.176073104144382
1.176083614387035
1.176098422394171
1.176118131926972
1.176143198873624
1.176173928456628
1.176210462326693
1.176252751435922
1.176300539241109
1.176353376117147
1.176410655720663
1.176471617650808
1.176535295448203
1.176600445054933
1.176665070651931
1.176724637040903
1.176771106607794
1.176797620015772
1.176805833856091
1.176806759744785
1.176806959094471
1.176806036714322
1.176803337327516
1.176798115248689
1.17678964867961
1.176777159393601
1.176759901669655
1.176737265543207
1.176708809868968
1.176674258401239
1.176633508553057
1.17658665614061
1.176534008077185
1.176476072167499
1.176413580171219
1.176347583939287
1.176279590356614
1.176212140102183
1.176150718153922
1.176104780752485
1.176081003993827
1.1760743310459
1.176073595383067
1.176073762713166
1.17607520221465
1.176078523841978
1.176084371295331
1.17609343306325
1.176106415243626
1.176123939060515
1.176146487947591
1.17617441001859
1.176207914397613
1.176247045431149
1.176291659221572
1.176341423685578
1.176395846096799
1.176454288012883
1.17651591011623
1.176579582462415
1.176643650074928
1.176704630762682
1.176755218660156
1.176787394733549
1.17679992164951
1.176801650680639
1.17680190111956
1.176801294385971
1.176799238618989
1.176794996003091
1.176787905200464
1.176777204035919
1.176762120328748
1.176741995713141
1.176716331436178
1.176684779108218
1.176647140173736
1.176603389256569
1.176553697436773
1.176498433679419
1.176438174209899
1.176373794078842
1.176306606095021
1.176238692611411
1.176174390329216
1.176122384252854
1.176091531257757
1.176080634312739
1.17607916307697
1.176079167995074
1.1760802032346
1.176082893173749
1.176087830099372
1.176095664349341
1.17610710362028
1.176122803971568
1.176143291817834
1.17616895938261
1.176200072717495
1.176236754623848
1.176278957989145
1.176326454503843
1.17637885169955
1.17643561133321
1.176496000866816
1.17655900526623
1.176623198735852
1.17668587661159
1.176740820533203
1.176779154808446
1.176797081738772
1.176800725488014
1.17680085381804
1.176800487649025
1.176798896907516
1.176795400046117
1.176789370911133
1.176780085680224
1.176766762951441
1.176748694966857
1.176725319118241
1.17669622161322
1.176661133274368
1.17661994387251
1.176572725148907
1.17651974055163
1.176461450747499
1.176398589419917
1.176332301496517
1.176264359273953
1.176198191190308
1.176141205857925
1.176103493260704
1.176087556948969
1.176084528863757
1.176084421833432
1.176085161805235
1.176087326945061
1.17609149322921
1.176098261478652
1.176108325652018
1.176122368496251
1.176140955346502
1.176164517396628
1.176193369132813
1.176227700415322
1.176267547685761
1.17631277399411
1.176363074419928
1.176417994850005
1.176476908352716
1.176538927304796
1.176602777902573
1.17666630658204
1.176724643970133
1.176768944847404
1.176792924093971
1.176799654940399
1.17679999154306
1.176799740529674
1.176798461937757
1.17679558788299
1.176790484779509
1.176782472550576
1.176770768701625
1.176754624571581
1.176733422646394
1.176706690625813
1.176674091716617
1.176635435329931
1.176590702011378
1.176540061463738
1.176483877874779
1.176422754229965
1.176357672043272
1.176290181962667
1.176223014295682
1.176162106206138
1.176117659236579
1.176095744763468
1.17608998072552
1.176089642353045
1.176090166219596
1.17609189665485
1.176095415437287
1.176101259669262
1.17611008729673
1.176122598006936
1.176139396649639
1.176160954323875
1.176187628926858
1.176219667533394
1.176257180508125
1.176300115906077
1.176348253181299
1.17640121915504
1.176458484063114
1.176519269224823
1.17658242680133
1.17664619821304
1.176706923152296
1.176756659217804
1.17678693341134
1.176798049708061
1.17679939448963
1.176799015593455
1.176798006201525
1.176795609741239
1.17679126359538
1.176784342711255
1.176774085453991
1.176759722740579
1.176740587935213
1.176716144189659
1.176685983225021
1.176649839334774
1.176607611697151
1.176559382944938
1.17650542574206
1.17644622735164
1.176382620475439
1.17631596280187
1.176248469105143
1.176184751856382
1.176134136078538
1.176105511509403
1.176095872686114
1.176094779887524
1.176095214344495
1.176096553643708
1.176099512629394
1.176104550273749
1.176112276486264
1.176123389237872
1.176138528544713
1.176158204236483
1.176182811083381
1.17621264201737
1.17624786868011
1.176288513867813
1.176334438327939
1.1763853484316
1.176440798238945
1.176500122492938
1.176562321603274
1.176625896272738
1.176688004621551
1.176742217056588
1.176779066966125
1.176795718477549
1.176798806975904
1.176798553788664
1.176797695154166
1.17679564403377
1.176791899025357
1.176785883020719
1.176776897432196
1.176764159679639
1.176746953760398
1.176724687624775
1.176696892864879
1.176663233001482
1.176623526885193
1.176577770698552
1.176526149710603
1.176469052391787
1.176407161996404
1.176341644647568
1.176274389005796
1.176209000174987
1.17615317263848
1.176117264053691
1.176102662979358
1.176099986009532
1.17610027848387
1.176101315621083
1.176103822853725
1.176108190603351
1.176114963031656
1.176124812430563
1.176138408784983
1.176156307373854
1.176178943336283
1.176206650060318
1.176239648768799
1.176278024391749
1.176321710014451
1.176370485467759
1.17642398427039
1.176481659097648
1.176542652584772
1.176605626775165
1.176668315398468
1.176725882370854
1.176769201614105
1.176791860533256
1.176798164374079
1.176798449195031
1.176797605322834
1.176795811371516
1.176792515488726
1.176787228067732
1.176779315759334
1.176768014703066
1.176752583539229
1.176732378989619
1.17670686390311
1.176675624442443
1.176638404972722
1.176595129690579
1.176545909482379
1.176491046322647
1.17643108590392
1.176367001672296
1.176300431448425
1.176234220702662
1.176174353682649
1.176131256126071
1.176110729159439
1.176105355490297
1.176105180373886
1.176106069200381
1.176108164531955
1.176111987339756
1.176117954723821
1.176126687902685
1.176138867306684
1.176155090477302
1.176175841451598
1.176201502886853
1.176232346444576
1.176268508810908
1.176309977258976
1.176356589143138
1.176408042868084
1.176463884256622
1.176523395633095
1.176585437786834
1.176648185305892
1.176707929790698
1.17675687580632
1.176786169086374
1.176797099594919
1.176798367668197
1.176797657227877
1.176796119065401
1.176793155622491
1.176788395393568
1.176781327811249
1.176771261546974
1.176757442172595
1.176739173147233
1.176715848943242
1.176686977237005
1.176652218935706
1.176611420869865
1.176564627094895
1.176512074573989
1.176454208255766
1.176391825133494
1.17632631441209
1.17625998441988
1.176197470973184
1.176147938663609
1.176120381288243
1.17611112442338
1.17610992056728
1.176110663057534
1.17611239189384
1.176115798490824
1.176121153622524
1.176128977328982
1.176139907234642
1.176154563313609
1.176173487163541
1.176197136661493
1.176225860412744
1.176259859248219
1.176299168536217
1.176343662586275
1.17639307142267
1.176446995643734
1.176504845758843
1.176565670612649
1.176627932856383
1.176688766993704
1.176742114881995
1.176778555585638
1.176794727867208
1.176798294190438
1.176798068417269
1.176796718223534
1.176794046502704
1.176789668689599
1.17678320700507
1.176774093862656
1.17676164325298
1.176745158301255
1.176723966811636
1.176697460563598
1.176665172457021
1.176626847369703
1.1765824636848
1.176532218692942
1.176476513024618
1.176416017218732
1.176351888036767
1.176286043675235
1.176222071381696
1.176167369127799
1.176132145091326
1.176118044040766
1.17611510359839
1.176115143651118
1.176116568792502
1.176119552489934
1.17612444504627
1.176131610063346
1.176141576127668
1.176154904552676
1.17617213339011
1.176193783198785
1.176220322778363
1.176252086658365
1.176289210657285
1.176331621645119
1.176379060725766
1.176431122321749
1.176487256934575
1.176546639652278
1.176607987479045
1.176669146051624
1.176725453107562
1.176768297745111
1.176790752087668
1.176797679077745
1.176798474929772
1.176797552221097
1.17679534853743
1.176791313410243
1.176785243904784
1.176776745546035
1.176765286597424
1.176750257920447
1.176731004563174
1.17670684983893
1.176677165884103
1.176641485589662
1.176599608327094
1.176551651809917
1.176498024306451
1.176439381007604
1.176376761877701
1.176311822385949
1.176247308671331
1.176188992548677
1.176146760634862
1.176126426398607
1.176120785818775
1.176119947683762
1.176120701679644
1.176123037570954
1.176127383849594
1.176134045240531
1.176143394517079
1.17615582661646
1.176171744154037
1.176191602208321
1.176215930121301
1.176245254851651
1.17627995515352
1.176320138182731
1.176365605569837
1.176415912012501
1.176470461965785
1.176528468813935
1.176588769200049
1.176649621210408
1.176707586530506
1.176755400707236
1.176784834756262
1.176795925091533
1.176797960698247
1.176798121001718
1.17679675196586
1.176793516007417
1.176787974721269
1.176779822207968
1.176768768048728
1.176754515917556
1.176736673415514
1.176714657792671
1.176687713772225
1.176655065232445
1.176616130585812
1.176570713629299
1.176519124657609
1.176462127213929
1.176400852393116
1.176336892413421
1.176272460825936
1.176211866413758
1.176163854018724
1.176136451892024
1.176127101103577
1.176125609061949
1.176125590908613
1.176126974020013
1.176130220118116
1.176135854273223
1.176144438527045
1.176156412300812
1.176171969528871
1.176191132470985
1.176213971886892
1.176240801231612
1.176272248765502
1.176309136299675
1.176352007742111
1.176400444391803
1.176452831363418
1.176508652662151
1.176566952015741
1.176636987559017
)
;

boundaryField
{
    inlet
    {
        type            calculated;
        value           uniform 1.176395950917642;
    }
    outlet
    {
        type            calculated;
        value           uniform 1.176669456031775;
    }
    frontAndBack
    {
        type            empty;
    }
}


// ************************************************************************* //
