/*--------------------------------*- C++ -*----------------------------------*\
| =========                 |                                                 |
| \\      /  F ield         | OpenFOAM: The Open Source CFD Toolbox           |
|  \\    /   O peration     | Version:  v2012                                 |
|   \\  /    A nd           | Website:  www.openfoam.com                      |
|    \\/     M anipulation  |                                                 |
\*---------------------------------------------------------------------------*/
FoamFile
{
    version     2.0;
    format      ascii;
    class       volScalarField;
    location    "0.018";
    object      T;
}
// * * * * * * * * * * * * * * * * * * * * * * * * * * * * * * * * * * * * * //

dimensions      [0 0 0 1 0 0 0];


internalField   nonuniform List<scalar> 
1000
(
299.9859959454972
299.9872631325185
299.9805270889
299.9757621785164
299.9713535230646
299.9675410820543
299.9640661290342
299.9609490849281
299.9582956295822
299.9566064856234
299.9561795550148
299.9564636740851
299.9571510184207
299.9583176806331
299.9602508937677
299.9630443130411
299.9665954901812
299.9707467265298
299.9753689222038
299.9803715164978
299.9856811205963
299.9912222044241
299.9969112595043
300.0026597306633
300.0083770261653
300.0139711023646
300.0193550641076
300.0244652550185
300.0292743044548
300.0337659946608
300.0378084201792
300.0409286454477
300.0425367669177
300.0429046067945
300.0429386381409
300.0427088350433
300.0420258137013
300.040688799169
300.0385415260007
300.0355070473645
300.0316214230868
300.0270180484591
300.0218763357919
300.0163682230089
300.0106292622494
300.0047601372216
299.9988448480494
299.9929670154402
299.9872129187455
299.9816580858037
299.9763466861861
299.9712939548388
299.9665587163424
299.9624272335594
299.9595219803567
299.958225796734
299.957996923949
299.9580516203083
299.958342673611
299.9590254257392
299.9602603304223
299.9621995603621
299.9649479265906
299.9685317506552
299.972887586947
299.9778779104185
299.9833261156684
299.9890552166659
299.9949152092129
300.000792877351
300.006607881539
300.0123042589213
300.0178474003825
300.0232233382262
300.0284137320754
300.0333239968037
300.0376405199602
300.0407070286857
300.0420722887119
300.0423577444639
300.0423918971054
300.0421895495404
300.0416569716103
300.0406400753224
300.038994418856
300.0366017227227
300.0333952040929
300.0293764349947
300.0246210137682
300.0192682847593
300.0134962083748
300.0074895731524
300.0014112508578
299.995383582432
299.9894831131875
299.9837452860497
299.9781770092234
299.972795279322
299.9677255477945
299.9633717155615
299.9604408584194
299.9592185479719
299.9589902049309
299.9590044649198
299.9592362871891
299.9597888538748
299.9607887876913
299.9623656846594
299.9646316345285
299.9676589822949
299.9714634590255
299.975996453711
299.9811484820361
299.9867643184576
299.9926674145834
299.9986884209762
300.0046904680755
300.010583269739
300.0163248556776
300.0219107995848
300.027328981459
300.0324654895572
300.0369761249357
300.0401902359277
300.0416319512865
300.0419593986124
300.0420340092298
300.041889990067
300.0414781932384
300.0406624675725
300.0393179779635
300.0373310722049
300.0346151614102
300.0311253394474
300.0268707681527
300.0219204466243
300.0163984503795
300.0104680986655
300.0043070274245
299.9980783389869
299.9919075346069
299.9858723992057
299.9800088234039
299.9743525182732
299.9690469178101
299.9645048253149
299.9614305889424
299.9601335800603
299.9598661029864
299.9598340031451
299.9600094316264
299.9604560015355
299.9612882633371
299.9626176549652
299.9645494382359
299.9671652358684
299.970509694131
299.9745808906238
299.9793254921479
299.9846406598265
299.9903844617345
299.996395219198
300.002516723419
300.0086209287318
300.0146212271816
300.0204737219179
300.0261419981119
300.0315003785148
300.036210851081
300.0396341131386
300.0412526208866
300.0416522477886
300.0417603793777
300.0416718350178
300.0413587381668
300.0407003205815
300.039582371261
300.0378988050575
300.0355602050093
300.0325037690963
300.028704960008
300.0241864242329
300.0190208599623
300.0133262980555
300.0072526842952
300.0009602324968
299.9945961647072
299.9882784680332
299.9820901833705
299.9761071467817
299.9705023220635
299.9657033737873
299.9624135053621
299.9609819421975
299.9606575704873
299.9605895608119
299.9607179912649
299.9610751779485
299.9617702794037
299.9629035434788
299.9645730222075
299.9668618136646
299.9698270175836
299.9734911924772
299.9778362549905
299.9828008914033
299.9882833681128
299.9941516483324
300.0002610233068
300.0064742116656
300.0126768636638
300.0187865760822
300.0247337979073
300.03037233401
300.0353538301302
300.0390556796946
300.0409147744632
300.0414103904278
300.0415378621739
300.0414997295891
300.0412659142096
300.0407352540813
300.0398005345488
300.0383619123294
300.0363309693685
300.0336369621762
300.030236832596
300.0261241276264
300.0213340613144
300.0159439095033
300.0100673785769
300.0038413616184
299.9974082288993
299.9909009751739
299.9844344874778
299.9781219221828
299.9721679649018
299.9670256002329
299.9634214750453
299.9617796817478
299.9613841067498
299.9612891077088
299.9613725059056
299.961655354281
299.962235924972
299.9632068870123
299.9646595972449
299.9666760151057
299.9693195594925
299.9726272098617
299.9766036697513
299.9812175449665
299.986400596737
299.992052086717
299.9980498425662
300.0042655937735
300.0105780206974
300.0168825264585
300.0230849176416
300.0290244583708
300.0343361130993
300.0383914048786
300.0405727223328
300.0412054169395
300.0413430280495
300.0413518126718
300.0411831809346
300.0407585532967
300.0399779012433
300.038746235672
300.0369763497754
300.034593493146
300.0315438862913
300.0278024739634
300.0233779854553
300.0183154212119
300.0126949143585
300.0066246669928
300.0002289867041
299.9936377659911
299.9869794323653
299.9803889687731
299.9740874772841
299.9685461568284
299.9645320057894
299.9625781001793
299.9620698496249
299.9619584090867
299.9619994314774
299.9622184572455
299.9627003569303
299.9635325118277
299.9648007770708
299.9665847461477
299.9689505578431
299.9719438017039
299.9755843392988
299.9798623697958
299.9847360758855
299.9901325718177
299.9959541629952
300.0020893235575
300.0084227732054
300.0148421332436
300.0212378655091
300.0274465120562
300.0331041108311
300.0375723529738
300.0401741403039
300.0410175303172
300.0411731929168
300.0412224669523
300.041104209693
300.040769619247
300.0401197989058
300.0390654049729
300.0375208731827
300.0354092030492
300.0326699179507
300.0292656167872
300.0251862137674
300.0204520390874
300.0151151714073
300.0092565414459
300.0029782520567
299.9963965378503
299.9896388779708
299.9828487623251
299.9762469800835
299.9702991025529
299.9658026324842
299.9634210275424
299.9627251768022
299.9626042386712
299.9626024248371
299.9627667396513
299.9631618839248
299.9638708604764
299.9649758354663
299.9665549473327
299.9686759081908
299.9713894844184
299.9747253761612
299.9786890102815
299.9832586339356
299.9883843011435
299.9939909607976
299.9999859417036
300.0062663089961
300.0127223240234
300.0192389761673
300.0256600610976
300.0316452753084
300.036555942666
300.0396552723329
300.0408058039469
300.0410108745139
300.0410842365875
300.041010768308
300.04075458604
300.0402197532798
300.0393206106834
300.037974004997
300.0361018215365
300.0336390348542
300.0305399076441
300.0267812277499
300.0223649685474
300.0173206718882
300.0117053085846
300.0055989463377
299.9991003412811
299.9923277590286
299.9854236939995
299.9785959920289
299.9722748831094
299.9672582733062
299.9643389925369
299.9633620522083
299.9632053496308
299.9631701479274
299.9632887552308
299.963607473962
299.9642073795308
299.9651665045931
299.9665621145193
299.968463299357
299.9709246059053
299.973982773073
299.9776543274784
299.9819326535218
299.9867859933208
299.9921585024369
299.9979752099893
300.004147637105
300.0105750160529
300.017143180786
300.0237057630317
300.0299659620603
300.0353107182245
300.0389547250677
300.0405318717517
300.0408433438066
300.0409256221969
300.0408907392433
300.0406997023787
300.0402642767559
300.0395025339129
300.0383335769489
300.0366776003909
300.0344651839236
300.0316444275487
300.0281830220923
300.024069543538
300.0193160296206
300.0139597092961
300.0080611517762
300.0017014144295
299.9949847691773
299.9880452577269
299.9810722205601
299.9744404641812
299.9689061787849
299.9653766048918
299.9639990790529
299.9637509283497
299.9636984647138
299.963778739988
299.9640299242214
299.9645323019529
299.9653599031535
299.9665885338969
299.9682887932136
299.9705185715556
299.9733199186228
299.9767176106712
299.9807167668529
299.9853003257117
299.9904285128694
299.9960418732884
300.0020658752512
300.0084110098804
300.0149688336796
300.0216028787479
300.028067070893
300.0338088405282
300.0380045327116
300.0401106297397
300.0406225960941
300.0407036749853
300.0406993647193
300.0405612742084
300.0402107520781
300.0395692248557
300.0385580407005
300.0370966817525
300.035112164867
300.0325472022577
300.0293620984201
300.0255351885717
300.0210650485348
300.0159730097214
300.0103031295928
300.0041203194596
299.9975131440135
299.9906025947045
299.9835598841112
299.9766981367928
299.9706847560142
299.9664931054095
299.9645787706831
299.9641499042391
299.9640851840841
299.9641322079148
299.9643250570596
299.9647395975058
299.9654463113778
299.9665191245175
299.9680306121721
299.9700423911989
299.9726009795181
299.9757375104214
299.9794664152535
299.9837826555852
299.9886600108295
299.9940525520947
299.9998983566445
300.0061197829774
300.0126181683746
300.0192665337968
300.025861204187
300.0319394124805
300.0366810732338
300.0393863941233
300.0402244946201
300.0403189699331
300.0403393137415
300.040245202473
300.039969772961
300.0394369367219
300.0385730420457
300.0372986767242
300.0355377415439
300.0332279842796
300.0303243721502
300.0267986912783
300.022640440825
300.0178593595003
300.0124867234787
300.0065743080645
300.0001967451055
299.9934613398485
299.9865218515247
299.9796375744106
299.9733683594531
299.9686794828565
299.9662525188072
299.9655713875771
299.9654962972386
299.9655133797864
299.9656603184736
299.9659993708642
299.9665962396838
299.9675211978717
299.9688463131355
299.9706349863794
299.9729365495553
299.9757865171039
299.9792062110109
299.9832001290146
299.9877535508226
299.9928325463641
299.998386789648
300.0043510852558
300.0106397428709
300.0171374233965
300.0236752253104
300.0298978172191
300.0350597523372
300.0383428902042
300.0396210792163
300.0397975020877
300.0398230578303
300.0397611529338
300.0395513951489
300.0391184988582
300.0383949816463
300.0373030700608
300.0357639666932
300.033710483051
300.0310917114259
300.0278720802219
300.024031299747
300.0195667451575
300.014495833572
300.0088561725696
300.0027065202228
299.9961361342595
299.9892789588408
299.982347497806
299.9757843794247
299.9704761252477
299.9673268907651
299.9662146036106
299.9660644299335
299.9660649334482
299.9661706066576
299.9664451799722
299.9669491078403
299.967748769257
299.968916396004
299.9705189460949
299.9726101404956
299.9752299983099
299.9784056547314
299.9821496178333
299.9864570479301
299.9913046077697
299.9966522039516
300.0024448659586
300.0086077977395
300.0150373816194
300.0215880957258
300.0279839378589
300.0335904068968
300.037501929658
300.039331115752
300.0397029063073
300.0397160014172
300.0396786414771
300.0395163323897
300.0391595299213
300.0385443417258
300.0375969084451
300.0362374930614
300.0343938691901
300.0320086160442
300.0290394914628
300.025459002639
300.0212558689232
300.0164373724347
300.0110303539799
300.0050817784701
299.9986664741023
299.991901245904
299.9849669435279
299.9782134767279
299.9723970572472
299.9685476786579
299.9669210129646
299.9666119263501
299.9666010020094
299.9666765348426
299.9668975394881
299.9673228053607
299.9680136571553
299.9690409248917
299.970474291611
299.9723714524245
299.9747764061966
299.9777212343292
299.9812252921361
299.9852922703442
299.9899081578637
299.9950417972875
300.0006468039726
300.0066591578648
300.0129882399957
300.0195040327598
300.0259867609707
300.0319395560015
300.0364599258165
300.0389066725843
300.0395934555241
300.0396278008987
300.0396021898996
300.0394717307316
300.0391784773327
300.0386577789193
300.0378402401509
300.0366460135005
300.0349987004689
300.0328352799095
300.0301075422908
300.0267810984136
300.0228364707083
300.0182716378593
300.0131038757714
300.0073703040308
300.0011324115521
299.9944903221416
299.987602256557
299.9807468575459
299.97453012382
299.969993401239
299.9677565394488
299.9671681866596
299.9671336479236
299.9671871212726
299.9673637535221
299.967722926707
299.9683194615399
299.9692205124888
299.9704974925614
299.9722121314525
299.9744125029196
299.9771351215516
299.9804051850223
299.9842339316602
299.9886160284331
299.993528930651
299.9989345141176
300.004778674412
300.0109819077071
300.017427046008
300.0239346125703
300.0301310988027
300.0352061063704
300.0382951790408
300.0394294341363
300.0395666485815
300.0395279878458
300.0394249953909
300.0391804732074
300.0387370119488
300.0380308309662
300.0369842119633
300.0355186740082
300.0335661856511
300.0310719535075
300.0279942969363
300.0243060763185
300.0199969700907
300.0150753710553
300.009569059934
300.0035277156317
299.9970362722584
299.9902332513738
299.9833446685323
299.9768412951473
299.9716749754118
299.9687532181977
299.9677693576216
299.9676578119214
299.9677021579249
299.9678388644361
299.9681408968333
299.9686551010412
299.9694437284937
299.9705780176366
299.9721232886757
299.9741315700317
299.9766431417059
299.9796878841412
299.9832832925042
299.9874316646626
299.9921187548574
299.9973145587037
300.0029735264113
300.0090277276929
300.0153751193951
300.0218626770059
300.0282003949329
300.0337322174039
300.0374922758972
300.0391913233174
300.0395064579026
300.0394806234006
300.0393930127332
300.0391837272569
300.0388016041975
300.0381877551098
300.037270895324
300.0359711677265
300.0342155051306
300.0319434835989
300.0291072896953
300.0256725653047
300.0216207952638
300.0169515531816
300.0116837028175
300.0058568414705
299.9995406501847
299.9928540954999
299.9859899009058
299.9793160046328
299.9736177925199
299.9699525745028
299.9684622104483
299.9681889646437
299.968218817445
299.9683246800233
299.9685805993413
299.969026424835
299.9697176971432
299.970723034107
299.9721108157781
299.9739377108425
299.9762481213744
299.9790760592023
299.9824440825266
299.9863608333449
299.9908194509475
299.9957974296421
300.0012573295023
300.0071432550018
300.0133676743682
300.0197940220276
300.0261910207392
300.0320651983827
300.036485402153
300.0387974272511
300.0394406405885
300.0394697014729
300.0393835958297
300.0392005492811
300.038864252409
300.0383247453892
300.0375174006338
300.0363642720401
300.0347897065251
300.0327280548801
300.030124491601
300.0269367676753
300.0231387702012
300.0187227298563
300.013699922124
300.0081011185968
300.0019819613066
299.9954417497507
299.9886475998338
299.9818899062071
299.9757794694621
299.9713805107602
299.9692852896681
299.9687367869541
299.9687189113765
299.968809634527
299.9690235088239
299.9694137099331
299.9700228093824
299.9709142122712
299.9721573655972
299.9738132529724
299.9759312689862
299.9785504561099
299.9816985226909
299.9853893953941
299.9896217462646
299.9943789423863
299.9996301671809
300.0053290314306
300.011402257291
300.0177335567699
300.0241366324255
300.0302330678361
300.0352274595327
300.0382164430839
300.0393317418977
300.039461129051
300.0393886381888
300.0392316907262
300.038929314518
300.0384436008091
300.0377224504817
300.0366953189651
300.0352852208462
300.0334210738438
300.0310410777429
300.0280949775724
300.0245481471985
300.0203849254013
300.0156097702105
300.0102468205163
300.0043414378366
299.9979749123753
299.9912889816447
299.984519208201
299.9781387432756
299.9730830482768
299.9702702420732
299.9693253763546
299.9692024953936
299.9692782814607
299.969454745416
299.9698024614081
299.9703490659045
299.9711476369107
299.9722632528841
299.9737591882603
299.9756907143292
299.9781045530064
299.981036268155
299.9845063354666
299.9885183375919
299.9930594148724
299.9981019790706
300.0036052319798
300.0095089770384
300.0157161143805
300.0220697362893
300.0282774271487
300.0337210330447
300.0374393389985
300.0390894880682
300.0394533779576
300.0394303397203
300.0392925701585
300.0390199585163
300.0385732642052
300.0379139376138
300.0369840609311
300.0357136310576
300.0340315332958
300.0318691669769
300.0291644537779
300.0258697083961
300.0219588686676
300.0174296932732
300.0123022741982
300.0066174511151
300.0004436086867
299.993898758732
299.9871786390372
299.9806493635767
299.9750660477052
299.9714707302381
299.9700314164651
299.9697312803139
299.9697353677135
299.9698808327833
299.9701853822773
299.9706847706452
299.9714161084202
299.9724333449238
299.9737937679038
299.9755522880092
299.9777620268063
299.9804708183123
299.9837127865647
299.9875017684603
299.9918302700473
299.9966718347046
300.0019850346793
300.0077137552711
300.0137737789245
300.0200341502432
300.0262750119385
300.032020627547
300.0363924078401
300.0386835607383
300.0393903580855
300.0394715621857
300.0393774119287
300.0391525562982
300.0387408278499
300.0381215179064
300.037254372597
300.0360851310471
300.0345516323462
300.0325870376227
300.0301222854368
300.0270932896546
300.0234523597365
300.019178989417
300.0142851509864
300.0088124635701
300.0028277451063
299.9964370857459
299.9898094043898
299.9832249576757
299.9772728594808
299.9729622921666
299.9708867611472
299.9703110189791
299.9702254685632
299.9703024285312
299.9705408539024
299.9709844813616
299.9716644122703
299.9726186922785
299.9738876277407
299.9755123065331
299.9775391685251
299.9800222295254
299.9830152566281
299.9865568838687
299.9906580187258
299.9952983818696
300.0004324906336
300.0059995305155
300.0119191918339
300.0180727272723
300.0242823651071
300.0301972517742
300.0350761636948
300.0380795337397
300.039211167959
300.0394188947609
300.0394352791798
300.0392956284172
300.038965475295
300.0384000675816
300.0375681815344
300.0364401635184
300.0349857552379
300.033164902278
300.0309181423371
300.0281684294668
300.0248366070944
300.0208633705088
300.0162287337185
300.0109644029409
300.005148360585
299.9988961057928
299.9923701615655
299.9857963571264
299.9796141559923
299.9747156266076
299.971919743546
299.9709651477467
299.9708122534277
299.9708078460071
299.9709424528706
299.9712629785205
299.971822178269
299.9726776163241
299.9738774306151
299.9754474476543
299.9773928537941
299.9797133225486
299.9824264435371
299.9855958791041
299.9893411799208
299.9937921635157
299.9990037307033
300.0048560066587
300.011010620643
300.0166415849522
300.0223109730525
)
;

boundaryField
{
    inlet
    {
        type            fixedValue;
        value           uniform 300;
    }
    outlet
    {
        type            temperatureOutletNSCBC;
        pInf            101325;
        gamma           1.4;
        etaAc           1;
        fieldInf        1;
        lInf            2.25;
        value           uniform 300.0250706091495;
    }
    frontAndBack
    {
        type            empty;
    }
}


// ************************************************************************* //
