/*--------------------------------*- C++ -*----------------------------------*\
| =========                 |                                                 |
| \\      /  F ield         | OpenFOAM: The Open Source CFD Toolbox           |
|  \\    /   O peration     | Version:  v2012                                 |
|   \\  /    A nd           | Website:  www.openfoam.com                      |
|    \\/     M anipulation  |                                                 |
\*---------------------------------------------------------------------------*/
FoamFile
{
    version     2.0;
    format      ascii;
    class       volVectorField;
    location    "0.018";
    object      U;
}
// * * * * * * * * * * * * * * * * * * * * * * * * * * * * * * * * * * * * * //

dimensions      [0 1 -1 0 0 0 0];


internalField   nonuniform List<vector> 
1000
(
(-0.007382087047800684 0 0)
(-0.03899018701538414 0 0)
(-0.0468167759331779 0 0)
(-0.06210687194629287 0 0)
(-0.07614131994803131 0 0)
(-0.08899370506276619 0 0)
(-0.09990731077491818 0 0)
(-0.109286409450145 0 0)
(-0.1173102319476888 0 0)
(-0.122841612265968 0 0)
(-0.1246551487789421 0 0)
(-0.1246176463230506 0 0)
(-0.123842596055234 0 0)
(-0.1213824088235438 0 0)
(-0.1165876400547141 0 0)
(-0.1092974667266887 0 0)
(-0.09977622596269982 0 0)
(-0.08843299141859098 0 0)
(-0.07561904009805948 0 0)
(-0.06159021333596525 0 0)
(-0.04656348461220752 0 0)
(-0.03077416634208862 0 0)
(-0.01449654750721 0 0)
(0.001966113127268873 0 0)
(0.01830076727574812 0 0)
(0.03420027682335144 0 0)
(0.04939209126025249 0 0)
(0.06368949089593756 0 0)
(0.07702266751590077 0 0)
(0.08938030854657938 0 0)
(0.1004355489231198 0 0)
(0.1088029135804583 0 0)
(0.1128573275967685 0 0)
(0.1136321128879832 0 0)
(0.1133564076434257 0 0)
(0.1126407600520223 0 0)
(0.1107983241650365 0 0)
(0.1072466263797317 0 0)
(0.1014814067992546 0 0)
(0.09324340972016787 0 0)
(0.0826045932273626 0 0)
(0.06992029110042633 0 0)
(0.0556857757624879 0 0)
(0.04038360014602742 0 0)
(0.02439975527999763 0 0)
(0.008026545077756558 0 0)
(-0.008487127123053488 0 0)
(-0.02489096049437401 0 0)
(-0.0409271566312279 0 0)
(-0.05637376427737945 0 0)
(-0.07110627167817736 0 0)
(-0.08508531739139302 0 0)
(-0.0981631035684879 0 0)
(-0.1095719299116269 0 0)
(-0.1175104799831302 0 0)
(-0.1208663438472972 0 0)
(-0.1213575092172153 0 0)
(-0.1211970019813633 0 0)
(-0.1205680836387653 0 0)
(-0.1189829367094205 0 0)
(-0.1159338698621245 0 0)
(-0.1109466401815868 0 0)
(-0.1036769921830668 0 0)
(-0.09401123117897012 0 0)
(-0.08210059217254403 0 0)
(-0.06831765327464347 0 0)
(-0.05315699866312721 0 0)
(-0.03712489743594397 0 0)
(-0.02066048216197029 0 0)
(-0.004105770377359324 0 0)
(0.01228608205126859 0 0)
(0.02833031218713231 0 0)
(0.0439072115620522 0 0)
(0.05896331171642747 0 0)
(0.07343937441261775 0 0)
(0.0870759773145211 0 0)
(0.09899484886307766 0 0)
(0.107283166462104 0 0)
(0.1107182651743722 0 0)
(0.1112748844616882 0 0)
(0.1109459807991143 0 0)
(0.1103173920237115 0 0)
(0.1088720949613381 0 0)
(0.1061980635705502 0 0)
(0.1018476711283304 0 0)
(0.09544186508350772 0 0)
(0.08675113189556442 0 0)
(0.07574818933973701 0 0)
(0.06262592219975256 0 0)
(0.04776873900202094 0 0)
(0.03168071174025886 0 0)
(0.01489373361269791 0 0)
(-0.002116510915294782 0 0)
(-0.01898650905392966 0 0)
(-0.03548360733567355 0 0)
(-0.05149697204934657 0 0)
(-0.06700326404104824 0 0)
(-0.08195364112747665 0 0)
(-0.09600480325908659 0 0)
(-0.1080314458855357 0 0)
(-0.1159781446722917 0 0)
(-0.1190552581795195 0 0)
(-0.1195042419456384 0 0)
(-0.1192711939403698 0 0)
(-0.1187197715387549 0 0)
(-0.1174174273429537 0 0)
(-0.1149861372387952 0 0)
(-0.1110166388738503 0 0)
(-0.1051423357245408 0 0)
(-0.0971122344234394 0 0)
(-0.08684225698756984 0 0)
(-0.07443999115803918 0 0)
(-0.06019713891983185 0 0)
(-0.04454809993547496 0 0)
(-0.02800046509477927 0 0)
(-0.01105170104551433 0 0)
(0.005885871110161325 0 0)
(0.02252806158222002 0 0)
(0.038727717508304 0 0)
(0.05444905384000276 0 0)
(0.0696432703370557 0 0)
(0.08398576834284538 0 0)
(0.09648777816017341 0 0)
(0.1052038861207547 0 0)
(0.108862728593616 0 0)
(0.1094731308857195 0 0)
(0.1091781817063209 0 0)
(0.1086088622609807 0 0)
(0.1074014095764934 0 0)
(0.1052135912008937 0 0)
(0.101662449151954 0 0)
(0.09638765999526255 0 0)
(0.0891014361203404 0 0)
(0.07963728273655814 0 0)
(0.06798907956955984 0 0)
(0.05432980524544897 0 0)
(0.03899938891153637 0 0)
(0.02245996568739923 0 0)
(0.005223862283179534 0 0)
(-0.0122311138369351 0 0)
(-0.02953119537983102 0 0)
(-0.04643972783622622 0 0)
(-0.06284248598984073 0 0)
(-0.0786300899224207 0 0)
(-0.0934007110706097 0 0)
(-0.1059790015612641 0 0)
(-0.1143102941935382 0 0)
(-0.1175899416675566 0 0)
(-0.1181244421955969 0 0)
(-0.1178554639272182 0 0)
(-0.1173757090425703 0 0)
(-0.1162667054159051 0 0)
(-0.114230716156974 0 0)
(-0.1109149669465133 0 0)
(-0.105975963608751 0 0)
(-0.09913559360674983 0 0)
(-0.09022286080795157 0 0)
(-0.07920428916323637 0 0)
(-0.06620104953413677 0 0)
(-0.0514863768120149 0 0)
(-0.03545746608379424 0 0)
(-0.01858050886508958 0 0)
(-0.001317515040807593 0 0)
(0.01594147187858607 0 0)
(0.0329207531043333 0 0)
(0.04946637201808526 0 0)
(0.06544957919080011 0 0)
(0.0804957848986507 0 0)
(0.09361894922484307 0 0)
(0.1029737065023263 0 0)
(0.1071505617758876 0 0)
(0.1079041294849874 0 0)
(0.1076939195068667 0 0)
(0.1071601781676417 0 0)
(0.1061233783113329 0 0)
(0.1042762087718689 0 0)
(0.1012831565471512 0 0)
(0.09681776194158538 0 0)
(0.09058637534653786 0 0)
(0.0823676739790183 0 0)
(0.07205269308260058 0 0)
(0.05967360286219324 0 0)
(0.04541380741487797 0 0)
(0.02959597845023423 0 0)
(0.012644353855218 0 0)
(-0.00497792868340795 0 0)
(-0.02283789225610027 0 0)
(-0.04058289577825965 0 0)
(-0.05795936857984334 0 0)
(-0.07473664294694589 0 0)
(-0.09041530441452522 0 0)
(-0.1037572761520803 0 0)
(-0.1127240045816833 0 0)
(-0.1164001431301242 0 0)
(-0.1170337210329341 0 0)
(-0.1167947020171452 0 0)
(-0.1163395739960982 0 0)
(-0.1153697293301651 0 0)
(-0.113622452164637 0 0)
(-0.1107867222945073 0 0)
(-0.1065486381848634 0 0)
(-0.100628754958772 0 0)
(-0.09281921522604787 0 0)
(-0.08301180603905392 0 0)
(-0.07121903348353437 0 0)
(-0.05758511903972449 0 0)
(-0.04238085816141583 0 0)
(-0.02597641073128506 0 0)
(-0.00879109994589476 0 0)
(0.008765431017112768 0 0)
(0.02634001771218354 0 0)
(0.04366531308364775 0 0)
(0.06051157835007251 0 0)
(0.07643385900172864 0 0)
(0.09040252944262422 0 0)
(0.1006176493364143 0 0)
(0.1055097395421076 0 0)
(0.1065008653326298 0 0)
(0.1063868312043652 0 0)
(0.1058756313827214 0 0)
(0.1049687904498244 0 0)
(0.1033721692461864 0 0)
(0.1007962621728339 0 0)
(0.0969476453638122 0 0)
(0.09154358233716479 0 0)
(0.08434174866975364 0 0)
(0.07517755680978343 0 0)
(0.06399396319459905 0 0)
(0.05085851898974072 0 0)
(0.03596713232931242 0 0)
(0.01963007259195756 0 0)
(0.002234747000285761 0 0)
(-0.01580623890511817 0 0)
(-0.03410012541332918 0 0)
(-0.05230113706826196 0 0)
(-0.07006770786261494 0 0)
(-0.08679908000590185 0 0)
(-0.1011705964562522 0 0)
(-0.1110803295228918 0 0)
(-0.1153770574367006 0 0)
(-0.1161660407986193 0 0)
(-0.1159999512074947 0 0)
(-0.1155595626418187 0 0)
(-0.1146914639957956 0 0)
(-0.1131551824071878 0 0)
(-0.1106796530310206 0 0)
(-0.1069836872912439 0 0)
(-0.1017978862228645 0 0)
(-0.09489869006732168 0 0)
(-0.08613542982813931 0 0)
(-0.07545045450679541 0 0)
(-0.0628940494553189 0 0)
(-0.04863064204489874 0 0)
(-0.03292926873626564 0 0)
(-0.01613314059317964 0 0)
(0.001384355510941874 0 0)
(0.01925767355889909 0 0)
(0.03715887914240774 0 0)
(0.05478445518634718 0 0)
(0.07163741570794753 0 0)
(0.08663139281181255 0 0)
(0.09794396172104149 0 0)
(0.1038094871969869 0 0)
(0.1051782765923874 0 0)
(0.1051771202293576 0 0)
(0.1046919047170314 0 0)
(0.1039005592736397 0 0)
(0.1024994351495841 0 0)
(0.1002479723716056 0 0)
(0.09688437636425073 0 0)
(0.09214450152170355 0 0)
(0.08578263234562966 0 0)
(0.07760465069510951 0 0)
(0.0674968413605142 0 0)
(0.05544454744983881 0 0)
(0.04154271416265887 0 0)
(0.02599571900631538 0 0)
(0.009098781104611712 0 0)
(-0.008796620041454326 0 0)
(-0.02731360890372424 0 0)
(-0.04607071488055994 0 0)
(-0.06466311806649183 0 0)
(-0.08243619546820395 0 0)
(-0.09800476013955771 0 0)
(-0.1091508830481368 0 0)
(-0.1143772805202092 0 0)
(-0.1154626345746027 0 0)
(-0.1153895235414874 0 0)
(-0.1149732889070738 0 0)
(-0.1142004052451362 0 0)
(-0.1128369879547898 0 0)
(-0.110647346149894 0 0)
(-0.1073808120365672 0 0)
(-0.1027858652855573 0 0)
(-0.09663891205527997 0 0)
(-0.08876862501436414 0 0)
(-0.07907323441293433 0 0)
(-0.06753565082850359 0 0)
(-0.05423551784708472 0 0)
(-0.03935100693628286 0 0)
(-0.02314334427701202 0 0)
(-0.00592635417701373 0 0)
(0.01196204167830673 0 0)
(0.03017964088942161 0 0)
(0.04838202061982465 0 0)
(0.06605971777515837 0 0)
(0.0821230500936919 0 0)
(0.09470897429311573 0 0)
(0.1018404128216592 0 0)
(0.1038488307231274 0 0)
(0.1039701663556319 0 0)
(0.1035590301927061 0 0)
(0.1028631768788285 0 0)
(0.1016265789551559 0 0)
(0.09963246380907416 0 0)
(0.09665405744577023 0 0)
(0.09245288303482757 0 0)
(0.08678976540523566 0 0)
(0.07945586825447926 0 0)
(0.07030161045131122 0 0)
(0.05925522453486356 0 0)
(0.0463350465921584 0 0)
(0.03165635231185183 0 0)
(0.01542578135974371 0 0)
(-0.002079076306832398 0 0)
(-0.0205289892629451 0 0)
(-0.0395519162717583 0 0)
(-0.05872288053336162 0 0)
(-0.0773858929825081 0 0)
(-0.09416922182445119 0 0)
(-0.1067660642035363 0 0)
(-0.1132638366454831 0 0)
(-0.1148701511548672 0 0)
(-0.1149225654294492 0 0)
(-0.1145452352748629 0 0)
(-0.1138732578720312 0 0)
(-0.1126619548470469 0 0)
(-0.1107127901228329 0 0)
(-0.1078017725545087 0 0)
(-0.10369631146273 0 0)
(-0.09817873256010988 0 0)
(-0.09106960094216697 0 0)
(-0.08224265811322433 0 0)
(-0.07163691662965051 0 0)
(-0.05926914594290335 0 0)
(-0.04524199073896469 0 0)
(-0.02973992801956626 0 0)
(-0.01301059370470242 0 0)
(0.004655483310709442 0 0)
(0.02293442349971075 0 0)
(0.041473173973771 0 0)
(0.05978675612201213 0 0)
(0.07685409980699746 0 0)
(0.09079332442378645 0 0)
(0.0994298415431735 0 0)
(0.1023960353504447 0 0)
(0.1026985024893069 0 0)
(0.1023984102751995 0 0)
(0.1017914585673262 0 0)
(0.1007126036937982 0 0)
(0.09894877725261478 0 0)
(0.0962977050673381 0 0)
(0.0925458175975927 0 0)
(0.08746722674544878 0 0)
(0.08085186905031347 0 0)
(0.07253219338475189 0 0)
(0.0623993697097051 0 0)
(0.05041532112559687 0 0)
(0.03662344767919647 0 0)
(0.02115212219114719 0 0)
(0.004205437956201121 0 0)
(-0.01394746089841143 0 0)
(-0.03297041001004243 0 0)
(-0.0524480877229103 0 0)
(-0.07176363032384471 0 0)
(-0.08965207242344421 0 0)
(-0.1037982407868704 0 0)
(-0.1118729344368497 0 0)
(-0.1143311050896526 0 0)
(-0.1145518414790087 0 0)
(-0.1142427279174007 0 0)
(-0.1136745590898184 0 0)
(-0.1126091047020423 0 0)
(-0.1108724428603925 0 0)
(-0.1082665844555757 0 0)
(-0.1045774741657048 0 0)
(-0.09959607510039369 0 0)
(-0.09314178128128932 0 0)
(-0.08507576152227229 0 0)
(-0.07530951580756373 0 0)
(-0.06381555700253473 0 0)
(-0.05063817856210243 0 0)
(-0.03589664573527892 0 0)
(-0.01977553627756672 0 0)
(-0.002511210604818251 0 0)
(0.01561029121419017 0 0)
(0.03424985145108533 0 0)
(0.05296172731362177 0 0)
(0.07085445788085074 0 0)
(0.08610671188729435 0 0)
(0.09639678746059693 0 0)
(0.1006826531980797 0 0)
(0.1013228599719325 0 0)
(0.1011481825314489 0 0)
(0.1006383813320154 0 0)
(0.0997185988819933 0 0)
(0.09816740996708335 0 0)
(0.09580150533368972 0 0)
(0.09243107577661018 0 0)
(0.08784845464085522 0 0)
(0.08184977049487592 0 0)
(0.07425920956494081 0 0)
(0.06494433755498662 0 0)
(0.05382793981088046 0 0)
(0.0408997518640435 0 0)
(0.02622444408173191 0 0)
(0.009940105833357159 0 0)
(-0.007746031892999514 0 0)
(-0.0265480140906367 0 0)
(-0.04608199266581452 0 0)
(-0.06579243345660803 0 0)
(-0.08458436932055351 0 0)
(-0.1002498682400558 0 0)
(-0.1101211654545268 0 0)
(-0.1138025765327099 0 0)
(-0.1143100378699486 0 0)
(-0.1140972484699252 0 0)
(-0.1136311791724467 0 0)
(-0.1127203615685626 0 0)
(-0.1111905679252815 0 0)
(-0.1088633099539453 0 0)
(-0.105542181004896 0 0)
(-0.1010284812288008 0 0)
(-0.09514542162624878 0 0)
(-0.08774972324200901 0 0)
(-0.07873681946186739 0 0)
(-0.06804936472880319 0 0)
(-0.05568846155763672 0 0)
(-0.0417208867544839 0 0)
(-0.02627643657559044 0 0)
(-0.009539332580054729 0 0)
(0.008250565337390246 0 0)
(0.02678497255813674 0 0)
(0.04565779025768479 0 0)
(0.06413011513879892 0 0)
(0.08056143090566582 0 0)
(0.09252675833156311 0 0)
(0.09842969870011749 0 0)
(0.09967910894013313 0 0)
(0.09963889840839171 0 0)
(0.09923642724919837 0 0)
(0.09847391962515599 0 0)
(0.09712301504177581 0 0)
(0.09501613445255459 0 0)
(0.09198303546194629 0 0)
(0.08783186138623482 0 0)
(0.08236651423399151 0 0)
(0.07541050360353967 0 0)
(0.06682022473596737 0 0)
(0.05649376936809035 0 0)
(0.0443818232973623 0 0)
(0.03049875889695528 0 0)
(0.01492748520054472 0 0)
(-0.002181224687043891 0 0)
(-0.02059766253828725 0 0)
(-0.03998543939462396 0 0)
(-0.05985193004815875 0 0)
(-0.07928799459580288 0 0)
(-0.09633713464316677 0 0)
(-0.1081538477090692 0 0)
(-0.1134425563969028 0 0)
(-0.114476603925798 0 0)
(-0.1143869151953765 0 0)
(-0.114027545362958 0 0)
(-0.1132782428417659 0 0)
(-0.1119570264857954 0 0)
(-0.1098985616997302 0 0)
(-0.106922873653779 0 0)
(-0.1028399155525484 0 0)
(-0.09747560754540267 0 0)
(-0.0906853767192999 0 0)
(-0.08235688755401938 0 0)
(-0.07241477544060086 0 0)
(-0.06083001028601167 0 0)
(-0.04762887670990511 0 0)
(-0.03289540344530682 0 0)
(-0.01676656673076942 0 0)
(0.0005647479592959184 0 0)
(0.01883030218789936 0 0)
(0.03766471242358296 0 0)
(0.05646768389541735 0 0)
(0.07387144223640053 0 0)
(0.08746477089730284 0 0)
(0.09516582527445253 0 0)
(0.09741700748270256 0 0)
(0.09754788196378487 0 0)
(0.09727014618576411 0 0)
(0.09667325119838428 0 0)
(0.0955333763291622 0 0)
(0.09368967815141985 0 0)
(0.0909874505822284 0 0)
(0.0872501101280566 0 0)
(0.08229419929348479 0 0)
(0.07595137209989775 0 0)
(0.06807750304050109 0 0)
(0.05855838017002689 0 0)
(0.04732060198066063 0 0)
(0.03434431519984756 0 0)
(0.01967111189251342 0 0)
(0.003405761588270338 0 0)
(-0.01427223510544771 0 0)
(-0.03307725655006008 0 0)
(-0.05257970764279522 0 0)
(-0.07203131409509328 0 0)
(-0.08979112543895917 0 0)
(-0.103060424793087 0 0)
(-0.1098636851566812 0 0)
(-0.1116120049747497 0 0)
(-0.1116689936227458 0 0)
(-0.1114182745433283 0 0)
(-0.1108248812733267 0 0)
(-0.1097091053390498 0 0)
(-0.1079179324478092 0 0)
(-0.10528696333286 0 0)
(-0.1016380466846224 0 0)
(-0.09680449352042636 0 0)
(-0.09064663796890965 0 0)
(-0.08305232142955049 0 0)
(-0.07393780198208227 0 0)
(-0.06325513005680171 0 0)
(-0.05100144625963481 0 0)
(-0.03722395320828244 0 0)
(-0.02201822848946099 0 0)
(-0.005531420691786444 0 0)
(0.01201773276020427 0 0)
(0.03031537549351368 0 0)
(0.0488766133865828 0 0)
(0.06665047045288658 0 0)
(0.08144948696572363 0 0)
(0.09086648920027884 0 0)
(0.09449442668182835 0 0)
(0.09493861489240699 0 0)
(0.09477849227084234 0 0)
(0.09435230607724771 0 0)
(0.09343171454276426 0 0)
(0.09186084326430484 0 0)
(0.0894976240067081 0 0)
(0.08618014687166728 0 0)
(0.08173432380619469 0 0)
(0.07599702833607645 0 0)
(0.06882443060314027 0 0)
(0.06009422719622418 0 0)
(0.04971339203781935 0 0)
(0.03763034782420843 0 0)
(0.02384536608899354 0 0)
(0.008415813319355359 0 0)
(-0.008534362994909579 0 0)
(-0.02678328233729056 0 0)
(-0.04596880890461438 0 0)
(-0.06548387502428009 0 0)
(-0.08404566494318169 0 0)
(-0.0990939423428687 0 0)
(-0.1079704171009362 0 0)
(-0.1109920752576874 0 0)
(-0.1113334780448534 0 0)
(-0.1111731656940075 0 0)
(-0.110745974181047 0 0)
(-0.1098367508783458 0 0)
(-0.1082991318480498 0 0)
(-0.1059784150910507 0 0)
(-0.1027011262550808 0 0)
(-0.09830103151885854 0 0)
(-0.09263878426641167 0 0)
(-0.08560226170815113 0 0)
(-0.0771033188494489 0 0)
(-0.06708213181674036 0 0)
(-0.05551580949756271 0 0)
(-0.04242479130820011 0 0)
(-0.02787362438710598 0 0)
(-0.01197182450355352 0 0)
(0.005108257876556031 0 0)
(0.02309850454786649 0 0)
(0.04158685533409167 0 0)
(0.05977296640024893 0 0)
(0.07581898875921646 0 0)
(0.08706553553066436 0 0)
(0.09233275356227927 0 0)
(0.09339087318724114 0 0)
(0.0933598615048261 0 0)
(0.09308356141826254 0 0)
(0.09237051606422779 0 0)
(0.09104610887774189 0 0)
(0.08897374986537936 0 0)
(0.08600035472712121 0 0)
(0.08195609467929055 0 0)
(0.07668235099035331 0 0)
(0.07004133319527761 0 0)
(0.06191170705431145 0 0)
(0.05219099579189528 0 0)
(0.0408081291624595 0 0)
(0.02773660631454111 0 0)
(0.01300162501971975 0 0)
(-0.003313566132932649 0 0)
(-0.02104016417674009 0 0)
(-0.03987519219714515 0 0)
(-0.05931485330764105 0 0)
(-0.07836480122396917 0 0)
(-0.09483470258424453 0 0)
(-0.1056995206045929 0 0)
(-0.1102299817372807 0 0)
(-0.1110596190246621 0 0)
(-0.1109829178341649 0 0)
(-0.1107018264658552 0 0)
(-0.1099913004116125 0 0)
(-0.1086948207922196 0 0)
(-0.1066662633806814 0 0)
(-0.1037363931825332 0 0)
(-0.09973825963111109 0 0)
(-0.09453110112976662 0 0)
(-0.08800245421434524 0 0)
(-0.08006232619609954 0 0)
(-0.07064454963505616 0 0)
(-0.05971381908263285 0 0)
(-0.04727220706159468 0 0)
(-0.0333612748695539 0 0)
(-0.01806147822064956 0 0)
(-0.00150706791870408 0 0)
(0.01607768380824377 0 0)
(0.03434517328781274 0 0)
(0.05268716546405022 0 0)
(0.06965922763963957 0 0)
(0.08260128883031118 0 0)
(0.08964564237032584 0 0)
(0.09168972562237124 0 0)
(0.09184259518259706 0 0)
(0.09168689673893694 0 0)
(0.09118053256759277 0 0)
(0.09010382234606816 0 0)
(0.08832315239857814 0 0)
(0.08568875081861511 0 0)
(0.08203548122930449 0 0)
(0.0772064602347089 0 0)
(0.07106672700419925 0 0)
(0.06349727852497496 0 0)
(0.05439263675387754 0 0)
(0.04367060001565799 0 0)
(0.03128553471919342 0 0)
(0.01723763570089378 0 0)
(0.001578403848115813 0 0)
(-0.01556931011427692 0 0)
(-0.03396135530463681 0 0)
(-0.05317716350505292 0 0)
(-0.07243715491285153 0 0)
(-0.08997868342421934 0 0)
(-0.1027831550715355 0 0)
(-0.1090853781130133 0 0)
(-0.1106956433396175 0 0)
(-0.1107308132884221 0 0)
(-0.1105825441964891 0 0)
(-0.110053505302231 0 0)
(-0.1089879624225901 0 0)
(-0.1072420053997945 0 0)
(-0.1046515554445665 0 0)
(-0.1010461507177399 0 0)
(-0.09627978656763056 0 0)
(-0.09023780483269951 0 0)
(-0.08282873313162577 0 0)
(-0.07398181126663583 0 0)
(-0.06365281764504371 0 0)
(-0.0518308938712306 0 0)
(-0.03854134085439992 0 0)
(-0.0238448964049815 0 0)
(-0.007846218704691033 0 0)
(0.009275259551618944 0 0)
(0.02722894283859303 0 0)
(0.04552272668657881 0 0)
(0.06306922699368078 0 0)
(0.07753190753002798 0 0)
(0.0864294563731029 0 0)
(0.0897746756583499 0 0)
(0.09021451160637542 0 0)
(0.09020743438864486 0 0)
(0.08988481723086889 0 0)
(0.08905208747600234 0 0)
(0.08755897185531578 0 0)
(0.08525986847779521 0 0)
(0.0819909692002966 0 0)
(0.07759205943236275 0 0)
(0.07192830412898647 0 0)
(0.06488564470636139 0 0)
(0.05636085121392295 0 0)
(0.04626530955068684 0 0)
(0.03453904865566694 0 0)
(0.02116296347080135 0 0)
(0.006164583051340226 0 0)
(-0.010369318171503 0 0)
(-0.0282497270846107 0 0)
(-0.04712750787437851 0 0)
(-0.06637770655798621 0 0)
(-0.08465029445353449 0 0)
(-0.09922464519204029 0 0)
(-0.1074602043578379 0 0)
(-0.1101721729396572 0 0)
(-0.1104449370845759 0 0)
(-0.1103987219784218 0 0)
(-0.11003369657754 0 0)
(-0.109191674672787 0 0)
(-0.1077171358040907 0 0)
(-0.1054532599786552 0 0)
(-0.1022276950386232 0 0)
(-0.0978882506545983 0 0)
(-0.09231635536446958 0 0)
(-0.08541818565631042 0 0)
(-0.07711874580949456 0 0)
(-0.06736648976404352 0 0)
(-0.05614034461192995 0 0)
(-0.04345355185848135 0 0)
(-0.02935343765196011 0 0)
(-0.0139227767674226 0 0)
(0.002697005416094361 0 0)
(0.02025896416778879 0 0)
(0.03835493193677643 0 0)
(0.05618774045527378 0 0)
(0.07188834198561742 0 0)
(0.0826200257910526 0 0)
(0.08751223960841953 0 0)
(0.08851806002043464 0 0)
(0.0886494569712547 0 0)
(0.08847092862655041 0 0)
(0.08787931542189034 0 0)
(0.086666824616748 0 0)
(0.08469253968438324 0 0)
(0.08179640800103247 0 0)
(0.07781546666502676 0 0)
(0.07261214698617252 0 0)
(0.06607409361558393 0 0)
(0.05810012286273437 0 0)
(0.048599009195543 0 0)
(0.03750160859652517 0 0)
(0.0247741930082628 0 0)
(0.010426641177508 0 0)
(-0.005480878142760536 0 0)
(-0.02280727129222894 0 0)
(-0.04126316863150644 0 0)
(-0.0603341889547727 0 0)
(-0.07900419082001087 0 0)
(-0.0950270287494154 0 0)
(-0.1053096082811563 0 0)
(-0.1094414292800616 0 0)
(-0.1101911415839897 0 0)
(-0.1102154213029071 0 0)
(-0.109997029322902 0 0)
(-0.1093605560819643 0 0)
(-0.1081379729872333 0 0)
(-0.1061807639054557 0 0)
(-0.1033164721800974 0 0)
(-0.09938691821976238 0 0)
(-0.09426859515346073 0 0)
(-0.08786504176667526 0 0)
(-0.08009677006099 0 0)
(-0.07090399125546092 0 0)
(-0.06025507539787853 0 0)
(-0.04815215450489223 0 0)
(-0.03463159469838539 0 0)
(-0.01976260832765751 0 0)
(-0.003661931172522574 0 0)
(0.013465046501011 0 0)
(0.0312799182851962 0 0)
(0.04916583032520607 0 0)
(0.06570156661125247 0 0)
(0.07819024270632106 0 0)
(0.08479295690277909 0 0)
(0.08676572554041183 0 0)
(0.08697469290662167 0 0)
(0.08696299400696988 0 0)
(0.08658075325797579 0 0)
(0.08563832206344707 0 0)
(0.08398376019428284 0 0)
(0.08145300100790785 0 0)
(0.07788025040052404 0 0)
(0.07312269570082081 0 0)
(0.06706767027845133 0 0)
(0.05961917743691219 0 0)
(0.05068870355415458 0 0)
(0.04020089875222508 0 0)
(0.0281080469711386 0 0)
(0.01440292323159325 0 0)
(-0.0008745873370845396 0 0)
(-0.01761724637260429 0 0)
(-0.03559222263669593 0 0)
(-0.05437600074399882 0 0)
(-0.07318129577561325 0 0)
(-0.09025228973724 0 0)
(-0.1025327549759013 0 0)
(-0.1083676628033589 0 0)
(-0.1098954201706904 0 0)
(-0.1099429942577308 0 0)
(-0.1098892097248061 0 0)
(-0.1094439006069724 0 0)
(-0.108467251525411 0 0)
(-0.1068081440775373 0 0)
(-0.1042917991465413 0 0)
(-0.1007534199116517 0 0)
(-0.09606622410913065 0 0)
(-0.09013473736765634 0 0)
(-0.08287922705456899 0 0)
(-0.07423405734247843 0 0)
(-0.06415615207486532 0 0)
(-0.05263294554572669 0 0)
(-0.03968668978956572 0 0)
(-0.02537526946676442 0 0)
(-0.009797458928642408 0 0)
(0.006877040007569464 0 0)
(0.02435596164164361 0 0)
(0.04213357055040082 0 0)
(0.05915934474801107 0 0)
(0.07320151823079706 0 0)
(0.08164225351051455 0 0)
(0.08480609516807339 0 0)
(0.08524879536905459 0 0)
(0.08538374738830475 0 0)
(0.08517283052775149 0 0)
(0.08450180884251424 0 0)
(0.08316532356420886 0 0)
(0.08099937587391996 0 0)
(0.07782763415352502 0 0)
(0.07349949143112212 0 0)
(0.06790462205580668 0 0)
(0.0609552823414772 0 0)
(0.05256931006040721 0 0)
(0.04267059771822638 0 0)
(0.03120089323353795 0 0)
(0.01813437020248715 0 0)
(0.003490117608320301 0 0)
(-0.01265424598568008 0 0)
(-0.03011850175841804 0 0)
(-0.04854411137940243 0 0)
(-0.06728618954631561 0 0)
(-0.08501912168771972 0 0)
(-0.09910491702787873 0 0)
(-0.1068858775933523 0 0)
(-0.1093987028959983 0 0)
(-0.1096848141221991 0 0)
(-0.1097113420180669 0 0)
(-0.1094295869285943 0 0)
(-0.1086945722025574 0 0)
(-0.1073308952713935 0 0)
(-0.105161310662405 0 0)
(-0.1020069839771155 0 0)
(-0.09773057906249137 0 0)
(-0.09223896495630872 0 0)
(-0.08546194449200042 0 0)
(-0.07733908647212284 0 0)
(-0.0678223935382906 0 0)
(-0.05688498453279647 0 0)
(-0.04452931574239696 0 0)
(-0.03079299901623475 0 0)
(-0.01575348495498635 0 0)
(0.0004482225712851667 0 0)
(0.01755710158435113 0 0)
(0.03515089220598581 0 0)
(0.05242810987997248 0 0)
(0.06762215622060562 0 0)
(0.07796228011534327 0 0)
(0.08252058340584408 0 0)
(0.08357688274604967 0 0)
(0.08368412904189051 0 0)
(0.08363016197795957 0 0)
(0.08319381994394028 0 0)
(0.08217397156995492 0 0)
(0.08038789886631852 0 0)
(0.07763801394952662 0 0)
(0.07375084555735734 0 0)
(0.06860354889902985 0 0)
(0.06211537762972243 0 0)
(0.05422444499232171 0 0)
(0.04487208969062843 0 0)
(0.03400216637204858 0 0)
(0.02157345541752423 0 0)
(0.007578476258230638 0 0)
(-0.00793920680029191 0 0)
(-0.02484964717230169 0 0)
(-0.04286108340213177 0 0)
(-0.06144262934861941 0 0)
(-0.07957017035272379 0 0)
(-0.09507066347493692 0 0)
(-0.1049338463972632 0 0)
(-0.10876148888863 0 0)
(-0.1095250975486935 0 0)
(-0.1094735267324494 0 0)
(-0.10934376927049 0 0)
(-0.1088160803992667 0 0)
(-0.1077463694023468 0 0)
(-0.1059423249958446 0 0)
(-0.1031975066285522 0 0)
(-0.09934504493993039 0 0)
(-0.09427770873215732 0 0)
(-0.08793305434074916 0 0)
(-0.08027165006168997 0 0)
(-0.07126352296346704 0 0)
(-0.06088480281601615 0 0)
(-0.04912367272199279 0 0)
(-0.03599229693320118 0 0)
(-0.02153693452157222 0 0)
(-0.00585683845133393 0 0)
(0.01084366229716254 0 0)
(0.02820008690965041 0 0)
(0.04557066381772146 0 0)
(0.06157739612771653 0 0)
(0.07372801085458588 0 0)
(0.08001101841855338 0 0)
(0.08181832217292283 0 0)
(0.08195089627950553 0 0)
(0.08196178204593223 0 0)
(0.08168220733495395 0 0)
(0.08095331234046657 0 0)
(0.07955952649147797 0 0)
(0.07727188679721225 0 0)
(0.07387395016336315 0 0)
(0.06920752298512288 0 0)
(0.06317771697100738 0 0)
(0.05573324723960421 0 0)
(0.04684656663553177 0 0)
(0.0364991302201478 0 0)
(0.024669708804206 0 0)
(0.01133640600505071 0 0)
(-0.003500652632507213 0 0)
(-0.0197778425766903 0 0)
(-0.03728591409111998 0 0)
(-0.05559058806595662 0 0)
(-0.07389320367877417 0 0)
(-0.09046618816769428 0 0)
(-0.1023940909162751 0 0)
(-0.1079891635320306 0 0)
(-0.1093277845499871 0 0)
(-0.109350069561364 0 0)
(-0.1091969927731283 0 0)
(-0.108776612895705 0 0)
(-0.1079459087174754 0 0)
(-0.1065037257530608 0 0)
(-0.1042172269734058 0 0)
(-0.1008646126934751 0 0)
(-0.09628341097593984 0 0)
(-0.0903814434322863 0 0)
(-0.08312658829206539 0 0)
(-0.07452844489540819 0 0)
(-0.06461168483002289 0 0)
(-0.05339034122496902 0 0)
(-0.04086416872203848 0 0)
(-0.02704068663587616 0 0)
(-0.01196438416784835 0 0)
(0.004230257550894309 0 0)
(0.02124765929714151 0 0)
(0.03857260860423687 0 0)
(0.05516273691607514 0 0)
(0.06883576707851845 0 0)
(0.07711356488394726 0 0)
(0.08005775264934267 0 0)
(0.0805031504584976 0 0)
(0.08033085517438589 0 0)
(0.08007325926188702 0 0)
(0.0794695177233988 0 0)
(0.07837781345247394 0 0)
(0.07657332143726292 0 0)
(0.07378083030888839 0 0)
(0.06974236973199782 0 0)
(0.06427336628940461 0 0)
(0.05728494148911025 0 0)
(0.04877487981324202 0 0)
(0.03879603557644613 0 0)
(0.02741352927117593 0 0)
(0.01466218249513059 0 0)
(0.0005327669385695296 0 0)
(-0.01499683452846036 0 0)
(-0.03185637292123102 0 0)
(-0.04973586061390761 0 0)
(-0.06800366340573731 0 0)
(-0.08532309072731697 0 0)
(-0.09905060699491443 0 0)
(-0.1067501571698763 0 0)
(-0.1091707138268545 0 0)
(-0.1094416558279681 0 0)
(-0.10922325218604 0 0)
(-0.1088063335913879 0 0)
(-0.107997171739166 0 0)
(-0.1067024609758531 0 0)
(-0.1047704987910883 0 0)
(-0.1019871194735954 0 0)
(-0.09811196843035626 0 0)
(-0.09291667937578461 0 0)
(-0.08622395076832816 0 0)
(-0.07795761095983014 0 0)
(-0.06819404873917444 0 0)
(-0.05716101058389828 0 0)
(-0.04511500287921594 0 0)
(-0.03210704149310663 0 0)
(-0.01795684656506051 0 0)
(-0.002247954321271012 0 0)
(0.01392700102841855 0 0)
(0.03313834081779764 0 0)
)
;

boundaryField
{
    inlet
    {
        type            zeroGradient;
    }
    outlet
    {
        type            velocityOutletNSCBCx;
        pInf            101325;
        gamma           1.4;
        etaAc           1;
        fieldInf        (-1 0 0);
        lInf            2.25;
        value           uniform (0.04071952139239265 0 0);
    }
    frontAndBack
    {
        type            empty;
    }
}


// ************************************************************************* //
