/*--------------------------------*- C++ -*----------------------------------*\
| =========                 |                                                 |
| \\      /  F ield         | OpenFOAM: The Open Source CFD Toolbox           |
|  \\    /   O peration     | Version:  v2012                                 |
|   \\  /    A nd           | Website:  www.openfoam.com                      |
|    \\/     M anipulation  |                                                 |
\*---------------------------------------------------------------------------*/
FoamFile
{
    version     2.0;
    format      ascii;
    class       volVectorField;
    location    "0.018";
    object      UMean;
}
// * * * * * * * * * * * * * * * * * * * * * * * * * * * * * * * * * * * * * //

dimensions      [0 1 -1 0 0 0 0];


internalField   nonuniform List<vector> 
1000
(
(-0.0003563536392921848 0 0)
(-0.0003349945960861249 0 0)
(-0.0003240934577440202 0 0)
(-0.0002995155982563768 0 0)
(-0.0002716881553882184 0 0)
(-0.0002438805122378595 0 0)
(-0.0002066098345938367 0 0)
(-0.0001677136392208074 0 0)
(-0.0001211643954511364 0 0)
(-7.253414622080576e-05 0 0)
(-2.17258890872923e-05 0 0)
(2.846106745593263e-05 0 0)
(7.83827598972272e-05 0 0)
(0.0001276090953202054 0 0)
(0.0001751772319420283 0 0)
(0.0002203435414301915 0 0)
(0.0002618675242417856 0 0)
(0.0002991548691792827 0 0)
(0.0003312955172368942 0 0)
(0.0003580100857809707 0 0)
(0.0003786762275030163 0 0)
(0.0003933288155405865 0 0)
(0.0004007969991226059 0 0)
(0.0004016918027499593 0 0)
(0.0003960394234161549 0 0)
(0.0003835944035168065 0 0)
(0.000364865117652235 0 0)
(0.0003399191784668059 0 0)
(0.0003092114667924286 0 0)
(0.000273060417736159 0 0)
(0.0002319354513398855 0 0)
(0.0001864273570293896 0 0)
(0.0001380651722385367 0 0)
(8.830387007140598e-05 0 0)
(3.887123843365391e-05 0 0)
(-1.052434889565371e-05 0 0)
(-5.956500527537224e-05 0 0)
(-0.0001074497611959643 0 0)
(-0.000153512986089706 0 0)
(-0.0001966585317243828 0 0)
(-0.0002358054490726718 0 0)
(-0.0002701844475844699 0 0)
(-0.0002988898762998917 0 0)
(-0.0003215877115911456 0 0)
(-0.0003374154149220857 0 0)
(-0.000347366587965369 0 0)
(-0.0003501242993453035 0 0)
(-0.0003459528567624644 0 0)
(-0.0003351724232501863 0 0)
(-0.0003177273644567737 0 0)
(-0.000293997030493731 0 0)
(-0.0002642582802279293 0 0)
(-0.0002287959234560929 0 0)
(-0.0001880475882422593 0 0)
(-0.0001430860696028426 0 0)
(-9.545073541214499e-05 0 0)
(-4.725624950307699e-05 0 0)
(1.711955145258805e-06 0 0)
(5.017255484656366e-05 0 0)
(9.798035211433315e-05 0 0)
(0.000144813837335088 0 0)
(0.0001897250397451053 0 0)
(0.0002320388635024965 0 0)
(0.000270850448030037 0 0)
(0.0003051157847889131 0 0)
(0.0003341268262481997 0 0)
(0.0003571332560494876 0 0)
(0.0003740462951393528 0 0)
(0.0003837882730407685 0 0)
(0.0003867653879774923 0 0)
(0.0003832471383396098 0 0)
(0.0003728573850576971 0 0)
(0.0003561256471581892 0 0)
(0.0003329589949845238 0 0)
(0.0003037406248976511 0 0)
(0.0002685296644413719 0 0)
(0.0002279830019264455 0 0)
(0.0001827703792471817 0 0)
(0.0001350373069989672 0 0)
(8.564656906166323e-05 0 0)
(3.71994020083142e-05 0 0)
(-1.177375987066213e-05 0 0)
(-6.024492426836283e-05 0 0)
(-0.0001079291287499375 0 0)
(-0.000154183338540035 0 0)
(-0.0001983041556090402 0 0)
(-0.0002391141901774054 0 0)
(-0.0002759107107588621 0 0)
(-0.0003075605116689262 0 0)
(-0.0003335228622182072 0 0)
(-0.0003528231573631511 0 0)
(-0.0003655605461124913 0 0)
(-0.0003716566186703076 0 0)
(-0.0003703604252704712 0 0)
(-0.0003622692025602182 0 0)
(-0.0003473910203077226 0 0)
(-0.0003259542480393103 0 0)
(-0.0002981173492385724 0 0)
(-0.0002642724654232838 0 0)
(-0.0002247027133935383 0 0)
(-0.0001808032398937722 0 0)
(-0.0001342062034400476 0 0)
(-8.733318709783905e-05 0 0)
(-3.921043229436974e-05 0 0)
(7.900669296130542e-06 0 0)
(5.488905222150112e-05 0 0)
(0.0001008982919104653 0 0)
(0.0001454367706960815 0 0)
(0.0001877626326059559 0 0)
(0.0002271513129617855 0 0)
(0.0002627103672585019 0 0)
(0.0002935394680798228 0 0)
(0.0003189309648318123 0 0)
(0.0003381014799217236 0 0)
(0.0003511312636401982 0 0)
(0.0003562671866526411 0 0)
(0.0003550488892466581 0 0)
(0.0003468654357790993 0 0)
(0.0003319698280182876 0 0)
(0.0003104577177963158 0 0)
(0.0002826864219225984 0 0)
(0.0002485786049757608 0 0)
(0.0002089437461600784 0 0)
(0.0001644554257178656 0 0)
(0.0001172871731103548 0 0)
(6.843053956745837e-05 0 0)
(2.03746551314407e-05 0 0)
(-2.839462816615939e-05 0 0)
(-7.631949156418496e-05 0 0)
(-0.0001240349542614423 0 0)
(-0.0001703296826959394 0 0)
(-0.0002150564036004393 0 0)
(-0.0002570047958278857 0 0)
(-0.0002954495448355991 0 0)
(-0.0003294238825822638 0 0)
(-0.000358111087282526 0 0)
(-0.0003808268847052007 0 0)
(-0.0003964657162243225 0 0)
(-0.0004062273107014476 0 0)
(-0.0004082523732241147 0 0)
(-0.0004030257280694181 0 0)
(-0.0003908845513220511 0 0)
(-0.0003717377192867159 0 0)
(-0.0003459414251604383 0 0)
(-0.0003137363710874002 0 0)
(-0.000275675203793696 0 0)
(-0.0002329460274713904 0 0)
(-0.000187543340566871 0 0)
(-0.0001414011947686602 0 0)
(-9.487088810743582e-05 0 0)
(-4.843117394370233e-05 0 0)
(-2.092511127386804e-06 0 0)
(4.309412531714302e-05 0 0)
(8.729904204699328e-05 0 0)
(0.000129498870693302 0 0)
(0.0001690816690849516 0 0)
(0.0002054669778162453 0 0)
(0.0002375454706208827 0 0)
(0.0002648062381222942 0 0)
(0.0002860896671785148 0 0)
(0.0003018494247401763 0 0)
(0.0003095187348092338 0 0)
(0.0003108614732353632 0 0)
(0.0003051934132606742 0 0)
(0.0002924194024592157 0 0)
(0.0002727660038167423 0 0)
(0.000246464187321466 0 0)
(0.0002137055999116135 0 0)
(0.0001750067392064585 0 0)
(0.0001314040001092612 0 0)
(8.464409832926746e-05 0 0)
(3.666734394720543e-05 0 0)
(-1.205640798143165e-05 0 0)
(-5.984762250623606e-05 0 0)
(-0.0001076361535943277 0 0)
(-0.0001553027123867704 0 0)
(-0.0002017060579183682 0 0)
(-0.000246832227319414 0 0)
(-0.0002896869462892487 0 0)
(-0.0003294601752891007 0 0)
(-0.0003652832247952636 0 0)
(-0.0003962894136088914 0 0)
(-0.0004218332990916024 0 0)
(-0.0004405792356589276 0 0)
(-0.0004536499896537638 0 0)
(-0.0004591223310135768 0 0)
(-0.000457050767499504 0 0)
(-0.0004478780335191619 0 0)
(-0.0004313664740430336 0 0)
(-0.0004078971804822838 0 0)
(-0.000377479870720175 0 0)
(-0.0003410837835648956 0 0)
(-0.0002995601924343689 0 0)
(-0.0002553441887304775 0 0)
(-0.0002097473334454355 0 0)
(-0.0001649886037881878 0 0)
(-0.0001185513208125647 0 0)
(-7.331823205854339e-05 0 0)
(-2.866211440647337e-05 0 0)
(1.501201901175051e-05 0 0)
(5.710382479492565e-05 0 0)
(9.677911918402959e-05 0 0)
(0.0001336208251421328 0 0)
(0.000166689762433534 0 0)
(0.0001953656143015546 0 0)
(0.0002185851508796255 0 0)
(0.0002363315899996733 0 0)
(0.0002470542210538672 0 0)
(0.0002506878402586941 0 0)
(0.0002475897555499276 0 0)
(0.0002372231032894216 0 0)
(0.0002196749658021357 0 0)
(0.0001951641777788865 0 0)
(0.0001639342658422714 0 0)
(0.0001263715654837344 0 0)
(8.367085965988449e-05 0 0)
(3.740206803158779e-05 0 0)
(-1.000668370897831e-05 0 0)
(-5.888520156572942e-05 0 0)
(-0.000105907042585075 0 0)
(-0.0001539559801852435 0 0)
(-0.000201338764088852 0 0)
(-0.000248031172262077 0 0)
(-0.0002933783835303638 0 0)
(-0.00033691991820222 0 0)
(-0.000377875337939031 0 0)
(-0.0004151851777207443 0 0)
(-0.0004482297889682748 0 0)
(-0.0004760612423663162 0 0)
(-0.0004980975864063022 0 0)
(-0.000513262428448664 0 0)
(-0.0005225965184123187 0 0)
(-0.0005238658772301038 0 0)
(-0.0005178202648464168 0 0)
(-0.0005041951082181843 0 0)
(-0.0004832935267287586 0 0)
(-0.0004550749403221554 0 0)
(-0.0004204185166224054 0 0)
(-0.0003803191278887422 0 0)
(-0.000337120760882231 0 0)
(-0.0002923757543075927 0 0)
(-0.0002484039582660737 0 0)
(-0.000202748696711728 0 0)
(-0.0001585048039266905 0 0)
(-0.0001140967332214959 0 0)
(-7.109897069448474e-05 0 0)
(-2.908815624713557e-05 0 0)
(1.061995636982196e-05 0 0)
(4.773528682282979e-05 0 0)
(8.155887202566605e-05 0 0)
(0.0001113236686006851 0 0)
(0.0001362771871341908 0 0)
(0.0001555439816869353 0 0)
(0.0001693689927871022 0 0)
(0.0001750631128970145 0 0)
(0.0001744190418653905 0 0)
(0.000166643976390578 0 0)
(0.0001514689412316337 0 0)
(0.0001290364438229141 0 0)
(9.948270762370995e-05 0 0)
(6.343500061414493e-05 0 0)
(2.166349083439277e-05 0 0)
(-2.390702909724834e-05 0 0)
(-7.113727109453706e-05 0 0)
(-0.0001192606054584285 0 0)
(-0.000167003561087391 0 0)
(-0.0002145897306002682 0 0)
(-0.0002616702978488653 0 0)
(-0.0003086105322656097 0 0)
(-0.0003541655863344613 0 0)
(-0.0003982131301162979 0 0)
(-0.000440127981361745 0 0)
(-0.0004787697566442592 0 0)
(-0.0005135610532676485 0 0)
(-0.0005434391935243474 0 0)
(-0.0005681980765367434 0 0)
(-0.0005858286771628058 0 0)
(-0.00059849278120394 0 0)
(-0.0006030691128960872 0 0)
(-0.0006001265475928909 0 0)
(-0.0005895533334537923 0 0)
(-0.0005714622377469172 0 0)
(-0.0005457654265713921 0 0)
(-0.0005130623499230371 0 0)
(-0.0004746101498397648 0 0)
(-0.0004324328566964614 0 0)
(-0.0003887801537914968 0 0)
(-0.0003448329400301469 0 0)
(-0.0003013991924984035 0 0)
(-0.0002568694444822321 0 0)
(-0.0002131333055645413 0 0)
(-0.0001705861499285613 0 0)
(-0.0001289093075854223 0 0)
(-8.912920428057399e-05 0 0)
(-5.177571797463518e-05 0 0)
(-1.751375361791567e-05 0 0)
(1.320056997810785e-05 0 0)
(3.949360239159872e-05 0 0)
(6.041793671720316e-05 0 0)
(7.634707475477203e-05 0 0)
(8.436461906517845e-05 0 0)
(8.607207802013348e-05 0 0)
(8.092636854755553e-05 0 0)
(6.819213674298385e-05 0 0)
(4.806364101182711e-05 0 0)
(2.049458861457487e-05 0 0)
(-1.38671398990378e-05 0 0)
(-5.442927152859099e-05 0 0)
(-9.919461830587808e-05 0 0)
(-0.0001462794623949366 0 0)
(-0.0001935299440184501 0 0)
(-0.0002423844432256061 0 0)
(-0.0002887905203410828 0 0)
(-0.0003361731524710938 0 0)
(-0.0003830169000117949 0 0)
(-0.000428967530834899 0 0)
(-0.0004733251369606685 0 0)
(-0.0005159701945170006 0 0)
(-0.000555866734222055 0 0)
(-0.0005921319027551549 0 0)
(-0.0006239368515007911 0 0)
(-0.0006508266824071546 0 0)
(-0.000671364072241804 0 0)
(-0.000686225535101836 0 0)
(-0.0006943354806090649 0 0)
(-0.000694510337138872 0 0)
(-0.0006871309832456719 0 0)
(-0.000671918163396858 0 0)
(-0.0006489852560433991 0 0)
(-0.0006186303512932448 0 0)
(-0.0005819399147198484 0 0)
(-0.0005410359016453143 0 0)
(-0.0004983270507798055 0 0)
(-0.0004547923752379372 0 0)
(-0.0004126950298286399 0 0)
(-0.0003681427953716433 0 0)
(-0.0003254673247244406 0 0)
(-0.0002830865466908602 0 0)
(-0.0002419203687168957 0 0)
(-0.0002021061686863809 0 0)
(-0.0001645501454194718 0 0)
(-0.0001299565041273221 0 0)
(-9.85007325575365e-05 0 0)
(-7.116290929025832e-05 0 0)
(-4.85160048699536e-05 0 0)
(-3.143693621328828e-05 0 0)
(-1.995127798340909e-05 0 0)
(-1.660859146351153e-05 0 0)
(-1.937526913586726e-05 0 0)
(-2.965346082809755e-05 0 0)
(-4.726961064276091e-05 0 0)
(-7.267114515195164e-05 0 0)
(-0.0001051789821333994 0 0)
(-0.0001441749639034565 0 0)
(-0.0001880202306417321 0 0)
(-0.0002346598671621884 0 0)
(-0.0002816928607823071 0 0)
(-0.0003301625174037708 0 0)
(-0.0003767648719181963 0 0)
(-0.0004242157879995504 0 0)
(-0.0004707234276476785 0 0)
(-0.0005170172977819159 0 0)
(-0.0005617226671005104 0 0)
(-0.0006048786160083964 0 0)
(-0.0006457554269623032 0 0)
(-0.0006834446285044709 0 0)
(-0.0007169366262757684 0 0)
(-0.0007456531526193401 0 0)
(-0.0007690971179937488 0 0)
(-0.0007855390319932276 0 0)
(-0.0007970926800136704 0 0)
(-0.0008004878024797992 0 0)
(-0.0007961384864703043 0 0)
(-0.0007839310915633433 0 0)
(-0.0007638666996061981 0 0)
(-0.0007361181812242611 0 0)
(-0.0007014427063990808 0 0)
(-0.0006619812332358227 0 0)
(-0.0006200985332545042 0 0)
(-0.0005775090563383282 0 0)
(-0.0005352498046799918 0 0)
(-0.0004928202050786515 0 0)
(-0.0004500094547212501 0 0)
(-0.0004079108676525823 0 0)
(-0.000367115535910259 0 0)
(-0.0003274710633325215 0 0)
(-0.0002896535339056724 0 0)
(-0.0002546593510685588 0 0)
(-0.00022275990008877 0 0)
(-0.0001944393633250085 0 0)
(-0.0001703997097877649 0 0)
(-0.000151906458671891 0 0)
(-0.0001380053654491925 0 0)
(-0.0001326946988902799 0 0)
(-0.0001332215962517509 0 0)
(-0.0001408711653964802 0 0)
(-0.0001560667422850209 0 0)
(-0.0001789751565175431 0 0)
(-0.0002094192403830699 0 0)
(-0.0002466787772652696 0 0)
(-0.0002893122135879061 0 0)
(-0.0003352797892717687 0 0)
(-0.000382379761327168 0 0)
(-0.0004296512776923389 0 0)
(-0.0004779201483765447 0 0)
(-0.000524077961034623 0 0)
(-0.0005707189390685317 0 0)
(-0.0006170469083258092 0 0)
(-0.0006621785392750458 0 0)
(-0.0007056695486244738 0 0)
(-0.0007472516707114497 0 0)
(-0.0007862224140738601 0 0)
(-0.0008212401535270137 0 0)
(-0.000851712043386595 0 0)
(-0.0008772815257089192 0 0)
(-0.0008961354173720988 0 0)
(-0.0009101415695987225 0 0)
(-0.0009167326757993895 0 0)
(-0.0009152576409402535 0 0)
(-0.0009061970233070634 0 0)
(-0.0008889398004072088 0 0)
(-0.0008640062369027186 0 0)
(-0.0008316399415586788 0 0)
(-0.0007937635976124834 0 0)
(-0.0007528040840743102 0 0)
(-0.0007111090072217206 0 0)
(-0.0006687775222358577 0 0)
(-0.0006282508196578783 0 0)
(-0.0005848818858698716 0 0)
(-0.000543613005905479 0 0)
(-0.0005029272272162312 0 0)
(-0.0004635732727104699 0 0)
(-0.0004256146655347007 0 0)
(-0.0003901664406084173 0 0)
(-0.0003577762853879813 0 0)
(-0.0003287552356356336 0 0)
(-0.000303498385882547 0 0)
(-0.0002833042937562659 0 0)
(-0.0002681736552975299 0 0)
(-0.0002595051732644376 0 0)
(-0.0002584160848090318 0 0)
(-0.0002636324645187966 0 0)
(-0.000276402476946229 0 0)
(-0.0002966935177619882 0 0)
(-0.0003248315421396916 0 0)
(-0.0003601206557511603 0 0)
(-0.0004012390682376813 0 0)
(-0.0004463028651344718 0 0)
(-0.0004931360874731711 0 0)
(-0.0005398814101589758 0 0)
(-0.0005882778765800404 0 0)
(-0.0006339876586404895 0 0)
(-0.0006808742187290396 0 0)
(-0.0007268131117666972 0 0)
(-0.000772234767396656 0 0)
(-0.0008160932693587918 0 0)
(-0.0008580608310151777 0 0)
(-0.0008979034490434656 0 0)
(-0.0009343991154078973 0 0)
(-0.0009664150068136973 0 0)
(-0.0009936032786965069 0 0)
(-0.001015374017280271 0 0)
(-0.001030223641961635 0 0)
(-0.001040275138173774 0 0)
(-0.001041804815270488 0 0)
(-0.001035645630739514 0 0)
(-0.00102129880201633 0 0)
(-0.0009990575909419191 0 0)
(-0.0009691886787023745 0 0)
(-0.00093307238116647 0 0)
(-0.0008931062873811076 0 0)
(-0.0008519120447790382 0 0)
(-0.0008102071820820041 0 0)
(-0.0007694120380068707 0 0)
(-0.0007276612715368712 0 0)
(-0.0006862657722562897 0 0)
(-0.0006454468862457986 0 0)
(-0.0006061912056501293 0 0)
(-0.0005681406736707496 0 0)
(-0.0005320764362030321 0 0)
(-0.0004989371710161519 0 0)
(-0.0004692372237041734 0 0)
(-0.0004428595003996205 0 0)
(-0.0004208672190471121 0 0)
(-0.000404420739057464 0 0)
(-0.0003925589561098505 0 0)
(-0.0003896413562755913 0 0)
(-0.0003924550134540104 0 0)
(-0.0004023869033121022 0 0)
(-0.0004200245480104324 0 0)
(-0.0004453247074098116 0 0)
(-0.0004783121060712893 0 0)
(-0.0005175410624982508 0 0)
(-0.0005613482557106142 0 0)
(-0.000607384292199527 0 0)
(-0.0006540460513187617 0 0)
(-0.0007008580529730314 0 0)
(-0.0007482400089799885 0 0)
(-0.0007936092110443506 0 0)
(-0.0008393392275955393 0 0)
(-0.0008846557192608001 0 0)
(-0.0009287064364559681 0 0)
(-0.000970898670441718 0 0)
(-0.001011154269210904 0 0)
(-0.001048771507737535 0 0)
(-0.00108234636285916 0 0)
(-0.001110885057339742 0 0)
(-0.001134945038034306 0 0)
(-0.001151681655807229 0 0)
(-0.001164480477560268 0 0)
(-0.001169187646545554 0 0)
(-0.00116600097480561 0 0)
(-0.001155117816771902 0 0)
(-0.001136136748743995 0 0)
(-0.001109639252451216 0 0)
(-0.001076442631146981 0 0)
(-0.001038745589858102 0 0)
(-0.0009992019359861951 0 0)
(-0.0009594370007720226 0 0)
(-0.00091936455070568 0 0)
(-0.000880887652511102 0 0)
(-0.0008397267768497195 0 0)
(-0.0008006362511885105 0 0)
(-0.0007625029339899489 0 0)
(-0.0007256146244912231 0 0)
(-0.0006903997279736975 0 0)
(-0.000657545763727428 0 0)
(-0.0006282109664725456 0 0)
(-0.0006020644829110929 0 0)
(-0.0005794467021860347 0 0)
(-0.000562230132986127 0 0)
(-0.0005495794514035631 0 0)
(-0.0005439840104285707 0 0)
(-0.0005455856701263315 0 0)
(-0.0005533594003918205 0 0)
(-0.0005687360800067709 0 0)
(-0.0005914546866396248 0 0)
(-0.0006218933900860997 0 0)
(-0.0006590932645670739 0 0)
(-0.0007011775228520471 0 0)
(-0.0007462928170316584 0 0)
(-0.0007923950296123094 0 0)
(-0.0008381649516426558 0 0)
(-0.0008856691188232557 0 0)
(-0.0009300065394950992 0 0)
(-0.0009756969828031875 0 0)
(-0.001020332970612546 0 0)
(-0.001064384036620567 0 0)
(-0.001106761653977307 0 0)
(-0.001147109574486287 0 0)
(-0.001185400609737067 0 0)
(-0.001220327959174366 0 0)
(-0.001250367422630403 0 0)
(-0.001275951056981991 0 0)
(-0.001295686761833391 0 0)
(-0.001309049184181891 0 0)
(-0.001317461675703709 0 0)
(-0.001317397963263486 0 0)
(-0.001309628290399685 0 0)
(-0.001293848790613234 0 0)
(-0.001270191075829645 0 0)
(-0.001239713056401956 0 0)
(-0.001203588481868419 0 0)
(-0.001165359564632197 0 0)
(-0.001126049344952719 0 0)
(-0.001086674593174546 0 0)
(-0.001048323010901164 0 0)
(-0.001008851852922672 0 0)
(-0.0009698349889314698 0 0)
(-0.0009316923232583808 0 0)
(-0.0008951026377774505 0 0)
(-0.0008599372611733167 0 0)
(-0.0008267014445533777 0 0)
(-0.000796608258276126 0 0)
(-0.000770155279089437 0 0)
(-0.0007466133194035529 0 0)
(-0.0007276151644851965 0 0)
(-0.0007143158686893916 0 0)
(-0.0007053436502113017 0 0)
(-0.0007057020926961907 0 0)
(-0.0007113364966302622 0 0)
(-0.0007241862558399909 0 0)
(-0.0007445496959380308 0 0)
(-0.0007724455008569853 0 0)
(-0.0008077251958551568 0 0)
(-0.000848406627421885 0 0)
(-0.000892902312635643 0 0)
(-0.0009386184098638988 0 0)
(-0.0009845708105578361 0 0)
(-0.001030842293832252 0 0)
(-0.00107724422668454 0 0)
(-0.001121679953581434 0 0)
(-0.001166399752108173 0 0)
(-0.001210711302506972 0 0)
(-0.001253562673621978 0 0)
(-0.001294559809164038 0 0)
(-0.001333237286757547 0 0)
(-0.001369990541719537 0 0)
(-0.001401337133842408 0 0)
(-0.001428452421075259 0 0)
(-0.001451061508512255 0 0)
(-0.001465868825657664 0 0)
(-0.001477239667872882 0 0)
(-0.00148019669629955 0 0)
(-0.001475187142826411 0 0)
(-0.001462548380119938 0 0)
(-0.001441756848373486 0 0)
(-0.001413772760620429 0 0)
(-0.001379857472107455 0 0)
(-0.001342232180945428 0 0)
(-0.001304213127009049 0 0)
(-0.001265458081564472 0 0)
(-0.001226735031392814 0 0)
(-0.001189630556747611 0 0)
(-0.00114974039840395 0 0)
(-0.001112313064170328 0 0)
(-0.001075821055341523 0 0)
(-0.001040811972410313 0 0)
(-0.001007521695757353 0 0)
(-0.0009765655578801524 0 0)
(-0.0009499148703494834 0 0)
(-0.0009252900846129146 0 0)
(-0.0009051663956433036 0 0)
(-0.0008906815046439478 0 0)
(-0.000880202188333056 0 0)
(-0.0008774821506303267 0 0)
(-0.0008816820293359688 0 0)
(-0.000892217205359196 0 0)
(-0.0009102682101001521 0 0)
(-0.0009357960444640519 0 0)
(-0.0009686516367471318 0 0)
(-0.001008186386476667 0 0)
(-0.001050938321312017 0 0)
(-0.001097446080917377 0 0)
(-0.001142857478570378 0 0)
(-0.001188484596342722 0 0)
(-0.001235643394607155 0 0)
(-0.001279546327890022 0 0)
(-0.001324704821766194 0 0)
(-0.001368811616855486 0 0)
(-0.001412141807035298 0 0)
(-0.001453796357981962 0 0)
(-0.001493007371427527 0 0)
(-0.001530672698342127 0 0)
(-0.001563886252527465 0 0)
(-0.00159247903185692 0 0)
(-0.001616993411913493 0 0)
(-0.001635013168773156 0 0)
(-0.001646797981857198 0 0)
(-0.001653576148591739 0 0)
(-0.001651616108988539 0 0)
(-0.001641938423544259 0 0)
(-0.001624246614936785 0 0)
(-0.001598796078805293 0 0)
(-0.001567302636854548 0 0)
(-0.001530685457754377 0 0)
(-0.001493981855683381 0 0)
(-0.001455712599265582 0 0)
(-0.001417449234242916 0 0)
(-0.001380463333768162 0 0)
(-0.001342359378868145 0 0)
(-0.001304758245754986 0 0)
(-0.001268243261859473 0 0)
(-0.001233470569822713 0 0)
(-0.001200183936349319 0 0)
(-0.001168930799558848 0 0)
(-0.001140993624373867 0 0)
(-0.001116954795776376 0 0)
(-0.001094891553827179 0 0)
(-0.001079200503476399 0 0)
(-0.001068042642616877 0 0)
(-0.001061786899049972 0 0)
(-0.001064919334170439 0 0)
(-0.001073285565889398 0 0)
(-0.001088816244836355 0 0)
(-0.001112017044601403 0 0)
(-0.001142489235992335 0 0)
(-0.001180100017201608 0 0)
(-0.001221981480156887 0 0)
(-0.001267538285872055 0 0)
(-0.001313434722410749 0 0)
(-0.001358884303494074 0 0)
(-0.001404820206900343 0 0)
(-0.001451010811303573 0 0)
(-0.001494683875195625 0 0)
(-0.001539038410118619 0 0)
(-0.001582681769482875 0 0)
(-0.001624838892199981 0 0)
(-0.001664929791575854 0 0)
(-0.001702472867796601 0 0)
(-0.001738599193908496 0 0)
(-0.001767647174710355 0 0)
(-0.001794314651255639 0 0)
(-0.001814958114937869 0 0)
(-0.001828281896360082 0 0)
(-0.001837912143497672 0 0)
(-0.001839048118863276 0 0)
(-0.001832161870231812 0 0)
(-0.001817573839852341 0 0)
(-0.001795063028885717 0 0)
(-0.001765665338844001 0 0)
(-0.001731288568783757 0 0)
(-0.001694386877858849 0 0)
(-0.001657759477438985 0 0)
(-0.001619990255880563 0 0)
(-0.001582579895524713 0 0)
(-0.001546961896159393 0 0)
(-0.001508213238679761 0 0)
(-0.001472571647447589 0 0)
(-0.001437756723640924 0 0)
(-0.001404597118089997 0 0)
(-0.00137334195375764 0 0)
(-0.001344245117834027 0 0)
(-0.001320342757281698 0 0)
(-0.001297083915674824 0 0)
(-0.001279918500002053 0 0)
(-0.001267815852944376 0 0)
(-0.001260133274970249 0 0)
(-0.001259864828251698 0 0)
(-0.001266949588258027 0 0)
(-0.001280160861687997 0 0)
(-0.001301018945556886 0 0)
(-0.001329230227232114 0 0)
(-0.001364457845127875 0 0)
(-0.001405646484154212 0 0)
(-0.001449328914493122 0 0)
(-0.00149587665153823 0 0)
(-0.001541517625578542 0 0)
(-0.001586665049520945 0 0)
(-0.001633587815876694 0 0)
(-0.001676984636654202 0 0)
(-0.001721713211226117 0 0)
(-0.00176515140770688 0 0)
(-0.001807897864249411 0 0)
(-0.00184872466870394 0 0)
(-0.001886827287104255 0 0)
(-0.001923831690685353 0 0)
(-0.001955091903890364 0 0)
(-0.001982375263509909 0 0)
(-0.002006294117563028 0 0)
(-0.002022321851920182 0 0)
(-0.002032329009761393 0 0)
(-0.002037448103647317 0 0)
(-0.002033582505154713 0 0)
(-0.002021973243348562 0 0)
(-0.002002542464958683 0 0)
(-0.001975617927437074 0 0)
(-0.001943363066379924 0 0)
(-0.001907181761779387 0 0)
(-0.001871259579926781 0 0)
(-0.001834875909146744 0 0)
(-0.001797351055294502 0 0)
(-0.001761841495837087 0 0)
(-0.001725211994554347 0 0)
(-0.001688978676503213 0 0)
(-0.001654214318205818 0 0)
(-0.001621297698023261 0 0)
(-0.001590005908295047 0 0)
(-0.001560628228132788 0 0)
(-0.001535246584775684 0 0)
(-0.001512769850692927 0 0)
(-0.001493302337569465 0 0)
(-0.001480740942508247 0 0)
(-0.001471679284212402 0 0)
(-0.001468124242531072 0 0)
(-0.001474047611072824 0 0)
(-0.001485149932383248 0 0)
(-0.001503381602010074 0 0)
(-0.001529303647242881 0 0)
(-0.001562347966586069 0 0)
(-0.001601729720184097 0 0)
(-0.001644870913950458 0 0)
(-0.001690541735361923 0 0)
(-0.001736858733730491 0 0)
(-0.001781659605684335 0 0)
(-0.001827589009643113 0 0)
(-0.001873514172733426 0 0)
(-0.001916468598260426 0 0)
(-0.001960458920216218 0 0)
(-0.002003527035304863 0 0)
(-0.002044957454722935 0 0)
(-0.002084159065002101 0 0)
(-0.002120667357941736 0 0)
(-0.002155550863167087 0 0)
(-0.002183515944679395 0 0)
(-0.002208520571624377 0 0)
(-0.002228008304649483 0 0)
(-0.002239751154096207 0 0)
(-0.002247184710775566 0 0)
(-0.002246798300441884 0 0)
(-0.00223792198133586 0 0)
(-0.002221643173102643 0 0)
(-0.002197625623895475 0 0)
(-0.002167258428227087 0 0)
(-0.002132910809559727 0 0)
(-0.002097024545272947 0 0)
(-0.002061330391516993 0 0)
(-0.002025260832528764 0 0)
(-0.001988760765646956 0 0)
(-0.001954860762638894 0 0)
(-0.00191718254956625 0 0)
(-0.001883446730960813 0 0)
(-0.001850306519338188 0 0)
(-0.001819178653240094 0 0)
(-0.001789896319971675 0 0)
(-0.001762915253355577 0 0)
(-0.00174114367193952 0 0)
(-0.001720512213059644 0 0)
(-0.001705154329544846 0 0)
(-0.001696981408275288 0 0)
(-0.001691235201549979 0 0)
(-0.001693239205483556 0 0)
(-0.001703377691184239 0 0)
(-0.001719272931420379 0 0)
(-0.001742816115889155 0 0)
(-0.001773660188375658 0 0)
(-0.001811013696646191 0 0)
(-0.001853382919944259 0 0)
(-0.001897973912674505 0 0)
(-0.001943942658397559 0 0)
(-0.001990314218818699 0 0)
(-0.002034508113090646 0 0)
(-0.002081492555981394 0 0)
(-0.002124791455928948 0 0)
(-0.002168691303907041 0 0)
(-0.002211682989999736 0 0)
(-0.002253831593081766 0 0)
(-0.002293859273525565 0 0)
(-0.002330895388860612 0 0)
(-0.002366832562458381 0 0)
(-0.002396658114971446 0 0)
(-0.002422697530344472 0 0)
(-0.002445340924692678 0 0)
(-0.002459837273819185 0 0)
(-0.002467613269672883 0 0)
(-0.002471355139284414 0 0)
(-0.002465696786290746 0 0)
(-0.002452198513521145 0 0)
(-0.002431238107847908 0 0)
(-0.002403344158615491 0 0)
(-0.002370528666309884 0 0)
(-0.002335578887869357 0 0)
(-0.002299934453489917 0 0)
(-0.002265323716220033 0 0)
(-0.002228903139863168 0 0)
(-0.00219444723347806 0 0)
(-0.002160247945307245 0 0)
(-0.002124529275068455 0 0)
(-0.002091870509871205 0 0)
(-0.002060880594799349 0 0)
(-0.002031597034428788 0 0)
(-0.002004332582141912 0 0)
(-0.00198090578819512 0 0)
(-0.001960774269069288 0 0)
(-0.001944112374266953 0 0)
(-0.00193321194958381 0 0)
(-0.001928173123300451 0 0)
(-0.001926484254981341 0 0)
(-0.001934935553967902 0 0)
(-0.001949089349826405 0 0)
(-0.001969784040962173 0 0)
(-0.001998381080547593 0 0)
(-0.002033797292742843 0 0)
(-0.002074502130866548 0 0)
(-0.002118901012181336 0 0)
(-0.002164051256105065 0 0)
(-0.002210183125258855 0 0)
(-0.002256026133096607 0 0)
(-0.002300502247639913 0 0)
(-0.002347824798735923 0 0)
(-0.00238869366767335 0 0)
(-0.002432904305992958 0 0)
(-0.002475175739368123 0 0)
(-0.002516017364184256 0 0)
(-0.002554354130356231 0 0)
(-0.0025895858791261 0 0)
(-0.002623137284556712 0 0)
(-0.002650441042649006 0 0)
(-0.002672946400649162 0 0)
(-0.002692721535071646 0 0)
(-0.002701952175595439 0 0)
(-0.002706365785302078 0 0)
(-0.002705058574187973 0 0)
(-0.002694547512240853 0 0)
(-0.002676579044297185 0 0)
(-0.002651548124069751 0 0)
(-0.002620579986319142 0 0)
(-0.002586850139883695 0 0)
(-0.002551643234774141 0 0)
(-0.002516824564846117 0 0)
(-0.002483047387552059 0 0)
(-0.002446497469979575 0 0)
(-0.002414478474822446 0 0)
(-0.002379037842342549 0 0)
(-0.002346347601983651 0 0)
(-0.002315197366006873 0 0)
(-0.002286197059331206 0 0)
(-0.002259023633881125 0 0)
(-0.002234109159342765 0 0)
(-0.00221413485869149 0 0)
(-0.002196212166050115 0 0)
(-0.002183434981338346 0 0)
(-0.002177420636668762 0 0)
(-0.002175322243128884 0 0)
(-0.002178512509184551 0 0)
(-0.002192258527144776 0 0)
(-0.002211172556575435 0 0)
(-0.002236941556088932 0 0)
(-0.002270307085438453 0 0)
(-0.002309597336187026 0 0)
(-0.002352527710242069 0 0)
(-0.002398265767140236 0 0)
(-0.002443305968224114 0 0)
(-0.002489612527819388 0 0)
(-0.002534947359600565 0 0)
(-0.002579659759872708 0 0)
(-0.002626193923814942 0 0)
(-0.002666500281647127 0 0)
(-0.002709966182255762 0 0)
(-0.002751424950947116 0 0)
(-0.002790610738536592 0 0)
(-0.002827041225078152 0 0)
(-0.002860474617006801 0 0)
(-0.002890514018451435 0 0)
(-0.002915394708974065 0 0)
(-0.002934531599368646 0 0)
(-0.002950689136658194 0 0)
(-0.002954925924232956 0 0)
(-0.002956161924550915 0 0)
(-0.002949606770112096 0 0)
(-0.002934108477150699 0 0)
(-0.002911997410580457 0 0)
(-0.002883622338197648 0 0)
(-0.002850705293286814 0 0)
(-0.002817244834246292 0 0)
(-0.002781957165587844 0 0)
(-0.002747845245248875 0 0)
(-0.002714913406114798 0 0)
(-0.00267902785554137 0 0)
(-0.002649464804812011 0 0)
(-0.002611755187052543 0 0)
(-0.002583211320107815 0 0)
(-0.002553645977362157 0 0)
(-0.002526638385617818 0 0)
(-0.002502088660126763 0 0)
(-0.002479612039320706 0 0)
(-0.002462614329217044 0 0)
(-0.002448513225440705 0 0)
(-0.002439176458961535 0 0)
(-0.002438121946867185 0 0)
(-0.002439128343617203 0 0)
(-0.002447502357024787 0 0)
(-0.002466076666972374 0 0)
(-0.002490067147582971 0 0)
(-0.002520777196029993 0 0)
(-0.002558380975877694 0 0)
(-0.002600413000656927 0 0)
(-0.002644825495492139 0 0)
(-0.002691079624043675 0 0)
(-0.002735902634426933 0 0)
(-0.002781879707212265 0 0)
(-0.002827754098242249 0 0)
(-0.002871313723952944 0 0)
(-0.00291779319984134 0 0)
(-0.002956564613467408 0 0)
(-0.003000508473624292 0 0)
(-0.0030400823540761 0 0)
(-0.003077907107126952 0 0)
(-0.003111426823437705 0 0)
(-0.003143012319537483 0 0)
(-0.003169590192592261 0 0)
(-0.003191799833692807 0 0)
(-0.003207232386613283 0 0)
(-0.00321923975997778 0 0)
(-0.00321869678731185 0 0)
(-0.003216612406290452 0 0)
(-0.003204841347097595 0 0)
(-0.003184570440541488 0 0)
(-0.003158960335982092 0 0)
(-0.003127951625680127 0 0)
(-0.003094657217476481 0 0)
(-0.003061567990536202 0 0)
(-0.003027114102370946 0 0)
(-0.002993043144015156 0 0)
(-0.00296113806719861 0 0)
(-0.00292633507692714 0 0)
(-0.00289814225036339 0 0)
(-0.00285828206817281 0 0)
(-0.002836154881753715 0 0)
(-0.002807642430071305 0 0)
(-0.002783628824213744 0 0)
(-0.002759147851599849 0 0)
(-0.002742290219096371 0 0)
(-0.002726200873518669 0 0)
(-0.00271701230191375 0 0)
(-0.002711034124015549 0 0)
(-0.002714957606739559 0 0)
(-0.002717151322204957 0 0)
(-0.002734675134809929 0 0)
(-0.002753996723719862 0 0)
)
;

boundaryField
{
    inlet
    {
        type            calculated;
        value           uniform (-0.0003563536392921848 0 0);
    }
    outlet
    {
        type            calculated;
        value           uniform (-0.002768943473460765 0 0);
    }
    frontAndBack
    {
        type            empty;
    }
}


// ************************************************************************* //
