/*--------------------------------*- C++ -*----------------------------------*\
| =========                 |                                                 |
| \\      /  F ield         | OpenFOAM: The Open Source CFD Toolbox           |
|  \\    /   O peration     | Version:  v2012                                 |
|   \\  /    A nd           | Website:  www.openfoam.com                      |
|    \\/     M anipulation  |                                                 |
\*---------------------------------------------------------------------------*/
FoamFile
{
    version     2.0;
    format      ascii;
    class       volScalarField;
    location    "0.005";
    object      p;
}
// * * * * * * * * * * * * * * * * * * * * * * * * * * * * * * * * * * * * * //

dimensions      [1 -1 -2 0 0 0 0];


internalField   nonuniform List<scalar> 
1000
(
101311.8865125071
101308.4339047456
101303.2344017789
101303.4945796043
101302.39846431
101296.631113606
101285.110847058
101275.6580112911
101270.9849519257
101272.366017842
101277.4779014
101282.5563329377
101282.6665411781
101279.5452658975
101273.6965157377
101271.914607282
101276.3256838385
101286.8899730643
101301.6508859044
101313.3329438785
101317.3909506115
101316.3758025884
101314.9207521566
101316.3462344817
101322.6597574102
101335.7846991292
101353.8366213478
101366.0121187209
101368.7582137197
101366.9770182017
101364.551569218
101364.8860310341
101368.2025256831
101374.2497416815
101379.5979508911
101381.4360448415
101378.7465092761
101372.7588286392
101367.1781416304
101362.0036481643
101358.5865738846
101357.099722753
101354.9026292778
101349.471176022
101340.2157640348
101326.6132553683
101315.3874829453
101312.0364139641
101311.3423826946
101308.5470401446
101301.201607921
101288.4893576418
101278.0850042969
101276.6320833904
101277.2613938364
101278.3163112043
101278.4620991756
101277.2133413833
101275.7797835769
101274.6120749804
101274.379537993
101274.5541162223
101276.857837067
101283.5020490511
101296.1350009596
101307.5871334845
101311.1191341767
101312.127031588
101313.431884819
101315.4417860143
101320.7227393152
101335.1469761105
101355.7220186951
101365.1111617602
101366.3949792721
101366.8844196302
101366.9096674865
101367.2695413152
101369.672752927
101374.706098045
101378.1559566316
101378.7062933432
101378.3129819631
101377.6773841581
101375.4984971155
101370.2936392881
101362.713784673
101356.6845219887
101353.3990213438
101351.0153642837
101347.5879219284
101340.5701141703
101328.7962322031
101316.1402070916
101307.1865422753
101300.5232870316
101292.7011072499
101283.2224122587
101277.8665905851
101277.0647507135
101277.0153750939
101277.1222363163
101276.829497569
101275.8808913575
101274.3627425381
101273.7549387232
101273.8187543581
101273.9432203936
101274.8329588667
101277.6792418691
101283.8734566081
101293.0475989155
101301.6192661565
101307.3883728776
101311.8555314853
101317.1696167022
101324.8668312175
101335.3749839679
101348.310547475
101362.397753811
101372.2107841279
101374.6203741233
101374.7713365687
101374.7520073807
101374.6511399835
101374.608985345
101374.6819605817
101374.877442595
101375.0842241927
101375.18792548
101375.1096695496
101374.8592706091
101374.2657999266
101372.6624496176
101368.9166331649
101361.7762385246
101351.2486850767
101340.0217716201
101331.0533014823
101323.9549691691
101315.9575864531
101303.1058814999
101284.6117568671
101273.0559555518
101271.361278821
101271.2691627516
101271.235239473
101271.305917516
101271.4155938379
101271.5409275167
101271.6569517373
101271.9585209111
101272.7422117539
101274.3690465833
101277.0318903841
101280.3319653181
101283.3404467952
101285.6740557559
101287.7326267191
101290.2298955028
101294.7108585073
101305.0339173743
101327.6132744686
101357.4227552273
101369.9787556288
101370.9657880452
101371.0258081622
101370.9779812529
101370.9410299367
101371.2368558141
101371.8727827296
101373.8631754314
101376.8341117637
101378.1083874971
101378.2256868213
101378.2455549913
101378.2274127818
101378.0032971975
101377.4043345262
101375.8720865522
101372.2858124963
101365.3097671878
101355.4952098235
101346.2500952176
101338.9441506266
101330.8184837301
101316.4160611129
101292.434535907
101274.8346690671
101271.9412697594
101271.8927629395
101271.9037155443
101271.9178521721
101271.9186902996
101271.9260165654
101271.960426059
101272.0392573463
101272.1791135643
101272.4218074738
101272.8438125551
101273.5302380202
101274.5238803281
101275.7754876223
101277.174807235
101278.7274217976
101280.8150944601
101284.7355788132
101294.3732648707
101318.2693253122
101355.7703108689
101375.5993149871
101377.5105755891
101377.5306951621
101377.5243349097
101377.5109533345
101377.5072230727
101377.5034330817
101377.4758040414
101377.4253227859
101377.3743104355
101377.2657922592
101376.9928112863
101376.4931924137
101375.6900588327
101374.5643067
101373.3899407629
101372.4635654911
101371.7015023818
101370.6571642565
101368.1285123287
101360.9999150345
101340.6897211356
101302.271674804
101275.3640955447
101271.5330459517
101271.4780481389
101271.4884256877
101271.4778936
101271.4873553692
101271.5396840149
101271.5986785137
101271.5966490319
101271.6134703979
101271.6999878875
101271.8452009839
101272.0017339924
101272.4390335362
101273.2487431984
101274.3008001174
101275.5031967692
101276.905211353
101278.756795416
101281.8318127074
101289.4924087792
101310.2761067288
101348.0417103497
101374.3759839517
101378.256291339
101378.4543382309
101378.6496526387
101378.3593584167
101377.9670265002
101377.9005987144
101378.1500131162
101377.8403207145
101377.1488130082
101376.7953974671
101377.0920811426
101376.4404418471
101375.2535711072
101374.2128097373
101373.1906201379
101371.4122897359
101369.5156015683
101368.1166157981
101367.4233203709
101363.0025410059
101349.3671897463
101316.3970820928
101281.4615279787
101272.3046848014
101271.8360427777
101271.660926437
101271.9996871053
101272.4454744451
101272.5661887907
101272.6565670633
101273.0511519595
101273.520929935
101273.6173799733
101273.3945905549
101274.177067711
101275.7965055102
101276.8238546833
101278.1204373936
101279.5685047031
101280.8675732971
101281.0657618303
101280.9808853232
101285.7702874371
101296.4147828292
101327.6602769457
101365.3045841066
101377.0569122151
101377.5487847852
101377.4508690427
101377.5046469998
101377.3969752875
101376.9842812234
101376.5459723598
101376.5305655751
101376.5739320105
101376.0903549023
101375.449729494
101375.2770076465
101375.0220332251
101373.7146244841
101372.1110363769
101371.452650057
101371.5942981152
101370.7906608742
101368.5638917938
101366.2164196066
101354.1151811181
101324.8992116691
101287.193930648
101273.6829146173
101272.7414431995
101272.5811023632
101272.9895069878
101273.4033052121
101273.4014526058
101273.5273747027
101274.0079748741
101274.530483373
101274.5248646305
101274.5399627722
101275.1947870588
101275.9964720257
101276.1805981826
101276.2751789301
101276.9975950229
101277.8793339491
101278.2825967298
101278.8759703494
101283.0467517836
101292.5462368112
101319.625353335
101359.0366307329
101376.2895557639
101377.5424334293
101377.4992018602
101377.5016371248
101377.3474050838
101376.7860163873
101376.0981016308
101375.7006120313
101375.5859345117
101375.3434894595
101375.0057043866
101374.9600452037
101375.0858732471
101374.661930413
101374.0287586051
101373.8232424712
101374.072820342
101373.2782518593
101371.2824901944
101369.3084283398
101359.0040208592
101332.360892475
101292.3745311817
101274.1286610393
101272.6085623011
101272.4979241102
101272.685460288
101272.9957956601
101273.2018869502
101273.7716161102
101274.4631956379
101274.757028056
101274.7699451309
101274.645990808
101274.8720788755
101275.2545481039
101275.3148301837
101275.1439623424
101275.6037701298
101276.3515503159
101276.6570569746
101277.0904399053
101280.779815235
101289.0039686298
101313.9054939507
101354.1143074964
101375.0256787802
101376.9579923482
101376.9640114237
101376.9865732188
101376.8586926656
101376.4079144183
101375.8475817067
101375.407972114
101375.2240393819
101375.0590843282
101374.8666542942
101374.9218466717
101375.0628602326
101374.6998188674
101374.1826673295
101374.1539890229
101374.3412776609
101373.53700946
101371.864773762
101370.5670540602
101362.3906819028
101340.3312179886
101300.7127403027
101276.3601018618
101273.4123238767
101273.3157493875
101273.4552400757
101273.6496510744
101273.7881900519
101274.2887917203
101274.9132545392
101275.1480503944
101275.0958138865
101275.0062371752
101275.2221937197
101275.4997588398
101275.3997318631
101275.3395991592
101275.8505614924
101276.5089253854
101276.4976121661
101276.9638432759
101279.9497127872
101285.6347057091
101305.1605265317
101343.4268825474
101371.8573858027
101376.2617726742
101376.36600621
101376.4221407443
101376.2966216226
101375.9226488412
101375.5033399329
101375.0471834182
101374.7907651827
101374.6540006841
101374.5968635825
101374.7547447983
101374.7745803477
101374.3863498251
101373.9929210726
101374.1899870552
101374.1384225312
101373.3118380696
101372.0852342755
101371.3915103147
101365.3501252695
101348.9953298767
101312.805746823
101280.5111464314
101273.9380397311
101273.7445453124
101273.8487160618
101273.9673906091
101274.0736827294
101274.5535840572
101275.1845952377
101275.4396038464
101275.3638222283
101275.2823002983
101275.488131673
101275.6436334902
101275.4395397523
101275.5489768662
101276.0641202016
101276.5676858392
101276.2768451212
101276.8929834348
101279.3339709705
101282.8721321084
101297.2094899193
101330.4847215489
101366.2170206898
101375.8222050759
101376.2374862018
101376.3177882365
101376.1813148506
101375.8469584991
101375.516717852
101374.9641987033
101374.5317646627
101374.3659462554
101374.4168142572
101374.6098256751
101374.5283504209
101374.1761318188
101373.9565544104
101374.2369702645
101373.9517610259
101373.1471916922
101372.4390501155
101372.0101576373
101367.5120927692
101356.1641688284
101325.9499442946
101287.6846344781
101274.4714021313
101273.7809899402
101273.8399349023
101273.8945036086
101274.0059395301
101274.5129269902
101275.1968662623
101275.5480803846
101275.5599369118
101275.546330208
101275.6960061466
101275.7422361828
101275.521310693
101275.7750097427
101276.2954323856
101276.518760883
101276.2064727658
101276.940642451
101278.9080500813
101280.9350715135
101291.1853027173
101317.7508941589
101357.157872925
101374.8245292304
101376.2385044611
101376.3277361594
101376.1835703254
101375.9089045938
101375.674644498
101375.0680771382
101374.4470592978
101374.249620267
101374.3445746409
101374.5321863849
101374.3672149444
101374.055471971
101374.0521329624
101374.2471314603
101373.7716970949
101373.0219805239
101372.8137570264
101372.4041875402
101368.919931853
101361.4277195994
101337.9158623766
101298.1691150918
101275.9578242141
101273.6919753339
101273.678434923
101273.6658025351
101273.796483015
101274.3096383495
101274.9875502187
101275.5237971508
101275.6868899686
101275.7722762882
101275.8243435126
101275.7143108479
101275.5915600814
101275.9393821615
101276.4080448901
101276.331951098
101276.2229192514
101277.0407440918
101278.5557521668
101279.5698416473
101286.8021005689
101306.4413654498
101344.8307622289
101372.4351507067
101376.5923056128
101376.7180077058
101376.5857288833
101376.3704179579
101376.1621345626
101375.3825001201
101374.4343528696
101374.109456415
101374.1943708374
101374.304619097
101374.1086467046
101373.9131852967
101374.0986173807
101374.092815753
101373.530342608
101372.9194006552
101373.1108140532
101372.5570790769
101369.7883796734
101365.1779975207
101348.0307596434
101311.4977498306
101279.7022671147
101273.5186622677
101273.3480014164
101273.2989809069
101273.4328936254
101273.923363722
101274.5863798963
101275.4298791037
101275.8429101282
101275.9815449005
101275.9632203645
101275.7832636168
101275.7719010106
101276.1245003824
101276.4262494702
101276.1746905215
101276.3301187858
101277.1365201173
101278.1260919059
101278.6700536755
101283.8982866537
101297.7141274567
101331.14819948
101367.0065980108
101376.6384306325
101377.0220031015
101376.9197635156
101376.7806317984
101376.6055087239
101375.8068430763
101374.6614680667
101374.0973733492
101374.0853600131
101374.1083491068
101373.9311166545
101373.8702951195
101374.1192826605
101373.9316102175
101373.4009022949
101373.0372861213
101373.372963499
101372.6603891231
101370.4495049473
101367.8096570233
101355.7112524964
101325.6153523893
101287.1050839996
101273.5487818626
101272.7361855922
101272.6345147739
101272.8046348205
101273.242784123
101273.7535349012
101274.9742870553
101276.0658444682
101276.3359981212
101276.2630632597
101276.0605936061
101276.1846374162
101276.5141073821
101276.5794558629
101276.2868008909
101276.7176308673
101277.5250773524
101277.9261471802
101278.3196382226
101281.91866782
101290.412477564
101315.6479305763
101355.8031059452
101375.8728091988
101377.5862272578
101377.589725266
101377.5662269389
101377.4595778246
101377.179929646
101376.7150400191
101376.1817930663
101375.6764340527
101375.1320457716
101374.3673204243
101373.1857897327
101371.6582670987
101370.2248267266
101369.015273868
101367.5073754327
101364.2779120524
101355.8065353467
101339.4382426774
101327.0256946297
101325.0344555734
101325.0000264251
101325.000000001
101325.0000000006
101325.0000000008
101325.000000001
101325.0000000015
101325.0000000023
101325.0000000024
101325.0000000025
101325.0000000024
101325.0000000024
101325.0000000023
101325.0000000023
101325.0000000022
101325.0000000021
101325.0000000019
101325.0000000019
101325.000000002
101325.0000000019
101325.000000002
101325.000000002
101325.0000000019
101325.000000002
101325.000000002
101325.000000002
101325.000000002
101325.000000002
101325.000000002
101325.000000002
101325.0000000021
101325.000000002
101325.000000002
101325.0000000021
101325.0000000022
101325.0000000022
101325.0000000023
101325.0000000023
101325.0000000023
101325.0000000023
101325.0000000022
101325.0000000021
101325.0000000021
101325.000000002
101325.0000000021
101325.0000000021
101325.0000000021
101325.0000000021
101325.0000000021
101325.0000000021
101325.000000002
101325.000000002
101325.0000000019
101325.0000000019
101325.0000000019
101325.0000000019
101325.000000002
101325.000000002
101325.000000002
101325.000000002
101325.0000000021
101325.0000000021
101325.0000000021
101325.000000002
101325.000000002
101325.000000002
101325.0000000021
101325.0000000021
101325.0000000022
101325.0000000022
101325.0000000021
101325.0000000022
101325.0000000023
101325.0000000023
101325.0000000023
101325.0000000023
101325.0000000024
101325.0000000024
101325.0000000024
101325.0000000024
101325.0000000024
101325.0000000024
101325.0000000023
101325.0000000022
101325.0000000023
101325.0000000024
101325.0000000024
101325.0000000024
101325.0000000025
101325.0000000025
101325.0000000025
101325.0000000023
101325.0000000023
101325.0000000022
101325.0000000023
101325.0000000023
101325.0000000023
101325.0000000023
101325.0000000024
101325.0000000023
101325.0000000022
101325.0000000021
101325.000000002
101325.000000002
101325.000000002
101325.0000000021
101325.0000000022
101325.0000000022
101325.0000000023
101325.0000000023
101325.0000000024
101325.0000000024
101325.0000000024
101325.0000000024
101325.0000000024
101325.0000000025
101325.0000000024
101325.0000000024
101325.0000000024
101325.0000000024
101325.0000000024
101325.0000000024
101325.0000000024
101325.0000000024
101325.0000000024
101325.0000000024
101325.0000000024
101325.0000000023
101325.0000000022
101325.0000000022
101325.0000000023
101325.0000000023
101325.0000000024
101325.0000000024
101325.0000000023
101325.0000000023
101325.0000000022
101325.0000000022
101325.0000000022
101325.0000000023
101325.0000000023
101325.0000000023
101325.0000000023
101325.0000000023
101325.0000000023
101325.0000000023
101325.0000000024
101325.0000000023
101325.0000000022
101325.0000000022
101325.0000000022
101325.0000000021
101325.0000000021
101325.0000000021
101325.000000002
101325.000000002
101325.000000002
101325.0000000019
101325.0000000019
101325.0000000018
101325.0000000018
101325.0000000019
101325.0000000019
101325.0000000018
101325.0000000018
101325.0000000017
101325.0000000018
101325.0000000018
101325.0000000019
101325.0000000019
101325.0000000019
101325.0000000019
101325.0000000019
101325.000000002
101325.0000000021
101325.0000000021
101325.0000000021
101325.000000002
101325.000000002
101325.000000002
101325.0000000019
101325.0000000019
101325.0000000018
101325.0000000018
101325.0000000019
101325.0000000019
101325.0000000019
101325.0000000019
101325.0000000018
101325.0000000018
101325.0000000018
101325.0000000019
101325.0000000019
101325.0000000019
101325.0000000018
101325.0000000018
101325.0000000019
101325.0000000019
101325.000000002
101325.000000002
101325.0000000021
101325.0000000021
101325.0000000022
101325.0000000021
101325.0000000021
101325.000000002
101325.000000002
101325.000000002
101325.000000002
101325.0000000021
101325.0000000022
101325.0000000022
101325.0000000023
101325.0000000024
101325.0000000024
101325.0000000024
101325.0000000025
101325.0000000025
101325.0000000024
101325.0000000024
101325.0000000024
101325.0000000024
101325.0000000024
101325.0000000024
101325.0000000024
101325.0000000024
101325.0000000024
101325.0000000023
101325.0000000023
101325.0000000024
101325.0000000025
101325.0000000026
101325.0000000026
101325.0000000026
101325.0000000026
101325.0000000025
101325.0000000024
101325.0000000024
101325.0000000023
101325.0000000022
101325.0000000021
101325.0000000019
101325.0000000017
101325.0000000016
101325.0000000015
101325.0000000016
101325.0000000016
101325.0000000016
101325.0000000015
101325.0000000015
101325.0000000015
101325.0000000014
101325.0000000014
101325.0000000014
101325.0000000014
101325.0000000015
101325.0000000014
101325.0000000014
101325.0000000015
101325.0000000015
101325.0000000016
101325.0000000016
101325.0000000016
101325.0000000016
101325.0000000017
101325.0000000017
101325.0000000017
101325.0000000017
101325.0000000017
101325.0000000017
101325.0000000017
101325.0000000018
101325.0000000017
101325.0000000018
101325.0000000018
101325.0000000019
101325.0000000019
101325.0000000021
101325.0000000022
101325.0000000022
101325.0000000023
101325.0000000023
101325.0000000023
101325.0000000022
101325.0000000022
101325.0000000022
101325.0000000022
101325.0000000023
101325.0000000024
101325.0000000026
101325.0000000026
101325.0000000026
101325.0000000026
101325.0000000026
101325.0000000025
101325.0000000024
101325.0000000023
101325.0000000023
101325.0000000023
101325.0000000022
101325.0000000022
101325.0000000022
101325.0000000022
101325.0000000022
101325.0000000022
101325.0000000022
101325.0000000022
)
;

boundaryField
{
    inlet
    {
        type            uniformFixedValue;
        uniformValue    sine;
        uniformValueCoeffs
        {
            frequency       constant 3000;
            scale           constant 50;
            level           constant 101325;
        }
        value           uniform 101325;
    }
    outlet
    {
        type            waveTransmissive;
        gamma           1.4;
        fieldInf        101325;
        lInf            2.25;
        value           uniform 101325.0000000022;
    }
    frontAndBack
    {
        type            empty;
    }
}


// ************************************************************************* //
