/*--------------------------------*- C++ -*----------------------------------*\
| =========                 |                                                 |
| \\      /  F ield         | OpenFOAM: The Open Source CFD Toolbox           |
|  \\    /   O peration     | Version:  v2012                                 |
|   \\  /    A nd           | Website:  www.openfoam.com                      |
|    \\/     M anipulation  |                                                 |
\*---------------------------------------------------------------------------*/
FoamFile
{
    version     2.0;
    format      ascii;
    class       volScalarField;
    location    "0.005";
    object      T;
}
// * * * * * * * * * * * * * * * * * * * * * * * * * * * * * * * * * * * * * //

dimensions      [0 0 0 1 0 0 0];


internalField   nonuniform List<scalar> 
1000
(
299.9896039064472
299.9853597963034
299.9802900188477
299.980279743444
299.9796176438514
299.9753123475641
299.9659121359756
299.9580323304331
299.9541270984627
299.9553254989473
299.9596980945921
299.9640511445498
299.9641816303904
299.9615612815288
299.9566181603079
299.9550981957073
299.9588171860534
299.9677431694234
299.9802292213211
299.9901101574288
299.9935396610335
299.9926783167858
299.9914460759917
299.9926535473776
299.9979983136262
300.0091063361024
300.0243816949953
300.0346835862543
300.0370073750127
300.0355009437673
300.0334493214505
300.0337322482622
300.0365377218703
300.041652951819
300.0461767392082
300.0477314134541
300.0454562401815
300.0403909992016
300.0356700020206
300.0312925392619
300.0284017141887
300.0271438345409
300.025285054497
300.020689683801
300.0128585342154
300.0013483889732
299.9918484754759
299.9890124095006
299.98842502618
299.9860592559165
299.9798424142809
299.9690826429901
299.9602754842396
299.9590455099547
299.9595782156062
299.9604711880363
299.9605945757788
299.9595374574028
299.9583238834397
299.9573353631716
299.9571384982581
299.9572862650838
299.9592364174858
299.964860767483
299.9755539524483
299.9852467178257
299.9882359097949
299.9890889064384
299.9901932113165
299.991894178018
299.9963633244051
300.0085694672977
300.0259783727216
300.0339216451032
300.0350077329578
300.0354218043765
300.0354431811821
300.0357476463899
300.0377807180012
300.0420387103482
300.0449570430593
300.0454225880922
300.0450898883842
300.044552237161
300.0427090722626
300.0383060580149
300.031893646017
300.0267927491314
300.0240130509657
300.0219963212161
300.0190964186814
300.013158550474
300.0031958661656
299.9924858008205
299.9849082322654
299.9792687566675
299.9726480859496
299.9646248325391
299.960091065883
299.9594122188637
299.9593703614665
299.9594607761358
299.9592129006793
299.9584097972558
299.9571245231605
299.9566099042423
299.9566638385923
299.9567690513211
299.957522097159
299.9599314133883
299.9651746828361
299.9729400588194
299.980194993919
299.9850775748757
299.9888580983924
299.9933552298273
299.999868903279
300.0087608358574
300.0197060160382
300.0316244890441
300.0399258884157
300.0419639443011
300.0420914073865
300.0420748094215
300.0419891237779
300.0419532190597
300.0420147230627
300.0421797262841
300.0423542572352
300.042441716662
300.0423752279997
300.0421630037734
300.0416606484993
300.0403039974062
300.0371348332066
300.0310937733896
300.0221867205333
300.0126872848166
300.0050981951546
299.9990912301168
299.9923231332567
299.9814462633249
299.9657924427448
299.9560100514338
299.9545752092263
299.9544970718863
299.9544682768945
299.9545280629291
299.9546208879438
299.9547270571655
299.9548254363684
299.9550809751734
299.9557447185996
299.9571222406977
299.959376771026
299.9621707242795
299.9647178684384
299.9666938155866
299.968437061423
299.9705517480793
299.9743454847919
299.9830835894338
300.0021931402311
300.0274168356586
300.0380395414599
300.038874976084
300.0389262599738
300.0388864520296
300.0388558040825
300.0391066919216
300.03964532053
300.0413296830545
300.0438435895827
300.0449220317294
300.0450216725159
300.0450389543873
300.0450241366664
300.044835012037
300.0443286573725
300.0430328530161
300.0399994559815
300.034098292693
300.0257953482732
300.0179736215482
300.0117922221642
300.0049168920549
299.992729420445
299.9724331284798
299.9575353042242
299.9550861155779
299.9550451827842
299.9550546060401
299.9550668438243
299.9550677845083
299.9550741809406
299.9551035044702
299.9551704143755
299.9552889708279
299.9554945735254
299.9558519598673
299.9564331785342
299.9572744615567
299.9583341169058
299.9595188080913
299.9608332543531
299.9626006156037
299.9659193994516
299.9740773714096
299.9943021209127
300.0260347059241
300.0428093598302
300.0444261661272
300.0444432466547
300.0444379153619
300.0444266741517
300.0444235921109
300.0444204596215
300.0443971611123
300.0443545264642
300.0443114420102
300.0442197160544
300.0439888696195
300.043566302793
300.0428869822437
300.0419347438511
300.0409413742295
300.0401577855964
300.0395131956649
300.0386298161696
300.0364907477687
300.0304600871506
300.0132763057391
299.9807656512588
299.9579891940066
299.9547459393647
299.9546994170191
299.9547082797877
299.9546994684963
299.9547075304091
299.9547518956768
299.9548019367651
299.9548003051718
299.9548146085678
299.9548879250346
299.955010922867
299.9551434831952
299.9555137176498
299.9561992046607
299.9570898366705
299.9581077240106
299.9592945803284
299.960861988413
299.9634650090224
299.9699495180034
299.9875407295038
300.0194990958551
300.0417777929669
300.0450600481989
300.0452275703717
300.0453927836706
300.0451472118671
300.0448153140085
300.044759100371
300.0449700636882
300.0447080651244
300.0441230687986
300.0438240554789
300.0440749792094
300.0435236877272
300.0425196044971
300.0416391148149
300.0407743363635
300.0392698889552
300.03766528559
300.0364816993182
300.0358950928664
300.0321550373667
300.0206188394582
299.9927204487595
299.9631510721002
299.9553990947476
299.9550023011515
299.9548540075198
299.9551407359118
299.9555180762561
299.9556202501729
299.9556967469584
299.9560307744982
299.9564284608589
299.9565101129812
299.9563215182809
299.956983928298
299.9583548517128
299.9592245529678
299.9603221567173
299.9615479805003
299.962647679144
299.9628154882096
299.9627436773637
299.9667978446689
299.9758078009875
300.0022517069479
300.0341027991551
300.0440442474372
300.0444603192848
300.044377509546
300.0444230274452
300.0443319610483
300.0439828699286
300.0436121129825
300.0435990957646
300.0436357886124
300.0432267258812
300.0426848103817
300.0425387065952
300.0423230195525
300.0412170339885
300.0398604837217
300.0393035206918
300.0394233507176
300.038743510767
300.0368597319268
300.0348738229378
300.0246359070799
299.9999153254105
299.968003703779
299.9565660183415
299.9557689803946
299.9556332414344
299.9559789711699
299.956329260665
299.9563276835171
299.9564342755373
299.9568411151902
299.9572834245556
299.9572786544703
299.9572914264795
299.9578457457116
299.9585243803835
299.9586802339697
299.9587602867207
299.9593718185194
299.9601182134305
299.9604595686225
299.9609618584438
299.9644923956931
299.9725333339891
299.9954520217141
300.0288002287555
300.0433951653776
300.0444549337007
300.044418359587
300.0444204146456
300.0442899424603
300.0438150476413
300.0432331201164
300.0428968702871
300.0427998602173
300.042594767515
300.0423090233685
300.0422703995227
300.0423768428631
300.0420182152336
300.0414825914229
300.0413087388096
300.0415198692739
300.0408477131492
300.039159392752
300.0374894152528
300.0287719060195
300.0062292031724
299.9723887976793
299.9569432420058
299.9556563385136
299.9555626792002
299.9557214394955
299.9559841547581
299.9561586215987
299.9566409225747
299.957226372044
299.9574751123424
299.9574860476926
299.95738111629
299.9575725078494
299.9578962802511
299.9579473106235
299.9578026651079
299.9581919061816
299.9588249205108
299.9590835384295
299.9594504089188
299.9625734912761
299.9695350552804
299.9906113524762
300.0246358476372
300.0423260936786
300.0439605869302
300.0439656774578
300.0439847619162
300.0438765834502
300.0434952571562
300.0430212544759
300.0426493735891
300.0424937777643
300.0423542358075
300.0421914512497
300.042238139749
300.0423574275812
300.0420503168683
300.0416128366741
300.0415885757548
300.04174701029
300.0410666456641
300.0396520140882
300.0385542007116
300.0316371077046
300.0129732959065
299.9794463876025
299.9588323187722
299.9563367654629
299.9562550091808
299.9563730934642
299.9565376695716
299.9566549476886
299.9570787257675
299.9576073548618
299.9578061163321
299.9577618956732
299.9576860654122
299.9578688789647
299.9581038451506
299.9580191684931
299.957968263653
299.9584008077083
299.9589581280539
299.9589485507155
299.9593432280907
299.9618707962062
299.9666830839876
299.9832100856555
300.0155932872299
300.0396460107215
300.0433716224273
300.0434597933795
300.0435072790786
300.0434010988569
300.0430847440153
300.0427300371944
300.04234415849
300.0421272445972
300.0420115501406
300.0419632153669
300.0420967727972
300.0421135520528
300.041785132466
300.0414523140324
300.0416190198522
300.0415753988797
300.0408761542648
300.0398385065712
300.039251650497
300.0341407841
300.0203040228362
299.9896811210021
299.9623464131928
299.9567818001767
299.9566179917245
299.9567061763546
299.9568066388798
299.9568966191929
299.9573028734586
299.9578370457785
299.9580529184309
299.957988767062
299.9579197563083
299.95809399897
299.9582256359249
299.9580528646771
299.9581455065572
299.9585815898763
299.9590078704173
299.9587616669561
299.9592832449011
299.9613495706004
299.9643446205885
299.976480436601
300.0046419049638
300.034874678816
300.0429997964638
300.0433510777781
300.0434190074524
300.0433035606584
300.0430207183065
300.0427413570767
300.0422739618591
300.0419081492504
300.0417678767021
300.0418109077729
300.0419741834709
300.0419052602065
300.0416073039779
300.0414215538689
300.0416587690393
300.0414174986486
300.0407368762708
300.0401378237252
300.03977500449
300.0359697809571
300.0263693190692
300.0008043659404
299.9684189159813
299.9572333493202
299.9566488526809
299.9566987519069
299.9567449464661
299.9568392812998
299.9572684650943
299.9578474429364
299.9581447563369
299.9581547931851
299.958143274714
299.9582699796881
299.9583091147139
299.9581220947598
299.9583368584032
299.958777409721
299.9589664625734
299.9587021029191
299.9593235963476
299.9609890333199
299.9627049193275
299.9713814281193
299.9938657443934
300.0272107786836
300.0421558911077
300.0433519475434
300.0434274308225
300.0433054768338
300.0430731287003
300.0428749606501
300.0423618446995
300.0418365020332
300.0416694802165
300.0417498058331
300.0419085138263
300.041768957848
300.0415052412551
300.0415024164196
300.0416673733538
300.0412651833502
300.0406309623389
300.0404548159316
300.0401083435058
300.037160787198
300.0308224420931
300.0109295824035
299.9772934733072
299.9584917516199
299.9565735063525
299.9565620430852
299.956551349187
299.9566619754415
299.9570963811134
299.9576702574664
299.9581242072156
299.9582622699006
299.9583345518382
299.9583786280772
299.9582854822195
299.9581815698857
299.9584760110269
299.9588727453287
299.9588083295943
299.9587160309917
299.9594083385503
299.9606908141851
299.9615492533924
299.9676712517615
299.9842941467035
300.0167811519792
300.0401347607442
300.0436512368315
300.0437575683903
300.0436456699773
300.0434635322206
300.0432873393243
300.0426278221788
300.0418257498034
300.041550906682
300.0416227397114
300.0417160036544
300.0415502231284
300.0413848747069
300.0415417403622
300.0415368329402
300.0410610131208
300.0405441886638
300.0407061154183
300.0402376869964
300.037895474672
300.0339951922815
300.0194879289709
299.9885741818867
299.9616617037423
299.9564268028251
299.9562823250571
299.9562408275705
299.9563541909852
299.9567693943983
299.9573306631419
299.9580447135246
299.9583943564602
299.9585117150703
299.9584962032552
299.9583438653431
299.9583342468893
299.9586327322772
299.9588881708513
299.958675220452
299.9588067949526
299.9594894318658
299.960327120786
299.9607875951836
299.9652132664034
299.9769075945666
300.0052033768278
300.0355426772501
300.043690293534
300.0440147494361
300.0439282622215
300.0438105667101
300.0436624250315
300.0429868101483
300.0420178974057
300.0415407063256
300.0415305434113
300.041549990602
300.04140006198
300.041348610175
300.0415592389955
300.0414004787224
300.0409515286784
300.0406439276566
300.0409278923095
300.0403250924765
300.0384547744437
300.0362215452017
300.025986149432
300.0005212451366
299.967928396451
299.9564523454712
299.9557644096815
299.9556783415862
299.9558223582388
299.9561932741947
299.9566256496182
299.9576590655972
299.9585831057567
299.9588118014206
299.9587500642066
299.9585786733028
299.9586836832769
299.9589625905794
299.9590179116523
299.9587701723704
299.9591348799415
299.959818396082
299.9601579039237
299.9604909962929
299.9635375701516
299.9707273195334
299.9920860115717
300.026064663087
300.0430426909103
300.0444920148064
300.0444949710383
300.0444750897049
300.0443848705243
300.0441483080175
300.0437550445035
300.0433039543424
300.0428764539539
300.0424159359922
300.0417690248299
300.0407695161929
300.0394773062509
300.0382646725216
300.0372414294039
300.0359657844195
300.033233696619
300.0260667322037
300.0122176723549
300.0017142485327
300.0000291581493
300.0000000223611
299.9999999999999
299.9999999999995
299.9999999999997
299.9999999999999
300.0000000000004
300.000000000001
300.0000000000012
300.0000000000013
300.0000000000012
300.0000000000012
300.0000000000013
300.0000000000013
300.0000000000011
300.0000000000009
300.0000000000008
300.0000000000008
300.0000000000009
300.0000000000009
300.000000000001
300.000000000001
300.000000000001
300.000000000001
300.0000000000009
300.0000000000009
300.0000000000009
300.000000000001
300.0000000000011
300.000000000001
300.000000000001
300.0000000000009
300.0000000000008
300.000000000001
300.0000000000011
300.0000000000013
300.0000000000013
300.0000000000013
300.0000000000014
300.0000000000014
300.0000000000012
300.0000000000011
300.000000000001
300.000000000001
300.000000000001
300.000000000001
300.0000000000009
300.0000000000009
300.0000000000008
300.0000000000007
300.0000000000007
300.0000000000008
300.0000000000007
300.0000000000006
300.0000000000006
300.0000000000006
300.0000000000007
300.0000000000007
300.0000000000006
300.0000000000006
300.0000000000006
300.0000000000007
300.0000000000006
300.0000000000007
300.0000000000009
300.0000000000009
300.0000000000009
300.0000000000009
300.000000000001
300.000000000001
300.0000000000009
300.000000000001
300.0000000000011
300.0000000000011
300.000000000001
300.000000000001
300.0000000000011
300.0000000000013
300.0000000000014
300.0000000000013
300.0000000000013
300.0000000000011
300.0000000000009
300.0000000000009
300.0000000000011
300.0000000000012
300.0000000000011
300.0000000000011
300.0000000000012
300.0000000000012
300.0000000000013
300.0000000000011
300.000000000001
300.0000000000008
300.0000000000009
300.0000000000009
300.000000000001
300.0000000000013
300.0000000000014
300.0000000000013
300.0000000000011
300.0000000000009
300.0000000000007
300.0000000000007
300.0000000000007
300.0000000000008
300.0000000000009
300.0000000000011
300.0000000000011
300.0000000000011
300.0000000000011
300.0000000000011
300.0000000000011
300.000000000001
300.000000000001
300.000000000001
300.000000000001
300.0000000000011
300.0000000000012
300.0000000000011
300.0000000000011
300.0000000000011
300.0000000000013
300.0000000000013
300.0000000000012
300.0000000000011
300.000000000001
300.000000000001
300.000000000001
300.0000000000011
300.0000000000011
300.000000000001
300.000000000001
300.000000000001
300.0000000000009
300.0000000000009
300.0000000000008
300.0000000000008
300.0000000000008
300.0000000000009
300.0000000000009
300.0000000000011
300.0000000000011
300.0000000000011
300.0000000000011
300.0000000000013
300.0000000000014
300.0000000000013
300.0000000000011
300.0000000000011
300.0000000000012
300.0000000000013
300.0000000000012
300.0000000000012
300.000000000001
300.0000000000009
300.0000000000008
300.0000000000006
300.0000000000005
300.0000000000005
300.0000000000005
300.0000000000005
300.0000000000005
300.0000000000005
300.0000000000004
300.0000000000004
300.0000000000005
300.0000000000005
300.0000000000006
300.0000000000007
300.0000000000009
300.000000000001
300.000000000001
300.0000000000009
300.0000000000009
300.000000000001
300.000000000001
300.000000000001
300.0000000000012
300.0000000000013
300.0000000000011
300.000000000001
300.000000000001
300.000000000001
300.0000000000012
300.0000000000011
300.0000000000012
300.0000000000012
300.0000000000011
300.000000000001
300.0000000000011
300.0000000000012
300.0000000000013
300.0000000000013
300.0000000000012
300.0000000000012
300.0000000000012
300.0000000000012
300.0000000000013
300.0000000000013
300.0000000000014
300.0000000000016
300.0000000000016
300.0000000000014
300.0000000000014
300.0000000000013
300.0000000000013
300.0000000000013
300.0000000000013
300.0000000000014
300.0000000000014
300.0000000000015
300.0000000000016
300.0000000000016
300.0000000000016
300.0000000000016
300.0000000000018
300.0000000000018
300.0000000000018
300.0000000000018
300.0000000000018
300.0000000000018
300.0000000000019
300.0000000000019
300.0000000000018
300.0000000000019
300.0000000000018
300.0000000000016
300.0000000000016
300.0000000000016
300.0000000000017
300.0000000000018
300.0000000000018
300.0000000000018
300.0000000000018
300.0000000000017
300.0000000000015
300.0000000000016
300.0000000000015
300.0000000000015
300.0000000000014
300.0000000000012
300.0000000000011
300.0000000000009
300.0000000000009
300.000000000001
300.0000000000011
300.000000000001
300.0000000000009
300.0000000000007
300.0000000000006
300.0000000000006
300.0000000000006
300.0000000000006
300.0000000000004
300.0000000000005
300.0000000000003
300.0000000000003
300.0000000000005
300.0000000000005
300.0000000000006
300.0000000000007
300.0000000000008
300.0000000000007
300.0000000000008
300.0000000000008
300.0000000000007
300.0000000000006
300.0000000000006
300.0000000000006
300.0000000000007
300.0000000000007
300.0000000000006
300.0000000000007
300.0000000000007
300.000000000001
300.0000000000013
300.0000000000014
300.0000000000014
300.0000000000014
300.0000000000015
300.0000000000015
300.0000000000015
300.0000000000015
300.0000000000015
300.0000000000015
300.0000000000014
300.0000000000015
300.0000000000016
300.0000000000017
300.0000000000017
300.0000000000016
300.0000000000016
300.0000000000016
300.0000000000016
300.0000000000016
300.0000000000015
300.0000000000014
300.0000000000014
300.0000000000014
300.0000000000015
300.0000000000017
300.0000000000018
300.0000000000019
300.0000000000019
300.0000000000016
300.0000000000013
)
;

boundaryField
{
    inlet
    {
        type            fixedValue;
        value           uniform 300;
    }
    outlet
    {
        type            inletOutlet;
        inletValue      uniform 300;
        value           uniform 300;
    }
    frontAndBack
    {
        type            empty;
    }
}


// ************************************************************************* //
