/*--------------------------------*- C++ -*----------------------------------*\
| =========                 |                                                 |
| \\      /  F ield         | OpenFOAM: The Open Source CFD Toolbox           |
|  \\    /   O peration     | Version:  v2012                                 |
|   \\  /    A nd           | Website:  www.openfoam.com                      |
|    \\/     M anipulation  |                                                 |
\*---------------------------------------------------------------------------*/
FoamFile
{
    version     2.0;
    format      ascii;
    class       volScalarField;
    location    "0.011";
    object      p;
}
// * * * * * * * * * * * * * * * * * * * * * * * * * * * * * * * * * * * * * //

dimensions      [1 -1 -2 0 0 0 0];


internalField   nonuniform List<scalar> 
1000
(
101311.5954508908
101314.2432727641
101307.4632082648
101302.1316689969
101296.222487389
101290.8976158549
101286.3119373388
101282.3892265607
101278.9867865103
101276.6067250879
101275.850931079
101275.8486798197
101276.1686128106
101277.0911322616
101278.9532202155
101281.855174316
101285.6983175429
101290.3005733474
101295.5051398584
101301.2055309068
101307.3196193045
101313.7608136394
101320.4253161268
101327.1915725894
101333.9247661306
101340.4852811037
101346.7471906806
101352.6343359093
101358.1563410904
101363.3684098145
101368.1298109357
101371.7018970228
101373.2186456261
101373.3944709934
101373.3468162824
101373.1230603382
101372.4740939377
101371.1466513634
101368.9070499794
101365.6264006169
101361.3238802814
101356.1536008253
101350.335575686
101344.0776139202
101337.5355927429
101330.8210360635
101324.0301834245
101317.2662296417
101310.6399362322
101304.2420254781
101298.0985261632
101292.1650462117
101286.4635362764
101281.4440478476
101278.1905196718
101277.162012088
101277.0971279761
101277.1277929503
101277.3501269526
101277.9083810247
101279.0322885143
101280.9337176319
101283.7818852145
101287.6525411124
101292.5027222462
101298.1776587413
101304.4530487281
101311.0950894898
101317.9074493857
101324.7449929145
101331.5043270915
101338.1199477163
101344.5773931246
101350.9173383334
101357.1813483224
101363.2354134536
101368.4302796414
101371.58580642
101372.4955786157
101372.5539307645
101372.4986892673
101372.3259167394
101371.8507529358
101370.90658261
101369.295250212
101366.8382669002
101363.4092008979
101358.9702669347
101353.589895191
101347.4338791756
101340.7332480508
101333.7383402223
101326.6701911655
101319.6822427238
101312.8432282337
101306.1423086412
101299.5155930851
101292.9256830014
101286.5882473075
101281.3556635473
101278.4785355094
101277.7946793408
101277.77493821
101277.8050793691
101277.9886980902
101278.4288745673
101279.2970667851
101280.7661960317
101283.0049441963
101286.1468336077
101290.2619087674
101295.3319272
101301.2409491306
101307.7908029859
101314.7391569428
101321.847431181
101328.9270553705
101335.8769336112
101342.6993742996
101349.4705397744
101356.2317366869
101362.7478511653
101368.148383463
101371.1672577041
101371.9293446752
101371.9701199117
101371.9262903723
101371.7884220423
101371.4158879162
101370.6769249754
101369.4088455396
101367.4479936731
101364.6479636469
101360.9073180791
101356.1943668691
101350.5636134416
101344.1591041737
101337.1976708507
101329.9267228746
101322.5649258122
101315.2496674958
101308.0164132
101300.8283345299
101293.6915141465
101286.9354016581
101281.5873614586
101278.8724097283
101278.2988295729
101278.2864644933
101278.3126722576
101278.4626644785
101278.8205014285
101279.5243788538
101280.7195796756
101282.5577402704
101285.1774757771
101288.6841286753
101293.1262012277
101298.4758218047
101304.6227054741
101311.3864782762
101318.5466685194
101325.8882835384
101333.2551454688
101340.5871443445
101347.9035049943
101355.188570151
101362.1253159374
101367.7337733298
101370.7455018316
101371.4691357031
101371.5066403948
101371.4721828199
101371.3630510004
101371.0648862046
101370.4692533727
101369.4385574531
101367.8272493537
101365.4925261987
101362.3139507592
101358.213809356
101353.1758374214
101347.2593600406
101340.6011398683
101333.394637528
101325.8459151732
101318.1218139465
101310.3161444273
101302.4656799612
101294.6708079567
101287.4044891171
101281.8609724456
101279.2208417287
101278.709469322
101278.6999310648
101278.721990633
101278.8463549227
101279.1428061989
101279.726729559
101280.7224580642
101282.2649417128
101284.4866270337
101287.5031323546
101291.3943572698
101296.1856388173
101301.8359218096
101308.2374326685
101315.2289577076
101322.6261012823
101330.2669811694
101338.0529589472
101345.9424094723
101353.8411201367
101361.3225293191
101367.2675513977
101370.367918531
101371.0881606994
101371.1253378894
101371.0978259399
101371.0103645084
101370.7674013078
101370.2780987057
101369.424534336
101368.077937688
101366.1049659604
101363.3817221417
101359.8092832279
101355.3298437074
101349.9421906167
101343.7106397735
101336.7576819659
101329.2365597017
101321.292936801
101313.0360096692
101304.5537330304
101296.0412906399
101288.1354864218
101282.2373720445
101279.5465979265
101279.05376516
101279.0441741093
101279.0624511748
101279.1665955552
101279.4157248289
101279.9080413995
101280.7510363377
101282.0644851017
101283.9713487371
101286.5876396016
101290.0077944286
101294.2887185692
101299.4375711996
101305.4065045995
101312.0965175344
101319.3752492175
101327.1103744649
101335.2027999808
101343.5799153176
101352.0865419303
101360.1943338454
101366.6331430235
101369.9789837515
101370.7590097067
101370.8015982404
101370.7798863802
101370.7099598775
101370.5101747882
101370.1032893257
101369.3871530787
101368.2479048348
101366.5633587939
101364.2129605787
101361.0891836843
101357.1103106873
101352.2342493268
101346.4690351129
101339.8720023198
101332.5339433797
101324.5544507113
101316.024146611
101307.0469037165
101297.8776974859
101289.2781066896
101282.8422227878
101279.9027298929
101279.3571892716
101279.3425949527
101279.3566961916
101279.4430193749
101279.6526392997
101280.0709244816
101280.7918827359
101281.9221044903
101283.5743282365
101285.8603660521
101288.8800025807
101292.7082827611
101297.384844625
101302.9072805882
101309.2302155464
101316.2749477148
101323.9522151619
101332.1854389469
101340.8992807829
101349.911845011
101358.6415883972
101365.7128094598
101369.5134044654
101370.4560517769
101370.5159654522
101370.4994316882
101370.4451014311
101370.2815152804
101369.9420729399
101369.3370287921
101368.3652025563
101366.9153840119
101364.8733474757
101362.1298511148
101358.5902265486
101354.185706575
101348.8831521622
101342.6869656866
101335.6307025535
101327.7631860334
101319.1409017106
101309.8560660561
101300.1762608928
101290.9075839457
101283.7663215514
101280.3372304329
101279.6402649965
101279.6123131881
101279.621955083
101279.6915789295
101279.8659414636
101280.2209622842
101280.8399471525
101281.8185479373
101283.2599223507
101285.2698559537
101287.9484415276
101291.3803939491
101295.6265178256
101300.71722904
101306.6493849141
101313.3909351142
101320.8958170988
101329.1186037937
101337.9994363659
101347.3631753453
101356.6383071448
101364.4286421562
101368.9064750729
101370.1546385391
101370.2547487062
101370.2428928952
101370.2028219875
101370.0708972632
101369.7891357308
101369.2773914429
101368.444966709
101367.1905088618
101365.4069776916
101362.9869858019
101359.8297325749
101355.8498829513
101350.9856749313
101345.2016670291
101338.4850207898
101330.8391728353
101322.2831026982
101312.8808388168
101302.8724191778
101293.0252150493
101285.0718805873
101280.9060357043
101279.92211366
101279.864160939
101279.8695568002
101279.9236972907
101280.0657435668
101280.3647389219
101280.8953996144
101281.7445351958
101283.0069639644
101284.7821444464
101287.1679641684
101290.2536213449
101294.1131452959
101298.7996117453
101304.3411045513
101310.7425458475
101317.9951906485
101326.084941019
101334.976191105
101344.5237644223
101354.2186315196
101362.7383805358
101368.0857952188
101369.8246161208
101370.0086224219
101370.0015860471
101369.9743530139
101369.8703064479
101369.6390384728
101369.2077760141
101368.4944294095
101367.4061305871
101365.8428240493
101363.7006335699
101360.8767814714
101357.2763750096
101352.8187277307
101347.4400539484
101341.0926297933
101333.743317342
101325.3764873702
101316.0213151077
101305.8663767517
101295.5800389898
101286.7993239193
101281.6814968646
101280.2297149288
101280.1070323855
101280.1080010581
101280.1469565639
101280.2573122859
101280.5036312315
101280.9546141998
101281.6908866366
101282.8006922777
101284.3772462865
101286.5141266887
101289.3003574124
101292.8157524494
101297.1265647456
101302.2826630557
101308.3184590471
101315.2573747227
101323.1148414256
101331.8834744811
101341.4647863181
101351.4409700182
101360.6375893175
101366.992092609
101369.4423975443
101369.8188492638
101369.8412424004
101369.8101633169
101369.7129979696
101369.4978768673
101369.1025830647
101368.4539520561
101367.4712772681
101366.0681172105
101364.1539888549
101361.6359936394
101358.4199659951
101354.4118230729
101349.5196081881
101343.6556445302
101336.7386013821
101328.7025751881
101319.5304787706
101309.322857319
101298.6492633322
101288.9638125111
101282.5984516173
101280.3073206361
101279.8165122111
101279.6786094473
101279.7554043944
101280.0100465116
101280.4455465544
101281.0891506298
101281.9839295115
101283.1842614346
101284.7430580145
101286.7159209412
101289.1660424182
101292.1661180846
101295.796691818
101300.1421970539
101305.2871679947
101311.3161670481
101318.313518593
101326.3443492066
101335.409079128
101345.2606890165
101354.8525032424
101362.2284357504
101366.3016529023
101367.9480880656
101369.7846891088
101371.4848954596
101373.2947270085
101375.1709663241
101376.9866614378
101378.5666969701
101379.7760998151
101380.2572843552
101379.7931455974
101378.4390043419
101375.9949240212
101372.2937842252
101367.2373185975
101360.8077785623
101353.0261363931
101343.9053243727
101333.4883045623
101322.0085343377
101310.0797762402
101299.0953233565
101291.1154613291
101286.8047423466
101284.7385553801
101283.6530273708
101283.2237856468
101283.3237017587
101283.6652113262
101284.167594736
101284.9018021334
101285.9182310754
101287.2713318905
101289.0165647844
101291.2315453794
101294.0085839591
101297.440810372
101301.6111469821
101306.5926116302
101312.4587326595
101319.297013919
101327.180781247
101336.0482811075
101345.561940084
101355.0376825927
101363.0264354196
101368.516085659
101370.867026602
101372.4187474678
101373.8528136013
101375.3644864557
101376.9217619999
101378.4618400706
101379.8779765195
101381.0321796791
101381.708021422
101381.6657868419
101380.7775057251
101378.916098331
101375.8720321403
101371.5174658377
101365.7659014712
101358.5805576455
101349.9888064034
101340.0703754651
101329.0393780484
101317.3986142158
101306.1191340572
101296.9232504461
101291.2730222352
101288.5108229256
101287.1848010192
101286.5550573037
101286.5407211156
101286.9227811381
101287.4849213781
101288.2318313351
101289.163272365
101290.3260115787
101291.7844969305
101293.641716688
101296.026911618
101299.0767376808
101302.9169947832
101307.6526398013
101313.364810818
101320.112812643
101327.9222515287
101336.7217274573
101346.2414037872
101355.9027890105
101364.6479913021
101371.373816735
101374.9657094983
101376.3220282513
101377.624494061
101378.8049276668
101380.0150834965
101381.228334813
101382.3547537111
101383.2854293967
101383.9303130596
101384.0750289065
101383.5509942273
101382.2387964048
101379.8411220187
101376.1748189861
101371.1309805398
101364.6508488734
101356.7224758238
101347.3874488948
101336.8009766945
101325.3639012854
101313.8228846409
101303.5818255153
101296.4972925305
101292.7989991536
101291.0123807149
101290.1278804299
101289.8820619577
101290.2391093141
101290.8105954541
101291.5739106178
101292.4932816448
101293.5718872753
101294.8466027478
101296.4046401245
101298.3858788166
101300.9670088431
101304.3308797441
101308.6364925936
101314.0051405498
101320.5222773697
101328.2212278916
101337.0375252096
101346.7390098521
101356.7972630963
101366.3831379383
101374.3306803361
101379.213183438
101381.2246277593
101382.5812129908
101383.6472568353
101384.531733341
101385.33211899
101386.0695692448
101386.6983282571
101387.1274396198
101387.2354489469
101386.8825257021
101385.8745332007
101383.9623125121
101380.9618819941
101376.7007831582
101371.023651151
101363.8440711983
101355.1786062721
101345.1265266757
101333.9711223772
101322.3268447726
101311.2898512593
101302.7126072578
101297.7515207429
101295.2545148122
101293.8764888422
101293.2807232799
101293.3972777602
101293.9528508124
101294.7532552211
101295.7582567367
101296.8819856618
101298.1123020228
101299.5023639486
101301.182777186
101303.3367787496
101306.172428379
101309.8987014216
101314.7053263405
101320.7428839255
101328.09573117
101336.7414858095
101346.5199205439
101356.993963783
101367.438300451
101376.7402229205
101383.172412214
101386.4171116732
101388.3474794368
101389.6761011625
101390.5020702032
101391.0526497302
101391.4024730263
101391.5785401962
101391.6280344455
101391.5045310335
101391.0610381665
101390.1263454031
101388.5068945448
101385.9879014519
101382.3637919508
101377.4576452152
101371.1208744928
101363.259971418
101353.8785897592
101343.1645422445
101331.6351416146
101320.1436271784
101310.2038536113
101303.660027029
101300.1956709161
101298.1216551657
101296.974139497
101296.6652007809
101296.9877563259
101297.73121079
101298.7692025259
101300.0162679766
101301.3734164312
101302.818466926
101304.4113586953
101306.2992847656
101308.6937758457
101311.8404967725
101315.9820945039
101321.3205699289
101328.0052996465
101336.1204245382
101345.6546329575
101356.282352703
101367.3113628579
101377.8849010343
101386.1943099436
101391.0601003456
101394.2524474317
101396.3820784982
101397.6251898731
101398.3354579242
101398.6306282391
101398.5466519288
101398.1850192273
101397.589548681
101396.7584395987
101395.6317969005
101394.06842713
101391.8604396919
101388.764868899
101384.5346885937
101378.9567205384
101371.8928275336
101363.3034140559
101353.2370694345
101342.0243755434
101330.4101366607
101319.4993828572
101311.2427429318
101306.4790378246
101303.487980148
101301.5526042462
101300.6227283781
101300.4455174521
101300.8866147106
101301.7753903203
101302.9926783817
101304.4459153954
101306.0379002101
101307.7528379596
101309.6540411868
101311.8886486109
101314.670408168
101318.2537394835
101322.8948217381
101328.8186377703
101336.1946265738
101345.0619022903
101355.2573447193
101366.266027203
101377.5405430614
101387.5492961244
101394.1466307066
101398.9762996684
101402.5072626878
101404.8912765585
101406.4900459702
101407.4368994749
101407.899150421
101407.7896231922
101407.1903423785
101406.30774015
101405.0651305306
101403.4751183129
101401.4240436065
101398.7299370132
101395.1461226293
101390.4108423091
101384.2809349409
101376.571403714
101367.2316645498
101356.4691791094
101344.9105623316
101333.3115136524
101323.3203326764
101316.8453685366
101312.4313618086
101309.2972252073
101307.4132261549
101306.4656839254
101306.2110929771
101306.6451401062
101307.6226386117
101308.9282986204
101310.5128471454
101312.2809423905
101314.2102740784
101316.3536395059
101318.8787781297
101322.0517220131
101326.1792986445
101331.5357381138
101338.3211814248
101346.6271754415
101356.4472584774
101367.4413643271
101379.0164560649
101390.123912388
101398.4623590774
101404.5497915509
101409.345865185
101412.8511733717
101415.5323054112
101417.6548965218
101419.3162644081
101420.5512852456
101421.4266326124
101421.911136086
101421.9304584596
101421.4531442996
101420.3824788964
101418.560063923
101415.7688630772
101411.7405018779
101406.2160999644
101399.027375723
101390.1476944126
101379.6477939586
101367.9108373923
101355.6311415423
101344.0896256387
101335.6332338521
101329.0260716224
101323.8425759778
101320.1074079272
101317.5778177685
101316.0536236043
101315.3946552678
101315.4029326932
101316.046077802
101317.2225891137
101318.7310414884
101320.5390851759
101322.5847904452
101324.9509964538
101327.8136656562
101331.4635694552
101336.2456620074
101342.4721547928
101350.3539398719
101359.9767003688
101371.128914425
101383.132863674
101395.3023201687
101405.4536713304
101413.5880473931
101420.2824668292
101425.4672102339
101429.4919367045
101432.6872006698
101435.2509570229
101437.3185851265
101438.9588237092
101440.2192869202
101441.1862205206
101441.5689883859
101441.1345785992
101439.8878331967
101437.5727505453
101433.9596046708
101428.8315036587
101422.0331612975
101413.4978911441
101403.2219242398
101391.5088463448
101379.1913459429
101367.0718450828
101356.8898254751
101349.0564509151
101342.1374027595
101336.5514020497
101332.1664866599
101328.8598782611
101326.5235285982
101325.0409551024
101324.3393215335
101324.3236496512
101325.0186766998
101326.3208026624
101328.0586516512
101330.2624352864
101332.935989749
101336.2795954863
101340.6049477161
101346.2895924523
101353.6786876663
101362.9956935907
101374.1796241343
101386.5419770344
101399.6358093636
101411.4364416952
101421.5308344674
101430.0695979015
101436.9379933921
101442.2952437027
101446.4573297709
101449.651590939
101452.081024962
101453.9614168434
101455.4189114243
101456.5184440937
101457.1714272829
101457.183281338
101456.3757957155
101454.5251035569
101451.397949964
101446.8059535049
101440.5606884093
101432.4768420218
101422.4661894122
101410.8009654224
101398.2826899946
101385.5738779646
101373.9756506066
101365.2315759311
101357.4660490919
101351.0718078052
101345.9083299039
101341.6924405675
101338.2347439609
101335.4805039208
101333.4459910906
101332.2237420212
101331.6206845089
101331.9686413899
101333.1905455024
101334.9499648226
101337.3837065899
101340.4876601413
101344.4493523199
101349.6167054983
101356.4403317443
101365.2908888075
101376.3001391645
101388.9082649602
101402.7849738888
101415.9956404102
101427.7242994959
101437.8201387464
101446.1377540477
101452.6782665673
101457.7428840528
101461.6049533115
101464.4885159392
101466.573137251
101467.9749897226
101468.858416493
101469.2849088678
101469.1887980825
101468.5126828241
101467.0790847749
101464.5816950179
101460.6863070439
101455.0955618194
101447.5974406435
101438.1492170308
101426.9318529969
101414.5042987736
101401.4184092598
101388.8029455042
101378.6251560027
101369.8880877312
101362.4531500008
101356.421763894
101351.5746281951
101347.7386041528
101344.7983142387
101342.6339278887
101341.0754613642
101339.9702961683
101339.1539549411
101338.9346197483
101339.7443327765
101341.7815281334
101345.036326545
101349.0413081986
101353.5382299572
101359.2060640586
101367.3127797603
101378.8444635552
101392.1052057657
101413.560221861
)
;

boundaryField
{
    inlet
    {
        type            uniformFixedValue;
        uniformValue    sine;
        uniformValueCoeffs
        {
            frequency       constant 3000;
            scale           constant 50;
            level           constant 101325;
        }
        value           uniform 101325;
    }
    outlet
    {
        type            characteristicVelocityInletOutletPressure;
        UName           U;
        pName           p;
        TName           T;
        phiName         phi;
        rhoName         rho;
        U               (0 0 0);
        p               101325;
        T               300;
        value           uniform 101413.560221861;
    }
    frontAndBack
    {
        type            empty;
    }
}


// ************************************************************************* //
