/*--------------------------------*- C++ -*----------------------------------*\
| =========                 |                                                 |
| \\      /  F ield         | OpenFOAM: The Open Source CFD Toolbox           |
|  \\    /   O peration     | Version:  v2012                                 |
|   \\  /    A nd           | Website:  www.openfoam.com                      |
|    \\/     M anipulation  |                                                 |
\*---------------------------------------------------------------------------*/
FoamFile
{
    version     2.0;
    format      ascii;
    class       volScalarField;
    location    "0.011";
    object      pMean;
}
// * * * * * * * * * * * * * * * * * * * * * * * * * * * * * * * * * * * * * //

dimensions      [1 -1 -2 0 0 0 0];


internalField   nonuniform List<scalar> 
1000
(
101325.0358476286
101325.0032250084
101325.0160379421
101325.0282051728
101325.0450532158
101325.065430758
101325.0876297861
101325.114660571
101325.1434142848
101325.1748232031
101325.207104044
101325.2392718293
101325.2713693076
101325.3029985687
101325.333764607
101325.3629669155
101325.3899741703
101325.4142555501
101325.4352771301
101325.4528220316
101325.4664282006
101325.4760052211
101325.4812241999
101325.4821118187
101325.478522232
101325.4706366467
101325.4584983404
101325.4424354703
101325.4225960254
101325.3992836995
101325.3726149652
101325.343166339
101325.3119651286
101325.2803367862
101325.2486626554
101325.2171141934
101325.1858263955
101325.1552023073
101325.1257180004
101325.0980499527
101325.0728329192
101325.0507193054
101325.0321716041
101325.0175786508
101325.0071488889
101325.0010641034
101324.9993841557
101325.0021539149
101325.0092975887
101325.0207092015
101325.0362116841
101325.0556814538
101325.0789785818
101325.105859616
101325.1355340939
101325.1666118072
101325.1979654735
101325.2293166454
101325.2605531648
101325.291577314
101325.3220092794
101325.3515031415
101325.379406247
101325.4051642897
101325.4280332441
101325.4475120247
101325.4630466565
101325.4744067463
101325.4813254115
101325.4838260781
101325.481837238
101325.4755190932
101325.4648781833
101325.4500950503
101325.4311406978
101325.4081731134
101325.3813941721
101325.3518306905
101325.320925427
101325.2898362146
101325.2587192542
101325.2277000593
101325.1968826657
101325.1665320212
101325.137005042
101325.1088071935
101325.082519089
101325.0588002519
101325.0382773778
101325.021526654
101325.0089667842
101325.0008871985
101324.9973943184
101324.9985065751
101325.0041300689
101325.0141881783
101325.0285949825
101325.047351657
101325.0703777439
101325.097292083
101325.1269262858
101325.1576821688
101325.1885925457
101325.2195037242
101325.2503102989
101325.2809563265
101325.3111328633
101325.3405949295
101325.3688060963
101325.3953104731
101325.4194034117
101325.4405448837
101325.4580580488
101325.4715460313
101325.4805776957
101325.4850601422
101325.484861949
101325.4801253445
101325.470840997
101325.4571537251
101325.4389861468
101325.4164783758
101325.3899294664
101325.3605843406
101325.3300125833
101325.2993025272
101325.2685632537
101325.2379104645
101325.2074066429
101325.1772784913
101325.147786207
101325.1193588411
101325.0924643878
101325.0677150475
101325.0457053725
101325.0270860978
101325.0123802432
101325.0020550503
101324.9963631002
101324.9954704655
101324.9993571614
101325.0080130335
101325.0213692806
101325.0394476111
101325.0621135071
101325.088861064
101325.1182932992
101325.1487487511
101325.1793190317
101325.2098974591
101325.2403825692
101325.2707442329
101325.3007176359
101325.3301178988
101325.3584885383
101325.3854517386
101325.4103750585
101325.4327496028
101325.451886241
101325.4673119167
101325.4784752195
101325.4851322769
101325.487008028
101325.4841218541
101325.4763885434
101325.4639065833
101325.4465935561
101325.4246244193
101325.3984034981
101325.3693252315
101325.3390466737
101325.308637138
101325.2781959929
101325.2478315985
101325.2175780728
101325.1876339715
101325.1581981
101325.1296397878
101325.1023451471
101325.076864041
101325.0537345212
101325.0336047635
101325.0170294378
101325.0045790604
101324.996636913
101324.9935355557
101324.9954047138
101325.0023669894
101325.0144297063
101325.0316540454
101325.053852326
101325.0803741342
101325.1096073565
101325.1398094413
101325.170105414
101325.2004149746
101325.2306405984
101325.2607697809
101325.2905715552
101325.3199022822
101325.3483662675
101325.3756473369
101325.4011801848
101325.42450327
101325.4449527552
101325.4620356666
101325.4751404617
101325.4839116587
101325.4879411373
101325.4871002096
101325.4811756747
101325.4701654721
101325.4539363576
101325.4326641118
101325.4068471553
101325.3780363395
101325.3480072829
101325.3178461339
101325.2876518253
101325.2575255985
101325.2274834021
101325.1977003665
101325.1683316416
101325.1396985234
101325.1121231591
101325.0860971496
101325.0620994961
101325.0407480485
101325.0225932107
101325.0082512458
101324.9981916352
101324.992881337
101324.992600854
101324.9976341279
101325.008121515
101325.0242158982
101325.0457351782
101325.0719140252
101325.1009272102
101325.1309097477
101325.1609796066
101325.1910653829
101325.2210763297
101325.2510112989
101325.2806658278
101325.309926442
101325.3384469969
101325.3659596457
101325.3919595914
101325.416031986
101325.4375544006
101325.4560392845
101325.4708546033
101325.4815755347
101325.4876960208
101325.4889517615
101325.4849962946
101325.47569387
101325.4608152462
101325.4404826113
101325.4152349911
101325.3867473357
101325.3569511188
101325.3270023522
101325.2970192972
101325.2670962762
101325.2372375427
101325.2075974065
101325.1782997542
101325.1496264211
101325.1218488307
101325.0954053058
101325.0707220726
101325.0483748938
101325.0288927861
101325.012903014
101325.0009255147
101324.9935192619
101324.9910930971
101324.9940809458
101325.0027741315
101325.0174520331
101325.0380014941
101325.0636221473
101325.0923363259
101325.1221096268
101325.1519844417
101325.1818767782
101325.2117040137
101325.2414704855
101325.2709966869
101325.3001899739
101325.3287452507
101325.3564320133
101325.3828001133
101325.4074764261
101325.4298843745
101325.4495543559
101325.4658592456
101325.4783337391
101325.4864082527
101325.4897114999
101325.4877805811
101325.4803443295
101325.4670599997
101325.4479493898
101325.423511896
101325.3954653492
101325.3659116756
101325.3361525919
101325.3063569574
101325.2766131576
101325.2469178203
101325.2174067551
101325.1881810412
101325.159488233
101325.131561231
101325.104790315
101325.0795561079
101325.0563893185
101325.0357907173
101325.0183773893
101325.0046940892
101324.9953566561
101324.9908699576
101324.9917884358
101324.9985428202
101325.01154666
101325.0308077405
101325.0555947611
101325.083882554
101325.1134358487
101325.1431340119
101325.1728510989
101325.2025132841
101325.232128231
101325.2615381554
101325.2906653277
101325.319240506
101325.3470619133
101325.3737267195
101325.3988977928
101325.4220445673
101325.4427205635
101325.4603172657
101325.4743498487
101325.4842132838
101325.4894583922
101325.4895335381
101325.4840507044
101325.4725562402
101325.4549427465
101325.4315921298
101325.4041556401
101325.3748819671
101325.34530041
101325.3156758879
101325.2860960103
101325.25655096
101325.2271597794
101325.1980064287
101325.1693087311
101325.1412695373
101325.1142372869
101325.0885533166
101325.0647047832
101325.0431620513
101325.0245208295
101325.0093326089
101324.9982420432
101324.9918188878
101324.9907040265
101324.9954414069
101325.0065680291
101325.0242427221
101325.0478980643
101325.0755884938
101325.1048869438
101325.1344172664
101325.1639704308
101325.1934783183
101325.2229511862
101325.2522506595
101325.2813114648
101325.3098938974
101325.3378200931
101325.3647275889
101325.3903104564
101325.4140805911
101325.4356164702
101325.45433477
101325.4697465631
101325.4812314303
101325.4882892567
101325.4903070665
101325.4868060757
101325.4772364821
101325.461355263
101325.4393705317
101325.4127549607
101325.3838334302
101325.3544285295
101325.3249642785
101325.2955384471
101325.2661354604
101325.2368595338
101325.2077804303
101325.1790906694
101325.1509680207
101325.123724932
101325.0976694279
101325.073248504
101325.0509020116
101325.0311988359
101325.0146846093
101325.0020123768
101324.9937902597
101324.9907147219
101324.9934129775
101325.0025252053
101325.0183677088
101325.0405979899
101325.0674771659
101325.096454887
101325.1258186291
101325.1552162076
101325.18457656
101325.2139117466
101325.243100427
101325.2720884515
101325.3006623548
101325.3286657986
101325.3557726211
101325.3817050755
101325.4060115207
101325.4282970204
101325.4480050637
101325.4646424108
101325.4775924257
101325.4863250521
101325.4901740627
101325.4886243847
101325.4810429094
101325.4670453689
101325.4466926583
101325.4211363947
101325.3927048929
101325.3635224921
101325.3342539561
101325.3050037238
101325.2757625607
101325.2466202144
101325.2176140865
101325.1889113099
101325.160686329
101325.133201306
101325.1067329414
101325.0817423918
101325.0586393212
101325.0379648428
101325.0203109433
101325.006313626
101324.9966286736
101324.9918470168
101324.9927436443
101324.9999669273
101325.0139693678
101325.0344596737
101325.0602923689
101325.0885965431
101325.117424632
101325.1463405934
101325.1752371982
101325.2041409017
101325.232994642
101325.2618922565
101325.2905253701
101325.3188243848
101325.3464753405
101325.3732439925
101325.3984987782
101325.4218200006
101325.4426507873
101325.4602892172
101325.4740995812
101325.4835625828
101325.4881081767
101325.4870321586
101325.4796540993
101325.4657193328
101325.4450553006
101325.4191135575
101325.3898837234
101325.3594513511
101325.3297445985
101325.300990728
101325.2734866741
101325.2474858771
101325.222958054
101325.2005367531
101325.1797085097
101325.1606319478
101325.1438069643
101325.1284084237
101325.1153799151
101325.1048179601
101325.0967307298
101325.0913049508
101325.0892506803
101325.0911352594
101325.0974654914
101325.1092056943
101325.1270938188
101325.1515979289
101325.1795781366
101325.2109744542
101325.2421987008
101325.274009753
101325.3055846875
101325.3370509952
101325.3683651622
101325.3988378103
101325.4299726918
101325.4602357374
101325.4898764154
101325.5186999869
101325.5458939715
101325.5716540699
101325.5952244022
101325.6160781496
101325.6330922268
101325.6457541038
101325.654086715
101325.6572703217
101325.6540396645
101325.6450350977
101325.630090973
101325.608126667
101325.5829896475
101325.5541021502
101325.5261360136
101325.4983627021
101325.4716793925
101325.4467137096
101325.4227613
101325.4012525645
101325.3814855776
101325.3636539821
101325.3475129212
101325.33329861
101325.3209618809
101325.3111507821
101325.3038744733
101325.2991493745
101325.2972225474
101325.2992578046
101325.3064313721
101325.3173485823
101325.3359593703
101325.3606742158
101325.3895503416
101325.4224478331
101325.45569241
101325.4896012697
101325.5232051473
101325.5568066797
101325.5905538251
101325.6236696737
101325.6564059035
101325.6895770203
101325.7218163052
101325.752571736
101325.782285998
101325.8100884174
101325.8362049337
101325.8597753935
101325.8799726475
101325.8954963464
101325.9073693562
101325.9147195049
101325.9153819629
101325.9116280927
101325.9015987892
101325.8857145924
101325.8643192874
101325.8395657945
101325.8137455681
101325.7882986427
101325.7632832585
101325.7399255152
101325.7179835593
101325.6970473604
101325.6794536517
101325.6630411206
101325.648103562
101325.6353730524
101325.6242054571
101325.6158455408
101325.6098835166
101325.6066418639
101325.6053970128
101325.6085288933
101325.6160688851
101325.6281733303
101325.6462233072
101325.6713902912
101325.7028534037
101325.7362452267
101325.7723224692
101325.808109073
101325.8441993777
101325.8797641145
101325.9156944732
101325.9516188198
101325.9861425806
101326.0222397284
101326.0569714776
101326.0902350227
101326.1223151724
101326.152233484
101326.1808948109
101326.2071305924
101326.2302589464
101326.2484738612
101326.2635007142
101326.2739973029
101326.2796255179
101326.2789730808
101326.2744437786
101326.2649495811
101326.2476772134
101326.2277493814
101326.2052504505
101326.1831970605
101326.160726537
101326.1396434999
101326.1202853016
101326.1015733912
101326.0855943786
101326.0714417003
101326.0585921266
101326.0475380525
101326.0379131
101326.0313385579
101326.0272162227
101326.0255792785
101326.0261664523
101326.0303529962
101326.038958555
101326.0530113073
101326.0705226986
101326.0971020068
101326.1300193487
101326.1651365888
101326.2035141927
101326.241767416
101326.2805605394
101326.3182802868
101326.3561052171
101326.3943963441
101326.4318577893
101326.468913175
101326.5070757973
101326.5432599184
101326.5775035689
101326.6099990547
101326.641243311
101326.6702027319
101326.6959057926
101326.7178125688
101326.7346325678
101326.7486243755
101326.7580231297
101326.7607616436
101326.7606922391
101326.7560683558
101326.7442663234
101326.7286879084
101326.7104987883
101326.6924950805
101326.6738380925
101326.6556486438
101326.63943138
101326.6244151387
101326.6101749669
101326.5999109073
101326.5896754332
101326.5805441129
101326.5734662965
101326.568834362
101326.5668195099
101326.5671545483
101326.5706283452
101326.5752559554
101326.5863339963
101326.6013604967
101326.6213305161
101326.6470957792
101326.6822864299
101326.7199641511
101326.7604326275
101326.8015058955
101326.8431079944
101326.8840283897
101326.9236969156
101326.9640334295
101327.0042322728
101327.0430238743
101327.0835759803
101327.1228207527
101327.1595243789
101327.1949112481
101327.2286661895
101327.2605305215
101327.2892990432
101327.3149194259
101327.3337889731
101327.3511615957
101327.3631951887
101327.3708998276
101327.3718452205
101327.3733012122
101327.3661002239
101327.3546263553
101327.3406162096
101327.3266678365
101327.312794175
101327.298380428
101327.2860307642
101327.2753136712
101327.2653480312
101327.2580010618
101327.2528070885
101327.2470437012
101327.2430321343
101327.2411552433
101327.2419319462
101327.245187974
101327.2511687515
101327.2589976768
101327.2710560718
101327.2891202317
101327.3117996185
101327.3383107932
101327.375126192
101327.4163112425
101327.4590413169
101327.5036344774
101327.5483730878
101327.5930875745
101327.6359866416
101327.6786142717
101327.7212289606
101327.7631673974
101327.8043034846
101327.8471915743
101327.8867688508
101327.9245898237
101327.9610999499
101327.9959814857
101328.0282697668
101328.0569229589
101328.0813391236
101328.0991786707
101328.1162597459
101328.127308595
101328.1321262676
101328.1349310992
101328.1349392672
101328.1256137856
101328.1157106929
101328.1049815051
101328.0952852718
101328.0857899948
101328.077004042
101328.0712811007
101328.0672896585
101328.064139517
101328.0655470929
101328.0660458479
101328.0673595802
101328.0711140978
101328.0771882018
101328.0859087998
101328.0970163374
101328.1112698353
101328.1268044591
101328.1496159198
101328.1777217389
101328.2101258817
101328.2483784093
101328.297183881
101328.3440917242
101328.3947221882
101328.4444685471
101328.4946268851
101328.5433788496
101328.5898534898
101328.636763648
101328.6824378525
101328.7271795992
101328.7726369878
101328.817385714
101328.858442614
101328.8980191386
101328.9366196151
101328.9729022163
101329.0058007382
101329.0351077628
101329.0578936582
101329.0775088122
101329.093515109
101329.1052608793
101329.109874883
101329.1169003302
101329.1136092098
101329.1082927356
101329.1018371814
101329.0967585214
101329.0926623961
101329.0893308614
101329.0888133773
101329.0906673885
101329.0956835831
101329.1036845441
101329.1154672415
101329.1263847628
101329.1402939704
101329.1579272385
101329.1783468315
101329.2015959511
101329.2282363201
101329.2561224852
101329.2887055178
101329.3274182895
101329.3720073433
101329.4192488916
101329.4765279826
101329.5381734224
101329.5969781692
101329.6570244613
101329.7166296928
101329.7748230377
101329.8304742144
101329.8838480504
101329.9364833213
101329.9870839247
101330.0368562586
101330.0880432912
101330.1342262512
101330.1784392914
101330.2219364289
101330.2629491481
101330.3011063459
101330.3359073044
101330.3647561969
101330.3896801554
101330.4110212494
101330.4290388587
101330.4399684005
101330.4506242864
101330.4606774154
101330.4594948241
101330.4617373615
101330.4635984954
101330.4676977355
101330.473238586
101330.4805803073
101330.492224519
101330.505837221
101330.5241042229
101330.547554796
101330.571426414
101330.596896989
101330.6269186403
101330.6600929347
101330.6965448922
101330.7361808542
101330.7778078175
101330.822547967
101330.8717496059
101330.9273514021
101330.9859660506
101331.050137479
101331.127040488
101331.1956374845
101331.2683337114
101331.338609469
101331.4085521365
101331.4751337791
101331.5384867504
101331.5995261709
101331.6574217251
101331.713201282
101331.769331827
101331.8232160491
101331.8715103333
101331.918461194
101331.9641503941
101332.0069004876
101332.0461567578
101332.0815387435
101332.1102247861
101332.1370929695
101332.1596179718
101332.178659826
101332.1913933413
101332.2107116562
101332.2181693728
101332.227117075
101332.2363048884
101332.2479703652
101332.2612718584
101332.2773027488
101332.2963488036
101332.3191594741
101332.3443872839
101332.3764392725
101332.4124657318
101332.4467284229
101332.4854653257
101332.5289498631
101332.5749734063
101332.6243001483
101332.6775882304
101332.7302304858
101332.7902329462
101332.8521701148
101332.9215093159
101332.9899856467
101333.0742508556
101333.1548960364
101333.2330370452
101333.3133984164
101333.392219709
101333.4687820615
101333.5418353324
101333.6118765332
101333.6780514439
101333.7404293452
101333.8007222324
101333.8630838435
101333.9162977233
101333.9665215477
101334.0167855857
101334.0632754925
101334.1066879724
101334.146872389
101334.1803981938
101334.2114261451
101334.2382091828
101334.2633602882
101334.2807135478
101334.3050038882
101334.3219883171
101334.3348838427
101334.3522344166
101334.3700455812
101334.3907452286
101334.4129550347
101334.4393549023
101334.4692290654
101334.5017590048
101334.5371493466
101334.5833439565
101334.6269481854
101334.6704049859
101334.7210858958
101334.7744236756
101334.8308319658
101334.8907944731
101334.9534359886
101335.0183331561
101335.0880974828
101335.1619197019
101335.239036975
101335.3223392123
101335.4156568306
101335.4975819839
101335.5832918464
101335.6696535528
101335.7541537866
101335.8342615804
101335.9120346212
101335.9865825607
101336.056421778
101336.121620729
101336.1883660836
101336.2508685548
101336.3047814642
101336.3588898982
101336.4100744471
101336.4575051728
101336.5017712933
101336.5418329461
101336.5778820933
101336.6112552414
101336.637386748
101336.6581998701
101336.7020055963
)
;

boundaryField
{
    inlet
    {
        type            calculated;
        value           uniform 101325.0000001859;
    }
    outlet
    {
        type            calculated;
        value           uniform 101336.7020055963;
    }
    frontAndBack
    {
        type            empty;
    }
}


// ************************************************************************* //
