/*--------------------------------*- C++ -*----------------------------------*\
| =========                 |                                                 |
| \\      /  F ield         | OpenFOAM: The Open Source CFD Toolbox           |
|  \\    /   O peration     | Version:  v2012                                 |
|   \\  /    A nd           | Website:  www.openfoam.com                      |
|    \\/     M anipulation  |                                                 |
\*---------------------------------------------------------------------------*/
FoamFile
{
    version     2.0;
    format      ascii;
    class       volScalarField;
    location    "0.011";
    object      rho;
}
// * * * * * * * * * * * * * * * * * * * * * * * * * * * * * * * * * * * * * //

dimensions      [1 -3 0 0 0 0 0];


internalField   nonuniform List<scalar> 
1000
(
1.176305471357745
1.176329237502747
1.176275390066944
1.176231755204568
1.176180574785802
1.176133775655162
1.176094132369291
1.176060773529288
1.176031929989037
1.176011476509891
1.176004584050364
1.176003871820629
1.176005805673104
1.176013145333615
1.176028535701914
1.176052641875498
1.176084623899655
1.176122970883389
1.176166367997021
1.176213907313989
1.176264877936083
1.176318534055309
1.176373994644453
1.176430240473588
1.176486150290309
1.17654056906669
1.176592459920266
1.176641202812396
1.176686891604404
1.176729998100444
1.17676937057843
1.176798899889445
1.176811409508111
1.176812828181254
1.17681241328438
1.176810564674778
1.1768052212663
1.176794257347411
1.176775729190711
1.176748567093015
1.176712925654152
1.176670079105899
1.176621850486652
1.176569963443204
1.176515712287704
1.176460024359391
1.176403700541998
1.176347599199443
1.176292640865916
1.176239579141402
1.176188630455379
1.17613942653207
1.176092148434061
1.176050527593714
1.176023552408685
1.176015027853453
1.176014493126397
1.176014750990947
1.17601659638763
1.176021224814338
1.17603054360335
1.176046310171914
1.176069927783924
1.176102024709781
1.176142244628161
1.176189303852137
1.176241342019066
1.176296420006861
1.176352909497029
1.176409606800259
1.176465654461803
1.176520509291139
1.17657405139976
1.176626618109685
1.176678554135607
1.176728748494552
1.176771818484507
1.176797980214647
1.176805522765068
1.176806006421739
1.176805548358031
1.176804115946762
1.176800176543644
1.176792348689143
1.176778989462326
1.176758618955535
1.176730188774217
1.176693385402267
1.176648775898947
1.176597734569563
1.176542176668727
1.176484177672761
1.176425570233363
1.176367626656811
1.176310916930084
1.176255351241615
1.176200399840645
1.176145752630251
1.176093198132368
1.176049805163542
1.176025945348041
1.17602027414162
1.176020110414969
1.176020360352208
1.176021883077579
1.176025533434933
1.176032733304092
1.176044916680447
1.176063482358234
1.176089537488314
1.17612366272773
1.176165706517049
1.176214707092636
1.176269020812123
1.176326637937454
1.176385579982756
1.176444283283876
1.17650190960595
1.176558478152502
1.17661462047153
1.176670679071569
1.176724704640147
1.176769480113049
1.176794509133833
1.176800827438608
1.176801165486129
1.176800802091903
1.176799659040525
1.176796570426195
1.176790443817689
1.176779930378031
1.176763673207819
1.176740458368506
1.176709444673057
1.176670369126298
1.176623683309313
1.176570581210239
1.176512860363434
1.176452571958516
1.176391528999364
1.176330870673884
1.176270891094023
1.176211284905471
1.176152102578
1.176096076203733
1.176051725815971
1.176029210941146
1.176024454257453
1.176024351702901
1.176024569024836
1.176025812888716
1.176028780404057
1.176034617611504
1.17604452931342
1.176059772970548
1.176081498009033
1.176110577861229
1.176147414519078
1.17619177656459
1.176242749134625
1.176298836188908
1.17635820927738
1.1764190855127
1.176480169823673
1.176540963794705
1.17660162684529
1.176662029172097
1.176719542356355
1.17676604178963
1.176791011592297
1.176797011090176
1.17679732201614
1.176797036315123
1.176796131502033
1.176793659458098
1.17678872115976
1.176780175815282
1.176766816664339
1.176747459672181
1.176721106173814
1.176687111648141
1.176645340976096
1.17659628571124
1.176541079458546
1.17648132598633
1.176418733656462
1.17635468574143
1.176289960044833
1.176224861463498
1.17616022245197
1.176099965211861
1.176053993817892
1.17603209943913
1.17602785863746
1.176027779517936
1.176027962426599
1.176028993746236
1.176031452180557
1.176036294601108
1.176044552080179
1.176057343714266
1.176075767800421
1.176100783026985
1.176133051805688
1.17617278400561
1.176219638876473
1.17627272238952
1.176330697406039
1.17639203464015
1.176455391593519
1.176519950267958
1.176585365456263
1.176650855972231
1.176712885192384
1.17676217515134
1.176787879869654
1.176793851244117
1.17679415944669
1.176793931321101
1.176793206160839
1.176791191771434
1.176787135025234
1.17678005823687
1.176768893766033
1.17675253603192
1.176729957719449
1.176700338507565
1.176663198907351
1.176618528575986
1.176566860440536
1.176509209777052
1.176446846886826
1.176380979309557
1.176312512284367
1.176242174984359
1.176171585857837
1.176106025766255
1.176057113836576
1.17603479949548
1.17603071244016
1.176030632877361
1.176030784409133
1.176031648037367
1.176033714024614
1.176037796745974
1.176044787607894
1.176055679875135
1.176071493200663
1.176093189569518
1.176121551986323
1.176157052150655
1.176199749170403
1.176249245961776
1.17630472124466
1.176365077143322
1.17642921613905
1.176496316338292
1.176565775495179
1.17663630682717
1.176703529731403
1.176756913796664
1.176784653745417
1.176791120780047
1.17679147384425
1.17679129380254
1.176790714015779
1.176789057603018
1.176785684156981
1.176779746756926
1.176770301380637
1.176756334963335
1.176736847928336
1.176710948659252
1.176677959456254
1.176637531082712
1.176589729856385
1.176535030805947
1.176474186369771
1.176408021975355
1.176337288712134
1.176262847596211
1.176186812745482
1.176115499627145
1.176062128218076
1.176037751315971
1.176033227161028
1.176033106106271
1.176033223008631
1.176033938844275
1.176035677180703
1.176039145961907
1.176045124780688
1.176054497565764
1.176068199208136
1.176087156881719
1.17611219797106
1.176143944640422
1.176182725371195
1.176228519919545
1.1762809516953
1.176339367740912
1.176403027547755
1.176471295804662
1.176543547524904
1.17661827427218
1.176690654252309
1.176749281845451
1.176780792176026
1.176788607488742
1.176789104195293
1.176788967087182
1.176788516607427
1.176787160314027
1.176784346027704
1.176779329674804
1.176771272373484
1.17675925206632
1.176742321665267
1.176719575359815
1.176690228109945
1.176653709554785
1.176609744659875
1.176558369592411
1.176499862192036
1.176434626865662
1.176363131544799
1.176286140455883
1.176205872091143
1.176129010928078
1.176069790187331
1.176041353168641
1.176035573268578
1.176035341444504
1.17603542137174
1.176035998723677
1.176037444675228
1.1760403888118
1.176045521975897
1.17605363738804
1.176065590495883
1.176082258511908
1.176104471399711
1.17613293154533
1.17616814299294
1.176210357721291
1.176259549367775
1.17631545181505
1.17637768272995
1.176445865038773
1.176519502005216
1.176597141083299
1.176674043481084
1.176738633561558
1.176775758909036
1.176786107229862
1.176786937204763
1.176786838886743
1.17678650663398
1.176785412843402
1.176783076782506
1.176778833967569
1.176771932429365
1.176761531845486
1.17674674471515
1.176726680623871
1.176700503718679
1.176667506309163
1.176627176079263
1.176579218866383
1.176523527845296
1.176460131071062
1.176389185421913
1.176311221287383
1.176228228610373
1.17614657052565
1.176080615790313
1.176046069071677
1.176037909481715
1.176037428867574
1.176037473590401
1.176037922545136
1.17603910050418
1.176041580029878
1.176045980733153
1.176053022508983
1.176063491653824
1.176078212922634
1.176097998009562
1.176123586505394
1.176155592153749
1.176194454874341
1.176240407275866
1.176293489840232
1.176353629666397
1.176420709422638
1.176494433403895
1.17657359739692
1.176653980521225
1.176724618619215
1.176768953760024
1.176783370084817
1.176784895636301
1.176784837281907
1.176784611472286
1.176783748819129
1.176781831396392
1.176778255848208
1.176772341575189
1.176763318604972
1.176750357356209
1.176732596541375
1.176709183939177
1.176679332646406
1.176642373476284
1.17659777729002
1.176545148036317
1.176484210513647
1.176414834608943
1.176337261649285
1.176253054729902
1.176167755788902
1.176094940255859
1.176052499050888
1.17604045957104
1.176039442163168
1.176039450178574
1.176039773211115
1.176040688366898
1.176042731055532
1.176046471002671
1.176052576821122
1.176061780290091
1.176074854397872
1.17609257511465
1.176115680606289
1.17614483261368
1.176180580360991
1.176223337138592
1.17627338798991
1.176330926759047
1.176396080961714
1.176468788861265
1.176548233293218
1.176630949583588
1.176707200196975
1.176759885287946
1.17678020048873
1.176783321580583
1.176783507227647
1.176783249542399
1.176782443942643
1.176780660393976
1.176777383060515
1.176772005338846
1.176763858089125
1.176752224609714
1.17673635466799
1.176715477970598
1.176688813673272
1.176655581557794
1.176615018959522
1.176566398607788
1.176509045740479
1.176442413386984
1.176366359229568
1.176281716287792
1.176193206863213
1.176112889233119
1.176060102678445
1.17604110260077
1.176037032351793
1.176035888725405
1.176036525572519
1.17603863728784
1.176042248843115
1.176047586183386
1.176055006478855
1.176064960665276
1.17607788750514
1.176094248052004
1.176114566282112
1.176139444949773
1.176169551851631
1.176205586987344
1.176248251126893
1.176298245191561
1.176356268027831
1.176422859179451
1.176498021551005
1.176579706362774
1.17665923494493
1.176720389589852
1.176754160527196
1.176767810948613
1.176783037934764
1.176797134021906
1.176812138918288
1.17682769430382
1.176842747652914
1.176855847158057
1.17686587383858
1.176869863137116
1.17686601513138
1.176854788439298
1.176834525380655
1.176803840212054
1.176761917889031
1.176708610775384
1.176644092135234
1.176568468450446
1.176482095083207
1.176386906903139
1.176287992540533
1.176196905558737
1.17613073200253
1.176094984441766
1.176077849967631
1.176068847854921
1.176065288212294
1.176066116798436
1.176068948880158
1.176073115059443
1.176079203709535
1.176087632754367
1.176098853714016
1.176113326471159
1.176131694620753
1.176154723586249
1.176183185542341
1.176217767958811
1.176259076103224
1.176307719396783
1.176364423053279
1.176429794609976
1.176503321456499
1.176582204034788
1.176660770143053
1.176727005623843
1.176772519952618
1.176792011247391
1.176804876242799
1.176816765734842
1.176829298596041
1.176842209479488
1.176854977724126
1.176866718357628
1.176876287366281
1.176881890470865
1.176881540307191
1.17687417592474
1.176858743722775
1.176833506408249
1.176797403821598
1.176749718413558
1.176690144660778
1.176618908784031
1.176536670987685
1.176445205721748
1.176348681383558
1.176255149783555
1.176178893626714
1.176132038589362
1.176109132507463
1.176098136137922
1.176092913816092
1.176092794927153
1.176095963261574
1.176100624955932
1.176106818892435
1.17611454308025
1.176124185329467
1.176136280064882
1.176151681300238
1.176171460724312
1.176196751470824
1.176228596582696
1.176267866178099
1.176315232763669
1.176371187696133
1.176435942802248
1.176508905480254
1.176587837806882
1.176667942954437
1.176740449931685
1.176796212940394
1.176825992488583
1.176837237326758
1.176848035638993
1.176857822190033
1.176867855122706
1.176877913681203
1.176887252314682
1.176894968105593
1.176900314514708
1.176901514272851
1.176897169742225
1.176886290907073
1.176866412802748
1.176836016794451
1.176794199633173
1.176740473672264
1.176674739189906
1.176597340186792
1.176509562658601
1.17641472940438
1.176319031193598
1.17623410968262
1.176175361520193
1.176144693118194
1.176129877310317
1.176122542428098
1.176120503930365
1.176123464815021
1.176128203969698
1.176134533892531
1.176142157917937
1.176151102392594
1.176161673093368
1.176174593213622
1.176191022676008
1.176212426618361
1.176240321191438
1.176276024690814
1.17632054260882
1.176374583120637
1.176438422019274
1.176511524129819
1.176591963840849
1.176675359365941
1.176754836083852
1.176820727752914
1.176861207032984
1.176877883115173
1.176889129958489
1.176897968023727
1.176905300780102
1.176911936362368
1.176918050163303
1.176923262852179
1.176926820366853
1.176927715804168
1.176924789906692
1.176916433183815
1.176900579944074
1.176875704756208
1.176840377598449
1.176793309997035
1.176733784925319
1.176661938947462
1.176578594237769
1.176486098755812
1.176389546637262
1.176298027092587
1.176226902066142
1.176185762507459
1.17616505597549
1.176153628569641
1.176148688117872
1.176149654658532
1.176154261807252
1.176160899235192
1.176169233284924
1.176178551862905
1.176188754286881
1.176200281359635
1.1762142161071
1.176232077970581
1.176255592180732
1.176286491477338
1.17632634887851
1.176376412628637
1.176437381673611
1.176509069747777
1.176590147559675
1.176676990516913
1.176763584602009
1.17684070479834
1.176894031540649
1.176920931696845
1.176936935268117
1.176947950060406
1.176954797646439
1.17695936214051
1.176962262287411
1.176963721933696
1.176964132246942
1.176963108352193
1.176959431640713
1.176951682708299
1.176938256847297
1.176917373323419
1.176887327659449
1.17684665278693
1.176794116361945
1.17672894247221
1.176651160566549
1.176562326875941
1.176466729805944
1.176371443766802
1.176289022105516
1.176234758785321
1.176206030911313
1.176188832171418
1.176179316378814
1.176176754496763
1.176179429297699
1.17618559440503
1.176194201945942
1.176204543198837
1.176215797273488
1.176227780226762
1.176240989088397
1.176256644414608
1.176276500235792
1.176302593566627
1.17633693629095
1.176381203101464
1.176436632148751
1.176503920465845
1.176582973449278
1.176671090785685
1.176762532518433
1.176850195248663
1.176919084850333
1.176959424210905
1.176985889733076
1.177003544889817
1.177013850539214
1.177019738789449
1.177022185798817
1.17702148960975
1.177018491590205
1.177013555010131
1.177006664941156
1.176997324827507
1.176984364112579
1.176966059267214
1.176940395909774
1.176905325878726
1.176859081456745
1.176800516850212
1.176729303036769
1.176645841958079
1.176552873584933
1.176456572741986
1.176366102062435
1.176297637200602
1.176258135372125
1.176233332487908
1.176217283576597
1.176209572651455
1.176208103145262
1.176211760916437
1.176219131014129
1.176229225241312
1.176241276007216
1.176254477272003
1.176268698049524
1.176284463329416
1.176302993187878
1.176326059994112
1.176355773294725
1.176394257103035
1.17644337658036
1.1765045361151
1.176578059271405
1.176662592667423
1.176753866146565
1.176847340687267
1.176930318630799
1.176985012849114
1.177025051824564
1.177054323909235
1.177074087500518
1.17708734130266
1.177095190683443
1.177099022714529
1.177098114716873
1.17709314666447
1.177085829879526
1.177075528630037
1.17706234738802
1.177045343859882
1.177023009414752
1.176993298920974
1.176954042083609
1.176903222591581
1.176839306095851
1.176761872355619
1.176672640398485
1.176576804678612
1.176480630554168
1.17639778568392
1.176344095372928
1.176307493901059
1.176281504990156
1.176265882379627
1.176258025088806
1.176255913947275
1.1762595131945
1.176267618879654
1.1762784457274
1.176291585138704
1.176306246507515
1.176322244820026
1.176340017854269
1.17636095647313
1.176387266526696
1.176421492031249
1.176465906543475
1.176522169078763
1.176591038008221
1.176672458874191
1.176763611193464
1.17685957738501
1.176951663592785
1.17702079155635
1.177071256958208
1.177111016255234
1.177140074821924
1.177162300886227
1.177179896629033
1.177193668858041
1.177203906737805
1.177211163014197
1.177215179338756
1.177215339478104
1.177211382683122
1.17720250725216
1.177187400066309
1.177164261826661
1.177130867545962
1.177085070758926
1.17702547580623
1.176951861036585
1.176864811851128
1.176767503818092
1.176665692582828
1.176569998405056
1.176499882012694
1.176445097364248
1.176402116619684
1.176371144806575
1.176350169403028
1.176337530683844
1.176332066450478
1.176332135080946
1.17633746807562
1.176347223745923
1.176359731847961
1.176374724123927
1.176391687030116
1.176411307423636
1.176435044290667
1.176465308520466
1.176504960132258
1.176556587431688
1.176621938348537
1.176701722368699
1.176794184635459
1.176893705306282
1.176994594647747
1.177078750583596
1.177146183809812
1.177201678753398
1.177244658182777
1.177278021123801
1.177304507973838
1.177325759814169
1.177342898948554
1.177356495243981
1.177366943440513
1.177374958479919
1.177378131272077
1.177374530349906
1.177364195844592
1.177345005653421
1.177315055301914
1.177272546524762
1.177216191513104
1.177145436652335
1.177060249647061
1.176963146060964
1.176861028198099
1.17676054833059
1.176676129071789
1.176611180806078
1.176553812217341
1.176507495649437
1.176471137436335
1.176443719877465
1.176424347291011
1.176412053981896
1.176406236104112
1.176406106148372
1.176411869194488
1.17642266617444
1.176437076067294
1.176455349358746
1.176477517782277
1.176505241879656
1.176541105904186
1.176588239927693
1.176649505180202
1.176726753482211
1.17681947794935
1.176921969122189
1.177030520674542
1.177128347885819
1.177212027819423
1.177282810091466
1.177339744586861
1.177384151937291
1.177418651874356
1.177445129138274
1.177465266567634
1.177480852905615
1.17749293382058
1.177502047603605
1.177507460022883
1.177507558235949
1.177500865102223
1.177485525042656
1.177459604477543
1.177421541593619
1.177369774013563
1.177302764890948
1.17721978182719
1.177123080246052
1.177019303509039
1.176913943394548
1.176817787115817
1.176745291421849
1.17668090718813
1.176627891270991
1.176585079175818
1.176550123395116
1.176521453806163
1.176498616733382
1.176481747222884
1.176471612670587
1.176466612268827
1.176469497397188
1.176479629007501
1.176494217485242
1.176514397143333
1.176540133794013
1.176572982138147
1.176615826644163
1.176672402951246
1.176745783365928
1.176837059026999
1.176941587158258
1.177056628102448
1.177166143352215
1.177263369588442
1.177347057778564
1.177416003842878
1.177470218057007
1.177512197772065
1.177544209108195
1.17756810938257
1.177585387200256
1.1775970056825
1.177604327251608
1.177607861882441
1.177607065168469
1.177601461923183
1.177589582761265
1.177568889875452
1.17753661271805
1.177490284074689
1.177428141765388
1.177349824628112
1.177256824089385
1.177153765866053
1.177045222571404
1.176940560755951
1.176856109688637
1.176783630170183
1.176722001358115
1.176672086862693
1.176632077383421
1.176600526411227
1.176576436081546
1.176558743866622
1.176545978101512
1.176536787028622
1.176529613143688
1.176527319382676
1.176532863198726
1.176546749858014
1.176568408139972
1.176593569459898
1.176622704886813
1.176668207299197
1.176745464364746
1.176860087003514
1.176995794864463
1.177227956634185
)
;

boundaryField
{
    inlet
    {
        type            calculated;
        value           uniform 1.176411716172193;
    }
    outlet
    {
        type            calculated;
        value           uniform 1.177439925228043;
    }
    frontAndBack
    {
        type            empty;
    }
}


// ************************************************************************* //
