/*--------------------------------*- C++ -*----------------------------------*\
| =========                 |                                                 |
| \\      /  F ield         | OpenFOAM: The Open Source CFD Toolbox           |
|  \\    /   O peration     | Version:  v2012                                 |
|   \\  /    A nd           | Website:  www.openfoam.com                      |
|    \\/     M anipulation  |                                                 |
\*---------------------------------------------------------------------------*/
FoamFile
{
    version     2.0;
    format      ascii;
    class       volScalarField;
    location    "0.011";
    object      T;
}
// * * * * * * * * * * * * * * * * * * * * * * * * * * * * * * * * * * * * * //

dimensions      [0 0 0 1 0 0 0];


internalField   nonuniform List<scalar> 
1000
(
299.9874048618042
299.9891841617809
299.9828405046626
299.9781811417124
299.9737352524015
299.9699019585946
299.9664324130266
299.9633232199384
299.9606030716241
299.9587708475059
299.9582903727252
299.9584653703527
299.9589196862656
299.9597798946448
299.9613694120241
299.9638155864315
299.9670403048685
299.9708895738225
299.9752342593753
299.9799904730896
299.985096226545
299.9904852317092
299.9960747592245
300.001764780901
300.0074420571726
300.0129877976703
300.0182936525125
300.0232923417238
300.0279884997998
300.0324253029395
300.036479913353
300.0395237693358
300.0408235385086
300.0409822338512
300.0409469696846
300.0407560279618
300.0401975971038
300.0390640276905
300.037159204598
300.0343742939644
300.0307265188352
300.0263470090672
300.021422049143
300.016127180249
300.0105937313561
300.0049153417345
299.9991726787226
299.99345237568
299.9878476494579
299.9824349852629
299.9772363165736
299.9722141621483
299.9673873941912
299.9631372311312
299.9603815450619
299.9595096601499
299.9594538782142
299.9594789287334
299.9596667354718
299.960139605042
299.9610914504378
299.9627014897203
299.9651129152406
299.9683897251161
299.9724954236759
299.9772989100182
299.9826102719358
299.9882316009786
299.9939967428513
299.9997828990943
300.0055026107634
300.011100484761
300.0165643139733
300.021928530368
300.0272283023867
300.0323502514478
300.0367451276438
300.039414647322
300.0401843164
300.0402337119801
300.040186998019
300.0400408391733
300.0396388534221
300.0388401074198
300.0374769630711
300.0353984021393
300.0324974269215
300.0287420106252
300.0241899682508
300.0189814854038
300.013311957988
300.0073931511122
300.0014120725418
299.9954985652031
299.9897108087245
299.9840396482199
299.9784310244283
299.9728532907312
299.9674890049936
299.9630597279969
299.9606242237509
299.9600453306239
299.9600286229428
299.9600541437735
299.9602095853509
299.9605822046512
299.961317141442
299.9625607668745
299.9644558518976
299.9671153881043
299.970598613642
299.9748900164886
299.9798913815448
299.9854349002669
299.991315413237
299.9973309719846
300.003321985907
300.0092029144018
300.014975726795
300.0207048784112
300.0264253217888
300.0319381470705
300.0365069579839
300.0390608222535
300.0397055149676
300.0397400117953
300.0397029373212
300.0395863106583
300.0392711659657
300.0386460359293
300.0375732870507
300.0359144574481
300.033545664049
300.0303810469994
300.0263937322678
300.0216297524763
300.0162108958791
300.010320548675
300.0041680006699
299.9979382571872
299.9917475766071
299.9856259804536
299.9795423081247
299.973501712375
299.9677830626205
299.9632560616857
299.960957844507
299.9604723030502
299.9604618387239
299.9604840286206
299.9606110033298
299.9609139198461
299.9615097614184
299.9625215055278
299.9640774999493
299.9662950575271
299.9692633090955
299.973023252716
299.9775512238696
299.9827537954959
299.988478226677
299.9945378635938
300.0007507225011
300.0069846242994
300.0131887041658
300.0193792323535
300.025542962606
300.0314116897174
300.0361564214502
300.0387042490229
300.0393164159361
300.0393481478135
300.0393190033736
300.0392266884698
300.0389744582162
300.0384705806936
300.0375986517724
300.0362355318047
300.0342603939395
300.0315713168561
300.0281025042207
300.0238401277774
300.0188342982506
300.013200643325
300.0071027780884
300.0007150077931
299.9941784798543
299.987572563883
299.98092837173
299.9743308645862
299.9681803876971
299.9634879327465
299.9612530587295
299.9608201803709
299.9608121110068
299.9608307924537
299.9609360754087
299.9611870300237
299.9616813311465
299.9625242235336
299.9638299334206
299.9657105586617
299.9682639385263
299.9715576601047
299.9756131080906
299.9803954574732
299.9858134090205
299.9917304428075
299.9979904405778
300.0044563635503
300.0110447148875
300.0177202544299
300.0244032561229
300.0307328366533
300.0357623239829
300.0383851460971
300.038994447908
300.039025904978
300.0390026384923
300.0389286584802
300.0387231283337
300.0383092036416
300.0375871239136
300.036447946345
300.0347788525359
300.0324750030131
300.0294526699154
300.0256628926329
300.0211045724244
300.0158320410174
300.0099488518158
300.003584590436
299.9968624494665
299.9898747822568
299.9826959828631
299.9754912196207
299.9687995085354
299.9638069137171
299.9615291764142
299.9611119945382
299.961103881916
299.9611193635872
299.9612075319312
299.9614184291398
299.9618351854891
299.9625487898149
299.9636606253542
299.9652747651024
299.9674893892197
299.9703843999873
299.9740079140723
299.9783659251413
299.9834178573997
299.9890798375077
299.9952397665597
300.0017855915522
300.0086333992487
300.0157216999583
300.0229191567483
300.0297787525712
300.0352260167235
300.0380565120439
300.0387163909539
300.0387524266685
300.0387340676367
300.0386749225265
300.0385059199228
300.0381617173585
300.0375558976971
300.0365921326924
300.0351670461766
300.0331786328096
300.0305358952904
300.0271696541628
300.0230442357008
300.0181663607514
300.0125844509553
300.00637523592
299.999622897273
299.9924040358806
299.9848064786569
299.9770459613499
299.9697670835883
299.9643193127975
299.9618310417802
299.9613692434652
299.9613568956054
299.9613688422177
299.9614419250433
299.9616193771121
299.961973465083
299.9625837648647
299.9635405001194
299.9649390936746
299.9668741755841
299.9694301827738
299.9726705958384
299.9766289091537
299.981303014203
299.9866544253164
299.9926164478328
299.9991134538551
300.0060805560989
300.0134539254465
300.0210795857366
300.0284654795249
300.0344478176826
300.0376630367922
300.038460488318
300.0385111799089
300.0384972005292
300.0384512486906
300.0383128683747
300.0380257192793
300.0375138789321
300.0366917480281
300.0354652380298
300.0337377021302
300.0314166988383
300.0284221012362
300.02469567793
300.0202093223339
300.0149666744676
300.008996029116
300.0023385930139
299.995042053952
299.9871843398702
299.9789918144681
299.9711467152524
299.9651019164268
299.9621992122345
299.9616092319328
299.9615855760262
299.9615937462154
299.9616526919606
299.9618002972819
299.9621008302711
299.9626248080999
299.9634531960687
299.9646733091899
299.9663746801137
299.9686420126077
299.971546980414
299.9751410030433
299.9794497621793
299.9844705212799
299.9901760669135
299.9965273208257
300.0034857397899
300.0110005678179
300.0189235129225
300.026770963314
300.0333617558031
300.0371499258128
300.0382058338112
300.038290528811
300.03828050523
300.0382466147996
300.0381350176258
300.0378966628977
300.0374637495913
300.036759547303
300.035698308563
300.0341894686903
300.0321421603489
300.0294710761274
300.0261039768217
300.0219885485477
300.0170947270826
300.0114115542135
300.0049418261671
299.9977014773369
299.9897445555526
299.9812740760048
299.9729394467407
299.9662073415462
299.9626809995293
299.9618481089244
299.9617990558038
299.9618036297225
299.9618494672063
299.9619697152302
299.9622228207453
299.9626720303756
299.9633908252656
299.9644594628216
299.9659621229113
299.9679816472542
299.9705935110052
299.9738603354813
299.97782699022
299.9825171750681
299.987934971169
299.9940728795877
300.0009188599519
300.008442662062
300.0165213205578
300.0247240496807
300.0319320471101
300.0364559071753
300.0379268973326
300.0380825639725
300.0380766157771
300.0380535839793
300.0379655693507
300.0377699288116
300.0374050988314
300.0368016318812
300.0358809595759
300.0345584286511
300.0327461462705
300.0303571383789
300.0273110874926
300.0235396775563
300.0189888713654
300.0136181995863
300.0073995117744
300.0003194504226
299.9924025535546
299.9838082548429
299.9751021156343
299.9676697873542
299.9633376392424
299.9621087050924
299.9620048566815
299.9620056811868
299.9620386629125
299.962132083393
299.9623405965734
299.9627223573301
299.9633456126518
299.9642850558507
299.965619584081
299.9674283947123
299.9697868204831
299.9727623857859
299.9764111214581
299.9807751738634
299.9858835891608
299.9917560944777
299.9984056364298
300.0058258367009
300.0139332172332
300.0223741383448
300.0301549270298
300.0355308364283
300.0376037269762
300.0379221952443
300.0379411418243
300.037914853452
300.0378326593106
300.0376506773483
300.0373162740837
300.0367675532691
300.0359362355579
300.0347491863001
300.0331298461679
300.0309996041984
300.0282787662675
300.0248876930705
300.0207485246091
300.0157869981439
300.0099341926187
300.003134209512
299.9953724274815
299.9867337528766
299.977700054843
299.9695020802644
299.9641139781253
299.9621745383917
299.961759069862
299.9616423363785
299.9617073458959
299.9619229053299
299.9622915606986
299.9628363740443
299.9635938023771
299.9646098718645
299.9659293638863
299.9675993331159
299.9696732542853
299.9722126390504
299.9752856316588
299.9789636543643
299.9833181969042
299.9884207518497
299.9943425855233
300.0011386886974
300.0088092678994
300.0171451455161
300.0252606295106
300.031500902362
300.034946833344
300.0363396900814
300.037893406423
300.0393317186653
300.0408627504063
300.0424499397482
300.0439858929353
300.0453224790555
300.0463455297494
300.0467525686892
300.0463599557825
300.0452144788368
300.0431469800342
300.0400160357175
300.035738431726
300.0302990301863
300.0237154177919
300.0159983504516
300.0071839655963
299.9974695856488
299.9873744291751
299.9780776603959
299.9713233807912
299.9676745646004
299.9659256030117
299.9650067295316
299.9646433850115
299.9647279633281
299.9650170467054
299.9654423057402
299.9660637958789
299.9669241741735
299.9680695263894
299.9695467889974
299.9714216458657
299.973772210679
299.9766772798714
299.9802069965824
299.9844231047554
299.9893877611116
299.995174925905
300.0018465305437
300.0093501724762
300.0174000689971
300.0254173416848
300.0321760644788
300.0368202512392
300.0388090643152
300.0401217514799
300.0413348957944
300.0426136773099
300.0439310219324
300.045233805569
300.0464317334733
300.0474080807701
300.0479797751342
300.0479440530179
300.0471926641267
300.0456180911628
300.0430430510665
300.0393593316194
300.034493654515
300.0284147581969
300.0211456190845
300.0127534853996
300.0034193086955
299.9935683774087
299.984022402959
299.9762392255441
299.9714567496047
299.9691186993618
299.9679962804591
299.9674632264681
299.9674510919342
299.9677744924647
299.9682503222878
299.9688825489051
299.9696709683907
299.9706551640807
299.9718896823269
299.9734616864326
299.9754805525072
299.9780619211252
299.9813122282689
299.9853202489783
299.9901545761921
299.9958652994067
300.0024739633027
300.0099200033158
300.0179749514382
300.0261492498173
300.0335478970433
300.0392377891667
300.0422763286858
300.0434236799456
300.0445254667328
300.0455240144361
300.046547696239
300.0475739886219
300.0485268221552
300.0493140718089
300.0498595706534
300.0499819855093
300.0495387177104
300.0484287496948
300.0464005602829
300.0432991684727
300.0390323600693
300.0335503021542
300.0268427208941
300.0189446008535
300.0099870420817
300.0003090144843
299.9905422415607
299.9818749007148
299.9758786506642
299.9727483498471
299.9712360984979
299.9704874219594
299.9702793503396
299.9705815708533
299.9710652999272
299.9717113972326
299.9724895810759
299.9734025402907
299.9744814840928
299.9758002246375
299.9774771463126
299.97966177958
299.9825088519034
299.9861528836033
299.9906964532854
299.9962117764961
300.0027269205535
300.010187173959
300.0183959295878
300.0269059676636
300.035015776033
300.0417391042777
300.0458693247244
300.0475708101125
300.0487183376461
300.0496200899135
300.0503682515963
300.0510452791173
300.051669068539
300.0522009168379
300.0525638883731
300.0526552511016
300.0523567289675
300.0515041039076
300.0498866033075
300.0473485654626
300.0437440440327
300.0389415100104
300.032867712637
300.0255364736269
300.0170315600984
300.0075924401194
299.9977388744368
299.9883984505767
299.9811391530936
299.9769401643453
299.9748266854637
299.9736603016905
299.9731560318895
299.973254686704
299.9737249365573
299.9744024136205
299.9752530594
299.9762041903027
299.9772455292513
299.9784220663877
299.9798443390951
299.9816674231636
299.9840673902307
299.9872210661555
299.9912889582772
299.9963984053295
300.0026206598001
300.0099366101743
300.0182104879862
300.0270723139869
300.0359083581907
300.0437773516297
300.0492183684569
300.0519629800598
300.0535958038611
300.0547196202676
300.0554182616063
300.0558839647874
300.0561798603255
300.0563287866694
300.0563706533281
300.0562661924064
300.0558910709674
300.0551004685445
300.0537306551763
300.0515999312564
300.0485343622692
300.0443842151935
300.0390236792006
300.0323734835503
300.0244365065256
300.0153714087559
300.0056156856565
299.9958912346522
299.9874792634824
299.9819409278557
299.9790087877125
299.9772533631943
299.9762821061385
299.9760206184566
299.9762936312301
299.9769228928998
299.9778014460007
299.9788569492881
299.9800056143575
299.9812286651126
299.9825768290996
299.9841746781164
299.9862012272424
299.9888643642803
299.9923693966938
299.9968871962435
300.0025440545725
300.0094110080106
300.0174782779783
300.0264701726704
300.035800884099
300.0447455800303
300.0517744477435
300.0558901897547
300.0585903734793
300.0603916450715
300.0614430723723
300.0620438155874
300.0622934697194
300.0622224459709
300.0619165843607
300.0614129415445
300.0607099895785
300.0597570644386
300.0584347361656
300.0565671520714
300.0539487739042
300.0503705988903
300.0456522116239
300.0396766201548
300.0324101388189
300.0238936440709
300.0144065867509
300.0045789969235
299.9953459385022
299.9883583933654
299.9843267122565
299.9817952166981
299.9801571722792
299.9793701429049
299.9792201532489
299.9795934904302
299.9803457324427
299.9813760138936
299.9826059840468
299.9839533689047
299.9854047954893
299.9870138426764
299.9889050298115
299.9912592385115
299.9942917517998
299.9982193107842
300.0032322122943
300.0094736948692
300.0169766609267
300.0256028647624
300.0349164422508
300.0444541814071
300.0529204929123
300.0585007784502
300.062585745965
300.0655721708941
300.0675884823051
300.0689406437847
300.0697414415374
300.0701323877691
300.0700397620218
300.0695329356064
300.0687864873134
300.0677355516933
300.0663907791561
300.0646560297158
300.0623773803506
300.059346159904
300.05534090623
300.050155837585
300.0436343078466
300.0357333059022
300.0266280817223
300.0168485514027
300.0070340197307
299.9985793271698
299.9930997835359
299.9893642224907
299.9867117408685
299.9851172442901
299.9843152951278
299.9840998212835
299.9844671771172
299.9852944803791
299.9863995152873
299.9877405699986
299.9892369438036
299.9908697475036
299.9926836570855
299.9948206186803
299.9975057473426
300.0009986547026
300.0055313250243
300.0112729925648
300.018300941734
300.0266094790206
300.0359106469655
300.0457025683146
300.0550981416101
300.0621509606989
300.0672995728144
300.0713558289633
300.0743203362616
300.0765877701767
300.0783828172035
300.0797877994135
300.0808322241497
300.0815724814827
300.0819822123906
300.0819985615852
300.0815949276166
300.0806895062032
300.0791483325534
300.0767878424874
300.0733810223959
300.0687088360925
300.0626288046491
300.0551181855715
300.046236549808
300.036307740765
300.0259189374184
300.0161538243997
300.0089984688534
300.0034075446252
299.9990211343126
299.9958602343469
299.9937195099641
299.9924296077733
299.9918719305405
299.9918789373949
299.9924232314802
299.9934189076372
299.9946954886192
299.996225583791
299.9979567725263
299.9999591478642
300.0023816011707
300.0054701593365
300.0095166624332
300.01478518761
300.0214540080573
300.0295953814543
300.0390300686298
300.0491844957875
300.059478067278
300.0680639205846
300.074943405803
300.0806047849686
300.084989264491
300.0883926608318
300.0910945764516
300.0932624483493
300.0950107785912
300.0963977066878
300.0974635030932
300.0982811000893
300.0986047541918
300.0982374503565
300.0971832714631
300.0952257265919
300.0921705256153
300.0878341832413
300.0820852425836
300.074867103782
300.0661763171201
300.0562693495487
300.0458502883495
300.0355978409148
300.0269837036698
300.0203561348754
300.0145018480757
300.0097752575153
300.0060648302971
300.0032667688679
300.0012897071291
300.000035112835
299.999441367839
299.9994281072503
300.0000162747688
300.001118191919
300.0025888107587
300.0044536749028
300.0067160128522
300.0095452779167
300.0132051727151
300.0180150688802
300.0242668557664
300.0321493583825
300.0416106663567
300.0520680295612
300.0631431916523
300.0731236296434
300.0816603430819
300.0888810133514
300.0946888452806
300.0992186704288
300.1027378030668
300.1054385501304
300.1074925991614
300.1090824225464
300.1103146882518
300.1112443041864
300.111796375082
300.1118064079463
300.1111237315675
300.1095590463005
300.1069151083275
300.1030325770056
300.0977520125958
300.0909165311314
300.0824512613075
300.0725860985149
300.061998630248
300.0512490788786
300.0414380512128
300.0340408371734
300.0274710673937
300.0220611584315
300.0176923662617
300.0141252039821
300.0111994884833
300.008868952302
300.0071473982694
300.0061131545325
300.0056028561189
300.0058973035913
300.0069312799857
300.0084200772226
300.0104794318381
300.013105833461
300.0164579196224
300.0208300091195
300.0266032342715
300.0340909684581
300.0434043536812
300.054069444086
300.0658065542344
300.0769792193979
300.0868976056668
300.0954345358765
300.1024673568686
300.1079972945484
300.1122792385943
300.1155444388752
300.1179823851691
300.1197449137832
300.1209302381134
300.121677257928
300.1220378954263
300.1219566709263
300.121384907463
300.1201721315298
300.1180590776123
300.1147632082951
300.1100335497509
300.1036917126431
300.0957028405687
300.0862215089789
300.0757217201665
300.0646702768159
300.0540194327644
300.0454285639576
300.0380484502595
300.0317550978489
300.0266288672304
300.0224822243931
300.0191716750907
300.0166102462411
300.014714223847
300.0133557109514
300.0124276151073
300.011840183516
300.0117757502476
300.0127592235191
300.0152491782598
300.0193619202778
300.0248020362732
300.0306848114163
300.0358599524499
300.0401569598239
300.0450636025974
300.0497108655803
300.0540172171408
)
;

boundaryField
{
    inlet
    {
        type            fixedValue;
        value           uniform 300;
    }
    outlet
    {
        type            characteristicVelocityInletOutletTemperature;
        UName           U;
        pName           p;
        TName           T;
        phiName         phi;
        rhoName         rho;
        U               (0 0 0);
        p               101325;
        T               300;
        value           uniform 300;
    }
    frontAndBack
    {
        type            empty;
    }
}


// ************************************************************************* //
