/*--------------------------------*- C++ -*----------------------------------*\
| =========                 |                                                 |
| \\      /  F ield         | OpenFOAM: The Open Source CFD Toolbox           |
|  \\    /   O peration     | Version:  v2012                                 |
|   \\  /    A nd           | Website:  www.openfoam.com                      |
|    \\/     M anipulation  |                                                 |
\*---------------------------------------------------------------------------*/
FoamFile
{
    version     2.0;
    format      ascii;
    class       volVectorField;
    location    "0.011";
    object      U;
}
// * * * * * * * * * * * * * * * * * * * * * * * * * * * * * * * * * * * * * //

dimensions      [0 1 -1 0 0 0 0];


internalField   nonuniform List<vector> 
1000
(
(-0.0009978843377577973 0 0)
(-0.03284677859124455 0 0)
(-0.04106270797126783 0 0)
(-0.05635797596158462 0 0)
(-0.07039755789515215 0 0)
(-0.0835123992371359 0 0)
(-0.09471399088277362 0 0)
(-0.1042987211129286 0 0)
(-0.1126387332450792 0 0)
(-0.118520802818978 0 0)
(-0.1203336676496777 0 0)
(-0.120289241243161 0 0)
(-0.1195680335361943 0 0)
(-0.1172888479879358 0 0)
(-0.1127334901868777 0 0)
(-0.1056275286266054 0 0)
(-0.09621693793753729 0 0)
(-0.08494706549849275 0 0)
(-0.07220407454682165 0 0)
(-0.05824927296467752 0 0)
(-0.04328114325006446 0 0)
(-0.02751057162069047 0 0)
(-0.01119557118233525 0 0)
(0.005363493500391575 0 0)
(0.02184163247266154 0 0)
(0.03790262927348417 0 0)
(0.05323244500129 0 0)
(0.06763479942437073 0 0)
(0.08113882156301594 0 0)
(0.09389718557400474 0 0)
(0.1055631693192104 0 0)
(0.1143016686443209 0 0)
(0.1179941901578079 0 0)
(0.1184169870379052 0 0)
(0.1183351392323404 0 0)
(0.1177623613242766 0 0)
(0.1161834294783127 0 0)
(0.1129342683311794 0 0)
(0.107452923619711 0 0)
(0.09942521172557557 0 0)
(0.0888995248696364 0 0)
(0.07624839480150934 0 0)
(0.06200736682946451 0 0)
(0.04669038944215944 0 0)
(0.03068393172861431 0 0)
(0.01425377517497342 0 0)
(-0.002374168734602053 0 0)
(-0.0189391605415953 0 0)
(-0.03515337998432502 0 0)
(-0.05080217965843727 0 0)
(-0.06584909222701479 0 0)
(-0.08039979895143592 0 0)
(-0.09435783849589477 0 0)
(-0.1066146582302846 0 0)
(-0.1145732050564495 0 0)
(-0.1171305934060396 0 0)
(-0.1173167744451152 0 0)
(-0.1171689953501367 0 0)
(-0.116669972997408 0 0)
(-0.1152887467932778 0 0)
(-0.1125384022037009 0 0)
(-0.107883842996469 0 0)
(-0.1009105956552791 0 0)
(-0.09143044910945257 0 0)
(-0.07955355314011867 0 0)
(-0.06566280262560141 0 0)
(-0.05030168444800501 0 0)
(-0.03403649034036608 0 0)
(-0.01735514791627626 0 0)
(-0.0006239139222768204 0 0)
(0.01591192648615693 0 0)
(0.03211042504404348 0 0)
(0.04792964649527992 0 0)
(0.06343965902782964 0 0)
(0.07874408448845992 0 0)
(0.09355997173197904 0 0)
(0.1063054271752017 0 0)
(0.1140359791320597 0 0)
(0.1162240505183668 0 0)
(0.1163375881239241 0 0)
(0.1162749946836489 0 0)
(0.1158078285046154 0 0)
(0.1146587011687065 0 0)
(0.1123469943333465 0 0)
(0.1084033792889357 0 0)
(0.1023902561620798 0 0)
(0.094001620419441 0 0)
(0.08314130245141892 0 0)
(0.06997224237413202 0 0)
(0.05490419075387839 0 0)
(0.0385088973462037 0 0)
(0.02139394031694572 0 0)
(0.004089609306080033 0 0)
(-0.01302398869581732 0 0)
(-0.02976169050502304 0 0)
(-0.04615201622190692 0 0)
(-0.06237752704819823 0 0)
(-0.07853358363484997 0 0)
(-0.09405374326197916 0 0)
(-0.1068386703999213 0 0)
(-0.1138694300809056 0 0)
(-0.1155720141822918 0 0)
(-0.1156535221595557 0 0)
(-0.1155187511296501 0 0)
(-0.1151028515641987 0 0)
(-0.1140150655677429 0 0)
(-0.1118901279636805 0 0)
(-0.1082936556648496 0 0)
(-0.1028126867132037 0 0)
(-0.09511767095939183 0 0)
(-0.08504052843329374 0 0)
(-0.07262953914947647 0 0)
(-0.05816467409426248 0 0)
(-0.04212607736516723 0 0)
(-0.02511229762405219 0 0)
(-0.007716175097880775 0 0)
(0.009605986709239581 0 0)
(0.02662089490738713 0 0)
(0.04333021467329538 0 0)
(0.05989777649091508 0 0)
(0.07642491700296888 0 0)
(0.09237034609945627 0 0)
(0.1056100881917369 0 0)
(0.1130054316929787 0 0)
(0.1148428511610767 0 0)
(0.1149188200705032 0 0)
(0.1148651326782329 0 0)
(0.1144960865950626 0 0)
(0.1135939362366919 0 0)
(0.1117849629574328 0 0)
(0.1086815700508337 0 0)
(0.1038825483990228 0 0)
(0.09703254783833219 0 0)
(0.08788086384572738 0 0)
(0.0763460779671702 0 0)
(0.0625642554802962 0 0)
(0.04689311688349829 0 0)
(0.02985962353371894 0 0)
(0.01206055995689547 0 0)
(-0.005965866432227549 0 0)
(-0.02387011184706784 0 0)
(-0.04156638012663412 0 0)
(-0.05916515483596447 0 0)
(-0.07665517065306164 0 0)
(-0.09320029157584392 0 0)
(-0.1062748578483529 0 0)
(-0.1129107776128307 0 0)
(-0.1143351847810081 0 0)
(-0.1143929802056964 0 0)
(-0.1142823928705657 0 0)
(-0.1139399850206164 0 0)
(-0.1130565163923479 0 0)
(-0.1113335794906856 0 0)
(-0.1084076799754389 0 0)
(-0.1039074429765452 0 0)
(-0.09749130050059081 0 0)
(-0.08890403344353487 0 0)
(-0.07802986136561861 0 0)
(-0.06493385381710677 0 0)
(-0.04988199162394111 0 0)
(-0.03332046027067715 0 0)
(-0.01579618647919687 0 0)
(0.0021692339497706 0 0)
(0.02020481187663517 0 0)
(0.03815918223130951 0 0)
(0.05606116526426286 0 0)
(0.07387421607418214 0 0)
(0.0908501312874555 0 0)
(0.1045939771907434 0 0)
(0.1119689141632077 0 0)
(0.1137171425921559 0 0)
(0.1137909360088129 0 0)
(0.11374982780939 0 0)
(0.1134566888849128 0 0)
(0.1127348625071957 0 0)
(0.111276756517382 0 0)
(0.1087543891180132 0 0)
(0.104810774008082 0 0)
(0.09909903502980708 0 0)
(0.09132261406037137 0 0)
(0.08128798494140382 0 0)
(0.06895736571564957 0 0)
(0.05448040500363376 0 0)
(0.03818883618094391 0 0)
(0.02054857721772661 0 0)
(0.002066245527322797 0 0)
(-0.01683871492058084 0 0)
(-0.03593769248650563 0 0)
(-0.05515773935181865 0 0)
(-0.07425577070160949 0 0)
(-0.09204935146383623 0 0)
(-0.1056063466050793 0 0)
(-0.1120611406987113 0 0)
(-0.1133291876749133 0 0)
(-0.1133755764650708 0 0)
(-0.1132835985865507 0 0)
(-0.1129992671409887 0 0)
(-0.1122674793431355 0 0)
(-0.110838133755074 0 0)
(-0.1084005511272842 0 0)
(-0.1046241981393207 0 0)
(-0.09918293625453065 0 0)
(-0.09179593920290301 0 0)
(-0.08227006332768644 0 0)
(-0.07054054690770094 0 0)
(-0.05670456707718361 0 0)
(-0.04103008438837102 0 0)
(-0.02391784277058593 0 0)
(-0.005814957392242141 0 0)
(0.01289160724874649 0 0)
(0.03195584042203532 0 0)
(0.05126054039272836 0 0)
(0.07057818480533856 0 0)
(0.08888806733232534 0 0)
(0.1034523017877352 0 0)
(0.1110417166817211 0 0)
(0.1127849459827451 0 0)
(0.1128622637923624 0 0)
(0.1128311497855619 0 0)
(0.1125946067914884 0 0)
(0.1120068527172581 0 0)
(0.1108089762609008 0 0)
(0.1087201519434848 0 0)
(0.1054243663690828 0 0)
(0.1005975834894877 0 0)
(0.09393520628190345 0 0)
(0.08519227459065397 0 0)
(0.07422891582063304 0 0)
(0.06104601002430177 0 0)
(0.0457985123459542 0 0)
(0.02877964783018592 0 0)
(0.01036628699325749 0 0)
(-0.009075703996551885 0 0)
(-0.02928027530858752 0 0)
(-0.05004681876466096 0 0)
(-0.07089918434639918 0 0)
(-0.09025749871576903 0 0)
(-0.1046853166712668 0 0)
(-0.1112661662054304 0 0)
(-0.1124865754235168 0 0)
(-0.1125286701715811 0 0)
(-0.1124523201765869 0 0)
(-0.1122143022651384 0 0)
(-0.1115992880600979 0 0)
(-0.1103942070674715 0 0)
(-0.1083305279302503 0 0)
(-0.1051148717705815 0 0)
(-0.1004446468979654 0 0)
(-0.0940377508906912 0 0)
(-0.08566496869812855 0 0)
(-0.07518454743289237 0 0)
(-0.06257627142266313 0 0)
(-0.04796103316244815 0 0)
(-0.0315862065857242 0 0)
(-0.01377176237485745 0 0)
(0.005165888670090618 0 0)
(0.02497917071834898 0 0)
(0.04547753474730506 0 0)
(0.066285520936223 0 0)
(0.08612957607924575 0 0)
(0.1018995126511538 0 0)
(0.1100870168962692 0 0)
(0.1119792060801256 0 0)
(0.1120737457519391 0 0)
(0.1120512937065887 0 0)
(0.111860121815048 0 0)
(0.1113774392925453 0 0)
(0.1103811959846184 0 0)
(0.1086287019691988 0 0)
(0.1058404113808927 0 0)
(0.1017192584854568 0 0)
(0.09596902485442832 0 0)
(0.08832419265107093 0 0)
(0.0785862183897659 0 0)
(0.06665529945895717 0 0)
(0.05254882819117881 0 0)
(0.03640158429263272 0 0)
(0.01843763581435535 0 0)
(-0.001091495480801084 0 0)
(-0.02196601956396202 0 0)
(-0.04394437657462041 0 0)
(-0.06640241820811571 0 0)
(-0.08745774378199321 0 0)
(-0.103203941621122 0 0)
(-0.1103964810399152 0 0)
(-0.1117452108360089 0 0)
(-0.1117944575593048 0 0)
(-0.1117332611252625 0 0)
(-0.1115370084861209 0 0)
(-0.1110191687212367 0 0)
(-0.1099954181981848 0 0)
(-0.1082305053705356 0 0)
(-0.105463353314223 0 0)
(-0.1014167513414957 0 0)
(-0.09581870822501089 0 0)
(-0.08842638677683748 0 0)
(-0.07905376231358641 0 0)
(-0.06760181725104505 0 0)
(-0.0540800373049402 0 0)
(-0.03860335458668847 0 0)
(-0.02136032255711589 0 0)
(-0.00256374568673954 0 0)
(0.01759316856582257 0 0)
(0.03891566199097132 0 0)
(0.06096449675285929 0 0)
(0.0823323398476649 0 0)
(0.09964737457566501 0 0)
(0.1089446882972633 0 0)
(0.1112373148936263 0 0)
(0.1113779316776618 0 0)
(0.1113639822125879 0 0)
(0.1112122022173476 0 0)
(0.1108180323990642 0 0)
(0.109986670163679 0 0)
(0.1085060216698369 0 0)
(0.1061275490851946 0 0)
(0.1025807152520219 0 0)
(0.09758479334362467 0 0)
(0.09087058600824569 0 0)
(0.08220793721792581 0 0)
(0.07143108636169739 0 0)
(0.05845651658359107 0 0)
(0.04329052585590522 0 0)
(0.0260175961729678 0 0)
(0.006763460461902938 0 0)
(-0.0143369452437813 0 0)
(-0.03706869595108359 0 0)
(-0.06077455044281096 0 0)
(-0.0834657387857043 0 0)
(-0.1009402637877128 0 0)
(-0.1093351274456605 0 0)
(-0.1110540682292837 0 0)
(-0.1111310238148931 0 0)
(-0.1110843500694062 0 0)
(-0.1109283162942999 0 0)
(-0.1104967782260112 0 0)
(-0.1096281031734334 0 0)
(-0.1081128373088108 0 0)
(-0.1057167789435762 0 0)
(-0.10218654601452 0 0)
(-0.09726480987292818 0 0)
(-0.09070740255731223 0 0)
(-0.08230468527887234 0 0)
(-0.07190661305980048 0 0)
(-0.05944225069643189 0 0)
(-0.04492186335759371 0 0)
(-0.02841960414805499 0 0)
(-0.01004445146130634 0 0)
(0.01008582636718989 0 0)
(0.03181705626683119 0 0)
(0.05472824731050716 0 0)
(0.07743268701628482 0 0)
(0.09650472642889596 0 0)
(0.1074564219480908 0 0)
(0.1104993780461229 0 0)
(0.1107413229577238 0 0)
(0.1107359308337472 0 0)
(0.1106191057917734 0 0)
(0.1103028865628548 0 0)
(0.1096123814930771 0 0)
(0.1083600402727607 0 0)
(0.1063228327086329 0 0)
(0.1032540258461825 0 0)
(0.09889038947393364 0 0)
(0.09296781198102032 0 0)
(0.08524130638643332 0 0)
(0.07550382845244041 0 0)
(0.06360154397017186 0 0)
(0.04944439665161874 0 0)
(0.03300399246125489 0 0)
(0.0142933417244107 0 0)
(-0.006645842185268186 0 0)
(-0.02966547701628711 0 0)
(-0.0541733233817228 0 0)
(-0.07827832281595172 0 0)
(-0.09774277060426628 0 0)
(-0.1079453327065167 0 0)
(-0.1103654261901372 0 0)
(-0.1105118663303166 0 0)
(-0.1104780772402422 0 0)
(-0.1103602201200341 0 0)
(-0.110007362496202 0 0)
(-0.1092761471303995 0 0)
(-0.1079770832172177 0 0)
(-0.1058978634117633 0 0)
(-0.1028058910867275 0 0)
(-0.09845922618038933 0 0)
(-0.09261849911374465 0 0)
(-0.08506320126200781 0 0)
(-0.07561175624391238 0 0)
(-0.0641376120493484 0 0)
(-0.05057322220010931 0 0)
(-0.03490217197048152 0 0)
(-0.01714413989824813 0 0)
(0.002659300229744958 0 0)
(0.02441636897826011 0 0)
(0.04778067101002188 0 0)
(0.07151383105275246 0 0)
(0.09236772143155279 0 0)
(0.1054453758971425 0 0)
(0.1096917278245743 0 0)
(0.1101412744285587 0 0)
(0.1101456510515788 0 0)
(0.1100592891049896 0 0)
(0.1098123417834117 0 0)
(0.1092450096053449 0 0)
(0.1081897677524027 0 0)
(0.106444224752961 0 0)
(0.1037820476307789 0 0)
(0.0999569479814638 0 0)
(0.09471393998275081 0 0)
(0.08780334020219693 0 0)
(0.0789940173980444 0 0)
(0.06808584402517523 0 0)
(0.05492092606507922 0 0)
(0.03938618905697936 0 0)
(0.02140325287117903 0 0)
(0.000927746048971139 0 0)
(-0.02197550969870384 0 0)
(-0.0468391199826191 0 0)
(-0.07201857307619405 0 0)
(-0.09351413176488815 0 0)
(-0.1060549391244245 0 0)
(-0.1096222169304724 0 0)
(-0.1099258044260994 0 0)
(-0.1099023933749574 0 0)
(-0.1098153357247917 0 0)
(-0.109528269237681 0 0)
(-0.1089150382224771 0 0)
(-0.1078037590299172 0 0)
(-0.1060024315133173 0 0)
(-0.1032971357046863 0 0)
(-0.09945945711124352 0 0)
(-0.09425490469782036 0 0)
(-0.08745578866365701 0 0)
(-0.07885728474978125 0 0)
(-0.06829155074178314 0 0)
(-0.05563530295870187 0 0)
(-0.040809197932134 0 0)
(-0.0237683334557683 0 0)
(-0.004491106315043466 0 0)
(0.01699014380246017 0 0)
(0.04042493351839242 0 0)
(0.06478835955865295 0 0)
(0.08721081104583908 0 0)
(0.1026675603241328 0 0)
(0.1085908712586775 0 0)
(0.109452388368014 0 0)
(0.1094524644008257 0 0)
(0.1094065125948219 0 0)
(0.1092408796519504 0 0)
(0.1088419661868164 0 0)
(0.1080448404625358 0 0)
(0.1066518903381778 0 0)
(0.1044378029325131 0 0)
(0.1011538255966705 0 0)
(0.09653394472560067 0 0)
(0.09030741832399029 0 0)
(0.08221730907372021 0 0)
(0.07203867515227018 0 0)
(0.05959000146952623 0 0)
(0.04473565800647804 0 0)
(0.02737637153537698 0 0)
(0.00744436493171481 0 0)
(-0.0150317320188297 0 0)
(-0.03974590674379434 0 0)
(-0.06527739002534433 0 0)
(-0.08814693450547542 0 0)
(-0.102798710691971 0 0)
(-0.1075810273368402 0 0)
(-0.1082020148880132 0 0)
(-0.1081870207896487 0 0)
(-0.1080553276350263 0 0)
(-0.1080430493671587 0 0)
(-0.1079813045616708 0 0)
(-0.1076724257529036 0 0)
(-0.1067997488811685 0 0)
(-0.1050270575605927 0 0)
(-0.1020336568559444 0 0)
(-0.09752111076485542 0 0)
(-0.09121375283982905 0 0)
(-0.0828742448361493 0 0)
(-0.07232292209722166 0 0)
(-0.05944545843200897 0 0)
(-0.04419049361049238 0 0)
(-0.02655306596192055 0 0)
(-0.006554637960560667 0 0)
(0.015711072394126 0 0)
(0.03995200998217725 0 0)
(0.06526892791518472 0 0)
(0.08884153988047186 0 0)
(0.1055320279230509 0 0)
(0.1123782355132325 0 0)
(0.1125135041298622 0 0)
(0.1098810714043104 0 0)
(0.1056605743255471 0 0)
(0.1003597846794344 0 0)
(0.09443579488637313 0 0)
(0.08815953438373361 0 0)
(0.08164567370261298 0 0)
(0.07507810525259249 0 0)
(0.06778803991412405 0 0)
(0.06028042065843345 0 0)
(0.05262441219839361 0 0)
(0.04443583098580772 0 0)
(0.03534612027560893 0 0)
(0.02508579572239571 0 0)
(0.01339496328112902 0 0)
(-6.511858722187007e-05 0 0)
(-0.01575573587008836 0 0)
(-0.03411385295075487 0 0)
(-0.0550790448265089 0 0)
(-0.07752799659925788 0 0)
(-0.09826523563467986 0 0)
(-0.1123777045215165 0 0)
(-0.118416137765478 0 0)
(-0.1199244772548707 0 0)
(-0.1198784959982706 0 0)
(-0.1188784232908892 0 0)
(-0.1172812222140587 0 0)
(-0.1160407476248741 0 0)
(-0.1148584974481327 0 0)
(-0.1135184693227866 0 0)
(-0.1116516885850382 0 0)
(-0.1089303835251879 0 0)
(-0.1050179053831871 0 0)
(-0.09958535475991269 0 0)
(-0.09232369151244797 0 0)
(-0.08298038973476417 0 0)
(-0.07137876832105938 0 0)
(-0.05740408682775332 0 0)
(-0.04096691678275396 0 0)
(-0.02198583564008604 0 0)
(-0.0004911449952108655 0 0)
(0.02309549938047017 0 0)
(0.04770695186436946 0 0)
(0.07147579696042168 0 0)
(0.09061355900833579 0 0)
(0.1023017205781507 0 0)
(0.1052068135946876 0 0)
(0.1040258822586997 0 0)
(0.1010441649209881 0 0)
(0.09665456089539542 0 0)
(0.09128909845840369 0 0)
(0.08517792555775944 0 0)
(0.07856739658832003 0 0)
(0.07177025825235181 0 0)
(0.0649098749181343 0 0)
(0.05691619347374183 0 0)
(0.04948434768475074 0 0)
(0.04149930579051934 0 0)
(0.03265515236445873 0 0)
(0.02259245179978656 0 0)
(0.01108395638304066 0 0)
(-0.002118234956643828 0 0)
(-0.01738950540211339 0 0)
(-0.03513936924292561 0 0)
(-0.05537106789692661 0 0)
(-0.07725650660908072 0 0)
(-0.09872496568770169 0 0)
(-0.1157705637542291 0 0)
(-0.1249974140567585 0 0)
(-0.1280618261929393 0 0)
(-0.1286127310153555 0 0)
(-0.12826906950381 0 0)
(-0.1267035412681988 0 0)
(-0.1253398652532406 0 0)
(-0.1237534897431154 0 0)
(-0.1220125894349783 0 0)
(-0.1198197588455477 0 0)
(-0.1169113227013519 0 0)
(-0.1130063758716694 0 0)
(-0.1078276572559101 0 0)
(-0.1010941623120491 0 0)
(-0.09254495734965423 0 0)
(-0.08196086969831273 0 0)
(-0.06917536956538035 0 0)
(-0.05406744630172099 0 0)
(-0.0365426520432348 0 0)
(-0.01657685489313869 0 0)
(0.005574908623615443 0 0)
(0.02912037560039233 0 0)
(0.05254281887520866 0 0)
(0.07316464125055905 0 0)
(0.08797092351554614 0 0)
(0.09401521945407766 0 0)
(0.09430438944556792 0 0)
(0.09249824366912887 0 0)
(0.08925457626857231 0 0)
(0.08489481300171622 0 0)
(0.0795789074643482 0 0)
(0.07348078099497908 0 0)
(0.06687692782061394 0 0)
(0.06001169374212372 0 0)
(0.05216480196191352 0 0)
(0.04459113961638548 0 0)
(0.0365763077771329 0 0)
(0.02781145557416763 0 0)
(0.01796989645682313 0 0)
(0.006763784084746921 0 0)
(-0.006136621113421364 0 0)
(-0.02102395577868396 0 0)
(-0.03813016078808415 0 0)
(-0.05754440257127796 0 0)
(-0.0788008659144131 0 0)
(-0.1004846396283887 0 0)
(-0.119476296573729 0 0)
(-0.131526965497085 0 0)
(-0.1363200254653256 0 0)
(-0.1375090056089652 0 0)
(-0.1375343819848497 0 0)
(-0.1361688397661239 0 0)
(-0.1347951538814229 0 0)
(-0.1331335724676405 0 0)
(-0.131223426558556 0 0)
(-0.1288172664386936 0 0)
(-0.1256856490484679 0 0)
(-0.1216152445197008 0 0)
(-0.1163965339320197 0 0)
(-0.1098095607675614 0 0)
(-0.1016352496715648 0 0)
(-0.0916704612245007 0 0)
(-0.07974135850596432 0 0)
(-0.06572550967661027 0 0)
(-0.04955845166653393 0 0)
(-0.03122858673011085 0 0)
(-0.01083671956980609 0 0)
(0.01117611571139457 0 0)
(0.0336392808921682 0 0)
(0.05459518266027302 0 0)
(0.07111396091811056 0 0)
(0.07979607284070027 0 0)
(0.08156182828573311 0 0)
(0.0807359302671702 0 0)
(0.07853140789579575 0 0)
(0.07513171990674426 0 0)
(0.07074775059236091 0 0)
(0.06552415857611861 0 0)
(0.05961521483405111 0 0)
(0.05315522460078091 0 0)
(0.04581139091905703 0 0)
(0.03835997339106004 0 0)
(0.03037923171782772 0 0)
(0.02160669829090593 0 0)
(0.01180354248541395 0 0)
(0.0007124479743752718 0 0)
(-0.01193888084750292 0 0)
(-0.0264120050509374 0 0)
(-0.04293202233177271 0 0)
(-0.06163124774745027 0 0)
(-0.08222090333363306 0 0)
(-0.103668310328337 0 0)
(-0.1237588169631265 0 0)
(-0.1383311792223055 0 0)
(-0.1449561416108687 0 0)
(-0.146638538558882 0 0)
(-0.1466574575720224 0 0)
(-0.1457651333680718 0 0)
(-0.1439509226030742 0 0)
(-0.1423004112247991 0 0)
(-0.140281717134372 0 0)
(-0.1378780016905864 0 0)
(-0.1348112471752163 0 0)
(-0.1308435811592507 0 0)
(-0.1257275130416165 0 0)
(-0.1192446364111737 0 0)
(-0.1112067120499972 0 0)
(-0.1014634547209777 0 0)
(-0.089912295517387 0 0)
(-0.07650724958599106 0 0)
(-0.06124423645593351 0 0)
(-0.04412721612873369 0 0)
(-0.02521709724854422 0 0)
(-0.004790368150106303 0 0)
(0.01629602344720563 0 0)
(0.03662195878786247 0 0)
(0.05379174803241368 0 0)
(0.06396746741509285 0 0)
(0.06683470287832473 0 0)
(0.06654991269595893 0 0)
(0.0648093492200762 0 0)
(0.06194524584809195 0 0)
(0.05833238254472969 0 0)
(0.05397833469543616 0 0)
(0.04891312146276531 0 0)
(0.04319567350933864 0 0)
(0.03696715836311719 0 0)
(0.03005985562961258 0 0)
(0.02238028655042719 0 0)
(0.01383981863416067 0 0)
(0.00427286795638802 0 0)
(-0.00657652430416181 0 0)
(-0.01900764982786741 0 0)
(-0.03326057331178953 0 0)
(-0.04942742594676344 0 0)
(-0.06754103859649332 0 0)
(-0.08750744051579658 0 0)
(-0.1085418792802537 0 0)
(-0.1289936865794713 0 0)
(-0.1456039622796876 0 0)
(-0.1544414706378844 0 0)
(-0.1568055764795735 0 0)
(-0.1567453651558242 0 0)
(-0.1555990951568043 0 0)
(-0.1534566350030453 0 0)
(-0.1512794693004249 0 0)
(-0.1491265186964128 0 0)
(-0.1466774562392551 0 0)
(-0.1438016996608722 0 0)
(-0.1402024836899911 0 0)
(-0.1355507005664261 0 0)
(-0.1294989434052291 0 0)
(-0.1217762824857449 0 0)
(-0.112238804648371 0 0)
(-0.1008637967911835 0 0)
(-0.08769359130391889 0 0)
(-0.07277722362406346 0 0)
(-0.05616099724652095 0 0)
(-0.03801096471725566 0 0)
(-0.01866951906294056 0 0)
(0.001176191924815842 0 0)
(0.02044154628214985 0 0)
(0.03751733823665739 0 0)
(0.04859683760947286 0 0)
(0.0519623462413339 0 0)
(0.05148095045099727 0 0)
(0.0491993657086021 0 0)
(0.0457875873725533 0 0)
(0.04205293337553742 0 0)
(0.03804331519566733 0 0)
(0.03359749068856486 0 0)
(0.02890736815166432 0 0)
(0.0236427798428913 0 0)
(0.01771044238593891 0 0)
(0.01096814842167555 0 0)
(0.003207333759242536 0 0)
(-0.00582388838542968 0 0)
(-0.01635768864972882 0 0)
(-0.02855039701910014 0 0)
(-0.04250366160296339 0 0)
(-0.05832575152553253 0 0)
(-0.07607454456822953 0 0)
(-0.09561261581055007 0 0)
(-0.1162318181080366 0 0)
(-0.1365585817963519 0 0)
(-0.1543929098976528 0 0)
(-0.1656271191400213 0 0)
(-0.1691190133220765 0 0)
(-0.1690251247356335 0 0)
(-0.1674227152312804 0 0)
(-0.1648668305159562 0 0)
(-0.1615754573119522 0 0)
(-0.1587164110830431 0 0)
(-0.1558918944250784 0 0)
(-0.1528535321478317 0 0)
(-0.1494000454164107 0 0)
(-0.1451511891355317 0 0)
(-0.1397313064781738 0 0)
(-0.1327759195746147 0 0)
(-0.1240017877294509 0 0)
(-0.1132495043671364 0 0)
(-0.1004984820880968 0 0)
(-0.08584253840459311 0 0)
(-0.06945692977557508 0 0)
(-0.05158229308019553 0 0)
(-0.03256183028559766 0 0)
(-0.012895160511174 0 0)
(0.006154322695494812 0 0)
(0.02313377841117925 0 0)
(0.03523862067106894 0 0)
(0.03922908285313521 0 0)
(0.03814181535401552 0 0)
(0.03452328441501545 0 0)
(0.02936028727155104 0 0)
(0.02378684548440489 0 0)
(0.01819170043897281 0 0)
(0.01295542616868629 0 0)
(0.007257367116429189 0 0)
(0.002081482830476613 0 0)
(-0.003654101248294746 0 0)
(-0.009944825402844103 0 0)
(-0.0172189920163097 0 0)
(-0.02574273043828255 0 0)
(-0.03581666916055016 0 0)
(-0.04770074544374874 0 0)
(-0.06155082664008981 0 0)
(-0.07734922403953647 0 0)
(-0.09492680028535934 0 0)
(-0.1140504547830269 0 0)
(-0.1342995559506855 0 0)
(-0.1543348001533756 0 0)
(-0.1723566381413178 0 0)
(-0.1852140281789909 0 0)
(-0.1897605483640077 0 0)
(-0.1893415186121091 0 0)
(-0.1867343964999618 0 0)
(-0.1827741907898307 0 0)
(-0.1783635742301756 0 0)
(-0.1738796940224247 0 0)
(-0.1698202683768968 0 0)
(-0.1661608260929441 0 0)
(-0.1623209021289541 0 0)
(-0.1580948909129984 0 0)
(-0.1529366570621964 0 0)
(-0.1464225726185404 0 0)
(-0.1382249793142758 0 0)
(-0.1281346757940829 0 0)
(-0.1160789238423404 0 0)
(-0.1021350915616551 0 0)
(-0.08648086018112283 0 0)
(-0.06932089246563503 0 0)
(-0.05097010983943936 0 0)
(-0.03197114374701579 0 0)
(-0.01358692546949716 0 0)
(0.002959693136318215 0 0)
(0.01633173465346804 0 0)
(0.02208177509388484 0 0)
(0.02143032653299541 0 0)
(0.01740436761748685 0 0)
(0.01091402089298559 0 0)
(0.003290619080491383 0 0)
(-0.004720602655315142 0 0)
(-0.0129839509300374 0 0)
(-0.02158470822091936 0 0)
(-0.03031499329072534 0 0)
(-0.03913143999632324 0 0)
(-0.04889465034702788 0 0)
(-0.05867625996374683 0 0)
(-0.06909157015351081 0 0)
(-0.08028128396210188 0 0)
(-0.09248178707524358 0 0)
(-0.105937792918523 0 0)
(-0.1208184079538459 0 0)
(-0.1372100850154314 0 0)
(-0.1551000785691335 0 0)
(-0.1742188771298279 0 0)
(-0.1932031335011527 0 0)
(-0.2101448707703703 0 0)
(-0.2229658727396904 0 0)
(-0.2277328607802029 0 0)
(-0.2264860092414854 0 0)
(-0.2221755188248143 0 0)
(-0.21571769687643 0 0)
(-0.2083573757928603 0 0)
(-0.2009929642854718 0 0)
(-0.1940517807520497 0 0)
(-0.1873533006844026 0 0)
(-0.1819585852299099 0 0)
(-0.1767008838021272 0 0)
(-0.1709358749429753 0 0)
(-0.1643507686911085 0 0)
(-0.1563770586694506 0 0)
(-0.1467288638836201 0 0)
(-0.1352815155686427 0 0)
(-0.1220803575020704 0 0)
(-0.1072772670272112 0 0)
(-0.0910962961194469 0 0)
(-0.07386133293767597 0 0)
(-0.05613490735011376 0 0)
(-0.03899611248113808 0 0)
(-0.0237985614945517 0 0)
(-0.01126324446884952 0 0)
(-0.005610776242882968 0 0)
(-0.006506530804646631 0 0)
(-0.01104628002244269 0 0)
(-0.01865030125179623 0 0)
(-0.02801488598399045 0 0)
(-0.0382345939437695 0 0)
(-0.04891730379809347 0 0)
(-0.05987379511675466 0 0)
(-0.07096434685461075 0 0)
(-0.08208730965754632 0 0)
(-0.09308936955535778 0 0)
(-0.1048038287426008 0 0)
(-0.1166747391919843 0 0)
(-0.1287758713121573 0 0)
(-0.1411857695910462 0 0)
(-0.1540319456388674 0 0)
(-0.1675671282450093 0 0)
(-0.1822102080442221 0 0)
(-0.1982769036218013 0 0)
(-0.2156570939204739 0 0)
(-0.2334188429783975 0 0)
(-0.2499243700877188 0 0)
(-0.2636445291077172 0 0)
(-0.2703270767597668 0 0)
(-0.2699435345381538 0 0)
(-0.2653567539203079 0 0)
(-0.2572798405385237 0 0)
(-0.246978395200241 0 0)
(-0.2357183533657401 0 0)
(-0.2245165935805135 0 0)
(-0.2141328415264538 0 0)
(-0.2048629277910428 0 0)
(-0.1961237741752118 0 0)
(-0.1887284913249383 0 0)
(-0.181253595616084 0 0)
(-0.17288274858632 0 0)
(-0.1633495076583323 0 0)
(-0.1522510004896636 0 0)
(-0.1396007794164613 0 0)
(-0.1255756988020557 0 0)
(-0.1104583272924929 0 0)
(-0.09457828553123908 0 0)
(-0.07845170906466011 0 0)
(-0.06287893741153393 0 0)
(-0.04922570163651661 0 0)
(-0.0379857954356822 0 0)
(-0.03283187664983918 0 0)
(-0.03388406867549868 0 0)
(-0.03854258827536945 0 0)
(-0.0465748880369533 0 0)
(-0.05682150888534719 0 0)
(-0.06830569760669555 0 0)
(-0.08032846723152937 0 0)
(-0.09248369513936786 0 0)
(-0.104578792285534 0 0)
(-0.1166292270022381 0 0)
(-0.1284370859390193 0 0)
(-0.1400454502522133 0 0)
(-0.1528521421055821 0 0)
(-0.1652591853476993 0 0)
(-0.1779996895908117 0 0)
(-0.1909973804314967 0 0)
(-0.2043225662655051 0 0)
(-0.218130322888617 0 0)
(-0.2325565715771068 0 0)
(-0.2476864516914783 0 0)
(-0.2633523658913955 0 0)
(-0.2785299887622724 0 0)
(-0.2918362295707209 0 0)
(-0.3002835470670855 0 0)
(-0.3021536551146689 0 0)
(-0.2994456189029724 0 0)
(-0.2928182962273837 0 0)
(-0.2828018122024979 0 0)
(-0.2705270784533175 0 0)
(-0.2570839421922273 0 0)
(-0.2434238845278882 0 0)
(-0.2304090760816548 0 0)
(-0.2183786841045905 0 0)
(-0.2078190238237792 0 0)
(-0.197352641318419 0 0)
(-0.1882838785209604 0 0)
(-0.1784674464724033 0 0)
(-0.1676003232339753 0 0)
(-0.1552750336509899 0 0)
(-0.1416768964985324 0 0)
(-0.1271842329296551 0 0)
(-0.1122962959806075 0 0)
(-0.09762015644495026 0 0)
(-0.08374897695954273 0 0)
(-0.07189874481705034 0 0)
(-0.06233354135528435 0 0)
(-0.0578497976123078 0 0)
(-0.05872677431889899 0 0)
(-0.06298440424171864 0 0)
(-0.07077456864155744 0 0)
(-0.08108769762615221 0 0)
(-0.09303823895382431 0 0)
(-0.1058205286389932 0 0)
(-0.1188605016934651 0 0)
(-0.1316567572829339 0 0)
(-0.1439778402328494 0 0)
(-0.1556678557548678 0 0)
(-0.1670846276830423 0 0)
(-0.1791052649148771 0 0)
(-0.1912896077969195 0 0)
(-0.204240768860777 0 0)
(-0.2177798644282455 0 0)
(-0.2315423172274585 0 0)
(-0.2452505464212162 0 0)
(-0.2588898274364897 0 0)
(-0.2727004956259845 0 0)
(-0.2868701161533686 0 0)
(-0.3005970091149968 0 0)
(-0.3127914871912358 0 0)
(-0.321893740510897 0 0)
(-0.3252452227435723 0 0)
(-0.3238078876956937 0 0)
(-0.3187705586631817 0 0)
(-0.3101414170586933 0 0)
(-0.2986179612720451 0 0)
(-0.2851874611098131 0 0)
(-0.2709688802981326 0 0)
(-0.2569214364028207 0 0)
(-0.2434801495129396 0 0)
(-0.230472729930839 0 0)
(-0.2179930164575616 0 0)
(-0.2051897692263008 0 0)
(-0.1933967796457204 0 0)
(-0.1824101597241277 0 0)
(-0.1715757199344407 0 0)
(-0.1592884320037084 0 0)
(-0.1445600974774598 0 0)
(-0.1285717083263311 0 0)
(-0.1144734697893025 0 0)
(-0.1034154226132516 0 0)
(-0.09781551049586669 0 0)
(-0.08896928070883754 0 0)
)
;

boundaryField
{
    inlet
    {
        type            zeroGradient;
    }
    outlet
    {
        type            characteristicPressureInletOutletVelocity;
        UName           U;
        pName           p;
        TName           T;
        phiName         phi;
        rhoName         rho;
        U               (0 0 0);
        p               101325;
        T               300;
        value           uniform (-0.08896928070883754 0 0);
    }
    frontAndBack
    {
        type            empty;
    }
}


// ************************************************************************* //
