/*--------------------------------*- C++ -*----------------------------------*\
| =========                 |                                                 |
| \\      /  F ield         | OpenFOAM: The Open Source CFD Toolbox           |
|  \\    /   O peration     | Version:  v2012                                 |
|   \\  /    A nd           | Website:  www.openfoam.com                      |
|    \\/     M anipulation  |                                                 |
\*---------------------------------------------------------------------------*/
FoamFile
{
    version     2.0;
    format      ascii;
    class       volVectorField;
    location    "0.011";
    object      UMean;
}
// * * * * * * * * * * * * * * * * * * * * * * * * * * * * * * * * * * * * * //

dimensions      [0 1 -1 0 0 0 0];


internalField   nonuniform List<vector> 
1000
(
(-3.015855396717242e-05 0 0)
(2.358843581193889e-06 0 0)
(2.136283000991154e-05 0 0)
(5.748024426412505e-05 0 0)
(9.993585590956028e-05 0 0)
(0.0001457738659676078 0 0)
(0.0002040842311012407 0 0)
(0.00026636280957625 0 0)
(0.0003388354844342275 0 0)
(0.0004150460128785739 0 0)
(0.000494277146407665 0 0)
(0.0005730892431599976 0 0)
(0.0006515144337566159 0 0)
(0.0007289566894896799 0 0)
(0.0008042055929694835 0 0)
(0.0008757630214550051 0 0)
(0.0009418489050112631 0 0)
(0.001001255472470786 0 0)
(0.001052766711337174 0 0)
(0.001095618930156543 0 0)
(0.001129046386307494 0 0)
(0.001152366871819903 0 0)
(0.001165284666625664 0 0)
(0.001167320894034104 0 0)
(0.001158670569125589 0 0)
(0.001139231143825802 0 0)
(0.00110965501005212 0 0)
(0.001070214084812202 0 0)
(0.001021779577401659 0 0)
(0.0009646009307557299 0 0)
(0.000899446014939568 0 0)
(0.0008272728772131816 0 0)
(0.0007510205976007906 0 0)
(0.000673506996610537 0 0)
(0.0005960824369291122 0 0)
(0.0005188067386507008 0 0)
(0.0004422900833577923 0 0)
(0.000367295171442718 0 0)
(0.0002951838021952644 0 0)
(0.0002274254121885178 0 0)
(0.0001657502867074043 0 0)
(0.0001115902401422174 0 0)
(6.623166121828302e-05 0 0)
(3.047805888527383e-05 0 0)
(4.979536885930746e-06 0 0)
(-9.942897093740694e-06 0 0)
(-1.402630374077898e-05 0 0)
(-7.275033120632232e-06 0 0)
(1.022934097579483e-05 0 0)
(3.814394780203773e-05 0 0)
(7.611911063519103e-05 0 0)
(0.0001237626733467698 0 0)
(0.0001808001247734355 0 0)
(0.0002465927862382769 0 0)
(0.0003192682064205786 0 0)
(0.0003953462671068106 0 0)
(0.0004721092593563111 0 0)
(0.0005488202805195526 0 0)
(0.0006253794735487339 0 0)
(0.0007012285695812711 0 0)
(0.0007758412227471843 0 0)
(0.000847938480978819 0 0)
(0.0009163583371212461 0 0)
(0.0009793068668593776 0 0)
(0.001035402481259839 0 0)
(0.00108297766454969 0 0)
(0.001121113672296933 0 0)
(0.001148809745980403 0 0)
(0.001165856597758329 0 0)
(0.001171869314353025 0 0)
(0.00116710827409483 0 0)
(0.001151527675423215 0 0)
(0.00112559407473799 0 0)
(0.001089308749368634 0 0)
(0.001043027440739263 0 0)
(0.0009866939810722992 0 0)
(0.0009212646335755421 0 0)
(0.0008488170857922503 0 0)
(0.0007732985620351783 0 0)
(0.0006970967062824513 0 0)
(0.0006210202607621872 0 0)
(0.0005450731605193597 0 0)
(0.0004696706183933407 0 0)
(0.0003953803828052474 0 0)
(0.0003231324581303999 0 0)
(0.0002541082098365285 0 0)
(0.000189785564728475 0 0)
(0.0001317212280201373 0 0)
(8.150926827284721e-05 0 0)
(4.049326936893536e-05 0 0)
(9.767206762507965e-06 0 0)
(-1.002621854407349e-05 0 0)
(-1.855521118450083e-05 0 0)
(-1.585410372205988e-05 0 0)
(-2.074053428786721e-06 0 0)
(2.252642682762552e-05 0 0)
(5.78211187982045e-05 0 0)
(0.0001037166872682185 0 0)
(0.0001600987056623335 0 0)
(0.0002259628701302076 0 0)
(0.0002985472771478865 0 0)
(0.0003738269896875456 0 0)
(0.0004495227294710784 0 0)
(0.0005251412978769354 0 0)
(0.0006006545202620157 0 0)
(0.0006755767994640373 0 0)
(0.0007495637669246113 0 0)
(0.0008215841206175418 0 0)
(0.0008907580488852384 0 0)
(0.0009555351349303078 0 0)
(0.001014626623020024 0 0)
(0.001066274110592255 0 0)
(0.001109253671354967 0 0)
(0.001142161044908003 0 0)
(0.001164378710708739 0 0)
(0.001175243792865183 0 0)
(0.001174864909572099 0 0)
(0.001163158300570117 0 0)
(0.001140542652531525 0 0)
(0.001106939515023621 0 0)
(0.001062582484211147 0 0)
(0.00100737923645314 0 0)
(0.0009425112172276425 0 0)
(0.0008705962297790898 0 0)
(0.0007958910520903592 0 0)
(0.0007206217387212481 0 0)
(0.0006454753462029718 0 0)
(0.0005704080521933905 0 0)
(0.0004957949733335422 0 0)
(0.0004220262464662217 0 0)
(0.0003498862426224601 0 0)
(0.0002802783750248888 0 0)
(0.0002144944518970468 0 0)
(0.0001538866669509196 0 0)
(0.0001000577356297088 0 0)
(5.444857346537491e-05 0 0)
(1.849185141970595e-05 0 0)
(-6.818170303041666e-06 0 0)
(-2.070984862077785e-05 0 0)
(-2.293539146178481e-05 0 0)
(-1.338633732123588e-05 0 0)
(7.762226230776908e-06 0 0)
(4.050247536008217e-05 0 0)
(8.471898495563685e-05 0 0)
(0.0001402398271544414 0 0)
(0.0002056783575894518 0 0)
(0.0002777830602224128 0 0)
(0.0003523087310129291 0 0)
(0.0004271904704510885 0 0)
(0.0005019848091703537 0 0)
(0.0005767121838128089 0 0)
(0.000650940737082581 0 0)
(0.0007244271101450165 0 0)
(0.0007962996244274445 0 0)
(0.0008658610421915295 0 0)
(0.0009317653365437932 0 0)
(0.0009928866836852646 0 0)
(0.001047556574762044 0 0)
(0.001094507906719688 0 0)
(0.001132162985158585 0 0)
(0.001159595715875483 0 0)
(0.001175787192801698 0 0)
(0.001180481861766296 0 0)
(0.001173308746560728 0 0)
(0.001154486123363879 0 0)
(0.001123835112143243 0 0)
(0.001081565736926365 0 0)
(0.001027685719336577 0 0)
(0.0009636179150239363 0 0)
(0.0008923575501256664 0 0)
(0.000818365468677803 0 0)
(0.0007438357464374978 0 0)
(0.0006694213777599838 0 0)
(0.0005950518147730122 0 0)
(0.0005210614239786159 0 0)
(0.0004477328160594869 0 0)
(0.0003757413642041146 0 0)
(0.0003058031794016541 0 0)
(0.0002390503636458899 0 0)
(0.0001766421049906196 0 0)
(0.0001200827730381591 0 0)
(7.076803036304287e-05 0 0)
(3.024610040971425e-05 0 0)
(-2.744232802079964e-07 0 0)
(-1.966455166796479e-05 0 0)
(-2.730504131765047e-05 0 0)
(-2.268476102718889e-05 0 0)
(-5.690700745054164e-06 0 0)
(2.389074355149038e-05 0 0)
(6.600762708374091e-05 0 0)
(0.0001203935787460458 0 0)
(0.0001852718177967135 0 0)
(0.0002568963265502622 0 0)
(0.0003307926635798301 0 0)
(0.0004050115183429027 0 0)
(0.0004791441462302345 0 0)
(0.0005532351019900338 0 0)
(0.0006268978641813062 0 0)
(0.0006999606784943966 0 0)
(0.0007716667105213306 0 0)
(0.0008414532314949528 0 0)
(0.0009081398516148058 0 0)
(0.000970750096953715 0 0)
(0.001027746452191274 0 0)
(0.001077908691008583 0 0)
(0.001119625331513969 0 0)
(0.001151807369224102 0 0)
(0.001173178003229541 0 0)
(0.001183141204139226 0 0)
(0.001180978810561504 0 0)
(0.001166579672001905 0 0)
(0.001139533836455147 0 0)
(0.001099913123593367 0 0)
(0.001047743855210843 0 0)
(0.0009846615195475892 0 0)
(0.0009140584478901829 0 0)
(0.0008406720771358323 0 0)
(0.0007667547305903466 0 0)
(0.0006929447843978468 0 0)
(0.000619154457161722 0 0)
(0.0005456865217199149 0 0)
(0.0004727469405298719 0 0)
(0.0004009251955904678 0 0)
(0.0003307992625506164 0 0)
(0.0002633648641318624 0 0)
(0.0001996185547195511 0 0)
(0.0001409398253391039 0 0)
(8.863118614296019e-05 0 0)
(4.424898433562664e-05 0 0)
(9.094779339207824e-06 0 0)
(-1.547329898702173e-05 0 0)
(-2.852448732210076e-05 0 0)
(-2.916108724361081e-05 0 0)
(-1.689297302737392e-05 0 0)
(8.835655459638491e-06 0 0)
(4.818214527027339e-05 0 0)
(0.0001009107659321154 0 0)
(0.0001649462305822632 0 0)
(0.0002360348335417596 0 0)
(0.0003093893704873468 0 0)
(0.0003830586535729507 0 0)
(0.0004566440858071916 0 0)
(0.0005302058052295384 0 0)
(0.000603398256441361 0 0)
(0.0006760954364393131 0 0)
(0.0007476355367218408 0 0)
(0.0008175555439301459 0 0)
(0.0008848150289863831 0 0)
(0.0009485636353663597 0 0)
(0.001007400431343137 0 0)
(0.001060184488416968 0 0)
(0.001105339741877612 0 0)
(0.001141703968395744 0 0)
(0.001167853436041228 0 0)
(0.001182929781472186 0 0)
(0.001185906236952485 0 0)
(0.001176320975926306 0 0)
(0.001153460409836124 0 0)
(0.001117138540325541 0 0)
(0.001067276028517729 0 0)
(0.001005581708702371 0 0)
(0.0009357748833274085 0 0)
(0.0008629512763470512 0 0)
(0.0007895603451547365 0 0)
(0.0007162649574718748 0 0)
(0.0006429720103509279 0 0)
(0.000569954324133179 0 0)
(0.0004973637300095308 0 0)
(0.0004257170399020543 0 0)
(0.000355492055895236 0 0)
(0.0002875641045216364 0 0)
(0.0002227957550748781 0 0)
(0.0001624403553494071 0 0)
(0.0001076948297210022 0 0)
(6.006558029782206e-05 0 0)
(2.087858090134845e-05 0 0)
(-8.382902731002496e-06 0 0)
(-2.656403933731751e-05 0 0)
(-3.245166208312312e-05 0 0)
(-2.51901573867397e-05 0 0)
(-3.854095313516537e-06 0 0)
(3.202435477462405e-05 0 0)
(8.237950417158781e-05 0 0)
(0.0001450494282071145 0 0)
(0.0002154053164491273 0 0)
(0.0002882470848744864 0 0)
(0.0003614384202156821 0 0)
(0.000434554669034864 0 0)
(0.000507660348455504 0 0)
(0.0005804478670075084 0 0)
(0.0006528237602710571 0 0)
(0.0007242065025424932 0 0)
(0.0007942044290775797 0 0)
(0.0008618982731299179 0 0)
(0.0009265411103291429 0 0)
(0.0009868642054168685 0 0)
(0.001041809270132095 0 0)
(0.00108987424968317 0 0)
(0.001129877939635904 0 0)
(0.001160327930124511 0 0)
(0.001180180408813176 0 0)
(0.001188177224248991 0 0)
(0.001183540107334849 0 0)
(0.00116525427964351 0 0)
(0.001132826378304 0 0)
(0.001085963218327009 0 0)
(0.001026244542769321 0 0)
(0.0009575243436811039 0 0)
(0.0008852856190002793 0 0)
(0.0008123668216899841 0 0)
(0.0007395261283354097 0 0)
(0.0006666743474737625 0 0)
(0.0005940547762617679 0 0)
(0.0005217822818476946 0 0)
(0.0004503097806797222 0 0)
(0.000380039675383449 0 0)
(0.0003117442450171894 0 0)
(0.0002461773260563249 0 0)
(0.0001844716401223326 0 0)
(0.0001277231884895636 0 0)
(7.735979302273099e-05 0 0)
(3.469178573351454e-05 0 0)
(1.253230297337701e-06 0 0)
(-2.165174961609943e-05 0 0)
(-3.258472240283647e-05 0 0)
(-3.03854694346389e-05 0 0)
(-1.379842088909489e-05 0 0)
(1.798392306080152e-05 0 0)
(6.518283330124291e-05 0 0)
(0.0001258155550696642 0 0)
(0.0001951245135294221 0 0)
(0.0002674293705589756 0 0)
(0.0003401850783210428 0 0)
(0.0004128790360485852 0 0)
(0.000485573017853243 0 0)
(0.0005579976916020702 0 0)
(0.0006300812148244162 0 0)
(0.0007013102339387601 0 0)
(0.0007713493459432049 0 0)
(0.0008393810027215884 0 0)
(0.0009047427685933678 0 0)
(0.0009662853765686574 0 0)
(0.001023031873481216 0 0)
(0.001073568155167685 0 0)
(0.001116727120321973 0 0)
(0.001150999426929323 0 0)
(0.001175223532925076 0 0)
(0.001187982370840597 0 0)
(0.001188248300561371 0 0)
(0.001174750787346695 0 0)
(0.001146695334777195 0 0)
(0.001103504945588169 0 0)
(0.001046439214219894 0 0)
(0.0009792188096336037 0 0)
(0.0009076564571198133 0 0)
(0.0008351800373884771 0 0)
(0.0007627541339459188 0 0)
(0.0006903064930958595 0 0)
(0.0006180517184118193 0 0)
(0.0005460763651376519 0 0)
(0.0004747775854506775 0 0)
(0.0004044991627014476 0 0)
(0.0003359262193982967 0 0)
(0.0002697235117633021 0 0)
(0.000206913839927251 0 0)
(0.0001485010093269268 0 0)
(9.582407528451206e-05 0 0)
(5.015506556330271e-05 0 0)
(1.3029960098106e-05 0 0)
(-1.416212114715826e-05 0 0)
(-2.983754944437739e-05 0 0)
(-3.261121040869213e-05 0 0)
(-2.096574996030892e-05 0 0)
(6.22419886755814e-06 0 0)
(4.953642585384686e-05 0 0)
(0.0001074030358631112 0 0)
(0.0001752454719230238 0 0)
(0.0002469287458539795 0 0)
(0.0003192696426551434 0 0)
(0.0003915695623773321 0 0)
(0.0004638780193368194 0 0)
(0.000535962532702483 0 0)
(0.0006077686121015093 0 0)
(0.0006788423587525677 0 0)
(0.0007488923823822026 0 0)
(0.000817188040949149 0 0)
(0.0008831371018105266 0 0)
(0.0009456952421141455 0 0)
(0.001003961159082011 0 0)
(0.001056610309448478 0 0)
(0.001102508458977199 0 0)
(0.001140164179982617 0 0)
(0.001168351013715992 0 0)
(0.001185554909384475 0 0)
(0.001190569423943456 0 0)
(0.001181929063771388 0 0)
(0.001158577473096841 0 0)
(0.00111963457008535 0 0)
(0.001065905325645955 0 0)
(0.001000699396667288 0 0)
(0.0009299910771512683 0 0)
(0.0008579540170536043 0 0)
(0.0007859169273063613 0 0)
(0.0007138487177143065 0 0)
(0.0006419386992253375 0 0)
(0.0005702489975713532 0 0)
(0.0004991284181244457 0 0)
(0.0004288734179771557 0 0)
(0.0003600930087707837 0 0)
(0.0002933784676737072 0 0)
(0.0002296562471993815 0 0)
(0.0001698463009675244 0 0)
(0.0001151990594563976 0 0)
(6.693447731321027e-05 0 0)
(2.65596532482104e-05 0 0)
(-4.499948872669825e-06 0 0)
(-2.458125833187659e-05 0 0)
(-3.214884859244241e-05 0 0)
(-2.549680279813127e-05 0 0)
(-3.233049680596381e-06 0 0)
(3.559234420477431e-05 0 0)
(8.997457666540648e-05 0 0)
(0.0001558249225435393 0 0)
(0.0002267209455213993 0 0)
(0.0002986426614985727 0 0)
(0.0003705623686486431 0 0)
(0.0004424994609777013 0 0)
(0.0005142564761227492 0 0)
(0.0005857955762767563 0 0)
(0.0006567138619068612 0 0)
(0.0007267555035611852 0 0)
(0.0007952596475990066 0 0)
(0.0008616922509544358 0 0)
(0.0009250980402311329 0 0)
(0.0009846418696199883 0 0)
(0.001039091691634097 0 0)
(0.001087363502128566 0 0)
(0.001127995168084763 0 0)
(0.001159763166487776 0 0)
(0.001181115006979398 0 0)
(0.001190676325762279 0 0)
(0.001186906996011547 0 0)
(0.001168486087547403 0 0)
(0.001134223203854476 0 0)
(0.001084487243867247 0 0)
(0.001021873185407681 0 0)
(0.0009522591004044311 0 0)
(0.0008806590889368401 0 0)
(0.0008088806240602104 0 0)
(0.0007370849688906828 0 0)
(0.00066542501198885 0 0)
(0.0005939958491800155 0 0)
(0.0005230781526144457 0 0)
(0.0004529227902995864 0 0)
(0.0003841478084440587 0 0)
(0.0003172020056885769 0 0)
(0.0002529372950861108 0 0)
(0.0001921816013995839 0 0)
(0.0001360732779585175 0 0)
(8.557365955011044e-05 0 0)
(4.228842015792231e-05 0 0)
(7.487319132199605e-06 0 0)
(-1.696933684613411e-05 0 0)
(-2.972727067423561e-05 0 0)
(-2.845242625513676e-05 0 0)
(-1.171607651307265e-05 0 0)
(2.204549251820432e-05 0 0)
(7.191458462047097e-05 0 0)
(0.0001353383465849754 0 0)
(0.0002054738524157669 0 0)
(0.0002774934950458804 0 0)
(0.0003500823230296967 0 0)
(0.0004227302177508686 0 0)
(0.0004949495529451918 0 0)
(0.000566605197965675 0 0)
(0.0006375866761649409 0 0)
(0.0007072415707310462 0 0)
(0.0007752129075175104 0 0)
(0.0008410385034563611 0 0)
(0.0009040609392236375 0 0)
(0.0009633325321850312 0 0)
(0.001018267150006996 0 0)
(0.001068110303541177 0 0)
(0.001111700397557133 0 0)
(0.001147663810131924 0 0)
(0.001174595138403236 0 0)
(0.00119149333911132 0 0)
(0.001195775494819991 0 0)
(0.001186451775778072 0 0)
(0.001162025690400862 0 0)
(0.00112153079418197 0 0)
(0.001067432323455718 0 0)
(0.001004563718290969 0 0)
(0.0009371902011739739 0 0)
(0.0008664163040073787 0 0)
(0.0007939211714790064 0 0)
(0.0007180882456109325 0 0)
(0.0006394521897034826 0 0)
(0.000557363029835196 0 0)
(0.0004728188273109287 0 0)
(0.0003861574030817587 0 0)
(0.000296906077537312 0 0)
(0.0002091469354330854 0 0)
(0.0001209193597392481 0 0)
(3.836102207739397e-05 0 0)
(-4.012224019375151e-05 0 0)
(-0.0001111599635435979 0 0)
(-0.0001735917497014202 0 0)
(-0.0002247154754837982 0 0)
(-0.0002621402743201912 0 0)
(-0.0002843831706047315 0 0)
(-0.0002898106715407733 0 0)
(-0.0002761395188605362 0 0)
(-0.0002433333202741957 0 0)
(-0.0001953805665564802 0 0)
(-0.0001371772278141669 0 0)
(-7.432563952558699e-05 0 0)
(-9.54692499635247e-06 0 0)
(5.757497811551055e-05 0 0)
(0.0001254804401286203 0 0)
(0.0001925313260043266 0 0)
(0.0002579253244350087 0 0)
(0.0003238988081933404 0 0)
(0.0003866237620921297 0 0)
(0.0004472616179936119 0 0)
(0.0005050079421222465 0 0)
(0.0005605490265233813 0 0)
(0.0006128470296023079 0 0)
(0.000660678480868652 0 0)
(0.0007023738162740021 0 0)
(0.0007370051517274153 0 0)
(0.0007622545753405966 0 0)
(0.0007770292021332643 0 0)
(0.0007809156462595552 0 0)
(0.0007691278982912663 0 0)
(0.0007432415302012505 0 0)
(0.0007028088305682907 0 0)
(0.0006472421316815587 0 0)
(0.0005827754186598142 0 0)
(0.0005107657769980844 0 0)
(0.0004352827809982345 0 0)
(0.000358284813738946 0 0)
(0.0002800736618666697 0 0)
(0.0001988951735362037 0 0)
(0.0001142085227983641 0 0)
(2.801998317616002e-05 0 0)
(-6.094409969261957e-05 0 0)
(-0.0001523696383523199 0 0)
(-0.0002460569764505657 0 0)
(-0.0003361000578883235 0 0)
(-0.0004245669309931737 0 0)
(-0.000506638956398922 0 0)
(-0.00058385175131268 0 0)
(-0.0006525255263930121 0 0)
(-0.0007113757703189399 0 0)
(-0.0007588841138530985 0 0)
(-0.000789223605709078 0 0)
(-0.000807606288174388 0 0)
(-0.0008058149654889866 0 0)
(-0.000784431690164043 0 0)
(-0.0007475144317235211 0 0)
(-0.0006970914143445177 0 0)
(-0.000641001965437013 0 0)
(-0.0005821454174840696 0 0)
(-0.0005213512120878068 0 0)
(-0.0004575761942070111 0 0)
(-0.0003954800837199956 0 0)
(-0.0003344539331117058 0 0)
(-0.0002747857057906657 0 0)
(-0.0002152076982441039 0 0)
(-0.0001608110806107456 0 0)
(-0.0001105996217956891 0 0)
(-5.814537569348088e-05 0 0)
(-1.0930931660036e-05 0 0)
(3.542016109430751e-05 0 0)
(7.471131383763285e-05 0 0)
(0.0001084391792127416 0 0)
(0.0001330323524639072 0 0)
(0.0001461617539814104 0 0)
(0.00014960883427218 0 0)
(0.0001358746568112702 0 0)
(0.0001085973539843336 0 0)
(6.657485472071608e-05 0 0)
(9.311195598836506e-06 0 0)
(-5.922001871508092e-05 0 0)
(-0.0001369584373865657 0 0)
(-0.0002187209636577698 0 0)
(-0.0003024905414229639 0 0)
(-0.0003860910062762959 0 0)
(-0.0004719886094830186 0 0)
(-0.0005604523898885549 0 0)
(-0.0006519895615151626 0 0)
(-0.000742356038586257 0 0)
(-0.0008391819906335569 0 0)
(-0.0009371568517055308 0 0)
(-0.001032165457035271 0 0)
(-0.001126226321558812 0 0)
(-0.001213915801102846 0 0)
(-0.001297945206366409 0 0)
(-0.001373657053796964 0 0)
(-0.001440652089968223 0 0)
(-0.001497898001652238 0 0)
(-0.001540332660119933 0 0)
(-0.001568541742903284 0 0)
(-0.001580649961670458 0 0)
(-0.001573430182149549 0 0)
(-0.001547320387166664 0 0)
(-0.001506844024846413 0 0)
(-0.001458444005966347 0 0)
(-0.001406147672800184 0 0)
(-0.001351666131631139 0 0)
(-0.001293663556771737 0 0)
(-0.001235903851767725 0 0)
(-0.001179773292496918 0 0)
(-0.001126254549982231 0 0)
(-0.001070470668429481 0 0)
(-0.001021680030114213 0 0)
(-0.0009761224274297663 0 0)
(-0.0009313659176221218 0 0)
(-0.0008879671932724163 0 0)
(-0.000845460358156652 0 0)
(-0.0008084499640407697 0 0)
(-0.0007762456249289305 0 0)
(-0.0007514859713389963 0 0)
(-0.0007385484868208332 0 0)
(-0.0007370011426797061 0 0)
(-0.0007483009397599407 0 0)
(-0.0007782970432013536 0 0)
(-0.0008224903751561472 0 0)
(-0.0008808236998902745 0 0)
(-0.0009536890376731005 0 0)
(-0.001037078131473131 0 0)
(-0.001126422077086 0 0)
(-0.00121819558781784 0 0)
(-0.001310656649456543 0 0)
(-0.001402548908722538 0 0)
(-0.001498215711852557 0 0)
(-0.001595447056498088 0 0)
(-0.001692241730763513 0 0)
(-0.001792111170728601 0 0)
(-0.001895354651432265 0 0)
(-0.001999172090664394 0 0)
(-0.002097659674902828 0 0)
(-0.002192553376281444 0 0)
(-0.002283521983293188 0 0)
(-0.002367763203579672 0 0)
(-0.002442947412287313 0 0)
(-0.002509805278770905 0 0)
(-0.002565383181516097 0 0)
(-0.002603629991965179 0 0)
(-0.002631399280327451 0 0)
(-0.002638791939090768 0 0)
(-0.002624895686156347 0 0)
(-0.002596016504651769 0 0)
(-0.002556191402184379 0 0)
(-0.002511601713993487 0 0)
(-0.00246355658918219 0 0)
(-0.002413642754833835 0 0)
(-0.002358079382374998 0 0)
(-0.002308213616368429 0 0)
(-0.002257868820306874 0 0)
(-0.002210135938787032 0 0)
(-0.002161302953784657 0 0)
(-0.002123128629972938 0 0)
(-0.00208652222946921 0 0)
(-0.00204688292449841 0 0)
(-0.002009650065692488 0 0)
(-0.00197582562489007 0 0)
(-0.001946734978263383 0 0)
(-0.001922315130828412 0 0)
(-0.001908357427345882 0 0)
(-0.001907680186002856 0 0)
(-0.001917396504718917 0 0)
(-0.001947482410251841 0 0)
(-0.001992954475034027 0 0)
(-0.002051577727970607 0 0)
(-0.002127519523842302 0 0)
(-0.002215632728433085 0 0)
(-0.00231261928525989 0 0)
(-0.00241339004474606 0 0)
(-0.002516857097958223 0 0)
(-0.002616138100795192 0 0)
(-0.002722051831102285 0 0)
(-0.002826760158975392 0 0)
(-0.002934251188599234 0 0)
(-0.003037053816150208 0 0)
(-0.003150047876272356 0 0)
(-0.003260573553640033 0 0)
(-0.003366389328903032 0 0)
(-0.003468935507315254 0 0)
(-0.003567623186486218 0 0)
(-0.003661319537882727 0 0)
(-0.003745794182869958 0 0)
(-0.003822127587331529 0 0)
(-0.003889508558227333 0 0)
(-0.003942159335659274 0 0)
(-0.00398098661123101 0 0)
(-0.004005883586477712 0 0)
(-0.004007135097815936 0 0)
(-0.003990977546257883 0 0)
(-0.003961391951256136 0 0)
(-0.003925732129650366 0 0)
(-0.003885591986015032 0 0)
(-0.003842240087140686 0 0)
(-0.003793481240019257 0 0)
(-0.003746509824049161 0 0)
(-0.003701376728187759 0 0)
(-0.003659121979479294 0 0)
(-0.003614281368801748 0 0)
(-0.003579372289598053 0 0)
(-0.003548843732479815 0 0)
(-0.003516179264793745 0 0)
(-0.003484302852056323 0 0)
(-0.003454990571173944 0 0)
(-0.003430264119688091 0 0)
(-0.003409157573552954 0 0)
(-0.003394766318122796 0 0)
(-0.003392961002985911 0 0)
(-0.003403886059807211 0 0)
(-0.003428444887546807 0 0)
(-0.003475930631075895 0 0)
(-0.003534692611196878 0 0)
(-0.003610180251474889 0 0)
(-0.003702036054824878 0 0)
(-0.003805242063000476 0 0)
(-0.003915074480951148 0 0)
(-0.004027891308803906 0 0)
(-0.004142096497733156 0 0)
(-0.004253724247722528 0 0)
(-0.004373318389684498 0 0)
(-0.004490805334397467 0 0)
(-0.004606544290784061 0 0)
(-0.004724128224334099 0 0)
(-0.00484755636419856 0 0)
(-0.004963037197953961 0 0)
(-0.005074553515087138 0 0)
(-0.005182164587116544 0 0)
(-0.005286087692248087 0 0)
(-0.005382948065297367 0 0)
(-0.00546940288501756 0 0)
(-0.005549407715930111 0 0)
(-0.005617197640768967 0 0)
(-0.005668827966462696 0 0)
(-0.005710418559677321 0 0)
(-0.005731422251062491 0 0)
(-0.005729758738452002 0 0)
(-0.005713729003583285 0 0)
(-0.005688885078434265 0 0)
(-0.005658298433625931 0 0)
(-0.005622717368488204 0 0)
(-0.005584756087869937 0 0)
(-0.005538383784968555 0 0)
(-0.005500485300344761 0 0)
(-0.005462013503090491 0 0)
(-0.005425406359674298 0 0)
(-0.005388048864698874 0 0)
(-0.005366798459911669 0 0)
(-0.005339766923963866 0 0)
(-0.005313764618300939 0 0)
(-0.005289398961568098 0 0)
(-0.005269804635788859 0 0)
(-0.005254571034298407 0 0)
(-0.005242470251449124 0 0)
(-0.005241609101210238 0 0)
(-0.005252393471693229 0 0)
(-0.005276024160470793 0 0)
(-0.005320064422304146 0 0)
(-0.005382590876482278 0 0)
(-0.005454714420264898 0 0)
(-0.005546699829922124 0 0)
(-0.005653897782843378 0 0)
(-0.005769918968298354 0 0)
(-0.005892035720148511 0 0)
(-0.006018723009461839 0 0)
(-0.006141634634740696 0 0)
(-0.006271489624375428 0 0)
(-0.006404467719472384 0 0)
(-0.00653972119582208 0 0)
(-0.006666534345816863 0 0)
(-0.006808633910578303 0 0)
(-0.006938526855396562 0 0)
(-0.007066282290955817 0 0)
(-0.007188265526113291 0 0)
(-0.007308100207138131 0 0)
(-0.007422408186773413 0 0)
(-0.007527532198182523 0 0)
(-0.007624284529050751 0 0)
(-0.007712658134691513 0 0)
(-0.00778697679721343 0 0)
(-0.007847173608040738 0 0)
(-0.007895559290645615 0 0)
(-0.007916055151754652 0 0)
(-0.007920108966673854 0 0)
(-0.007913385924032429 0 0)
(-0.007898076206707769 0 0)
(-0.007876701637667648 0 0)
(-0.007850706579714496 0 0)
(-0.00781726682035009 0 0)
(-0.007783558004844679 0 0)
(-0.007753350870488002 0 0)
(-0.007727277925545936 0 0)
(-0.007696054603976881 0 0)
(-0.007677299407112407 0 0)
(-0.007662135619719671 0 0)
(-0.007643231283437909 0 0)
(-0.007626008111953907 0 0)
(-0.007613360743221846 0 0)
(-0.007605100272812679 0 0)
(-0.007600834246388386 0 0)
(-0.007602098997810358 0 0)
(-0.007616772246817789 0 0)
(-0.007643429190451029 0 0)
(-0.00768640148147467 0 0)
(-0.007752105028392308 0 0)
(-0.007828752818279876 0 0)
(-0.007922623269393409 0 0)
(-0.008035256978422264 0 0)
(-0.008159342804495973 0 0)
(-0.008292144995257109 0 0)
(-0.008430883467534088 0 0)
(-0.008570569249771077 0 0)
(-0.008712423798990543 0 0)
(-0.008861866325018003 0 0)
(-0.009015629119060124 0 0)
(-0.009168046075502459 0 0)
(-0.009325239202141891 0 0)
(-0.009490528679997589 0 0)
(-0.009643071934476269 0 0)
(-0.009795857130355469 0 0)
(-0.00994568324589209 0 0)
(-0.01009296567471787 0 0)
(-0.01023324848116472 0 0)
(-0.01036326366119207 0 0)
(-0.01048653431961384 0 0)
(-0.0105959220778754 0 0)
(-0.0106924013836531 0 0)
(-0.01077493782985555 0 0)
(-0.01083952099153738 0 0)
(-0.01087606761703287 0 0)
(-0.01089824509451294 0 0)
(-0.01091233360882866 0 0)
(-0.01091623490593339 0 0)
(-0.01091245030666586 0 0)
(-0.01090070209553852 0 0)
(-0.01088264924439327 0 0)
(-0.01086560054347259 0 0)
(-0.01085110895666229 0 0)
(-0.01083526555960375 0 0)
(-0.01081880656615014 0 0)
(-0.01082205991792665 0 0)
(-0.01081163657566744 0 0)
(-0.01080674884698996 0 0)
(-0.01080229752604205 0 0)
(-0.01080410069273642 0 0)
(-0.01080957012415189 0 0)
(-0.01081977123950904 0 0)
(-0.01083971620814819 0 0)
(-0.01087206149936348 0 0)
(-0.01091859685986134 0 0)
(-0.01098810542790043 0 0)
(-0.01107943344042809 0 0)
(-0.01117735443255355 0 0)
(-0.01129710755518253 0 0)
(-0.01143573866510941 0 0)
(-0.01158426698538571 0 0)
(-0.01174223662420452 0 0)
(-0.01190641219931562 0 0)
(-0.01207071969636564 0 0)
(-0.01224251569995811 0 0)
(-0.01242089297961443 0 0)
(-0.01260398954106464 0 0)
(-0.01278281152135027 0 0)
(-0.01298258304687372 0 0)
(-0.01316808589197477 0 0)
(-0.01335431645402624 0 0)
(-0.01353684111026156 0 0)
(-0.01371871666835183 0 0)
(-0.01389491083859076 0 0)
(-0.01406258414133379 0 0)
(-0.01421934145981181 0 0)
(-0.01436723747298561 0 0)
(-0.01449705070848351 0 0)
(-0.01461673741613939 0 0)
(-0.01472413123831314 0 0)
(-0.01479653654781307 0 0)
(-0.01485292237290009 0 0)
(-0.01490094652778281 0 0)
(-0.01493513003629512 0 0)
(-0.01495934451617593 0 0)
(-0.01497595092343154 0 0)
(-0.01497758125037582 0 0)
(-0.01498004618149336 0 0)
(-0.01497911214914538 0 0)
(-0.01498143771297354 0 0)
(-0.01497510803168557 0 0)
(-0.01498139023486411 0 0)
(-0.01499075265533571 0 0)
(-0.0149920747028023 0 0)
(-0.01499742407954743 0 0)
(-0.01500686848333151 0 0)
(-0.01502133792104922 0 0)
(-0.01503974699188473 0 0)
(-0.01506530937361366 0 0)
(-0.01510342563105967 0 0)
(-0.01515331933242062 0 0)
(-0.01522335096104725 0 0)
(-0.01532236521534038 0 0)
(-0.01543048915194409 0 0)
(-0.01555623730229157 0 0)
(-0.01570549050317728 0 0)
(-0.01586857506208979 0 0)
(-0.01604369028769536 0 0)
(-0.01622917761169138 0 0)
(-0.01641521006605181 0 0)
(-0.0166098533797616 0 0)
(-0.01680933180490848 0 0)
(-0.01701687268456394 0 0)
(-0.0172217748266441 0 0)
(-0.01743387392844374 0 0)
(-0.01765790574697747 0 0)
(-0.01786327317683152 0 0)
(-0.01807530401530285 0 0)
(-0.01828234028054369 0 0)
(-0.01848728196349606 0 0)
(-0.01868317644928515 0 0)
(-0.01887060912645519 0 0)
(-0.01904638583442608 0 0)
(-0.01920861157100445 0 0)
(-0.01935087451832729 0 0)
(-0.01949100821107281 0 0)
(-0.01960188426439345 0 0)
(-0.01968277475026587 0 0)
(-0.01975493314235252 0 0)
(-0.01981608468407173 0 0)
(-0.01986407491411119 0 0)
(-0.01990296785784246 0 0)
(-0.01993110379247042 0 0)
(-0.01994925705591397 0 0)
(-0.01996803836153793 0 0)
(-0.01998081274935803 0 0)
(-0.01999488351495093 0 0)
(-0.01999994240372223 0 0)
(-0.02003129644839743 0 0)
(-0.02003596254649665 0 0)
(-0.02005128211882769 0 0)
(-0.0200674340254943 0 0)
(-0.02008960303613309 0 0)
(-0.02011493185905266 0 0)
(-0.02014738372912111 0 0)
(-0.02018971196218178 0 0)
(-0.0202444108175918 0 0)
(-0.02031189642835973 0 0)
(-0.02041380802384673 0 0)
(-0.0205335466605871 0 0)
(-0.02066101474034542 0 0)
(-0.02081827587553918 0 0)
(-0.02099473098439581 0 0)
(-0.02118299060478733 0 0)
(-0.02138312590656185 0 0)
(-0.02159316840403665 0 0)
(-0.02180102138643086 0 0)
(-0.02202321629864609 0 0)
(-0.02224408004168646 0 0)
(-0.02247657552363689 0 0)
(-0.02269734492183892 0 0)
(-0.02295190522273502 0 0)
(-0.02317424321575057 0 0)
(-0.02340139660169274 0 0)
(-0.02363097874750052 0 0)
(-0.02385636321347644 0 0)
(-0.02407536702762454 0 0)
(-0.02428494925190954 0 0)
(-0.02448592654478722 0 0)
(-0.02467253436582864 0 0)
(-0.02483986864896424 0 0)
(-0.02499445805243052 0 0)
(-0.02513948756636112 0 0)
(-0.02524915473446395 0 0)
(-0.02533841260559722 0 0)
(-0.02542113070224499 0 0)
(-0.0254893086721197 0 0)
(-0.02554461847062465 0 0)
(-0.02559353054557121 0 0)
(-0.02562540583459107 0 0)
(-0.02566066156770577 0 0)
(-0.02568526810958006 0 0)
(-0.02571423965861123 0 0)
(-0.02573298171671616 0 0)
(-0.02577511071029711 0 0)
(-0.02579786517824213 0 0)
(-0.02580885477380645 0 0)
(-0.02583729904503469 0 0)
(-0.02586721688787809 0 0)
(-0.02590164364499418 0 0)
(-0.02593931520980173 0 0)
(-0.02598830052058328 0 0)
(-0.02605121983266939 0 0)
(-0.02614721085542918 0 0)
(-0.02622982362444065 0 0)
(-0.02642061168028137 0 0)
)
;

boundaryField
{
    inlet
    {
        type            calculated;
        value           uniform (-3.015855396717242e-05 0 0);
    }
    outlet
    {
        type            calculated;
        value           uniform (-0.02642061168028137 0 0);
    }
    frontAndBack
    {
        type            empty;
    }
}


// ************************************************************************* //
