/*--------------------------------*- C++ -*----------------------------------*\
| =========                 |                                                 |
| \\      /  F ield         | OpenFOAM: The Open Source CFD Toolbox           |
|  \\    /   O peration     | Version:  v2012                                 |
|   \\  /    A nd           | Website:  www.openfoam.com                      |
|    \\/     M anipulation  |                                                 |
\*---------------------------------------------------------------------------*/
FoamFile
{
    version     2.0;
    format      ascii;
    class       volScalarField;
    location    "0.012";
    object      pMean;
}
// * * * * * * * * * * * * * * * * * * * * * * * * * * * * * * * * * * * * * //

dimensions      [1 -1 -2 0 0 0 0];


internalField   nonuniform List<scalar> 
1000
(
101325.0332470744
101325.0204400529
101325.0099998824
101325.0298673998
101325.044489513
101325.0634153652
101325.0796287554
101325.117440302
101325.1253643747
101325.1660077798
101325.1935954532
101325.2192587348
101325.2449468685
101325.2914324715
101325.3031425204
101325.3227951591
101325.3705003086
101325.3866036095
101325.3877679105
101325.4149431076
101325.4385753542
101325.4394471473
101325.4262900523
101325.4493351999
101325.4504650481
101325.4300588527
101325.4054738623
101325.4169705881
101325.4015706282
101325.3497517227
101325.3416093227
101325.3335845303
101325.2811604901
101325.242473346
101325.2481983571
101325.2049990094
101325.1560672726
101325.1503156301
101325.1329069744
101325.0851895648
101325.0660728404
101325.0596359043
101325.035534886
101325.0174925986
101325.0072368344
101325.0101600913
101325.0067380693
101324.99613657
101325.0151809031
101325.0282807909
101325.0286183964
101325.0543677501
101325.0818898564
101325.0875882991
101325.1264200828
101325.1630148181
101325.175382306
101325.2072159782
101325.2486259211
101325.2607689076
101325.2901297326
101325.3280672565
101325.3406844654
101325.3601118779
101325.3997550839
101325.4063809145
101325.4104934341
101325.4385001734
101325.445590926
101325.4339595082
101325.4401986029
101325.4404326137
101325.4242071455
101325.4093286052
101325.4001782333
101325.3755635728
101325.3495104278
101325.3272870041
101325.2991778033
101325.2657619616
101325.239328981
101325.2177617352
101325.1841363718
101325.1559390606
101325.1343381069
101325.1098647889
101325.08148318
101325.0630845464
101325.0456298965
101325.0275457573
101325.0199543558
101325.0043422651
101325.0036243567
101325.0083114625
101325.0074381769
101325.0136712103
101325.0330704335
101325.0468379695
101325.0643376986
101325.0921035529
101325.115923357
101325.1443774332
101325.1768529537
101325.1990489788
101325.2253246678
101325.2605422003
101325.2820642427
101325.3034382614
101325.337595885
101325.3562008716
101325.3734696426
101325.4009789618
101325.4158538905
101325.4155526429
101325.4385169653
101325.4463840479
101325.430577184
101325.4401585275
101325.4395880067
101325.4087355962
101325.3997289796
101325.3952013312
101325.3532394446
101325.3266912026
101325.3177747191
101325.2746847451
101325.2401479772
101325.2329810579
101325.1976656233
101325.1572209328
101325.1510016276
101325.1233498248
101325.0842588121
101325.0758895551
101325.0627676779
101325.0273352248
101325.0223411728
101325.0249846199
101324.9964796071
101325.0017201819
101325.0182369917
101325.0075265078
101325.0158418818
101325.0510520917
101325.0560008511
101325.0731741183
101325.118045025
101325.1323876102
101325.1600975464
101325.1974914168
101325.2164337903
101325.2386220247
101325.2812058598
101325.2958507815
101325.3128207483
101325.3562047017
101325.366770381
101325.378074057
101325.4115583463
101325.4209832294
101325.4180198896
101325.4423837807
101325.4462675313
101325.4260898516
101325.4367618854
101325.4317097572
101325.4002262799
101325.3884952259
101325.3816088421
101325.3339743216
101325.3105562751
101325.2978012482
101325.2540011888
101325.2297606137
101325.2141653738
101325.1769810147
101325.1466835103
101325.1416930779
101325.1027905193
101325.0761149455
101325.0731442578
101325.0459520405
101325.0242366171
101325.0261530837
101325.0134363525
101324.997192139
101325.0146765603
101325.0139568885
101325.0102057023
101325.038837673
101325.0562807857
101325.065447354
101325.1017601584
101325.1334452935
101325.1504223541
101325.1804246046
101325.2137400331
101325.2326868336
101325.2589550361
101325.29261786
101325.3092639361
101325.3336768386
101325.3595432745
101325.3780701983
101325.3950408619
101325.4086141394
101325.4235752902
101325.4326073372
101325.4370131306
101325.4331745354
101325.4385090137
101325.427486266
101325.4108118442
101325.3993976002
101325.3813487267
101325.3446815835
101325.3241116259
101325.3005789621
101325.2654413633
101325.2426696882
101325.2225451547
101325.1868317809
101325.1626255223
101325.1468354446
101325.1151636251
101325.0904387435
101325.0786795605
101325.0556146689
101325.037846616
101325.0285184028
101325.0180220415
101325.0077055698
101325.0128166593
101325.0117717245
101325.0149597178
101325.0307329404
101325.0483340893
101325.0635621119
101325.0933870014
101325.1230894685
101325.1454019915
101325.172584756
101325.2013074254
101325.2269005841
101325.2491703778
101325.2794264076
101325.3026662593
101325.3229298802
101325.3491120001
101325.3692688359
101325.3849171356
101325.4025206993
101325.4198501417
101325.4231998961
101325.4324564962
101325.4373098436
101325.4348235637
101325.4260141575
101325.4200091053
101325.4041691556
101325.3824756133
101325.3593348994
101325.3331675749
101325.3049152752
101325.2782520916
101325.2536174232
101325.228342488
101325.1982992801
101325.175944598
101325.1524817011
101325.1275515466
101325.1000367875
101325.0857992635
101325.0660528418
101325.0454146971
101325.0341458639
101325.0252195495
101325.0164156722
101325.0100395211
101325.0151315275
101325.0186275532
101325.0266183632
101325.0417648633
101325.0598427163
101325.086168849
101325.1096806003
101325.1406616575
101325.1604388307
101325.1929423595
101325.2160310311
101325.2433765532
101325.2662405744
101325.2931979225
101325.3167438051
101325.3374949001
101325.3623524527
101325.3780269615
101325.3977052964
101325.4078026538
101325.4232058785
101325.4277887556
101325.4321931686
101325.4329129528
101325.42978354
101325.4205024057
101325.4024782281
101325.3934548287
101325.3644906704
101325.3366202489
101325.3113965126
101325.2881898594
101325.257503561
101325.2329967268
101325.2096211879
101325.1827991693
101325.1602286336
101325.1380409683
101325.1161757639
101325.0960748568
101325.0786015347
101325.0615297645
101325.0498263413
101325.0369156807
101325.0279421624
101325.0272549708
101325.0217838021
101325.0252524853
101325.0331163303
101325.0442186926
101325.0535692389
101325.0801485845
101325.1004474933
101325.1204533196
101325.1458848361
101325.1669215194
101325.1845954465
101325.2072649114
101325.2283932513
101325.2396454926
101325.2582596724
101325.2768042885
101325.2872669009
101325.2965865409
101325.3069359755
101325.3169167473
101325.3176177955
101325.3233765161
101325.3208253693
101325.3195425085
101325.3101202918
101325.3054793492
101325.2888597817
101325.269020882
101325.2575504165
101325.2311025617
101325.2070836709
101325.1836469118
101325.164938892
101325.1392925138
101325.1224367112
101325.105664893
101325.0851906375
101325.0725595123
101325.0567621283
101325.0448815024
101325.0320504657
101325.0233956081
101325.012940669
101325.0123281
101325.0039449454
101325.0042499756
101325.0108459793
101325.0108148851
101325.0226947716
101325.0353283393
101325.0539627586
101325.0678217398
101325.0979356801
101325.1210011828
101325.1426778589
101325.1712731116
101325.1916181193
101325.2177807768
101325.2358811331
101325.254413113
101325.2706066051
101325.2932367633
101325.3016929282
101325.3128447721
101325.3298011747
101325.3362228082
101325.3382919966
101325.3451524387
101325.3500645028
101325.3393219645
101325.3405589725
101325.3341659766
101325.3158926089
101325.306652849
101325.2916990286
101325.2638093711
101325.2457755479
101325.227383832
101325.196978585
101325.177282182
101325.1634925025
101325.1378095194
101325.1201172836
101325.1093319272
101325.0952483849
101325.0741305062
101325.0707680569
101325.0619299903
101325.0473569741
101325.0426828599
101325.0433943612
101325.0384024348
101325.0373277073
101325.0486957503
101325.0496076934
101325.0660549819
101325.0787840777
101325.0965164762
101325.1144775022
101325.1452312066
101325.1687751482
101325.188973256
101325.2174244486
101325.2424541938
101325.259265291
101325.2815508054
101325.3026930406
101325.3136906093
101325.3332057972
101325.345494141
101325.3556840819
101325.3631787954
101325.3737799685
101325.3771364195
101325.3790193973
101325.3771346586
101325.3781947123
101325.3678602166
101325.3574365648
101325.3507591568
101325.3294020412
101325.3116206332
101325.2925326145
101325.2713359656
101325.2466232848
101325.2247572261
101325.2051126685
101325.185891699
101325.1700958726
101325.1483793536
101325.1373823358
101325.1263284048
101325.1086113291
101325.1022056791
101325.0969140825
101325.0846675628
101325.0793892474
101325.0861700486
101325.0741884378
101325.0864342951
101325.08862453
101325.100312859
101325.1137439706
101325.1284664889
101325.1468159674
101325.1714456557
101325.1989296887
101325.2156044344
101325.2470499785
101325.2693893462
101325.2892202615
101325.3151481188
101325.3342057933
101325.3446821427
101325.3674975579
101325.3837785876
101325.3850748265
101325.4049350768
101325.4104824985
101325.4115184994
101325.4187554459
101325.4207841997
101325.4127922991
101325.412696191
101325.407960044
101325.3905624527
101325.3799736999
101325.3655891281
101325.344165932
101325.3243161591
101325.3016877421
101325.2803318408
101325.2605215159
101325.2425170121
101325.2218106636
101325.2065184772
101325.1905916708
101325.1780664256
101325.1658117077
101325.1547073094
101325.1480932974
101325.1420276113
101325.1352728419
101325.1323286926
101325.1341825796
101325.1326782445
101325.1428961955
101325.1485142517
101325.1612809088
101325.1725956064
101325.1948329589
101325.2124608012
101325.2391782778
101325.2586480349
101325.2846542854
101325.3142846477
101325.3340090373
101325.3528080985
101325.3771059236
101325.3988552906
101325.407348333
101325.4247384545
101325.4417276988
101325.4468575239
101325.4568700143
101325.4621355938
101325.4666325743
101325.4669403027
101325.4669651387
101325.4604115299
101325.4574837082
101325.4468599317
101325.4373391074
101325.4189092608
101325.3977855506
101325.3862842646
101325.3596454707
101325.335438935
101325.3186306911
101325.2995353434
101325.2756587304
101325.2683615766
101325.2433638969
101325.2285205347
101325.2250745604
101325.2094219944
101325.1966567084
101325.1970653134
101325.1909358944
101325.1794561734
101325.1900821291
101325.1872298652
101325.1890953482
101325.1992345715
101325.2166169514
101325.2197899913
101325.2387596127
101325.2642975593
101325.2785989336
101325.304134407
101325.3322566016
101325.3574280431
101325.3768833208
101325.4019611729
101325.4273129174
101325.4406669869
101325.4594932897
101325.4796611118
101325.4874900039
101325.4985926609
101325.5135816016
101325.516723206
101325.5163491695
101325.5275830328
101325.5206843155
101325.5200553162
101325.5147274513
101325.5100286008
101325.4941153641
101325.4810830343
101325.4742967437
101325.4443476351
101325.4259324781
101325.4127245939
101325.3870967691
101325.359671918
101325.3538487273
101325.3349790079
101325.3077826173
101325.2984579217
101325.2912234527
101325.2732790446
101325.2625143447
101325.2625961394
101325.2500802104
101325.2466182977
101325.2457953218
101325.2497130768
101325.2464505482
101325.2597559067
101325.2659123642
101325.2753616876
101325.2909143763
101325.3125596556
101325.3224490507
101325.3508605471
101325.3802779821
101325.3966688509
101325.4162625067
101325.4537620263
101325.4678477403
101325.4838532755
101325.5060453323
101325.5241719753
101325.531510804
101325.5477446995
101325.5633955521
101325.5551994683
101325.5729329318
101325.5736157333
101325.5671371989
101325.5666414295
101325.5736843753
101325.5526818039
101325.5473112681
101325.5440619815
101325.517974035
101325.4980483431
101325.493705398
101325.4612332105
101325.4364399662
101325.4290695841
101325.4037447246
101325.3792007334
101325.3711757201
101325.3571497873
101325.3358000325
101325.3228906929
101325.322866463
101325.310070536
101325.2988537061
101325.298888393
101325.2973514254
101325.2921617219
101325.295474379
101325.3086031875
101325.307016701
101325.3219077279
101325.3333913696
101325.348943216
101325.3618357769
101325.3908109373
101325.4092518953
101325.4298785922
101325.4547433215
101325.4780022586
101325.5021848007
101325.5167635087
101325.5373970542
101325.553641633
101325.5666712983
101325.580383889
101325.5870847248
101325.5971712644
101325.6050061559
101325.600357289
101325.6032921124
101325.6051415394
101325.5939498926
101325.5933432323
101325.5840552153
101325.5684661416
101325.555247629
101325.5387620129
101325.5207651735
101325.4944832837
101325.4825200596
101325.4551417409
101325.4351940093
101325.4194303134
101325.4029051002
101325.3788986911
101325.3707721061
101325.3571158986
101325.3406614458
101325.3396146804
101325.3263603953
101325.3177763516
101325.3196071766
101325.3168962673
101325.311231631
101325.3194957423
101325.327270224
101325.3334874827
101325.3419400842
101325.3617199473
101325.3698915475
101325.3895552632
101325.4121964318
101325.4328734049
101325.4513292806
101325.4761956244
101325.4980328791
101325.5146085016
101325.5313362232
101325.550655932
101325.565013162
101325.5699297693
101325.5860109304
101325.5965651102
101325.5912627229
101325.5972783659
101325.6027433067
101325.5923192619
101325.5870563279
101325.5870020177
101325.5769629685
101325.5610111149
101325.5485881436
101325.5387978071
101325.5067097523
101325.4923008718
101325.4795645489
101325.4481370483
101325.4246453437
101325.4198501574
101325.3915118525
101325.369680932
101325.3654425717
101325.3460780982
101325.3287603609
101325.3304911841
101325.3167304099
101325.3031149396
101325.3082324549
101325.3031408637
101325.295602181
101325.3038228154
101325.310384332
101325.3118413991
101325.3274630045
101325.3376560225
101325.3501737216
101325.3670181692
101325.3880054969
101325.4016212641
101325.4309646073
101325.451336426
101325.4692341087
101325.4894477096
101325.5097217985
101325.5256038894
101325.5390902632
101325.5497168851
101325.5645619316
101325.5715053884
101325.5771099262
101325.5757072395
101325.5858818868
101325.5768948154
101325.574116991
101325.5672409456
101325.5661497937
101325.5465751242
101325.5384428919
101325.5223115062
101325.504191825
101325.48014004
101325.4645032835
101325.4415898392
101325.4164728078
101325.4036375667
101325.3826687297
101325.3549537784
101325.352236254
101325.3330336426
101325.3144389072
101325.3050040328
101325.3057756666
101325.2859748028
101325.2804880353
101325.2845030139
101325.2757707226
101325.2743265454
101325.2840066744
101325.2851035255
101325.2942098277
101325.3028616692
101325.3192248866
101325.3282206115
101325.3473153163
101325.3613579256
101325.3840485207
101325.4040381597
101325.4259828373
101325.4391078325
101325.4608620849
101325.4731123991
101325.4951295602
101325.4937226179
101325.5107712259
101325.524562647
101325.5178009635
101325.5270069591
101325.5298429908
101325.5190611734
101325.5157215367
101325.5209961045
101325.4988246762
101325.4877043086
101325.488022402
101325.4580183117
101325.4483053649
101325.4253110796
101325.4013249699
101325.3814479139
101325.3597489078
101325.3350637524
101325.3195104912
101325.3031647186
101325.2766101723
101325.2669357143
101325.2556218133
101325.2364683767
101325.2258129717
101325.2272306428
101325.2102656681
101325.2044620172
101325.2094290312
101325.200986997
101325.1983199412
101325.2158272435
101325.211589086
101325.2188176352
101325.2337545452
101325.24927738
101325.2515085474
101325.2731504055
101325.2953097446
101325.3050978752
101325.3222705168
101325.3523967058
101325.3618559591
101325.3709506514
101325.3980007148
101325.4012142793
101325.4069228864
101325.4188790484
101325.4288368747
101325.4194586918
101325.4289766602
101325.4253235421
101325.4141843355
101325.4029352119
101325.4178782719
101325.3817805559
101325.3745409894
101325.3733797908
101325.3406020967
101325.3161773355
101325.307838721
101325.2804661048
101325.2426869936
101325.2389799662
101325.2095643631
101325.1859092186
101325.1734428964
101325.158461146
101325.1347167856
101325.1215850654
101325.1197164725
101325.1003593918
101325.0915986309
101325.0903690904
101325.0874499747
101325.0721182998
101325.0753851859
101325.0899587811
101325.0760018771
101325.0881978667
101325.1057751823
101325.1056622365
101325.1072171179
101325.1432520889
101325.1430831546
101325.1559395456
101325.1815172306
101325.1921666017
101325.2088559622
101325.2298801588
101325.2333441487
101325.2456075859
101325.2645814194
101325.2564874615
101325.2654719456
101325.2758287577
101325.261263358
101325.2631227603
101325.2653674795
101325.2447728718
101325.2309037028
101325.2449182495
101325.2131719974
101325.194240574
101325.1891582394
101325.1635042069
101325.1297903983
101325.1215417637
101325.09921605
101325.0476144377
101325.0483386685
101325.0262130997
101324.9913589993
101324.9810503695
101324.9757207492
101324.9311798139
101324.9406419723
101324.9351472605
101324.9009604382
101324.9048589481
101324.9117665324
101324.8820858046
101324.8883749446
101324.8973813726
101324.8839512436
101324.8892159189
101324.9141797323
101324.8992174722
101324.9081929415
101324.9316501133
101324.934492438
101324.947956164
101324.9635425329
101324.9764755135
101324.9837952076
101325.0069301755
101325.0193151847
101325.0181218585
101325.0294376029
101325.0448199162
101325.0336630913
101325.038521677
101325.0434748638
101325.0317495734
101325.0195486201
101325.0252810557
101325.0025886997
101324.9818456638
101324.9883474002
101324.9636669152
101324.9408390578
101324.9195432637
101324.9003025609
101324.867914539
101324.8527824308
101324.8189155987
101324.7856501292
101324.7768788762
101324.7430035523
101324.7195769013
101324.705500293
101324.6911624037
101324.6673760871
101324.6589394306
101324.642277975
101324.6455427366
101324.6246603874
101324.6147711392
101324.6226507732
101324.6118250216
101324.594298687
101324.6235764088
101324.6176967426
101324.6115913944
101324.6236457154
101324.6352816404
101324.6291987381
101324.6528510551
101324.6599844916
101324.6664564312
101324.6896730126
101324.6896545894
101324.694086746
101324.7221033793
101324.714349637
101324.714091864
101324.7204678708
101324.7298399061
101324.7282709563
101324.6840988604
101324.721628661
101324.7054257594
101324.648945237
101324.662945671
101324.657660529
)
;

boundaryField
{
    inlet
    {
        type            calculated;
        value           uniform 101325.002943968;
    }
    outlet
    {
        type            calculated;
        value           uniform 101324.6586732103;
    }
    frontAndBack
    {
        type            empty;
    }
}


// ************************************************************************* //
