/*--------------------------------*- C++ -*----------------------------------*\
| =========                 |                                                 |
| \\      /  F ield         | OpenFOAM: The Open Source CFD Toolbox           |
|  \\    /   O peration     | Version:  v2012                                 |
|   \\  /    A nd           | Website:  www.openfoam.com                      |
|    \\/     M anipulation  |                                                 |
\*---------------------------------------------------------------------------*/
FoamFile
{
    version     2.0;
    format      ascii;
    class       volVectorField;
    location    "0.012";
    object      U;
}
// * * * * * * * * * * * * * * * * * * * * * * * * * * * * * * * * * * * * * //

dimensions      [0 1 -1 0 0 0 0];


internalField   nonuniform List<vector> 
1000
(
(-0.02043651569927101 0 0)
(-0.04859110141136992 0 0)
(-0.04844102287990242 0 0)
(-0.07477683462926417 0 0)
(-0.08174200243515924 0 0)
(-0.09396705792382207 0 0)
(-0.1053001276092019 0 0)
(-0.106095597442903 0 0)
(-0.1186746985960413 0 0)
(-0.119490526672664 0 0)
(-0.1188712286819454 0 0)
(-0.1188263364993542 0 0)
(-0.1157188078959399 0 0)
(-0.111766276075118 0 0)
(-0.1074217395301465 0 0)
(-0.09518293004670318 0 0)
(-0.08710492590667623 0 0)
(-0.07365532008240563 0 0)
(-0.05806758674550862 0 0)
(-0.04569610178897505 0 0)
(-0.029063442508057 0 0)
(-0.01329205128676471 0 0)
(0.002917106515572504 0 0)
(0.01958295116121922 0 0)
(0.03507855953059955 0 0)
(0.05114298505803681 0 0)
(0.06535360206161529 0 0)
(0.07862704507593453 0 0)
(0.09112199475467427 0 0)
(0.1010031841735277 0 0)
(0.1144482711250483 0 0)
(0.116954195992651 0 0)
(0.1174241614680395 0 0)
(0.1174446176504439 0 0)
(0.1151619480632773 0 0)
(0.1144649263884654 0 0)
(0.111464211532236 0 0)
(0.1038334800822807 0 0)
(0.1007983171561887 0 0)
(0.08875799809416314 0 0)
(0.07667417405814358 0 0)
(0.06746049934658599 0 0)
(0.04746244103102417 0 0)
(0.03362848763045029 0 0)
(0.01814501546585355 0 0)
(-0.001241039667294188 0 0)
(-0.01535541381420038 0 0)
(-0.03191165653098562 0 0)
(-0.04813902171012082 0 0)
(-0.06226663481861165 0 0)
(-0.07677803912641222 0 0)
(-0.08945345700243446 0 0)
(-0.1027266904819442 0 0)
(-0.1151890854544607 0 0)
(-0.115903028444033 0 0)
(-0.1155922422624953 0 0)
(-0.1159779399330483 0 0)
(-0.1139218069590094 0 0)
(-0.1135960106521347 0 0)
(-0.1093454435952734 0 0)
(-0.104307612309185 0 0)
(-0.1009590166975297 0 0)
(-0.0894154294568221 0 0)
(-0.08048327398126542 0 0)
(-0.06915601076131632 0 0)
(-0.05270486996828497 0 0)
(-0.03873682039924338 0 0)
(-0.02159905158614021 0 0)
(-0.004021801759349768 0 0)
(0.01214493464574105 0 0)
(0.02909166813794984 0 0)
(0.04470622654578491 0 0)
(0.05965249525511943 0 0)
(0.07405241192849032 0 0)
(0.08687685786519388 0 0)
(0.1021109583199912 0 0)
(0.1141405828653034 0 0)
(0.1147213983714678 0 0)
(0.1147149070214512 0 0)
(0.1138163587437594 0 0)
(0.1136482648537197 0 0)
(0.1117493656276787 0 0)
(0.1077952540914633 0 0)
(0.1061807599465665 0 0)
(0.09857341776138644 0 0)
(0.09129375818853541 0 0)
(0.08431891489482425 0 0)
(0.06974358897523779 0 0)
(0.05916315479815876 0 0)
(0.04373055493446844 0 0)
(0.02632028603984506 0 0)
(0.01101920783431255 0 0)
(-0.008245366441683846 0 0)
(-0.02494661059172379 0 0)
(-0.04175863888903449 0 0)
(-0.05851161814337272 0 0)
(-0.07312892331189756 0 0)
(-0.08679427489619869 0 0)
(-0.1041778553516817 0 0)
(-0.1128947606723512 0 0)
(-0.1134986674461074 0 0)
(-0.113358288391238 0 0)
(-0.1125113080011486 0 0)
(-0.1125568723822628 0 0)
(-0.1101939504451301 0 0)
(-0.1071266570346913 0 0)
(-0.1056447666937476 0 0)
(-0.09797367481048165 0 0)
(-0.09230335850115752 0 0)
(-0.08497602631383296 0 0)
(-0.07173281499077445 0 0)
(-0.06169986265705207 0 0)
(-0.04685983800571129 0 0)
(-0.030515762927901 0 0)
(-0.01519298748258859 0 0)
(0.003232616736986044 0 0)
(0.02046000161005144 0 0)
(0.03763440928005823 0 0)
(0.05467907521251573 0 0)
(0.07035593878185083 0 0)
(0.08451073958245094 0 0)
(0.1016827357297702 0 0)
(0.1124289378331178 0 0)
(0.1127452267648201 0 0)
(0.112493242376753 0 0)
(0.1124324534598844 0 0)
(0.1113574655990567 0 0)
(0.1099748234947925 0 0)
(0.107574227142178 0 0)
(0.1043440035412464 0 0)
(0.09949520522785624 0 0)
(0.0921112855099272 0 0)
(0.08692709911908733 0 0)
(0.0745686176683875 0 0)
(0.06348495059591389 0 0)
(0.05228754822752854 0 0)
(0.03386215134889105 0 0)
(0.01987370646554201 0 0)
(0.002340790601230405 0 0)
(-0.01677710507322368 0 0)
(-0.0333059239424884 0 0)
(-0.0516154216991003 0 0)
(-0.06851261485283748 0 0)
(-0.08316503789477804 0 0)
(-0.1036290447643492 0 0)
(-0.1116254890843795 0 0)
(-0.1121115518056931 0 0)
(-0.1120001838145687 0 0)
(-0.1111800627483993 0 0)
(-0.1111958473591558 0 0)
(-0.1090501087711762 0 0)
(-0.1062689854972704 0 0)
(-0.1047734934481642 0 0)
(-0.0981179791856937 0 0)
(-0.09319748295770416 0 0)
(-0.08645325167210186 0 0)
(-0.07518022595502177 0 0)
(-0.06626917052709058 0 0)
(-0.05256354209346819 0 0)
(-0.03820007272874305 0 0)
(-0.02356143168805673 0 0)
(-0.005734211284940944 0 0)
(0.0108827683321356 0 0)
(0.02909010605088764 0 0)
(0.04680879773741749 0 0)
(0.06401359539581027 0 0)
(0.08012818376300468 0 0)
(0.1009945236623571 0 0)
(0.1108951734413974 0 0)
(0.1109471769111817 0 0)
(0.1108937869290313 0 0)
(0.110752733194587 0 0)
(0.1097293381985804 0 0)
(0.1086577264628211 0 0)
(0.1067885654821642 0 0)
(0.1031601163572994 0 0)
(0.09979226085659811 0 0)
(0.09364202414154001 0 0)
(0.08681740806196306 0 0)
(0.07873010006698121 0 0)
(0.06761894651801233 0 0)
(0.05634572003419299 0 0)
(0.04254169522523289 0 0)
(0.02708157229032537 0 0)
(0.01100351379175365 0 0)
(-0.006741046646732549 0 0)
(-0.02486470151416404 0 0)
(-0.04313917864083636 0 0)
(-0.06173418185009656 0 0)
(-0.0786142615173628 0 0)
(-0.1015267021138612 0 0)
(-0.1105648082287561 0 0)
(-0.1107190181781134 0 0)
(-0.1104322219999805 0 0)
(-0.1102245245135914 0 0)
(-0.109545857945371 0 0)
(-0.1076542375170854 0 0)
(-0.1065959896126999 0 0)
(-0.1028202942490429 0 0)
(-0.09882002300746177 0 0)
(-0.09429298868439394 0 0)
(-0.08625399455750865 0 0)
(-0.07910221043541626 0 0)
(-0.06893109338744101 0 0)
(-0.0571000152213561 0 0)
(-0.044824658293624 0 0)
(-0.02963436395324056 0 0)
(-0.0142032771677479 0 0)
(0.002741578007502453 0 0)
(0.02060438449508754 0 0)
(0.03846223594059354 0 0)
(0.05701902049763315 0 0)
(0.07378492810554238 0 0)
(0.09659365522450462 0 0)
(0.1090010327719845 0 0)
(0.1095307591291647 0 0)
(0.1094920115455991 0 0)
(0.1090240206926712 0 0)
(0.1090676541360012 0 0)
(0.1070303668124724 0 0)
(0.1056672285376736 0 0)
(0.1034837315748631 0 0)
(0.09809402450770108 0 0)
(0.09556504065793209 0 0)
(0.08800463765107799 0 0)
(0.07977196579439631 0 0)
(0.07272313196151912 0 0)
(0.05940105013212253 0 0)
(0.04831974067433923 0 0)
(0.03446157058144676 0 0)
(0.01740418509590044 0 0)
(0.002221322353461468 0 0)
(-0.01686182180185091 0 0)
(-0.03529895274398386 0 0)
(-0.05397330963163065 0 0)
(-0.07278806035311013 0 0)
(-0.09698352817672816 0 0)
(-0.108762135203183 0 0)
(-0.1089154923365044 0 0)
(-0.10890298215764 0 0)
(-0.1085675748375014 0 0)
(-0.1078833005079306 0 0)
(-0.1067096659277035 0 0)
(-0.1050976965791591 0 0)
(-0.1023587179464677 0 0)
(-0.09852588222629043 0 0)
(-0.09437082571301032 0 0)
(-0.087884509174327 0 0)
(-0.08070443872072358 0 0)
(-0.07210376993822032 0 0)
(-0.06118005632116912 0 0)
(-0.04966673936137904 0 0)
(-0.03574600661123427 0 0)
(-0.02078559317276722 0 0)
(-0.004572908441086694 0 0)
(0.01303220637152142 0 0)
(0.03091124202052299 0 0)
(0.04938876286864693 0 0)
(0.06761906368832742 0 0)
(0.08860078065238891 0 0)
(0.1069553785254539 0 0)
(0.1080707519303262 0 0)
(0.1079974144906183 0 0)
(0.1075873156346894 0 0)
(0.1072864658904065 0 0)
(0.1067720606875359 0 0)
(0.1044399715713224 0 0)
(0.1031400807929096 0 0)
(0.1001588276433338 0 0)
(0.09467374847267503 0 0)
(0.09048575224667338 0 0)
(0.08246458691877732 0 0)
(0.07363353574218273 0 0)
(0.06408881130055595 0 0)
(0.05143969389410465 0 0)
(0.03859318850557394 0 0)
(0.02356474599594982 0 0)
(0.007565407964235728 0 0)
(-0.009703522696638286 0 0)
(-0.02788999556468666 0 0)
(-0.04611829186170812 0 0)
(-0.0656257338184969 0 0)
(-0.0859839041502742 0 0)
(-0.1056081533509028 0 0)
(-0.1072649515829212 0 0)
(-0.1072161397315085 0 0)
(-0.1072274857136733 0 0)
(-0.1060121416925895 0 0)
(-0.1056878819263587 0 0)
(-0.1050219572418623 0 0)
(-0.1016135789062897 0 0)
(-0.09983496910689769 0 0)
(-0.09669227503473629 0 0)
(-0.08898367729437626 0 0)
(-0.08423503053960291 0 0)
(-0.07591051252332155 0 0)
(-0.06329964501562767 0 0)
(-0.05482663097260762 0 0)
(-0.04077429655986105 0 0)
(-0.02503250801842294 0 0)
(-0.01166035165463869 0 0)
(0.006702965848198453 0 0)
(0.02448521438198144 0 0)
(0.04227123965366825 0 0)
(0.06227753875173973 0 0)
(0.07978133869534093 0 0)
(0.1039919343861256 0 0)
(0.1086894451137774 0 0)
(0.1089200341338528 0 0)
(0.1087031494819686 0 0)
(0.1074619060647598 0 0)
(0.1056827604296647 0 0)
(0.1038790984798033 0 0)
(0.1004985268587695 0 0)
(0.09653387798432678 0 0)
(0.09183411753513958 0 0)
(0.08639108592990681 0 0)
(0.07845428552634984 0 0)
(0.07084963126803107 0 0)
(0.06164082028588387 0 0)
(0.05043736217194846 0 0)
(0.03965988950011788 0 0)
(0.02516229606517313 0 0)
(0.01158450273529538 0 0)
(-0.003299893268500376 0 0)
(-0.0201439140145702 0 0)
(-0.03604707166980989 0 0)
(-0.05401305590174083 0 0)
(-0.07081684327555794 0 0)
(-0.08998560112180293 0 0)
(-0.0965527256167697 0 0)
(-0.09690339442774744 0 0)
(-0.09443002172824273 0 0)
(-0.09036271886918636 0 0)
(-0.0867379689715946 0 0)
(-0.0825453057364461 0 0)
(-0.07781221771516623 0 0)
(-0.07237779512198668 0 0)
(-0.06752938359533024 0 0)
(-0.06067672867202668 0 0)
(-0.05300051266380164 0 0)
(-0.04424529052460307 0 0)
(-0.03413418722484075 0 0)
(-0.02474282173780881 0 0)
(-0.01252129341311744 0 0)
(-0.001141141573147886 0 0)
(0.01106940517244672 0 0)
(0.02619283502524913 0 0)
(0.03816707533169044 0 0)
(0.05270364185005494 0 0)
(0.06766268741842939 0 0)
(0.07878395884415272 0 0)
(0.09419492317010394 0 0)
(0.1034584209791992 0 0)
(0.1041723839694016 0 0)
(0.1010265700999203 0 0)
(0.0956943523178817 0 0)
(0.08949909751473423 0 0)
(0.08266591672346658 0 0)
(0.07687366297240045 0 0)
(0.07074134782722977 0 0)
(0.06418952774754619 0 0)
(0.0584016369131945 0 0)
(0.05184526783899668 0 0)
(0.04361497479745663 0 0)
(0.03613133796304797 0 0)
(0.02615137287793075 0 0)
(0.01520227717057648 0 0)
(0.005375987794839408 0 0)
(-0.007979664581354054 0 0)
(-0.02149768431551423 0 0)
(-0.03422124357429989 0 0)
(-0.05007187500779673 0 0)
(-0.06552433076936068 0 0)
(-0.07634320607178817 0 0)
(-0.09604688803466289 0 0)
(-0.105441630488819 0 0)
(-0.1080275639297013 0 0)
(-0.1081642060676569 0 0)
(-0.1039909048519676 0 0)
(-0.0990822426401598 0 0)
(-0.09326452030615676 0 0)
(-0.08635370561203223 0 0)
(-0.08026482070934521 0 0)
(-0.07327472556511608 0 0)
(-0.06630378568758041 0 0)
(-0.05947598697222714 0 0)
(-0.05108475096120097 0 0)
(-0.04166897085351146 0 0)
(-0.0316719908523824 0 0)
(-0.01960124127095934 0 0)
(-0.007437141033962924 0 0)
(0.004287124602406267 0 0)
(0.01755916148361454 0 0)
(0.03177644943200598 0 0)
(0.04608988926909521 0 0)
(0.05721200398736558 0 0)
(0.07376753099845336 0 0)
(0.08313071228871355 0 0)
(0.09587587740539157 0 0)
(0.1012644825929093 0 0)
(0.1013573820057053 0 0)
(0.09839753516384142 0 0)
(0.09286831974587775 0 0)
(0.08666646196574238 0 0)
(0.07942942673930041 0 0)
(0.07221354697711739 0 0)
(0.06518756378493559 0 0)
(0.05805548253442473 0 0)
(0.05053299921464197 0 0)
(0.04375479348225057 0 0)
(0.03730382398469609 0 0)
(0.02841657931658416 0 0)
(0.01904440136585763 0 0)
(0.007873859781767302 0 0)
(-0.003836953328173653 0 0)
(-0.0159804450363665 0 0)
(-0.0297523155550641 0 0)
(-0.04353892073900751 0 0)
(-0.05819277084917438 0 0)
(-0.07285574655372568 0 0)
(-0.08425104868246906 0 0)
(-0.0993236829684143 0 0)
(-0.1084359379668607 0 0)
(-0.1071322347646438 0 0)
(-0.1079370352611709 0 0)
(-0.103214284269563 0 0)
(-0.09739787472559436 0 0)
(-0.08997098059279636 0 0)
(-0.08434395778792238 0 0)
(-0.07613774228379863 0 0)
(-0.06855199732057531 0 0)
(-0.06136279347689934 0 0)
(-0.05304109720228701 0 0)
(-0.04388800117330683 0 0)
(-0.03549958786270599 0 0)
(-0.02502776366216052 0 0)
(-0.01316781763047224 0 0)
(-0.001711371683377759 0 0)
(0.01160422782521312 0 0)
(0.02405541236368335 0 0)
(0.03847194944121549 0 0)
(0.05254744365244473 0 0)
(0.06397199758055917 0 0)
(0.07655406801977561 0 0)
(0.08810975568244254 0 0)
(0.0975642894154775 0 0)
(0.09898109682657648 0 0)
(0.0987346073582369 0 0)
(0.09527617679452535 0 0)
(0.08811904939160785 0 0)
(0.08180380802473562 0 0)
(0.07477398440328217 0 0)
(0.06846880205729512 0 0)
(0.06032362362081105 0 0)
(0.05139047174984215 0 0)
(0.04551006625794098 0 0)
(0.03773844387402894 0 0)
(0.02817154476744787 0 0)
(0.02171898899504267 0 0)
(0.01141540484088541 0 0)
(0.00028775614848904 0 0)
(-0.01035487998977393 0 0)
(-0.02369857933810918 0 0)
(-0.03755215065161911 0 0)
(-0.05095942309396398 0 0)
(-0.06577408810643932 0 0)
(-0.07923863841643823 0 0)
(-0.0912441531679757 0 0)
(-0.1023293977448087 0 0)
(-0.1065024163447846 0 0)
(-0.1075789445045601 0 0)
(-0.1052786702330223 0 0)
(-0.09964105616523328 0 0)
(-0.09386480829553434 0 0)
(-0.08737834342324451 0 0)
(-0.07992721805615026 0 0)
(-0.07220501105791322 0 0)
(-0.06461706414994288 0 0)
(-0.05606953573439328 0 0)
(-0.04700246815420216 0 0)
(-0.03796745880148227 0 0)
(-0.02856970188530795 0 0)
(-0.0187663986777163 0 0)
(-0.006661186510490875 0 0)
(0.004358102355044849 0 0)
(0.01641842419556348 0 0)
(0.03150963626731677 0 0)
(0.04342005743778026 0 0)
(0.05667899294854457 0 0)
(0.06977718259047141 0 0)
(0.078687479154973 0 0)
(0.08974090030378611 0 0)
(0.09619577015405713 0 0)
(0.0974484097312552 0 0)
(0.09316790287695251 0 0)
(0.09012102077452618 0 0)
(0.08282132032904815 0 0)
(0.07677908092335897 0 0)
(0.06913163584561333 0 0)
(0.06223457221350685 0 0)
(0.05303564506076441 0 0)
(0.04636658548642311 0 0)
(0.03748304870732409 0 0)
(0.02874466929791055 0 0)
(0.02219137681756555 0 0)
(0.01155357779691678 0 0)
(0.002243246970440245 0 0)
(-0.006868900223916458 0 0)
(-0.02040143441940519 0 0)
(-0.03276375303117788 0 0)
(-0.04386336797871171 0 0)
(-0.05884677211702231 0 0)
(-0.07322428782341493 0 0)
(-0.08254307407858121 0 0)
(-0.09751453233726265 0 0)
(-0.1049248082697407 0 0)
(-0.107175123666152 0 0)
(-0.1055874875443033 0 0)
(-0.1028312286605712 0 0)
(-0.09659360938867648 0 0)
(-0.09028910050365001 0 0)
(-0.08258185452824482 0 0)
(-0.0762488430048333 0 0)
(-0.06738914172276984 0 0)
(-0.05782923505605937 0 0)
(-0.04999531633079869 0 0)
(-0.03982522514783596 0 0)
(-0.02971272740169894 0 0)
(-0.0207344109606719 0 0)
(-0.009731982989615988 0 0)
(0.001785283413886306 0 0)
(0.01318166396031303 0 0)
(0.02463086257737512 0 0)
(0.0380387803829619 0 0)
(0.05158088708320564 0 0)
(0.06179099364125652 0 0)
(0.07590247331586165 0 0)
(0.08428626599763181 0 0)
(0.09432670585270451 0 0)
(0.09595603274980365 0 0)
(0.09469954760735098 0 0)
(0.09246296129279995 0 0)
(0.08622808977854012 0 0)
(0.07842564397134859 0 0)
(0.07223959784208013 0 0)
(0.06530860179313373 0 0)
(0.05672443327342261 0 0)
(0.04729139927419394 0 0)
(0.04051931199470738 0 0)
(0.03169730543034473 0 0)
(0.02150060945030315 0 0)
(0.01416239169991699 0 0)
(0.005088736803930204 0 0)
(-0.00672805153244465 0 0)
(-0.0169491742771564 0 0)
(-0.02806966706211976 0 0)
(-0.0421975378932307 0 0)
(-0.05348306921668339 0 0)
(-0.06717770323441724 0 0)
(-0.08052984206022425 0 0)
(-0.09122903347685994 0 0)
(-0.1016687171328323 0 0)
(-0.1065462185583492 0 0)
(-0.1075853204566527 0 0)
(-0.1057181812302364 0 0)
(-0.09958439686128227 0 0)
(-0.09349118145123257 0 0)
(-0.08733282097250124 0 0)
(-0.07906416441356422 0 0)
(-0.07138600520778129 0 0)
(-0.06319775093538366 0 0)
(-0.05304915235424024 0 0)
(-0.04380296893079415 0 0)
(-0.0339697420378731 0 0)
(-0.02427995556520357 0 0)
(-0.0144707019503508 0 0)
(-0.002778920579319262 0 0)
(0.008014213569289367 0 0)
(0.01954447553253209 0 0)
(0.03225229754139035 0 0)
(0.04342354525627388 0 0)
(0.05612845356153739 0 0)
(0.06825326765345714 0 0)
(0.07653231051884345 0 0)
(0.08739137085830305 0 0)
(0.09455042930299602 0 0)
(0.09478846649641874 0 0)
(0.09200689580448095 0 0)
(0.0877494533130441 0 0)
(0.081193831067013 0 0)
(0.07387087449629692 0 0)
(0.06768183756645434 0 0)
(0.05965185303590839 0 0)
(0.05062721979218546 0 0)
(0.04382166672789736 0 0)
(0.03397213022253329 0 0)
(0.02485286358861327 0 0)
(0.01805807305679322 0 0)
(0.006850727419674592 0 0)
(-0.001686537597878373 0 0)
(-0.01147420534690029 0 0)
(-0.02381883747758896 0 0)
(-0.03432824833756128 0 0)
(-0.04583700628175742 0 0)
(-0.05873919526265169 0 0)
(-0.07111966789410142 0 0)
(-0.08132852505233953 0 0)
(-0.09489563319867943 0 0)
(-0.101995122237906 0 0)
(-0.1043111810388092 0 0)
(-0.103253792447492 0 0)
(-0.1002208332218461 0 0)
(-0.09470611893816405 0 0)
(-0.08775525640875949 0 0)
(-0.08013814330173927 0 0)
(-0.07350510130342432 0 0)
(-0.06427509977874177 0 0)
(-0.05514579068485456 0 0)
(-0.0467503082854904 0 0)
(-0.0359428237369761 0 0)
(-0.02604469032055763 0 0)
(-0.01678241878259646 0 0)
(-0.005795105280948271 0 0)
(0.00572277712821647 0 0)
(0.01627289483502328 0 0)
(0.0268659246232824 0 0)
(0.03951169455700381 0 0)
(0.05163466473237541 0 0)
(0.06156017696686625 0 0)
(0.07409105745684356 0 0)
(0.08259273665011893 0 0)
(0.09153130847743586 0 0)
(0.09453221465526368 0 0)
(0.09386506235671159 0 0)
(0.09157744959047559 0 0)
(0.08470943286326556 0 0)
(0.0774706576055349 0 0)
(0.06985481715519626 0 0)
(0.06306202000320274 0 0)
(0.05439510593139218 0 0)
(0.04503335874143476 0 0)
(0.03779499566710279 0 0)
(0.02820935913993337 0 0)
(0.01828134212837578 0 0)
(0.01104586109556228 0 0)
(0.001556820184166538 0 0)
(-0.008863887033277666 0 0)
(-0.01867217411694399 0 0)
(-0.02923928793204178 0 0)
(-0.04135249352125032 0 0)
(-0.05167303109530454 0 0)
(-0.06380800499032023 0 0)
(-0.07550586233021421 0 0)
(-0.08506935429906742 0 0)
(-0.09513392273849133 0 0)
(-0.1000727444135276 0 0)
(-0.1021529879665154 0 0)
(-0.09879435735575691 0 0)
(-0.09378560576896747 0 0)
(-0.08787766443759508 0 0)
(-0.08033690435777291 0 0)
(-0.07198475779511695 0 0)
(-0.06493251118631904 0 0)
(-0.05610624411295952 0 0)
(-0.04670210352917994 0 0)
(-0.03709558343840298 0 0)
(-0.02666919237590978 0 0)
(-0.01733077218306549 0 0)
(-0.006870574849526817 0 0)
(0.004611819697215803 0 0)
(0.01535253924325669 0 0)
(0.0268025531752487 0 0)
(0.03830033267999856 0 0)
(0.04910780833226281 0 0)
(0.0607399439629497 0 0)
(0.07129960983068809 0 0)
(0.0788448086821479 0 0)
(0.09089953470841856 0 0)
(0.09592193953554358 0 0)
(0.0958457522953724 0 0)
(0.0945548580900249 0 0)
(0.0890583313774523 0 0)
(0.08270857857916088 0 0)
(0.07476662405335602 0 0)
(0.0680006261585251 0 0)
(0.05873288552250958 0 0)
(0.05130086800991609 0 0)
(0.04245248541681066 0 0)
(0.03276047364819394 0 0)
(0.02490203690165349 0 0)
(0.01543719589689224 0 0)
(0.006997956632760797 0 0)
(-0.001425985652754808 0 0)
(-0.01204003918025364 0 0)
(-0.02227604878148717 0 0)
(-0.03208651670170923 0 0)
(-0.04360240138205666 0 0)
(-0.05481747629548469 0 0)
(-0.06469313800452557 0 0)
(-0.07649295856455798 0 0)
(-0.08532328604613176 0 0)
(-0.09352871392012868 0 0)
(-0.09577582605788246 0 0)
(-0.09417670603390267 0 0)
(-0.09232101347051468 0 0)
(-0.08591212712752211 0 0)
(-0.07902645242775809 0 0)
(-0.07100890690088675 0 0)
(-0.06389168050822172 0 0)
(-0.05469783416218338 0 0)
(-0.0449954585043395 0 0)
(-0.03645172485065113 0 0)
(-0.02526939330275186 0 0)
(-0.01519583952778669 0 0)
(-0.005851742534084952 0 0)
(0.004884536090689233 0 0)
(0.01689051644549664 0 0)
(0.02672194042531853 0 0)
(0.03725735926343945 0 0)
(0.04919739699865859 0 0)
(0.05948111233808612 0 0)
(0.07020383280172239 0 0)
(0.07899618448247998 0 0)
(0.08720046276857113 0 0)
(0.09434423410921568 0 0)
(0.0969722954600792 0 0)
(0.09687249134035675 0 0)
(0.09372878665275185 0 0)
(0.08695763384731693 0 0)
(0.07960528329774734 0 0)
(0.07147760822456173 0 0)
(0.06376978510861753 0 0)
(0.05394830253341266 0 0)
(0.04619956781389687 0 0)
(0.0367417009777111 0 0)
(0.02787671808616466 0 0)
(0.01860065897054126 0 0)
(0.009707354289101841 0 0)
(0.001951204286001406 0 0)
(-0.009562945341099064 0 0)
(-0.01769284141356983 0 0)
(-0.0271609331081627 0 0)
(-0.03899895451597356 0 0)
(-0.04832496102091614 0 0)
(-0.05965855883143687 0 0)
(-0.07040642236905639 0 0)
(-0.07854482622518154 0 0)
(-0.08808416364623423 0 0)
(-0.09316019809692432 0 0)
(-0.09454685064242921 0 0)
(-0.09215951293796135 0 0)
(-0.08876999917262671 0 0)
(-0.08165589848719811 0 0)
(-0.07482663250602807 0 0)
(-0.06523221573682274 0 0)
(-0.05751944559252685 0 0)
(-0.04889849617397986 0 0)
(-0.03864374329430232 0 0)
(-0.03022272929905841 0 0)
(-0.01950879249592231 0 0)
(-0.009326988947695363 0 0)
(0.000358461136674889 0 0)
(0.01136096531179633 0 0)
(0.02182494632919648 0 0)
(0.03350162841238291 0 0)
(0.04367774577835696 0 0)
(0.05435834744878483 0 0)
(0.06610173405716614 0 0)
(0.07397422652782985 0 0)
(0.08428863630148087 0 0)
(0.09106679868236414 0 0)
(0.09717766200614042 0 0)
(0.09802575506906844 0 0)
(0.09553218625754258 0 0)
(0.09208767954682273 0 0)
(0.08425324266399381 0 0)
(0.07644075263068927 0 0)
(0.06889055725893801 0 0)
(0.05970034823666006 0 0)
(0.05135260528336522 0 0)
(0.04212035842528034 0 0)
(0.03167704201827573 0 0)
(0.02387546150710477 0 0)
(0.01415965641888383 0 0)
(0.005583072241617247 0 0)
(-0.001745626083557767 0 0)
(-0.01247201529818561 0 0)
(-0.0220139159372809 0 0)
(-0.02999178736225006 0 0)
(-0.04133691308605944 0 0)
(-0.05029206365053827 0 0)
(-0.059615175243336 0 0)
(-0.06975311581597765 0 0)
(-0.07748010051969434 0 0)
(-0.08507962829693264 0 0)
(-0.08728017255649589 0 0)
(-0.08705569413178238 0 0)
(-0.08527802290375813 0 0)
(-0.07879493863223228 0 0)
(-0.07188177760216818 0 0)
(-0.06365147786227442 0 0)
(-0.05459105886362638 0 0)
(-0.04633267826832742 0 0)
(-0.03546633559841111 0 0)
(-0.02635634011922365 0 0)
(-0.0169043300374779 0 0)
(-0.00495133516458496 0 0)
(0.002953511753054523 0 0)
(0.01341647139365259 0 0)
(0.02506737388146805 0 0)
(0.03367878111161533 0 0)
(0.04493334470512843 0 0)
(0.05584392919724415 0 0)
(0.06548530800680963 0 0)
(0.07628566510937219 0 0)
(0.08508088465256952 0 0)
(0.09220311011984827 0 0)
(0.09845427056085018 0 0)
(0.1015329479960644 0 0)
(0.1012008058524836 0 0)
(0.09646431350136474 0 0)
(0.09057732233383783 0 0)
(0.08342172023091439 0 0)
(0.0743820435804307 0 0)
(0.06592323902158848 0 0)
(0.05604122576031925 0 0)
(0.04664765182866051 0 0)
(0.03784162549352543 0 0)
(0.02775339060872056 0 0)
(0.01804985026595696 0 0)
(0.01018832267638 0 0)
(0.00185590362956542 0 0)
(-0.007563930947246375 0 0)
(-0.01534293936046147 0 0)
(-0.02404971086949937 0 0)
(-0.03343317537717946 0 0)
(-0.04176684842221209 0 0)
(-0.05140583242365736 0 0)
(-0.06030475586494251 0 0)
(-0.06729309412894034 0 0)
(-0.07569318952866169 0 0)
(-0.08020298106638264 0 0)
(-0.08084399666514697 0 0)
(-0.07880024331817703 0 0)
(-0.07672864442676751 0 0)
(-0.06997417634720945 0 0)
(-0.06262534589536865 0 0)
(-0.05403075970844614 0 0)
(-0.04549129480672217 0 0)
(-0.03561351949264397 0 0)
(-0.02496714759265966 0 0)
(-0.01520269050100503 0 0)
(-0.004762306627799695 0 0)
(0.00570029708535809 0 0)
(0.01520024500854687 0 0)
(0.02500135840910199 0 0)
(0.03566589750554957 0 0)
(0.04522109692031119 0 0)
(0.05473617816898192 0 0)
(0.06595731554420881 0 0)
(0.07577893455771005 0 0)
(0.08299205854554063 0 0)
(0.09474436370803489 0 0)
(0.0995650419186308 0 0)
(0.1053372536376905 0 0)
(0.1065202064765581 0 0)
(0.1024565871611188 0 0)
(0.09902401631521468 0 0)
(0.09060843660381032 0 0)
(0.08284317704904315 0 0)
(0.07331425704721077 0 0)
(0.06282539557431714 0 0)
(0.0533050774616867 0 0)
(0.04441240905081221 0 0)
(0.03342707038270969 0 0)
(0.02472057009067453 0 0)
(0.01637564694319402 0 0)
(0.00767194429937783 0 0)
(-0.0006502402193967352 0 0)
(-0.008450827178819504 0 0)
(-0.01711879285704237 0 0)
(-0.02461530337124572 0 0)
(-0.03263396170566835 0 0)
(-0.04170921581933284 0 0)
(-0.04866232937879491 0 0)
(-0.05656906995959299 0 0)
(-0.06554399505157155 0 0)
(-0.07028628701977453 0 0)
(-0.07250574092008137 0 0)
(-0.07138995962762786 0 0)
(-0.07128248929099437 0 0)
(-0.06616596053517682 0 0)
(-0.05897606628526652 0 0)
(-0.05172943252229029 0 0)
(-0.04274216583684708 0 0)
(-0.0335206094834153 0 0)
(-0.02348057873584155 0 0)
(-0.01281383645823752 0 0)
(-0.002586504913901587 0 0)
(0.009171603851368915 0 0)
(0.01858015248648549 0 0)
(0.02905009552136299 0 0)
(0.03898967770584334 0 0)
(0.04742806517719791 0 0)
(0.05721085273836758 0 0)
(0.0667365217853455 0 0)
(0.07506905227636065 0 0)
(0.08452141955651592 0 0)
(0.09306532533075153 0 0)
(0.09955443427316064 0 0)
(0.1073101834666181 0 0)
(0.1104235503167813 0 0)
(0.1101429930777731 0 0)
(0.1064367178650253 0 0)
(0.1006294396609401 0 0)
(0.09289549245221666 0 0)
(0.08370019838219998 0 0)
(0.07125432871514006 0 0)
(0.06279442976039329 0 0)
(0.05089913662283056 0 0)
(0.04164525466326949 0 0)
(0.03163360137982364 0 0)
(0.02113093136295701 0 0)
(0.01469867321278238 0 0)
(0.006496602711150641 0 0)
(-0.001374413747648697 0 0)
(-0.008431800898944249 0 0)
(-0.01658307200704912 0 0)
(-0.0228247809718224 0 0)
(-0.0305870398205593 0 0)
(-0.03840251263584469 0 0)
(-0.04506931436999769 0 0)
(-0.05200217297045386 0 0)
(-0.05839351685070061 0 0)
(-0.06226619967128391 0 0)
(-0.06137515272532274 0 0)
(-0.06277460586258558 0 0)
(-0.05956688827553989 0 0)
(-0.05340662295859684 0 0)
(-0.04584321713989257 0 0)
(-0.0386084661467501 0 0)
(-0.02901429154951325 0 0)
(-0.01854990092337512 0 0)
(-0.009142310655649266 0 0)
(0.002041833423946261 0 0)
(0.01296797242043266 0 0)
(0.02309111375176061 0 0)
(0.03403808079679817 0 0)
(0.04389269585904711 0 0)
(0.05346378299225399 0 0)
(0.06349992592551455 0 0)
(0.07220549887361842 0 0)
(0.08027178234505401 0 0)
(0.08962455952436664 0 0)
(0.09697138598323424 0 0)
(0.1036519930039951 0 0)
(0.110498041763975 0 0)
(0.1153777631759197 0 0)
(0.11638426003933 0 0)
(0.1157328074211542 0 0)
(0.1113295784844425 0 0)
(0.1055515428057077 0 0)
(0.09674905722292498 0 0)
(0.08647548325960447 0 0)
(0.07319371935164858 0 0)
(0.064145477875777 0 0)
(0.05007390656444326 0 0)
(0.0399654292533778 0 0)
(0.0301123882223651 0 0)
(0.01903415105833534 0 0)
(0.01313164159989414 0 0)
(0.006812964652210012 0 0)
(-0.0007607691423040097 0 0)
(-0.006169356633173526 0 0)
(-0.012010493090591 0 0)
(-0.01915006681011201 0 0)
(-0.02517481435020744 0 0)
(-0.03216360317555347 0 0)
(-0.0391463563043425 0 0)
(-0.04621709462712046 0 0)
(-0.04954222655592262 0 0)
(-0.05257684595437966 0 0)
(-0.05140091241718816 0 0)
(-0.05159386474244301 0 0)
(-0.0465755969461026 0 0)
(-0.03965501455617645 0 0)
(-0.0330011518172882 0 0)
(-0.02407807707554867 0 0)
(-0.01510614340253162 0 0)
(-0.005216417067691385 0 0)
(0.007221588075567585 0 0)
(0.0166494919038565 0 0)
(0.02713767490146559 0 0)
(0.0397284985792031 0 0)
(0.05027573658759461 0 0)
(0.05708826940717054 0 0)
(0.06945228990678814 0 0)
(0.07707584885127113 0 0)
(0.08973643889009988 0 0)
)
;

boundaryField
{
    inlet
    {
        type            zeroGradient;
    }
    outlet
    {
        type            pressureInletOutletVelocity;
        value           uniform (0.08973643889009988 0 0);
    }
    frontAndBack
    {
        type            empty;
    }
}


// ************************************************************************* //
