/*--------------------------------*- C++ -*----------------------------------*\
| =========                 |                                                 |
| \\      /  F ield         | OpenFOAM: The Open Source CFD Toolbox           |
|  \\    /   O peration     | Version:  v2012                                 |
|   \\  /    A nd           | Website:  www.openfoam.com                      |
|    \\/     M anipulation  |                                                 |
\*---------------------------------------------------------------------------*/
FoamFile
{
    version     2.0;
    format      ascii;
    class       volScalarField;
    location    "0.02";
    object      p;
}
// * * * * * * * * * * * * * * * * * * * * * * * * * * * * * * * * * * * * * //

dimensions      [1 -1 -2 0 0 0 0];


internalField   nonuniform List<scalar> 
1000
(
101310.0460102563
101308.5740277823
101298.7775722085
101290.1867800588
101281.4431910233
101273.3287411498
101266.3355738139
101260.9917535265
101257.0274279963
101253.9046115506
101252.1966237677
101252.0319538751
101253.0582655315
101255.1926157922
101258.5725571222
101263.167630768
101268.8274343255
101275.3665111037
101282.6313354693
101290.4974408391
101298.8335473776
101307.4879985374
101316.3061673153
101325.1480022148
101333.9093083847
101342.5274544793
101350.8831832907
101358.8424507653
101366.399064885
101373.0694366272
101378.1485324747
101382.487058892
101385.8783419628
101388.2416923515
101389.3534339346
101389.1687274208
101387.9490216393
101385.5129111441
101381.7160711726
101376.5547896571
101370.1410562418
101362.6343976476
101354.213845896
101345.0733880071
101335.4106595841
101325.4172826019
101315.2716254036
101305.1192966754
101295.0971959543
101285.3905579618
101276.1617557598
101267.5995558279
101260.3243060909
101254.9205857642
101250.9256272679
101247.7396093892
101245.745814506
101245.0409661496
101245.5387162177
101246.9511622589
101249.5195764206
101253.364648027
101258.4686537239
101264.6932846428
101271.8440207421
101279.714110303
101288.0996541957
101296.8130297498
101305.697069047
101314.6238058032
101323.497108223
101332.2570340156
101340.7825534594
101348.8903143214
101356.5426936444
101363.3658490994
101368.5987512279
101372.9436573788
101376.4816529996
101379.0312053127
101380.483735036
101380.7873839876
101380.0044153714
101378.1908836602
101375.1193307109
101370.6972010927
101364.9413911331
101357.9586954944
101349.9098747328
101340.9924493192
101331.4259417962
101321.4320462455
101311.2173964564
101300.9500612263
101290.7718215866
101280.8722255122
101271.4491317673
101262.6857998046
101255.1206217321
101249.4336403807
101245.3284062839
101241.9851982152
101239.6872827678
101238.6264250744
101238.7627844632
101239.7568985269
101241.7709468668
101244.9689245527
101249.4170666551
101255.0646406208
101261.7834600206
101269.400495196
101277.7116749149
101286.497272805
101295.5451813213
101304.6720887515
101313.7413562809
101322.6709571427
101331.3551058844
101339.6102158643
101347.3528024563
101354.3391545649
101359.8781084365
101364.2290140648
101367.8938298706
101370.6002661602
101372.3623779828
101373.0246272378
101372.5547575121
101371.1835125548
101368.6760698943
101364.89359584
101359.7971475389
101353.4341747489
101345.9075107004
101337.370535324
101328.0250007968
101318.1006153669
101307.8304266239
101297.422277493
101287.0493703626
101276.9159373477
101267.2588313177
101258.2658619701
101250.3451568873
101244.2417964046
101239.9586681625
101236.4214041986
101233.8744461555
101232.4800332016
101232.1999627412
101232.8570001513
101234.407299108
101237.056322441
101240.9091663902
101245.9725011288
101252.1695899713
101259.3745488853
101267.4237343325
101276.1153742617
101285.2229731187
101294.5250657581
101303.8321535646
101313.0068324913
101321.9286588888
101330.4063545343
101338.289187392
101345.4546124226
101351.3539192298
101355.7259172684
101359.4848002793
101362.3556101396
101364.3471200247
101365.2828659067
101365.1315991431
101364.1193036118
101362.0959418843
101358.9018863029
101354.4527264191
101348.7472755896
101341.8423564369
101333.8477796448
101324.9275538697
101315.2858769012
101305.1497939036
101294.7485568095
101284.2864095411
101273.9789603472
101264.1031604585
101254.8925635816
101246.6479896316
101240.100994582
101235.5623456509
101231.9033008511
101229.151536495
101227.4105477563
101226.7590394086
101227.1329116119
101228.2899670602
101230.4529080561
101233.7611558904
101238.2569233688
101243.9015473591
101250.6123544918
101258.2699557951
101266.7056456479
101275.7070003632
101285.0479684801
101294.5127310324
101303.9183167433
101313.1161699855
101321.8991442806
101330.0552837512
101337.4978016616
101343.7684136427
101348.3677175734
101352.2126138405
101355.2808138216
101357.4693002157
101358.6745380963
101358.8770890086
101358.175235809
101356.5842935078
101353.9133377033
101350.0506902215
101344.9553272586
101338.6527219824
101331.2178081216
101322.7732367358
101313.4882765981
101303.569948394
101293.2478064098
101282.7426077046
101272.2763249697
101262.1464290226
101252.6463895589
101244.0310886413
101236.9544387905
101231.9829792123
101228.201863163
101225.2062606753
101223.1527670565
101222.1771808253
101222.2231018984
101223.0424977208
101224.7705366323
101227.5673407408
101231.5134754027
101236.6051449975
101242.7915262252
101249.9863152712
101258.0548314195
101266.8151817447
101276.0584194658
101285.5642754873
101295.1231599249
101304.5591548462
101313.655771256
101322.152929395
101329.9216885078
101336.6064020424
101341.6096786305
101345.5499632279
101348.8148231875
101351.2038620524
101352.7290924418
101353.2743322974
101352.841182187
101351.6308409885
101349.4332291122
101346.1154043695
101341.6138650905
101335.9239870075
101329.080659798
101321.1645721605
101312.3123374569
101302.7082847745
101292.5690425914
101282.1182321847
101271.5784701305
101261.2434103278
101251.4508864626
101242.4731646739
101234.8513140322
101229.2932895135
101225.3958775163
101222.1455813531
101219.8658808846
101218.5831948677
101218.2787243325
101218.8279956604
101220.1738961089
101222.5205303422
101225.9689473002
101230.5441058779
101236.2185934144
101242.9317413379
101250.5835067576
101259.0270221013
101268.0750551175
101277.514495547
101287.1278487
101296.7211372652
101306.0816144334
101314.9243577989
101323.0396008117
101330.1769365821
101335.755543632
101339.8185294813
101343.2924089793
101345.9185370641
101347.7316604991
101348.5849650975
101348.4734199011
101347.6071768166
101345.8557409676
101343.0670537013
101339.1442972719
101334.0539233259
101327.8065656433
101320.4561524226
101312.1066540584
101302.9080732488
101293.050657524
101282.7522086775
101272.2339371674
101261.7644336404
101251.7064990654
101242.3899773051
101234.2283458007
101228.0014477257
101223.8074113899
101220.3530708313
101217.8141130623
101216.1971664491
101215.5691830141
101215.8691323088
101216.885224811
101218.8145633814
101221.7908234614
101225.8648488916
101231.0265625747
101237.2371689834
101244.429876551
101252.4920447752
101261.2599705129
101270.5357163643
101280.1071308581
101289.7724192974
101299.328394455
101308.4866386006
101316.9672041356
101324.5810973906
101330.7777814557
101335.1655556019
101338.8294575906
101341.7168721205
101343.7620405231
101344.9133657068
101345.1516394144
101344.566462915
101343.1989947967
101340.8630624832
101337.447056052
101332.895605539
101327.2013376998
101320.3911040152
101312.5323670182
101303.743168238
101294.1910348672
101284.0815384954
101273.6301857908
101263.0813428392
101252.7942620132
101243.1458992936
101234.4756094974
101227.5315060571
101222.838026581
101219.1964157739
101216.3700704626
101214.4447809228
101213.520460515
101213.5309025737
101214.2616830044
101215.8296686345
101218.3799750204
101221.9877312912
101226.662518086
101232.3853132922
101239.1133257584
101246.7586991967
101255.1835058055
101264.216638302
101273.663696597
101283.3207095147
101292.9882864311
101302.3975494318
101311.2301597534
101319.2777641923
101326.0770497741
101331.0268503097
101334.8724437343
101338.035154971
101340.3437801242
101341.835836475
101342.4051569396
101342.0693985258
101341.0264138391
101339.0919850915
101336.1352572058
101332.0844188199
101326.9129400129
101320.621134402
101313.2477950133
101304.886052015
101295.6791475417
101285.8108402145
101275.4881148102
101264.938062994
101254.486819289
101244.5330453713
101235.4198404088
101227.7897002388
101222.3727232921
101218.5435388968
101215.3983114128
101213.2015285829
101211.9554581313
101211.6419197196
101212.1413223696
101213.3756064644
101215.5313572802
101218.7010290095
101222.9160162583
101228.1704926325
101234.4348228798
101241.6452256535
101249.6950177499
101258.4383065978
101267.6960915199
101277.2694582664
101286.9632472276
101296.54075141
101305.6751000246
101314.096575594
101321.4695391748
101327.1496661753
101331.2001500169
101334.6458642124
101337.2432788721
101339.0333490827
101339.8971081278
101339.8547844894
101339.1000852831
101337.5309473888
101335.0047827124
101331.4226674395
101326.7384231142
101320.9415436215
101314.0556350952
101306.1471658014
101297.3273037798
101287.7532186241
101277.6209119333
101267.1440658453
101256.604253439
101246.4009516827
101236.9174742063
101228.6447371707
101222.4121757759
101218.2542077845
101214.8289106512
101212.3304538139
101210.7377758449
101210.1078233164
101210.3737742035
101211.3164995672
101213.1083410231
101215.8700409333
101219.6522503942
101224.4560555308
101230.26254967
101237.0329811226
101244.6901128223
101253.1085293481
101262.1246726949
101271.5518994928
101281.2014610772
101290.865845346
101300.2338563581
101308.9820389508
101316.8615936245
101323.258069424
101327.7473879072
101331.4218576234
101334.3244795426
101336.3736797352
101337.5570192379
101337.851635251
101337.3400641427
101336.1053912509
101333.9660075188
101330.815756996
101326.597591285
101321.2913399622
101314.8990252165
101307.4544419674
101299.0411269989
101289.7971267564
101279.9048431689
101269.5648695694
101259.0202691822
101248.6475931032
101238.8573880421
101230.0402776866
101223.0027995664
101218.2729552116
101214.6229826783
101211.7988614864
101209.8813051578
101208.9519755761
101208.9318463464
101209.6111409515
101211.0800046891
101213.4656044845
101216.8380212486
101221.2128631939
101226.5843277332
101232.929578954
101240.1874537608
101248.2515834425
101256.9834397923
101266.2172190549
101275.7676120867
101285.4408189492
101294.9637330944
101303.9959288464
101312.2802626212
101319.3171465996
101324.4716889321
101328.3438048292
101331.5544277639
101333.8949764846
101335.4203485343
101336.0311676802
101335.7574296669
101334.8129714902
101333.0341609151
101330.2966006846
101326.5275276466
101321.691280156
101315.7717248015
101308.7854608854
101300.7987156613
101291.9245013497
101282.3181418122
101272.1679325181
101261.6926268335
101251.2198776055
101241.1681134549
101231.9191827785
101224.1532373394
101218.6219978268
101214.7580876495
101211.5773582837
101209.3633242796
101208.0946451099
101207.7551712923
101208.2233194134
101209.3897718332
101211.4233755776
101214.4085638193
101218.3777238478
101223.3322362028
101229.2554487784
101236.1041385797
101243.7988377599
101252.2230535245
101261.224792171
101270.6258174082
101280.2438377273
101289.8498442812
101299.11012906
101307.7199688578
101315.3306699592
101321.2672704985
101325.4245823528
101328.9371257398
101331.5977235064
101333.4311807486
101334.3368648421
101334.3533131538
101333.6686613702
101332.2078752428
101329.8417516292
101326.4749272921
101322.0571504153
101316.5687082259
101310.0167713856
101302.4443583085
101293.9364392572
101284.6258945078
101274.689704343
101264.3287666709
101253.8189944202
101243.5669656991
101233.9753416422
101225.5612096561
101219.1857727653
101214.929090421
101211.4608052539
101208.9279261091
101207.3081726741
101206.6548282249
101206.8972724249
101207.796075027
101209.5032217682
101212.1280238225
101215.7180562348
101220.2767601683
101225.7936317177
101232.2455581165
101239.5760994619
101247.6830074149
101256.4276171004
101265.6469634233
101275.1681715648
101284.7932066851
101294.215696532
101303.1007243472
101311.1748183326
101317.8128491955
101322.5032775689
101326.2413886042
101329.2245415714
101331.3322048855
101332.5693988759
101332.912725792
101332.4480713013
101331.292853463
101329.2754839018
101326.2952482597
101322.2975292264
101317.2577888717
101311.1640237629
101304.0292725849
101295.9159567341
101286.9417043112
101277.2685907695
101267.0815350743
101256.6140655445
101246.2403857693
101236.3797612887
101227.4433990866
101220.2593793859
101215.3874275895
101211.6774196964
101208.7996130073
101206.849276231
101205.8978760183
101205.8581719052
101206.5137894889
101207.9309450886
101210.2197876838
101213.4453494738
101217.6254615913
101222.7591063297
101228.8319222387
101235.7974861347
101243.5702985416
101252.0354094549
101261.0489739447
101270.4415737925
101280.0304182124
101289.5552353261
101298.6755196862
101307.1100692586
101314.3673994404
101319.7936310424
101323.7426243865
101327.0594421416
101329.4696528138
101331.0496890784
101331.7048879763
101331.4691626188
101330.5723914381
101328.8733181917
101326.2549045851
101322.6443883435
101318.0033783141
101312.3112556206
101305.575554968
101297.846633248
101289.2161975831
101279.8183564167
101269.8264639833
101259.4489197339
101249.0063227211
101238.9186308042
101229.5782891519
101221.6820258991
101215.9939663341
101212.0516147809
101208.7981110412
101206.5461407282
101205.2533888733
101204.9004422926
101205.362603387
101206.5039728065
101208.475622993
101211.3550847656
101215.1757307209
101219.9405596457
101225.6367473335
101232.2324936115
101239.6664462882
101247.8414014343
101256.6237057886
101265.8518041478
101275.3566508519
101284.9223283267
101294.2198576427
101302.9359325454
101310.7292107868
101316.9005918193
101321.2332866017
101324.8243152028
101327.5676999362
101329.4590679156
101330.4061448011
101330.4586215326
101329.8053654206
101328.3919430773
101326.1024663759
101322.8466825318
101318.5762969863
101313.2716168037
101306.9324778543
101299.5857718387
101291.2974595265
101282.1837209092
101272.4078876845
101262.1589432539
101251.70354453
101241.4463416565
101231.7887057063
101223.2537491941
101216.7273681335
101212.3321252249
101208.7892012922
101206.2093637039
101204.5620567528
101203.8919434694
101204.1337529732
101205.0267070519
101206.7015155299
101209.2522001315
101212.7238384956
101217.1262342884
101222.4575357557
101228.6998895786
101235.8021413622
101243.6783331579
101252.2177357562
101261.2821025191
101270.706146122
101280.3119118798
101289.8528863863
101299.0020580718
101307.4847472341
101314.8593059152
101320.4912872696
101324.5599439585
101327.9696068549
101330.4908641693
101332.1893059441
101332.9702225569
101332.8529483919
101332.0791152915
101330.5789632823
101328.258378002
101325.0423974272
101320.8946221911
101315.8074939415
101309.7913534268
101302.8793631922
101295.1430209543
101286.7005454164
101277.7092940983
101268.3448425307
101258.8301014061
101249.4931355888
101240.655385758
101232.6686801818
101226.2031840274
101221.5438116562
101217.8607029881
101214.9596543102
101212.9653232047
101211.8242931349
101211.5345700657
101212.0193782163
101213.1118745521
101214.8871362749
101217.3890613402
101220.6644328915
101224.7357545205
101229.593671501
101235.2046116952
101241.517926964
101248.4623842166
101255.9359055549
101263.807823076
101271.9389740688
101280.1560461225
101288.2144143023
101295.8920629135
101302.9282408963
101308.788252601
101313.2272527412
101316.8459425144
101319.7511362761
101321.7924011625
101322.9777484546
101323.2802957037
101322.753021921
101321.5674955123
101319.6288646399
101316.8687960903
101313.2184240913
101308.6486185443
101303.175156554
101296.84066432
101289.7084715897
101281.879644167
101273.5003857838
101264.7417385127
101255.8334382667
101247.0861913178
101238.7826976251
101231.325203255
101225.3589967046
101221.0012749146
101217.4832169485
101214.8045687451
101212.9957541858
101212.1186482751
101212.1438179541
101212.8459907133
101214.2199221021
101216.3037490687
101219.1525570135
101222.8075098194
101227.2803887669
101232.5569209354
101238.5981014592
101245.3346294322
101252.6677171733
101260.4743366389
101268.6162392335
101276.9297602131
101285.178438162
101293.1145523971
101300.5140199979
101306.9052386386
101311.874269197
101315.7044882789
101318.9034423853
101321.1999556373
101322.6858328215
101323.2735990443
101322.945498191
101321.9728988639
101320.2699731848
101317.7740588748
101314.4238448882
101310.1850978511
101305.0536188414
101299.050680274
101292.2285827708
101284.6783619131
101276.52811567
101267.9296451176
101259.0785986905
101250.2652879919
101241.7820727293
101233.9394897135
101227.3705330865
101222.4448607291
101218.6571119011
101215.6126487398
101213.5321522096
101212.3515943366
101212.0535256834
101212.5762306531
101213.7314563374
101215.5816510655
101218.1574734131
101221.5067465861
101225.6621281475
101230.6231934002
101236.3561958185
101242.8030845739
101249.8878518154
101257.5061281831
101265.5200905878
101273.773171858
101282.0555953719
101290.1085650239
101297.715415396
101304.5250277932
101310.0152680656
101314.1660011849
101317.612825919
101320.2495301644
101322.0569974665
101322.9485687118
101322.9266368548
101322.1854415799
101320.7283937127
101318.5101611815
101315.4713766109
101311.5629841421
101306.7662921278
101301.0982347782
101294.6049550815
101287.3537985042
101279.4439030472
101271.0160978756
101262.2465850436
101253.3925996069
101244.7608250688
101236.6282114221
101229.5126349523
101223.9790435111
101219.8516872371
101216.4837204854
101214.0864710276
101212.557906402
101211.9504442529
101212.2798594507
101213.2423752722
101214.884120236
101217.2228098327
101220.2989272181
101224.1472237862
101228.7769999038
101234.1743175099
101240.3083789907
101247.1222533453
101254.5201497515
101262.3720960152
101270.535122734
101278.8248721115
101286.9791718035
101294.7675781058
101301.9244655225
101307.9198059759
101312.5031424509
101316.1652196622
101319.1124376081
101321.1650281203
101322.3744643242
101322.7151174334
101322.2113541498
101321.036351516
101319.0944593683
101316.3376115365
101312.7269518414
101308.2581152146
101302.9543642253
101296.8437098759
101289.959906645
101282.3685892774
101274.1820204694
101265.5459364612
101256.6850698189
101247.9273530311
101239.5559287883
101231.9667534708
101225.8270717445
101221.2679621403
101217.6258221622
101214.8595311467
101213.0079480399
101212.0979053227
101212.1025236495
101212.8449902072
101214.2970092042
101216.45592049
101219.3287126159
101222.9277048029
101227.2579233616
101232.3150719495
101238.0868275295
101244.5604385914
101251.6555381159
101259.4434469835
101267.100922743
101278.0544056866
)
;

boundaryField
{
    inlet
    {
        type            uniformFixedValue;
        uniformValue    sine;
        uniformValueCoeffs
        {
            frequency       constant 3000;
            scale           constant 50;
            level           constant 101325;
        }
        value           uniform 101323.6440830864;
    }
    outlet
    {
        type            waveTransmissive;
        gamma           1.4;
        fieldInf        101325;
        lInf            2.25;
        value           uniform 101280.0387537094;
    }
    frontAndBack
    {
        type            empty;
    }
}


// ************************************************************************* //
