/*--------------------------------*- C++ -*----------------------------------*\
| =========                 |                                                 |
| \\      /  F ield         | OpenFOAM: The Open Source CFD Toolbox           |
|  \\    /   O peration     | Version:  v2012                                 |
|   \\  /    A nd           | Website:  www.openfoam.com                      |
|    \\/     M anipulation  |                                                 |
\*---------------------------------------------------------------------------*/
FoamFile
{
    version     2.0;
    format      ascii;
    class       volScalarField;
    location    "0.02";
    object      pMean;
}
// * * * * * * * * * * * * * * * * * * * * * * * * * * * * * * * * * * * * * //

dimensions      [1 -1 -2 0 0 0 0];


internalField   nonuniform List<scalar> 
1000
(
101324.9919171668
101324.9810319212
101324.9516318274
101324.9652500083
101324.9541932846
101324.9517132115
101324.9461565816
101324.9438330964
101324.9411986716
101324.939175289
101324.9366186287
101324.9332599527
101324.9282934458
101324.9232237522
101324.9123517392
101324.9018165413
101324.8881808894
101324.8720501431
101324.8528250602
101324.8306495602
101324.8052348408
101324.7770630644
101324.7460303751
101324.7143392085
101324.6789062723
101324.6437253006
101324.6057987344
101324.5655579554
101324.5231347056
101324.4806101268
101324.43793255
101324.3956630073
101324.3539672171
101324.3124286501
101324.2724540278
101324.2323305018
101324.1961530619
101324.1566112243
101324.1212165828
101324.0876313104
101324.0561979511
101324.0270531592
101324.0002326807
101323.9757579087
101323.953805862
101323.9342216182
101323.918567922
101323.9052075596
101323.8945752664
101323.8871592998
101323.8798376279
101323.8732857908
101323.8688920532
101323.8656243736
101323.8629543033
101323.86052394
101323.8575766096
101323.8545577731
101323.8493563926
101323.8454132291
101323.8353861861
101323.8250422053
101323.8128082422
101323.7977745024
101323.7799830706
101323.7590851825
101323.7350653535
101323.7079980763
101323.6779714156
101323.6461552005
101323.6129077183
101323.5766928837
101323.5411676389
101323.5014433859
101323.459359682
101323.4168449912
101323.374131515
101323.3318289972
101323.2899087153
101323.2486065377
101323.208158499
101323.1682385729
101323.1310918855
101323.0923880482
101323.0554712126
101323.0212098243
101322.9885200808
101322.9582454469
101322.9301282641
101322.9043961664
101322.8810527406
101322.860294358
101322.842350768
101322.8287223387
101322.8157629913
101322.8089612385
101322.8010944866
101322.7941149785
101322.7888859143
101322.7850819727
101322.7819798052
101322.7790347447
101322.7760832732
101322.7724447676
101322.7679443927
101322.7628470682
101322.7551133359
101322.7442938094
101322.73269658
101322.718349113
101322.7015792854
101322.6818102928
101322.6589112032
101322.6328833898
101322.6039471936
101322.572081931
101322.5397953458
101322.5031888906
101322.469097484
101322.4299923496
101322.3885634473
101322.345756125
101322.3028308095
101322.2601925254
101322.2179216284
101322.17638484
101322.1352110962
101322.0954374578
101322.0565548277
101322.0192233118
101321.9807888526
101321.9454363456
101321.911593462
101321.8800726263
101321.8506473253
101321.8234811929
101321.7987080281
101321.7765348286
101321.7566370415
101321.741407326
101321.7270767585
101321.7191287039
101321.711378522
101321.7041048614
101321.6979555706
101321.6935931717
101321.6899889808
101321.6867280507
101321.6834707186
101321.6795550314
101321.6753854523
101321.6694973539
101321.6636024543
101321.6528177018
101321.6413497631
101321.6277183578
101321.6117597802
101321.5930721247
101321.5713048106
101321.5464918339
101321.5186441638
101321.4876161387
101321.4553359724
101321.4201370695
101321.3851907915
101321.348391256
101321.3074692298
101321.2647274907
101321.2216382481
101321.1786905087
101321.1361955345
101321.0941859788
101321.0526847535
101321.0124742424
101320.9725914679
101320.9357950204
101320.8968466738
101320.8600631859
101320.8252515245
101320.7925080153
101320.76189042
101320.7334443135
101320.7072978619
101320.6836663817
101320.6623896734
101320.6447086544
101320.6300009887
101320.619059055
101320.6123584951
101320.6045393102
101320.5977412598
101320.5926905942
101320.5886490147
101320.5850979049
101320.581505539
101320.5776051344
101320.5732725279
101320.5674087255
101320.5621830973
101320.5525813735
101320.541002
101320.5279494628
101320.5127041373
101320.4950332984
101320.4744448402
101320.4508204463
101320.4241422197
101320.3944320753
101320.3622294693
101320.3283971109
101320.292552361
101320.2580452999
101320.2180793362
101320.1757863171
101320.13261856
101320.0894987697
101320.0468139336
101320.0045492998
101319.9629344412
101319.922079292
101319.8820812709
101319.844372985
101319.8063044281
101319.7685591198
101319.7328893222
101319.6992528266
101319.6676998067
101319.6383024976
101319.6110088432
101319.5861524259
101319.5638346682
101319.5441345998
101319.5283654712
101319.514847942
101319.5083425948
101319.5004966371
101319.4933366107
101319.4876241777
101319.4831989214
101319.4793821339
101319.4756558554
101319.4718082069
101319.4671978952
101319.4619193579
101319.4559504849
101319.4482816136
101319.4370863167
101319.4245142735
101319.4100532589
101319.3933558468
101319.3739606782
101319.3515944274
101319.3262055871
101319.2979228685
101319.2664428942
101319.2336334607
101319.1974870675
101319.1641545231
101319.1260609989
101319.0846635916
101319.0417282699
101318.9985866896
101318.9557915868
101318.913467176
101318.8717505122
101318.8304851888
101318.7904997537
101318.7516420394
101318.7144161222
101318.6764207723
101318.6400825538
101318.605839483
101318.5735634699
101318.5434305302
101318.5153279935
101318.4895519094
101318.466286596
101318.4452527408
101318.4282225747
101318.412646494
101318.4046621069
101318.3978464152
101318.3903896054
101318.38434849
101318.3796018113
101318.37558975
101318.3718709796
101318.3680867151
101318.3635153487
101318.3586718109
101318.3523294898
101318.3460099326
101318.3358660663
101318.3237044041
101318.3100239334
101318.2942284811
101318.2759792155
101318.2549343865
101318.2309021595
101318.203973719
101318.1738144521
101318.1417670736
101318.1063781946
101318.0721544279
101318.0375620765
101317.9967568739
101317.9546348242
101317.9116037421
101317.868751097
101317.8264145334
101317.7846208069
101317.7432751841
101317.7031605045
101317.663612574
101317.6267981323
101317.5893917291
101317.5524103018
101317.5175110653
101317.4846907991
101317.4539650131
101317.4253204523
101317.3988186442
101317.3747007225
101317.3529995008
101317.3343332199
101317.3182516754
101317.3064238859
101317.3020062991
101317.2937915036
101317.2877822965
101317.2827665812
101317.2786686454
101317.2749690812
101317.2713186776
101317.2671704455
101317.262530656
101317.2564650963
101317.2508180898
101317.2426507974
101317.2309758142
101317.2176843732
101317.202897609
101317.185782107
101317.1661668799
101317.1435546147
101317.1180564947
101317.0896166965
101317.0584166877
101317.0247175938
101316.9887823848
101316.9576718206
101316.9181946692
101316.8771883819
101316.8346719816
101316.7919640287
101316.749769403
101316.7080737902
101316.6670377943
101316.6266522586
101316.5872628082
101316.5497674983
101316.5139792269
101316.4769332948
101316.4411835666
101316.4081135956
101316.3770049402
101316.3479961001
101316.3210892243
101316.2963423751
101316.2741612304
101316.2543245218
101316.2377861345
101316.2225935605
101316.2187380871
101316.211161135
101316.2049977867
101316.1999476183
101316.1958505719
101316.1922075382
101316.1888186767
101316.1851696498
101316.1806939619
101316.1755118917
101316.1693868386
101316.1631865835
101316.1528835421
101316.1400487254
101316.126350789
101316.1103982658
101316.0921334591
101316.071096346
101316.047090156
101316.0203220275
101315.9903652432
101315.9584026667
101315.9219637099
101315.8914711735
101315.8553333292
101315.8153035349
101315.7738096251
101315.7315492368
101315.689562567
101315.6481147287
101315.6073996206
101315.5670107218
101315.527940114
101315.4897483266
101315.4542192247
101315.4181632177
101315.3822527475
101315.349051334
101315.3176761527
101315.2883962014
101315.261244501
101315.2360489684
101315.2133559941
101315.1927561353
101315.1755607699
101315.1590052193
101315.1514308754
101315.1468120331
101315.1398742527
101315.1349869619
101315.130903756
101315.1272975809
101315.1240039202
101315.12075207
101315.1166121693
101315.1120976727
101315.1060015324
101315.1002960677
101315.0918777514
101315.0799779223
101315.0670340831
101315.0521569289
101315.035072114
101315.0154871381
101314.9929856365
101314.9676603181
101314.939281608
101314.9085040556
101314.8740090432
101314.8399284724
101314.8097024243
101314.7699349372
101314.7298220921
101314.6882288994
101314.6465193721
101314.6052122072
101314.5647279265
101314.524575532
101314.4856168265
101314.4472231025
101314.4114177363
101314.3765367136
101314.3408487024
101314.306957701
101314.2753946228
101314.2457837188
101314.2183388854
101314.192889706
101314.1695771099
101314.1485850916
101314.1301735481
101314.1141509168
101314.1003778007
101314.0998918889
101314.0916909474
101314.0869025649
101314.0828591901
101314.0793509289
101314.0761008128
101314.0730746058
101314.0694964766
101314.0653612834
101314.0599132797
101314.0541424056
101314.0479959177
101314.0373693419
101314.0244378897
101314.0106250741
101313.9946258148
101313.9763329988
101313.955409407
101313.93142651
101313.9047103938
101313.8749649368
101313.8428369796
101313.8060101937
101313.7797468467
101313.7415593867
101313.7024677796
101313.6618170573
101313.6205580614
101313.5795009781
101313.5391307885
101313.4994000175
101313.4603427083
101313.4223686141
101313.385487149
101313.3523354202
101313.3172630076
101313.2821388043
101313.2505104462
101313.2206194419
101313.1928757339
101313.1672572465
101313.1434935744
101313.1221181852
101313.1027233524
101313.0867014802
101313.0699566845
101313.0683952553
101313.0618097267
101313.0563177956
101313.0523861865
101313.0490494427
101313.0459133659
101313.0429647272
101313.0399636151
101313.0360615379
101313.0315667718
101313.0255058274
101313.0205871691
101313.0118219651
101312.9991992536
101312.9864477111
101312.9715152433
101312.9544039022
101312.9349108539
101312.9124574135
101312.88719699
101312.8587096541
101312.8282552128
101312.7926660708
101312.7634890786
101312.7307065524
101312.6920906669
101312.6526566599
101312.6121241913
101312.5714382312
101312.5311818158
101312.4917884674
101312.4527653378
101312.4150715809
101312.3779601706
101312.3438395
101312.3102234081
101312.2752655426
101312.243316432
101312.2132397899
101312.185229503
101312.1593538436
101312.135472036
101312.1135821269
101312.0937427963
101312.0766815913
101312.0611202538
101312.0515755531
101312.0505684685
101312.0435705522
101312.039827222
101312.0367351175
101312.0338237092
101312.0309743229
101312.0282794638
101312.024889278
101312.0210167437
101312.0157317838
101312.0101934486
101312.0038163586
101311.9927365037
101311.9801857701
101311.9664130281
101311.9504021426
101311.9321686368
101311.9113238513
101311.887446181
101311.8606223829
101311.8308807483
101311.799019269
101311.7631158165
101311.7385570807
101311.699498977
101311.6615312553
101311.6219115594
101311.5818342994
101311.5418353533
101311.502563056
101311.463884255
101311.4262680749
101311.3895816643
101311.3542992544
101311.322046669
101311.288213862
101311.2548787931
101311.2248649869
101311.1964830925
101311.1703337783
101311.1463012398
101311.1240638698
101311.1039129764
101311.0856907762
101311.0709806411
101311.055093717
101311.0578980569
101311.0500225897
101311.0459143064
101311.0428738158
101311.0402738959
101311.0375310796
101311.0349107564
101311.0319614916
101311.0284791252
101311.0240440591
101311.0182218905
101311.0136546754
101311.0046461973
101310.9915042138
101310.9789117222
101310.9637780257
101310.9466658002
101310.9271528222
101310.9047647744
101310.8793727641
101310.8506617407
101310.8204805735
101310.7839772679
101310.7597466921
101310.7243056881
101310.6866356564
101310.6479480417
101310.6085798709
101310.56893759
101310.5297216315
101310.491173966
101310.4535232068
101310.417038377
101310.3812305061
101310.3490603297
101310.3164533324
101310.2821439401
101310.252033339
101310.2233423982
101310.1968259044
101310.1725035716
101310.1501763546
101310.1296489208
101310.110779246
101310.0953219413
101310.0796461566
101310.075992618
101310.0729848913
101310.0673451886
101310.0644082299
101310.0621383631
101310.0597145694
101310.05720214
101310.0544559244
101310.0513753313
101310.0475710548
101310.0423918242
101310.0373567156
101310.0305993578
101310.0186381341
101310.0065413383
101309.9925813708
101309.9764197991
101309.9580887026
101309.9372505999
101309.9132607534
101309.8860043445
101309.8563839372
101309.8237028748
101309.7914441943
101309.7650145384
101309.7265514785
101309.68916241
101309.6505041735
101309.6115332704
101309.5724799245
101309.5339257684
101309.4963151906
101309.4597945093
101309.4245224142
101309.3905907923
101309.359444066
101309.3261504159
101309.2945331578
101309.2659302769
101309.2389101001
101309.2141921882
101309.1916451949
101309.1709262624
101309.1518140137
101309.1346895616
101309.1213602267
101309.106969948
101309.1125771667
101309.1038145391
101309.101113621
101309.0987943604
101309.0968791625
101309.0944988761
101309.0918464098
101309.0888683542
101309.0855237181
101309.0812983911
101309.0756418549
101309.0707436999
101309.0611937037
101309.0480717685
101309.0353933024
101309.0200612013
101309.0027014868
101308.9830514386
101308.9606231657
101308.9348551923
101308.9056293495
101308.8757599576
101308.8380433207
101308.8184786338
101308.7800111813
101308.7433128163
101308.7052541166
101308.6669952815
101308.628348328
101308.589853979
101308.5519271416
101308.5154250789
101308.4801565122
101308.4455927602
101308.4148651038
101308.3832361666
101308.3495449402
101308.3209779432
101308.2935243763
101308.2682844183
101308.2452950968
101308.2244778489
101308.2051224399
101308.1870655733
101308.173144267
101308.1571503241
101308.1596019671
101308.1541321941
101308.1496361842
101308.1472921726
101308.1456591188
101308.1437501306
101308.1413156076
101308.1381963492
101308.1351927761
101308.131373397
101308.1261731477
101308.121603176
101308.1142925306
101308.1011985811
101308.0894306438
101308.0750809708
101308.0585912066
101308.0399187252
101308.0188864486
101307.9946793128
101307.9666240029
101307.9370605783
101307.9029822744
101307.8750679892
101307.8457580893
101307.8075882932
101307.7701186881
101307.7317943337
101307.6931486253
101307.6541278927
101307.6149103879
101307.5771397743
101307.5402017237
101307.5048031443
101307.4708600463
101307.4386296476
101307.4037547351
101307.371905944
101307.3420730474
101307.313724715
101307.2872517791
101307.262835562
101307.2399431019
101307.2176731568
101307.1973751894
101307.1799173667
101307.1638342196
101307.1646009565
101307.1505049176
101307.1430466128
101307.1362180347
101307.1303285722
101307.1240677217
101307.1169379488
101307.110107941
101307.1031628137
101307.0963972205
101307.0880271117
101307.0806282496
101307.0683011609
101307.0540168616
101307.0403478462
101307.0246418944
101307.0074101161
101306.9886700359
101306.9680983814
101306.9444289751
101306.9178730802
101306.8922836194
101306.8575334123
101306.8475770376
101306.8108958728
101306.7803889261
101306.7477939987
101306.7149986017
101306.6814681166
101306.6469069225
101306.6126422563
101306.5793598957
101306.547611802
101306.5155079572
101306.4873844255
101306.4569784455
101306.4244228345
101306.3968726708
101306.3696758335
101306.3439399477
101306.3197042629
101306.2972314733
101306.2752650063
101306.2534028582
101306.2358934087
101306.2132911467
101306.2160751775
101306.2009187735
101306.1907030492
101306.1821392269
101306.1751731677
101306.1686592478
101306.1612628585
101306.1532801748
101306.1456885048
101306.1387155721
101306.1299244697
101306.1236504034
101306.1137318111
101306.0974933931
101306.0850827348
101306.0700014347
101306.0535731225
101306.0353382132
101306.0157916215
101305.9936704025
101305.9680153446
101305.9422107425
101305.9108810285
101305.8921160085
101305.8654745392
101305.8324759811
101305.8005543895
101305.7679605146
101305.7350835539
101305.7014052808
101305.6666304533
101305.6328347763
101305.600304983
101305.5686005913
101305.5392940696
101305.510028511
101305.4771459757
101305.4487631017
101305.4213720308
101305.3953196877
101305.3704479119
101305.3474253709
101305.3256050436
101305.3037744476
101305.2839816677
101305.2653775725
101305.2523325352
101305.2512574181
101305.2360206572
101305.2271447214
101305.2194013408
101305.2128565556
101305.2063365285
101305.1981817915
101305.1900584584
101305.1821208641
101305.1748170907
101305.1663186463
101305.1581317755
101305.1445997495
101305.1302712416
101305.116155733
101305.100198138
101305.0825006534
101305.0631491274
101305.0420190116
101305.0178156536
101304.99071808
101304.9647244018
101304.9287320675
101304.9231806088
101304.8828932824
101304.8524110375
101304.8194988788
101304.7869460671
101304.7542255826
101304.720139109
101304.6858253323
101304.6520220323
101304.6209948164
101304.5890694142
101304.5617777704
101304.5313688039
101304.4990760322
101304.4721413801
101304.4455103849
101304.4204347848
101304.3965656158
101304.3743712312
101304.3526050945
101304.3314309764
101304.3146182685
101304.2908831525
101304.2995826826
101304.2808845932
101304.2711729002
101304.2622670476
101304.2552405878
101304.2488851595
101304.2416887739
101304.2335313589
101304.2243264256
101304.2170830339
101304.2068397517
101304.2018982443
101304.1911564421
101304.1726866114
101304.1602481018
101304.1444801231
101304.1275641983
101304.1086917056
101304.0882322104
101304.0644236647
101304.0386623673
101304.01212765
101303.9794052407
101303.9635481507
101303.9353406278
101303.9012576138
101303.8689995565
101303.8363467851
101303.8038232578
101303.7707851835
101303.7371972394
101303.7028167037
101303.6703320807
101303.6378217978
101303.6104268802
101303.5816740052
101303.5478145731
101303.5203625246
101303.4932724644
101303.467677121
101303.4433785329
101303.4211058287
101303.3984260594
101303.3771509779
101303.3583911115
101303.339553238
101303.3279205095
101303.3313122975
101303.3118781425
101303.3036638301
101303.2957003174
101303.2890910199
101303.2821847875
101303.2745847706
101303.2663727091
101303.2576609244
101303.247687369
101303.2393561509
101303.2315367337
101303.2168697552
101303.2017335733
101303.1872939053
101303.1704519453
101303.1516952416
101303.1319060732
101303.1107983065
101303.0828955569
101303.0490835519
101303.0075058396
101302.9725449123
)
;

boundaryField
{
    inlet
    {
        type            calculated;
        value           uniform 101325.0000000002;
    }
    outlet
    {
        type            calculated;
        value           uniform 101302.9928768677;
    }
    frontAndBack
    {
        type            empty;
    }
}


// ************************************************************************* //
