/*--------------------------------*- C++ -*----------------------------------*\
| =========                 |                                                 |
| \\      /  F ield         | OpenFOAM: The Open Source CFD Toolbox           |
|  \\    /   O peration     | Version:  v2012                                 |
|   \\  /    A nd           | Website:  www.openfoam.com                      |
|    \\/     M anipulation  |                                                 |
\*---------------------------------------------------------------------------*/
FoamFile
{
    version     2.0;
    format      ascii;
    class       volScalarField;
    location    "0.02";
    object      rho;
}
// * * * * * * * * * * * * * * * * * * * * * * * * * * * * * * * * * * * * * //

dimensions      [1 -3 0 0 0 0 0];


internalField   nonuniform List<scalar> 
1000
(
1.176253903531111
1.176271881015404
1.176208848654681
1.176140415748345
1.17606692609274
1.175998896404924
1.175940542274962
1.175895406837889
1.175860891083959
1.175832658138684
1.175816451912424
1.175812798322747
1.175818600994421
1.175834519131899
1.175861434211298
1.175898610525051
1.175944773027653
1.175998454252231
1.176058410268049
1.176123600954685
1.17619289981918
1.176264987143796
1.176338506105199
1.176412225173344
1.176485230939383
1.176556981107476
1.176626481743625
1.176692621444844
1.176755350128855
1.176810667415187
1.176852746289628
1.176888658747461
1.176916705077679
1.176936223417856
1.176945389218313
1.176943802803016
1.176933620757391
1.176913383637621
1.176881883226826
1.176839076408614
1.176785891446405
1.176723652108114
1.176653842309835
1.176578069158885
1.176497969059618
1.176415127553082
1.176331020141042
1.176246851669163
1.176163756215618
1.17608326978592
1.17600673934713
1.175935731139627
1.175875391360656
1.17583057027047
1.17579743158607
1.175771001774381
1.175754460409591
1.175748610885862
1.175752735743271
1.175764447390407
1.175785748535445
1.17581763851885
1.175859969443208
1.175911593898293
1.175970898142526
1.176036166913343
1.176105708691346
1.176177967095493
1.176251638487046
1.176325661574697
1.176399239220179
1.176471874510822
1.176542564139036
1.176609788174954
1.176673235058635
1.176729805630991
1.176773190739389
1.176809213204732
1.176838545549929
1.176859682929257
1.176871725288101
1.176874242751293
1.176867751547874
1.176852716344359
1.176827251184318
1.17679058843941
1.176742867788392
1.176684974146219
1.176618239829794
1.176544301980901
1.17646498027376
1.176382112540884
1.176297411915351
1.176212271922932
1.176127868262762
1.176045772906605
1.175967626920108
1.175894950461888
1.175832209129288
1.175785043593755
1.175750995917705
1.175723267960628
1.175704209287283
1.175695410582216
1.1756965414454
1.17570478640719
1.175721490566917
1.17574801389653
1.175784905451632
1.175831744100884
1.175887466281238
1.175950636522718
1.176019561979808
1.176092420092404
1.176167451632677
1.176243136326186
1.176318341072412
1.17639238573204
1.176464393246833
1.176532841557842
1.176597038719301
1.17665496438372
1.176700888461807
1.176736961759171
1.176767346330823
1.17678978486699
1.176804394073218
1.176809884556206
1.176805988895461
1.176794620109861
1.176773831290543
1.176742471159583
1.17670021649435
1.176647460249193
1.176585054494429
1.1765142703777
1.176436780175236
1.17635448808924
1.176269326188348
1.176183017740178
1.176096998954348
1.176012963553981
1.175932875990831
1.175858294188099
1.175792603453088
1.175741983921474
1.175706460304869
1.175677122421421
1.175655997880802
1.175644432488891
1.175642109486922
1.175647558886555
1.175660417015074
1.17568238789793
1.175714342961665
1.175756337204723
1.175807733784195
1.175867488202423
1.175934242815781
1.176006323839491
1.176081852580922
1.176158992230803
1.176236171243461
1.176312250219183
1.176386230525395
1.176456526297108
1.176521887999651
1.17658129991179
1.176630212920629
1.176666461963848
1.176697627172757
1.176721429045112
1.176737940507022
1.176745698661922
1.176744444435108
1.176736051433079
1.176719275706077
1.176692793611336
1.176655905011791
1.17660859968442
1.176551348278581
1.176485060729111
1.176411096358541
1.176331147801104
1.176247097281181
1.176160845512295
1.17607408604125
1.175988606873425
1.175906704966558
1.175830317609528
1.175761940173142
1.175707640670333
1.175669997356518
1.175639649044351
1.175616825535295
1.175602385406139
1.175596981601005
1.175600082474287
1.175609679172981
1.17562761880743
1.175655057569228
1.175692345295249
1.175739160957864
1.175794818448102
1.17585832711924
1.175928287338662
1.176002936993944
1.17608040110401
1.176158889724463
1.176236885485545
1.176313156567804
1.176385985460729
1.176453614939081
1.176515325775968
1.176567318537642
1.176605453026579
1.17663733203564
1.176662770983564
1.176680915927847
1.176690908591148
1.176692587877495
1.176686768649185
1.176673577868953
1.176651432480117
1.176619406300774
1.176577158865661
1.176524900956527
1.176463253374002
1.176393232537647
1.176316241438091
1.176233996200835
1.176148399966308
1.176061283127864
1.175974486385443
1.175890476801803
1.175811688531921
1.175740235943934
1.175681543117003
1.175640309720552
1.175608948627773
1.17558410242832
1.175567070133253
1.175558978274729
1.175559359065193
1.175566155242685
1.175580487958946
1.175603685161857
1.175636414842503
1.175678645209969
1.175729954345288
1.175789626004749
1.1758565427103
1.175929195475316
1.176005851054369
1.176084682461455
1.176163951456409
1.176242199213386
1.176317630656916
1.176388089442199
1.17645250678599
1.176507934232345
1.176549419036687
1.176582089559264
1.176609159560034
1.176628967667705
1.176641613623625
1.176646134254027
1.176642542825559
1.176632507496018
1.176614286424503
1.176586777169135
1.176549452940048
1.176502275030737
1.176445532270725
1.176379893173138
1.176306489955391
1.176226850549436
1.176142770845899
1.176056104902708
1.175968698662326
1.175882987439824
1.175801773245294
1.175727314584596
1.175664099624079
1.175618000960923
1.175585675051261
1.175558716152268
1.175539807484831
1.175529168337211
1.175526642854548
1.175531198608235
1.175542361891347
1.175561825554638
1.175590427526747
1.175628374556085
1.175675438932887
1.175731117052575
1.175794578708444
1.175864605354297
1.175939643747842
1.176017926160462
1.176097648675578
1.176177202591882
1.176254823753383
1.17632814970753
1.176395441409017
1.176454622982058
1.176500878983629
1.176534567436301
1.176563370949792
1.176585145158833
1.176600178323998
1.17660725329431
1.176606328352394
1.176599145926692
1.176584624061566
1.176561501847379
1.176528976300318
1.176486768944444
1.176434967544387
1.176374018766767
1.176304784179362
1.176228507065326
1.176146764505817
1.176061362219051
1.175974134387212
1.175887308360543
1.175803893102867
1.175726624573335
1.175658932668299
1.175607286210503
1.175572499924602
1.175543848501787
1.175522789358742
1.175509377632708
1.1755041687843
1.175506656604611
1.175515084403916
1.175531087033622
1.175555773093804
1.175589564068146
1.175632376073163
1.175683886955378
1.175743542305624
1.175810407430277
1.175883124173623
1.175960050556389
1.176039426867078
1.176119579460822
1.176198823336647
1.176274766933736
1.176345089163982
1.176408223328547
1.176459605010343
1.176495986980476
1.176526366467558
1.176550307409204
1.17656726474173
1.176576810784832
1.176578786332516
1.176573934298383
1.176562595946241
1.17654322757606
1.176514903584875
1.176477164607331
1.176429949154573
1.176373479427085
1.176308314299788
1.176235432028197
1.176156221254736
1.176072386214003
1.175985713699861
1.175898230057133
1.17581291469927
1.1757328942125
1.175660983656174
1.175603388636287
1.175564459809598
1.175534255029475
1.175510812099729
1.175494842774811
1.175487175948164
1.175487262473944
1.175493323809161
1.175506329335953
1.175527482582922
1.175557406505182
1.175596180308294
1.175643645882549
1.175699447907123
1.175762857251589
1.175832729508413
1.175907645154409
1.175985991603996
1.176066077053854
1.176146247872112
1.176224274405263
1.176297517096855
1.176364248643365
1.176420627796872
1.176461670448536
1.176493556819999
1.176519780676177
1.176538922643261
1.176551293934156
1.176556014373487
1.176553230361144
1.176544582372979
1.1765285429598
1.176504026984645
1.176470438791823
1.1764275580999
1.176375387111253
1.176314247009854
1.176244909495805
1.176168561816424
1.176086727274912
1.176001121920571
1.175913628741637
1.175826952372143
1.175744399290023
1.175668815508092
1.17560553056175
1.175560600893592
1.175528840278953
1.175502752360587
1.175484531101068
1.175474195458752
1.175471594727473
1.175475736950364
1.17548597464483
1.175503855410038
1.175530145934212
1.175565106387489
1.175608688147532
1.175660645044394
1.175720447644029
1.175787210668481
1.175859723676788
1.175936501729232
1.176015894872031
1.176096284458651
1.176175707495883
1.176251453542009
1.176321286349521
1.176382423259473
1.176429522206613
1.176463107833948
1.176491678530883
1.17651321520476
1.176528057595767
1.176535219427528
1.17653486842546
1.176528610705286
1.176515600034721
1.1764946540245
1.176464952244841
1.176426111533621
1.176378044422078
1.176320946206945
1.176255367534144
1.176182229686334
1.176102835445835
1.176018809719461
1.175931924204231
1.17584451385878
1.175759891785331
1.175681237407558
1.175612622959509
1.175560928737988
1.175526441085488
1.175498030123248
1.17547730659245
1.175464095966662
1.175458870715882
1.175461076580002
1.17546889596987
1.175483758384407
1.175506665188972
1.175538036306916
1.175577880486532
1.175626040578944
1.175682194774875
1.175745702027265
1.175815521707381
1.175890296901977
1.175968479350761
1.17604850348337
1.176128648304808
1.176206333225123
1.176278876267008
1.176344214763059
1.176397254248575
1.176434478999854
1.176464946759071
1.176489014304512
1.176506005432708
1.17651581712612
1.176518259887981
1.176514018072431
1.176503780577468
1.176486041533976
1.176459920571248
1.176424944432207
1.176380945560633
1.176327940326436
1.176266208478289
1.176196442183497
1.176119785629161
1.17603775089907
1.175952001073907
1.175864551639971
1.175778525433388
1.175697327611166
1.17562419846468
1.175565828269773
1.175526597334938
1.175496322819797
1.175472898043901
1.175456992664347
1.175449284198345
1.175449117157904
1.175454751521164
1.175466935044114
1.175486722416562
1.175514694752233
1.175550981283937
1.175595533586991
1.17564816189055
1.175708358483563
1.175775240706421
1.175847659205997
1.175924238495279
1.176003441447186
1.176083660684814
1.176162631363389
1.176237530650236
1.176306226584025
1.17636457704155
1.176407318189815
1.17643942508071
1.176466046700227
1.176485453725774
1.176498101489506
1.176503166108134
1.176500896296102
1.176493065102165
1.176478315746361
1.176455616635991
1.176424364242367
1.176384262600058
1.176335177576921
1.176277246371251
1.176211017639326
1.176137427974651
1.17605776488224
1.17597358939818
1.175886715315716
1.175799859814403
1.175716493276599
1.175639783081624
1.175575371130673
1.175529493283465
1.175497444309921
1.175471061645082
1.175452697103126
1.17544217382599
1.175439357944227
1.17544324096667
1.175452916138117
1.175469783948909
1.175494544583989
1.175527466476865
1.175568560815301
1.175617689149338
1.175674492587811
1.175738311592147
1.175808179550854
1.175882835473136
1.175960800828762
1.176040563599694
1.176120224525298
1.176197016344867
1.176268412435443
1.176331521809019
1.176380748259852
1.176415220262633
1.176444345566679
1.17646640648873
1.176481608870607
1.176489118446328
1.176489254755152
1.17648357774706
1.176471465298687
1.176451845994503
1.176423928937558
1.17638729721492
1.176341787051089
1.176287457498638
1.176224664792483
1.176154113004495
1.176076903508441
1.175994503460113
1.175908578504454
1.17582141661884
1.175736389765548
1.175656837808165
1.175587050048734
1.175534170330014
1.175498863590548
1.175470095803228
1.175449086562049
1.175435651230126
1.175430231900197
1.175432242804386
1.17543969794709
1.175453858001431
1.175475629535211
1.17550540698111
1.175543218648563
1.175588977115139
1.175642490315546
1.17570328972
1.175770526853045
1.175843051241354
1.175919510954984
1.175998471999583
1.176078291887844
1.176156429926336
1.176230108991368
1.176297061749129
1.176352105085952
1.176390998008714
1.176421993925636
1.176446729571094
1.176464205706252
1.176474464084274
1.176477310773845
1.176473457913038
1.176463879093027
1.176447151521655
1.176422439949099
1.17638929129221
1.17634750180739
1.17629697159845
1.176237808337065
1.17617052912786
1.176096108859545
1.176015891056251
1.175931408792501
1.175844598445425
1.175758563346967
1.175676780934304
1.175602662198093
1.175543076124981
1.175502666194922
1.175471893473463
1.175448023203732
1.175431845785291
1.175423954183029
1.175423624769863
1.17542906278461
1.175440817511942
1.175459802497096
1.175486556996703
1.175521228704752
1.175563808910991
1.175614178162996
1.175671951029913
1.175736417955289
1.17580662513539
1.175881379175269
1.175959274689937
1.176038795537848
1.176117783222637
1.176193414147061
1.176263356763043
1.176323536051582
1.176368530655058
1.176401275437715
1.176428777954555
1.176448762843395
1.176461864021602
1.176467296689921
1.176465342044623
1.176457906159168
1.176443817783689
1.176422106348163
1.176392168336735
1.176353685166448
1.176306485535631
1.176250631508173
1.176186540172163
1.176114971476874
1.176037037007444
1.175954173887529
1.175868110021276
1.175781504059256
1.175697839037351
1.175620370197512
1.175554876935553
1.175507698039084
1.175474998198203
1.175448011703395
1.175429332351237
1.175418609312092
1.175415681650854
1.175419515040407
1.175428982233457
1.17544533630088
1.175469220187068
1.175500910514836
1.175540431916183
1.175587677717939
1.175642383800115
1.17570404089658
1.17577184237989
1.175844679354269
1.175921211600121
1.176000036902025
1.176079364498589
1.176156466257481
1.176228744293619
1.176293368498272
1.176344542409569
1.176380469107815
1.176410245543499
1.176432993173929
1.176448675912554
1.176456528793413
1.176456963837726
1.176451547085219
1.176439827233333
1.176420843261605
1.176393846646997
1.176358436716349
1.17631444987912
1.176261884394794
1.17620096280209
1.176132231564562
1.176056653583513
1.175975582832892
1.175890586138347
1.175803874691353
1.175718804438186
1.1756387045149
1.175567914184559
1.175513782131747
1.175477325854015
1.175447938754108
1.1754265398429
1.175412875848267
1.175407317381469
1.175409323039855
1.17541672972395
1.175430621648759
1.17545177857873
1.175480574242181
1.175517089738751
1.175561309431913
1.175613084902094
1.175671991478458
1.175737315810116
1.175808139112497
1.175883314434785
1.17596147066486
1.176041131779839
1.176120253388701
1.176196123794346
1.176266465527803
1.176327616816264
1.176374317422268
1.176408054369577
1.176436326675088
1.176457232283944
1.176471315207769
1.176477790273012
1.176476817797095
1.17647040130989
1.176457962406957
1.176438720618975
1.176412054226379
1.176377661214598
1.176335478647982
1.176285591941093
1.176228275692874
1.1761641223567
1.1760941118282
1.176019548630379
1.175941888477227
1.17586297980219
1.175785543355949
1.175712245239812
1.175646003864588
1.175592378213654
1.175553732133701
1.175523183049699
1.175499120419696
1.175482578390639
1.175473114020617
1.175470710836223
1.175474732017764
1.175483793677845
1.175498518527421
1.17551927057005
1.175546437714482
1.175580206444572
1.17562049894871
1.17566703650812
1.175719398747489
1.17577699455365
1.175838977013782
1.175904262157704
1.175971695654301
1.176039840082907
1.176106666788521
1.176170334791928
1.176228682067587
1.176277275116484
1.176314084121819
1.176344090594491
1.176368180464078
1.176385106506952
1.176394935270285
1.176397443912161
1.176393071734538
1.176383241365655
1.176367166270213
1.176344279708251
1.176314010477118
1.176276116802431
1.176230729219235
1.176178200850465
1.176119056470722
1.176054133784501
1.175984644863797
1.17591200786684
1.175838127869044
1.175765581685817
1.175696714108965
1.175634861681019
1.175585377022552
1.175549232821923
1.175520052686487
1.175497834724625
1.175482831447223
1.175475556225383
1.175475764929673
1.175481589023162
1.175492985040898
1.175510269234172
1.175533898386016
1.175564213774952
1.175601312919065
1.175645077181851
1.17569518275464
1.17575105453255
1.175811872860885
1.175876617088007
1.175944140410237
1.176013085353706
1.176081490892026
1.176147302815848
1.176208663117669
1.176261661430245
1.176302865746278
1.1763346263528
1.176361152164367
1.176380194749247
1.176392515485142
1.176397389142823
1.176394668493536
1.17638660369218
1.176372483063705
1.176351786912622
1.176324006694939
1.176288858346159
1.176246306786134
1.176196528088955
1.176139955584654
1.176077343801939
1.176009754647401
1.175938446673317
1.175865042192994
1.175791948788122
1.175721591268635
1.175656545446177
1.1756020618583
1.175561207132631
1.17552979019936
1.175504538081263
1.175487281386225
1.175477489170303
1.175475016769315
1.175479352280685
1.175488934233654
1.175504280587244
1.175525645527573
1.175553425584184
1.175587891454706
1.175629039385269
1.175676589196651
1.175730059101304
1.175788818374158
1.175852001092257
1.17591846394509
1.175986908272858
1.176055594283514
1.176122375848876
1.176185456407113
1.176241924616183
1.176287451211609
1.176321869738779
1.17635045102536
1.176372314538236
1.176387301916482
1.176394694723179
1.176394512806949
1.176388366784749
1.176376284965746
1.176357891376197
1.176332693608595
1.17630028471329
1.176260509461067
1.176213507976055
1.176159662544211
1.176099531248629
1.176033935824479
1.17596404379837
1.175891316153275
1.175817886071058
1.17574629706342
1.175678846288867
1.17561982938781
1.175573932687962
1.175539699075397
1.175511763777217
1.175491879840838
1.175479201116225
1.175474162479089
1.175476894793879
1.17548487837885
1.175498495826071
1.175517893973763
1.175543408463314
1.175575327345002
1.175613727506351
1.175658493038067
1.175709368174515
1.175765880420795
1.175827235055214
1.175892353980643
1.175960051442738
1.176028798596748
1.176096421473567
1.17616100943783
1.176220360256418
1.176270079191205
1.176308089703028
1.176338461234421
1.176362905093417
1.176379929913604
1.17638996185549
1.1763927885432
1.176388611772047
1.176378864361003
1.176362749509275
1.176339865846734
1.176309887246852
1.176272774350098
1.176228720044309
1.176177961165064
1.17612078750143
1.17605775867753
1.1759898248626
1.175918213623979
1.175844803001537
1.175772321183025
1.175703121566411
1.175640488911162
1.175589946505509
1.17555255578497
1.175522775532812
1.175500233088798
1.175485223425157
1.175477874935221
1.175478124553368
1.175484549397783
1.175496669387699
1.17551442009813
1.175537848945283
1.175567047348173
1.175602149072444
1.175643290628992
1.175690400237779
1.175743008103211
1.175799771092237
1.175861145574286
1.175922329713521
1.176019079427054
)
;

boundaryField
{
    inlet
    {
        type            calculated;
        value           uniform 1.176395973595895;
    }
    outlet
    {
        type            calculated;
        value           uniform 1.176040721570722;
    }
    frontAndBack
    {
        type            empty;
    }
}


// ************************************************************************* //
