/*--------------------------------*- C++ -*----------------------------------*\
| =========                 |                                                 |
| \\      /  F ield         | OpenFOAM: The Open Source CFD Toolbox           |
|  \\    /   O peration     | Version:  v2012                                 |
|   \\  /    A nd           | Website:  www.openfoam.com                      |
|    \\/     M anipulation  |                                                 |
\*---------------------------------------------------------------------------*/
FoamFile
{
    version     2.0;
    format      ascii;
    class       volScalarField;
    location    "0.02";
    object      T;
}
// * * * * * * * * * * * * * * * * * * * * * * * * * * * * * * * * * * * * * //

dimensions      [0 0 0 1 0 0 0];


internalField   nonuniform List<scalar> 
1000
(
299.9959683752909
299.9870246846379
299.9740907655541
299.9661033227941
299.9589521550138
299.9522708571309
299.9464420442059
299.9421263859784
299.9391878144681
299.9371391673369
299.936213668925
299.9366578593102
299.9382178754965
299.9404798128822
299.9436261859011
299.9477542887753
299.9527436674909
299.9584191213351
299.9646430331514
299.9713118959478
299.9783240878778
299.9855669694298
299.9929286240047
300.0003083985652
300.007630730589
300.0148485121349
300.0218621948865
300.0285584577565
300.0349318532337
300.04057111953
300.0448754383233
300.0485598176407
300.0514460573842
300.0534642146548
300.0544175804306
300.0542754007984
300.0532616038494
300.051211355789
300.0480054459508
300.0436436957343
300.0382206495863
300.0318706928828
300.0247451247863
300.0170081414626
300.008827332308
300.0003655310058
299.9917744757782
299.9831780086605
299.9746922997559
299.9664742198918
299.9586612289559
299.9514130971784
299.9452548714938
299.940681304392
299.9373005030212
299.9346044997866
299.9329177293092
299.9323218693561
299.9327441753081
299.9339408113723
299.9361155839649
299.9393709788498
299.9436920471098
299.9489615626819
299.9550147482224
299.9616765247503
299.9687742607338
299.9761491281044
299.9836680951404
299.9912228560509
299.9987320519497
300.0061449488762
300.0133591204491
300.0202194284889
300.0266940672814
300.0324667975034
300.0368939021468
300.0405696090152
300.0435625797915
300.0457193118359
300.046948014332
300.0472048622877
300.0465425293813
300.0450084181525
300.0424100897774
300.0386691762573
300.0337998622104
300.0278923609443
300.0210825355437
300.0135373620964
300.0054424623793
299.9969853381736
299.9883407949612
299.9796510464025
299.9710360936799
299.9626564041605
299.9546795246982
299.9472606816478
299.9408558035283
299.9360408381617
299.9325649736159
299.9297342410126
299.9277885387463
299.9268902783678
299.9270057630709
299.9278475529306
299.929552937632
299.9322607418386
299.9360269802854
299.9408085978703
299.9464969469709
299.9529454173526
299.9599811383912
299.9674180197854
299.9750764620571
299.982801281704
299.9904768338241
299.9980337168533
300.0053824383122
300.0123676934647
300.018918907684
300.0248299506074
300.029516170787
300.0331971268474
300.0362975546118
300.0385871482338
300.0400778449076
300.0406380926045
300.0402406274957
300.0390806386865
300.0369594359404
300.0337595194962
300.0294478580957
300.0240644755459
300.0176962346593
300.0104727633164
300.002564635742
299.9941661179913
299.9854743504592
299.9766651942996
299.9678852371413
299.9593073725816
299.9511321574437
299.943518677097
299.9368125852677
299.9316449055559
299.9280182861236
299.9250231310743
299.9228664702847
299.9216857286337
299.9214485898401
299.9220049851972
299.9233177675451
299.9255608831006
299.9288232740111
299.933110503922
299.9383574899833
299.9444575286018
299.9512719530223
299.9586298383494
299.9663393669088
299.9742130254243
299.9820904040412
299.9898552214065
299.9974055749464
300.0045796431106
300.0112499492107
300.0173128853413
300.0223042864391
300.0260033093263
300.0291835088736
300.0316123049345
300.0332971628551
300.0340888181631
300.033960868473
300.0331044954486
300.0313927312081
300.0286904923228
300.0249262987093
300.0200990445585
300.014256679134
300.0074919737004
299.9999435640464
299.99178411779
299.9832056771178
299.9744022015154
299.9655465347121
299.9568211874435
299.9484606536631
299.9406627470132
299.9336822758239
299.9281388179934
299.924295726215
299.9211973573583
299.9188671993065
299.9173929395116
299.9168412510096
299.9171578759233
299.9181377139328
299.9199693177464
299.9227707120961
299.9265775744564
299.9313570696189
299.9370390816155
299.9435224034431
299.9506640839192
299.958284186868
299.9661912803578
299.9742026410872
299.9821633942537
299.9899478296673
299.9973806825183
300.0042826586982
300.0105804107426
300.0158862621999
300.0197778052151
300.0230309439979
300.0256268694769
300.0274784625872
300.0284981624384
300.0286695480156
300.0280757803801
300.0267297981629
300.0244700332791
300.0212019508178
300.0168907568212
300.0115578905549
300.0052666236492
299.9981205997279
299.9902629223304
299.9818686719069
299.9731320429959
299.9642398349491
299.9553799267258
299.9468041665082
299.9387610857434
299.9314666016134
299.9254745519432
299.9212648743103
299.918063055143
299.9155263485654
299.9137874077103
299.912961256791
299.9130001684563
299.9136941002479
299.9151574856207
299.9175258957409
299.9208675026546
299.9251790089571
299.9304172744254
299.9365091047637
299.9433403451558
299.9507568847994
299.9585817413293
299.9666283903234
299.9747193941092
299.9827058586801
299.9904045897552
299.9975955486964
300.0041697150661
300.0098262477794
300.014059801439
300.0173938036032
300.020156242855
300.0221776040709
300.0234680894187
300.0239294185678
300.023562965848
300.0225389544664
300.0206796066147
300.0178724037938
300.0140635499499
300.0092490342839
300.0034582582281
299.9967593642772
299.989267820042
299.9811394918602
299.972557617234
299.9637113991168
299.9547892404808
299.9460397366791
299.9377489599888
299.9301475387601
299.9236937602222
299.9189873109308
299.915686947155
299.912934503809
299.9110039567393
299.9099177173722
299.909659893154
299.9101250818195
299.9112648987297
299.9132521637849
299.9161724124951
299.9200467108992
299.9248517515331
299.9305360513899
299.9370147812089
299.9441634719901
299.9518235023732
299.9598143790139
299.9679519417724
299.9760719829096
299.9839944496883
299.9914782524047
299.9983459586995
300.0043857734726
300.0091063438431
300.0125443045118
300.0154837124475
300.0177057578361
300.0192398779623
300.019961873018
300.0198675166649
300.0191346185772
300.0176527351388
300.0152931811734
300.0119739856397
300.0076666789527
300.0023801511319
299.9961599097092
299.989093802123
299.9813086397505
299.9729653189225
299.9642480968224
299.9553441635883
299.9464808716834
299.9379654033361
299.9300771198074
299.923166261664
299.917893376974
299.9143417861937
299.9114165131862
299.9092663834745
299.9078970533374
299.9073652436884
299.9076192899225
299.9084798272403
299.9101137478756
299.9126342285313
299.9160842709063
299.9204552588074
299.9257142390371
299.9318045409474
299.9386306702875
299.9460539113522
299.9539065927594
299.9620090497671
299.9701904297559
299.9782787445528
299.9860299154121
299.9932070932038
299.9996504444695
300.0048942167688
300.0086071219619
300.0117074110214
300.0141506090432
300.0158811129112
300.0168552933536
300.0170569201421
300.0165618164774
300.0154047906746
300.0134282889618
300.0105378363218
300.0066865122785
300.0018679820491
299.9961048513003
299.9894540788349
299.9820154258099
299.9739305490198
299.9653733366059
299.9565261294122
299.9475957481586
299.9388863413037
299.9307171347651
299.9233755920078
299.9174953735356
299.913520816162
299.9104369286486
299.9080433993025
299.90641292278
299.9056301363539
299.9056390016154
299.9062579257771
299.9075858533185
299.9097456606327
299.9128009289041
299.9167597002829
299.9216057748756
299.9273028105126
299.933776298211
299.9409093379863
299.9485569579903
299.9565544986302
299.9647292385412
299.9729123768424
299.9808763424505
299.9883517636266
299.9951624074288
300.0009163114873
300.0051049216733
300.0083590421677
300.0110352519423
300.0129887229048
300.014251234854
300.0147329731506
300.0144488974919
300.0135664131556
300.0119296174946
300.0094277583049
300.0060000164178
300.0016238594255
299.9962994468414
299.9900594830048
299.982982648432
299.9751900411702
299.9668370738513
299.9580988549577
299.9491675595117
299.9403192695687
299.931891557155
299.924175035158
299.9177139087237
299.9131266642268
299.9098839137235
299.907220314819
299.905359896928
299.904304617382
299.9040390982412
299.9044620692384
299.9055074115943
299.9073331153634
299.9100174470229
299.9135869351434
299.9180365637836
299.9233411384955
299.9294465397323
299.9362623200679
299.9436648453017
299.9515024748874
299.9596067452558
299.9678124128533
299.9759191093968
299.9836502082627
299.9907775201464
299.9970171104886
300.0018238730832
300.0052514579511
300.0081672064417
300.0103650875053
300.0118797936422
300.0126106777921
300.0125748847578
300.0119363229808
300.0106086031728
300.0084710505755
300.0054399157399
300.0014760517284
299.9965704727277
299.9907430401246
299.9840498759305
299.9765849314958
299.9684811057904
299.9599041947959
299.9510350018666
299.9421118566601
299.9334729869208
299.9254430291883
299.9184378121245
299.9131599177038
299.909638727562
299.9067379339437
299.904622019664
299.9032731874269
299.9027396868904
299.9029649471454
299.9037633805992
299.9052809181621
299.9076197920891
299.9108228505139
299.9148909412368
299.9198079636618
299.9255409991228
299.9320245338046
299.9391522644007
299.9467856114228
299.9547664811837
299.962935035663
299.9711155940458
299.9790447638119
299.9864488454882
299.9931173779888
299.998530501565
300.0023295265363
300.0054389170726
300.007895108515
300.0096291110326
300.01063043095
300.0108797410442
300.0104468907222
300.0094021730394
300.0075918889037
300.0049261789213
300.0013567096623
299.996866328012
299.9914566402553
299.9851561244373
299.9780353476784
299.9702110176301
299.9618374070289
299.9530842228889
299.9441571705094
299.9353750344529
299.9270854773748
299.9196193783166
299.9136598968347
299.9096544125773
299.9065633415841
299.9041716164307
299.9025476347451
299.9017605785287
299.9017435500746
299.9023188891043
299.9035629133877
299.9055833034158
299.9084393733501
299.9121442795523
299.9166930268147
299.9220661803082
299.9282118396913
299.9350398265013
299.9424327451164
299.950250130612
299.9583350377501
299.9665233717454
299.9745839514843
299.9822286800441
299.989240012
299.9951952666103
299.9995573325198
300.0028340443338
300.0055509174521
300.0075314885347
300.0088222471276
300.0093391214666
300.009107512834
300.0083083598647
300.0068031745618
300.0044866694308
300.0012972244794
299.9972045882066
299.9921950121992
299.9862824295089
299.979522761768
299.9720115273815
299.9638800714951
299.9552876764491
299.9464194478655
299.937552741931
299.9290418581891
299.9212102162907
299.9146339197806
299.9099497874928
299.9066775398354
299.903983801805
299.9021087218883
299.9010342636979
299.9007467711424
299.9011432837221
299.9021312068405
299.9038535146868
299.9063816866639
299.9097430995182
299.9139388493782
299.9189547457058
299.92475408553
299.9312694695318
299.9384021533418
299.9460233517107
299.9539820905144
299.9621239989895
299.970255200031
299.9780932497084
299.985380306354
299.9918213680837
299.9968453770105
300.0003635017463
300.0033359184807
300.0055873521276
300.007138831202
300.0079052196797
300.00791915702
300.0073398438074
300.0061037596125
300.0041015552987
300.001252496164
299.9975139939394
299.9928692803275
299.9873243177797
299.9809153915912
299.9737142866665
299.9658333456037
299.9574222615466
299.9486510091455
299.9397531166812
299.9310728148729
299.9229511157854
299.9158260116894
299.9104270027409
299.9068221297907
299.9038848590869
299.9017397398144
299.9003679434851
299.8998146186473
299.9000199761149
299.9007812297732
299.9022270752316
299.9044500692644
299.9074904610044
299.9113510997698
299.9160230090425
299.9214865213223
299.9276937384301
299.9345579736128
299.9419617186846
299.9497669159636
299.9578271504996
299.9659747443795
299.9739503615351
299.981470574172
299.9883040207387
299.9939217806516
299.9978911385614
300.0010544983926
300.0035789250534
300.0053624607168
300.0064093874138
300.0066999255014
300.0063067617679
300.0053292437156
300.0036221482036
300.0011002219426
299.9977171931957
299.9934522201692
299.9882950483048
299.9822565978147
299.9753895715514
299.9677933993443
299.9596051492016
299.9509812558207
299.9421193451441
299.9333362058827
299.9249868751624
299.9174196570683
299.9113359626895
299.9072100489396
299.904068068974
299.9016308261609
299.8999790475372
299.8991732822893
299.8991396756517
299.8996949753096
299.9008952341669
299.9028337246357
299.9055654898815
299.909105574486
299.9134530422194
299.9185956421092
299.924493961791
299.9310754971
299.9382428148803
299.9458740348241
299.9538256525933
299.961942876928
299.9700053699182
299.9777249423839
299.9848636670347
299.9910056992178
299.9955978363871
299.9989397113734
300.001746536537
300.0037861199234
300.0051231767898
300.0056776202974
300.0054781697977
300.0047193468703
300.0032815933957
300.0010658467206
299.9980104905824
299.9940829689368
299.9892657438429
299.9835650843031
299.9770234873471
299.9697184441922
299.9617633443928
299.9533048209782
299.944519209682
299.9356778885339
299.9271364455191
299.9192272682585
299.9125405009653
299.9077234774986
299.9043847353752
299.9016293097138
299.899722062556
299.8986271954197
299.8983282874613
299.8987197382746
299.8996864379449
299.9013563106483
299.9037949948174
299.9070307067397
299.9110659185261
299.9158896872196
299.9214749884737
299.9277697668763
299.934691611578
299.9421272626972
299.9499398607095
299.9579862359591
299.9660835761779
299.9739534181878
299.9813306356627
299.9879264307688
299.9931492923644
299.9968159443168
299.9998548666605
300.0021764221014
300.0037769495182
300.0045783855874
300.0046228118558
300.0040700519019
300.0028740146305
300.0009366176126
299.9981814520073
299.9945675892266
299.9900782828596
299.9847132943646
299.9784952670408
299.9714799018425
299.9637654087737
299.9554899279154
299.9468133450624
299.9379613477417
299.9292765297741
299.9210988065509
299.9138712707274
299.9083443412528
299.9046220579742
299.901621520516
299.8994365914745
299.8980414351931
299.8974738976863
299.8976787208011
299.8984350372004
299.8998535237906
299.9020137904138
299.9049539764418
299.9086823248497
299.9131971913994
299.9184833674072
299.9244974347327
299.931166503066
299.9383967160439
299.9460709364755
299.9540491604631
299.9621806938496
299.9702568476057
299.9780008546097
299.9851803066784
299.9914215349106
299.9961877767998
299.9996309006089
300.002516277357
300.0046498155701
300.0060870569177
300.0067478763559
300.0066486593874
300.0059938727601
300.0047244602574
300.0027607652752
300.0000393208793
299.9965292696611
299.9922241433118
299.987132607421
299.9812826310778
299.974734623168
299.9675885418692
299.9599774919461
299.9520500285549
299.9439948158501
299.9360895971643
299.9286065780592
299.9218437555253
299.9163687592189
299.9124230487199
299.9093039880688
299.9068471674857
299.9051581968599
299.9041918706215
299.9039465180219
299.9043571261125
299.9052823838487
299.9067858532322
299.9089046934132
299.9116784899495
299.9151262511724
299.9192399960552
299.9239912291623
299.9293369922449
299.9352168980256
299.9415444498627
299.9482089595
299.9550925670881
299.9620485271187
299.9688697621804
299.9753683771773
299.9813237288303
299.986283365177
299.9900401976168
299.993102701654
299.9955613196734
299.9972887811114
299.998291898461
299.9985479422763
299.9981017546042
299.9970985131827
299.9954579261412
299.9931221416325
299.9900328371203
299.9861652986293
299.9815328041238
299.9761713463537
299.9701344372821
299.9635075324456
299.9564143082144
299.9489994902449
299.9414575259791
299.9340514659978
299.9270207097445
299.920705936998
299.9156537079782
299.9119634323258
299.9089841376007
299.9067156595115
299.9051838039518
299.9044409921912
299.904462325485
299.9050570223996
299.9062206154565
299.9079853876804
299.9103979653631
299.9134931670253
299.9172809141153
299.9217490547679
299.9268644877352
299.932568456708
299.9387772434956
299.9453866182592
299.952279483048
299.9593172459786
299.9662997229605
299.9730172450474
299.9792801936624
299.98468949819
299.9888949527772
299.9921365020276
299.9948437419564
299.9967872224275
299.9980446720124
299.9985420817507
299.9982644435447
299.9974413986241
299.9960002893864
299.9938880663393
299.9910528082436
299.9874654895384
299.983122488241
299.9780417285099
299.9722673889053
299.9658764340867
299.9589772101888
299.9516981466633
299.9442048189031
299.9367429879458
299.9295602088223
299.9229194830613
299.9173569266084
299.9131857353552
299.9099780787785
299.9073998159978
299.9056378792613
299.9046380797591
299.9043856594922
299.9048283610923
299.905806740751
299.9073736628391
299.9095550726609
299.9123914357337
299.9159103581213
299.9201114191559
299.9249659734911
299.9304247924665
299.9364234443003
299.9428734908824
299.949658185291
299.9566449339289
299.9636561278609
299.9704727055174
299.9769113126698
299.9826748336087
299.9873214696995
299.9908343105446
299.9937513469121
299.9959827372932
299.9975123421109
299.9982668458298
299.998248301071
299.9976210849754
299.9963880581089
299.9945108399163
299.9919391603021
299.9886314564133
299.9845718462834
299.9797745870555
299.9742786496014
299.9681409484195
299.9614453124689
299.9543108744732
299.9468867345735
299.9393906307496
299.9320822216885
299.9251960490496
299.9191707194652
299.9144847826131
299.9109895595325
299.9081373472136
299.9061071608514
299.9048126313716
299.9042981748599
299.904577166263
299.9053923277945
299.9067827083289
299.9087632965631
299.911368353156
299.9146272730356
299.9185478893379
299.9231183482609
299.9283125090992
299.9340820896871
299.9403458931736
299.9469937785592
299.9539046083995
299.9609222243713
299.9678246283272
299.9744167227534
299.980473678678
299.985546974849
299.989424822068
299.9925227275263
299.9950155242339
299.9967513448663
299.9977739804676
299.9980617444461
299.997635332018
299.9966420865795
299.9950019695228
299.9926749643426
299.9896291073799
299.9858614009627
299.9813914005748
299.9762414954636
299.970437562589
299.9640310623462
299.9571119479174
299.9497985922387
299.9422774943129
299.9348240921461
299.9276768785292
299.9211710882415
299.9158747760014
299.9119058404405
299.9087120032757
299.906266619324
299.904609662868
299.903787946442
299.903737945166
299.90429876814
299.9055090373866
299.9073772697793
299.9099120184471
299.9131263843854
299.9170010356304
299.9214883002127
299.9265698481757
299.932327599881
299.9388659360845
299.9462795243765
299.9533545482248
299.9611193058769
)
;

boundaryField
{
    inlet
    {
        type            fixedValue;
        value           uniform 300;
    }
    outlet
    {
        type            inletOutlet;
        inletValue      uniform 300;
        value           uniform 299.9614763086244;
    }
    frontAndBack
    {
        type            empty;
    }
}


// ************************************************************************* //
