/*--------------------------------*- C++ -*----------------------------------*\
| =========                 |                                                 |
| \\      /  F ield         | OpenFOAM: The Open Source CFD Toolbox           |
|  \\    /   O peration     | Version:  v2012                                 |
|   \\  /    A nd           | Website:  www.openfoam.com                      |
|    \\/     M anipulation  |                                                 |
\*---------------------------------------------------------------------------*/
FoamFile
{
    version     2.0;
    format      ascii;
    class       volVectorField;
    location    "0.02";
    object      U;
}
// * * * * * * * * * * * * * * * * * * * * * * * * * * * * * * * * * * * * * //

dimensions      [0 1 -1 0 0 0 0];


internalField   nonuniform List<vector> 
1000
(
(0.09546607060435068 0 0)
(0.06736204280644049 0 0)
(0.06031430293688812 0 0)
(0.04825611766335668 0 0)
(0.03781163241612418 0 0)
(0.02863075022669266 0 0)
(0.02206523775748988 0 0)
(0.01917826039658111 0 0)
(0.01885754757110472 0 0)
(0.02027609353723361 0 0)
(0.02463978603087584 0 0)
(0.03256552207636158 0 0)
(0.04195631501388059 0 0)
(0.05339311124588587 0 0)
(0.06709501489724244 0 0)
(0.08295019561289468 0 0)
(0.100536149840475 0 0)
(0.1193065935874084 0 0)
(0.1387429665480255 0 0)
(0.158381329659323 0 0)
(0.1777919429870572 0 0)
(0.196567724710372 0 0)
(0.2143233645882228 0 0)
(0.2307225819662176 0 0)
(0.2455534777046971 0 0)
(0.2587207374540316 0 0)
(0.270040938263557 0 0)
(0.2794176883982188 0 0)
(0.286962099140376 0 0)
(0.2916739498109947 0 0)
(0.2929061718244035 0 0)
(0.2919087432862271 0 0)
(0.2890648935965486 0 0)
(0.2843579525585353 0 0)
(0.2774272630034131 0 0)
(0.2683365690553353 0 0)
(0.2584514450187225 0 0)
(0.2469958995564769 0 0)
(0.2337245404408378 0 0)
(0.2187257525752095 0 0)
(0.2023655901262631 0 0)
(0.1850672433789083 0 0)
(0.1672074054829425 0 0)
(0.1491360764157345 0 0)
(0.1311947325251686 0 0)
(0.1137004332450601 0 0)
(0.09691812237384685 0 0)
(0.08101883691178377 0 0)
(0.06614597612187488 0 0)
(0.05255131654729076 0 0)
(0.04044933464674614 0 0)
(0.03014277059056043 0 0)
(0.02288619344973122 0 0)
(0.01990946664719235 0 0)
(0.01978090558599464 0 0)
(0.02129471248340318 0 0)
(0.02495986617290979 0 0)
(0.03191828115838638 0 0)
(0.04028900524544069 0 0)
(0.05017528483361863 0 0)
(0.06204485501241443 0 0)
(0.07619084675895237 0 0)
(0.09253540245227096 0 0)
(0.1106650653966764 0 0)
(0.1299767368599117 0 0)
(0.1498272557847925 0 0)
(0.1696247802281356 0 0)
(0.1888676882494136 0 0)
(0.2071565383931608 0 0)
(0.2241926928592537 0 0)
(0.2397767937714056 0 0)
(0.2538013855747182 0 0)
(0.2660859903061335 0 0)
(0.2763652236914696 0 0)
(0.2846121840512835 0 0)
(0.2902057044803183 0 0)
(0.2921267666836997 0 0)
(0.2914914895834092 0 0)
(0.2890774087423095 0 0)
(0.2849650719195171 0 0)
(0.2792714289119534 0 0)
(0.2707445571932718 0 0)
(0.2618444695881489 0 0)
(0.2515882565794405 0 0)
(0.2397192159936181 0 0)
(0.2260881614581018 0 0)
(0.2108251308557835 0 0)
(0.1942253183783331 0 0)
(0.1766417056738671 0 0)
(0.1584646710343024 0 0)
(0.1401120299200611 0 0)
(0.1219884531153981 0 0)
(0.1044452636561711 0 0)
(0.08772772712009386 0 0)
(0.07200534870248916 0 0)
(0.057552238520097 0 0)
(0.04468034904824619 0 0)
(0.03367423106950423 0 0)
(0.02564664419201368 0 0)
(0.02206343200746804 0 0)
(0.02166464472577747 0 0)
(0.02301839148171726 0 0)
(0.02636949113870728 0 0)
(0.03224840661294318 0 0)
(0.04035582801186811 0 0)
(0.04944200849144852 0 0)
(0.06018737113572834 0 0)
(0.072951577977775 0 0)
(0.08786356391752365 0 0)
(0.1047349814948989 0 0)
(0.1231470538858175 0 0)
(0.1425630455825058 0 0)
(0.1623964132083517 0 0)
(0.1820616230241628 0 0)
(0.2010356776485799 0 0)
(0.2188992834759016 0 0)
(0.2353468327612447 0 0)
(0.2502195987522774 0 0)
(0.2633724607567823 0 0)
(0.2744794638918956 0 0)
(0.2834414579022682 0 0)
(0.2899811470217086 0 0)
(0.2927927033543776 0 0)
(0.2926741068636726 0 0)
(0.2908346321587149 0 0)
(0.2872997883319106 0 0)
(0.282212447203457 0 0)
(0.2747484388432171 0 0)
(0.2662918847686299 0 0)
(0.2568607876213394 0 0)
(0.2460539920391649 0 0)
(0.2335785621429125 0 0)
(0.2194121166782905 0 0)
(0.2037204765541369 0 0)
(0.186764997825704 0 0)
(0.1688678023683158 0 0)
(0.1504093724911844 0 0)
(0.1318108061087537 0 0)
(0.1135000378123355 0 0)
(0.09584088349934848 0 0)
(0.07909784008255603 0 0)
(0.06360117939942876 0 0)
(0.04977326450063738 0 0)
(0.03790241656462384 0 0)
(0.02884020732579956 0 0)
(0.02423132274716206 0 0)
(0.02335715762358804 0 0)
(0.02448855872796305 0 0)
(0.02745063699658568 0 0)
(0.03239593188700006 0 0)
(0.04023122319507202 0 0)
(0.0487177031542331 0 0)
(0.05865206911000612 0 0)
(0.07034801464277964 0 0)
(0.0840300000788273 0 0)
(0.09965741265865259 0 0)
(0.1169626617313093 0 0)
(0.1355420379903838 0 0)
(0.15490442549377 0 0)
(0.1745068974858309 0 0)
(0.1938104088392261 0 0)
(0.2123218908532634 0 0)
(0.2296212462939565 0 0)
(0.2454345572810772 0 0)
(0.2595635512367153 0 0)
(0.2716467527086804 0 0)
(0.2814963133502842 0 0)
(0.2889938267090691 0 0)
(0.2929195356518224 0 0)
(0.2935398154361243 0 0)
(0.2923135558303473 0 0)
(0.2893830380660802 0 0)
(0.2848934053650164 0 0)
(0.2785842353068127 0 0)
(0.2704799797457872 0 0)
(0.2617790901121526 0 0)
(0.2518299826462046 0 0)
(0.2403295515631528 0 0)
(0.2271467443118808 0 0)
(0.2123620034176083 0 0)
(0.1961619100142529 0 0)
(0.1787802949341245 0 0)
(0.160519178496649 0 0)
(0.1417638964660226 0 0)
(0.122955797423053 0 0)
(0.1045275278147973 0 0)
(0.08683279598598383 0 0)
(0.07025159199337744 0 0)
(0.05531292709801203 0 0)
(0.0424256908226469 0 0)
(0.03223788180157521 0 0)
(0.02632777915373677 0 0)
(0.02475273313234471 0 0)
(0.02552818760645852 0 0)
(0.02802066801867717 0 0)
(0.03242011438883915 0 0)
(0.03942386404236558 0 0)
(0.04763269585688105 0 0)
(0.05692735526283759 0 0)
(0.06773888240426369 0 0)
(0.08037451970044721 0 0)
(0.09488588620345897 0 0)
(0.1111111410693566 0 0)
(0.1287480449571783 0 0)
(0.147403198358917 0 0)
(0.1666220394849423 0 0)
(0.1859159299559701 0 0)
(0.2047836566325364 0 0)
(0.2227449803970475 0 0)
(0.2394213472605393 0 0)
(0.2545350183441388 0 0)
(0.2677017660049893 0 0)
(0.2785858619766136 0 0)
(0.2870534587777844 0 0)
(0.2921943694753741 0 0)
(0.2936290932857125 0 0)
(0.2928475090709217 0 0)
(0.2904198892470451 0 0)
(0.2864609236610103 0 0)
(0.2810809785985851 0 0)
(0.2732377439233247 0 0)
(0.2651188848879132 0 0)
(0.2558290224295842 0 0)
(0.2451440475796786 0 0)
(0.232862904766004 0 0)
(0.2189717490321521 0 0)
(0.2035836817838623 0 0)
(0.1868695986326956 0 0)
(0.1690663087080756 0 0)
(0.1504979298922836 0 0)
(0.1315647408687753 0 0)
(0.1127086266660151 0 0)
(0.09434052960077297 0 0)
(0.07686881421381943 0 0)
(0.06086747907400421 0 0)
(0.04690926683866554 0 0)
(0.03554487817862 0 0)
(0.02813368856235708 0 0)
(0.02556094954407221 0 0)
(0.02588442462754104 0 0)
(0.02796762573388626 0 0)
(0.03192396741482163 0 0)
(0.03792077446118461 0 0)
(0.04601458944496591 0 0)
(0.05475222141179475 0 0)
(0.06484052806168772 0 0)
(0.0765639841343574 0 0)
(0.09006780406761358 0 0)
(0.1052697478956162 0 0)
(0.1219400180447089 0 0)
(0.1397736422679626 0 0)
(0.1584086132046213 0 0)
(0.1774211386838348 0 0)
(0.1963394257061666 0 0)
(0.2146828019552616 0 0)
(0.2320192412892214 0 0)
(0.2480102105611052 0 0)
(0.2622604469331695 0 0)
(0.2742755936237617 0 0)
(0.2838214613354738 0 0)
(0.2903083566510155 0 0)
(0.2927564488910834 0 0)
(0.2924760461889921 0 0)
(0.2906031017055309 0 0)
(0.2871688917107982 0 0)
(0.2822909418728634 0 0)
(0.275194995467219 0 0)
(0.2672881466032836 0 0)
(0.2584990316463669 0 0)
(0.2484959174113407 0 0)
(0.2369911194894071 0 0)
(0.2238926322962224 0 0)
(0.2092562494633977 0 0)
(0.1932209672060363 0 0)
(0.1759789139304847 0 0)
(0.1577840097054618 0 0)
(0.1389691774833352 0 0)
(0.1199475155229933 0 0)
(0.1011517768703481 0 0)
(0.08299847397879202 0 0)
(0.06606056965221838 0 0)
(0.05104507216521476 0 0)
(0.03849691033378577 0 0)
(0.02950451990374985 0 0)
(0.02566902102578074 0 0)
(0.0254311392830288 0 0)
(0.02708635536534072 0 0)
(0.03059265559031741 0 0)
(0.03584576707251354 0 0)
(0.04362752164286249 0 0)
(0.05196353895397879 0 0)
(0.06147115972856587 0 0)
(0.07244156945297907 0 0)
(0.0850733517406945 0 0)
(0.09935386215420139 0 0)
(0.1151231308612688 0 0)
(0.1321471335622398 0 0)
(0.1501317728669441 0 0)
(0.1687124774034857 0 0)
(0.1874717663707904 0 0)
(0.2059663097610262 0 0)
(0.2237506700958365 0 0)
(0.2404453869231659 0 0)
(0.2556527007781689 0 0)
(0.268795078571839 0 0)
(0.2795124036949673 0 0)
(0.2873861754242568 0 0)
(0.2911238499875977 0 0)
(0.2915324527493631 0 0)
(0.2901881936534434 0 0)
(0.2871737935066345 0 0)
(0.2826650031999974 0 0)
(0.2764616745805336 0 0)
(0.2685759350870824 0 0)
(0.2601770553705566 0 0)
(0.2506787668540053 0 0)
(0.2398041261472586 0 0)
(0.2273939256023761 0 0)
(0.2134628693776338 0 0)
(0.1981138514686207 0 0)
(0.1814824909099581 0 0)
(0.1637601066042202 0 0)
(0.1452273137044178 0 0)
(0.1262550311592284 0 0)
(0.107264299486365 0 0)
(0.08866568473325413 0 0)
(0.07098203524364714 0 0)
(0.05497117785726054 0 0)
(0.04127610201622281 0 0)
(0.03080795518797677 0 0)
(0.02533102310956461 0 0)
(0.02425474882670731 0 0)
(0.02541582200608406 0 0)
(0.02837693372744778 0 0)
(0.03312886451609461 0 0)
(0.04014452359779617 0 0)
(0.048326308511105 0 0)
(0.05737381459471511 0 0)
(0.06768819014686364 0 0)
(0.07952902253784852 0 0)
(0.09294894847863872 0 0)
(0.1078528954522552 0 0)
(0.124063649557095 0 0)
(0.1413367022137388 0 0)
(0.1593626758998227 0 0)
(0.1777864659971615 0 0)
(0.1962141712872827 0 0)
(0.2142146684574552 0 0)
(0.2313874421376213 0 0)
(0.2473441012071344 0 0)
(0.2615126324542449 0 0)
(0.2733808540184903 0 0)
(0.2825520443208908 0 0)
(0.2878631787821092 0 0)
(0.2892057615925179 0 0)
(0.2883247254396779 0 0)
(0.2857711008284041 0 0)
(0.2816882121505569 0 0)
(0.2762150455981508 0 0)
(0.2684738574837164 0 0)
(0.2604074761949175 0 0)
(0.2513282858837007 0 0)
(0.2410160373650223 0 0)
(0.2292674230601922 0 0)
(0.2160324546275821 0 0)
(0.2013666337441377 0 0)
(0.1853765046963407 0 0)
(0.1682205023804764 0 0)
(0.1501265071816514 0 0)
(0.1314010733250045 0 0)
(0.1124271855380309 0 0)
(0.09360816194075854 0 0)
(0.07541307741864341 0 0)
(0.05856818702309242 0 0)
(0.04384350159328051 0 0)
(0.03202551233430346 0 0)
(0.02470604267177302 0 0)
(0.02247515270883106 0 0)
(0.0230907361582701 0 0)
(0.02552890832746032 0 0)
(0.02979579705881818 0 0)
(0.03590100007137605 0 0)
(0.04401559524955281 0 0)
(0.05262200596273542 0 0)
(0.06240558454821116 0 0)
(0.07357981481360981 0 0)
(0.08626298716594091 0 0)
(0.1004024852653961 0 0)
(0.1158475302077083 0 0)
(0.1323993191181635 0 0)
(0.149818126863016 0 0)
(0.1678115591288324 0 0)
(0.1860253105556369 0 0)
(0.2040553908160632 0 0)
(0.2215011801307395 0 0)
(0.2379930609458305 0 0)
(0.253017591519276 0 0)
(0.2659315911173577 0 0)
(0.2762989479671635 0 0)
(0.2832496590612752 0 0)
(0.2857901900562184 0 0)
(0.2854706745994595 0 0)
(0.2835022257272702 0 0)
(0.2799151385269865 0 0)
(0.2748692597201156 0 0)
(0.2678015698535413 0 0)
(0.2598035685436973 0 0)
(0.2510720260858892 0 0)
(0.2412782386130813 0 0)
(0.2301548088792773 0 0)
(0.2175965342799129 0 0)
(0.2036285097253387 0 0)
(0.1883431098932647 0 0)
(0.1718635352632241 0 0)
(0.1543545666089343 0 0)
(0.1360579147521642 0 0)
(0.1173134519202302 0 0)
(0.09851171263996876 0 0)
(0.08006982744677298 0 0)
(0.06262522362865032 0 0)
(0.0470233590463167 0 0)
(0.03399973802550554 0 0)
(0.02487582448222672 0 0)
(0.02119352232323921 0 0)
(0.02113307649716332 0 0)
(0.02298931538630895 0 0)
(0.02668545570440182 0 0)
(0.03208103618477799 0 0)
(0.03985967397598295 0 0)
(0.04816758117650584 0 0)
(0.0574923606355358 0 0)
(0.06807627047766468 0 0)
(0.08008557008814945 0 0)
(0.09351311530548553 0 0)
(0.1082430575582452 0 0)
(0.1241136142608651 0 0)
(0.1409254434867964 0 0)
(0.1584225707477731 0 0)
(0.1762948264220839 0 0)
(0.1941911925480261 0 0)
(0.2117329021573603 0 0)
(0.2285605796797565 0 0)
(0.2442289059853045 0 0)
(0.2580611003942975 0 0)
(0.2695502559198234 0 0)
(0.2780508902596469 0 0)
(0.2821055454315111 0 0)
(0.2825943115962127 0 0)
(0.2812336541184484 0 0)
(0.2781374316175493 0 0)
(0.2735109777694562 0 0)
(0.2673007636095016 0 0)
(0.2593055931241907 0 0)
(0.2509226606575666 0 0)
(0.2415387615138043 0 0)
(0.2309422201003367 0 0)
(0.218983335599506 0 0)
(0.2056593473327509 0 0)
(0.1910381283733416 0 0)
(0.1752038776822872 0 0)
(0.1582796122913113 0 0)
(0.1404651703794967 0 0)
(0.122049237642924 0 0)
(0.1033871679102124 0 0)
(0.08485620805538352 0 0)
(0.0669948792036664 0 0)
(0.05063759028923646 0 0)
(0.03654768559403813 0 0)
(0.025816133747351 0 0)
(0.02032830689440224 0 0)
(0.0193250953740015 0 0)
(0.02056077290585004 0 0)
(0.02363619036713379 0 0)
(0.02849042236489719 0 0)
(0.03550313538191323 0 0)
(0.04368609056381601 0 0)
(0.05263220144591011 0 0)
(0.06269571775404351 0 0)
(0.07409129014139328 0 0)
(0.08685958310225121 0 0)
(0.1009241027834538 0 0)
(0.1161512462162326 0 0)
(0.1323611173807011 0 0)
(0.1493262849354431 0 0)
(0.16678558455362 0 0)
(0.1844411562792029 0 0)
(0.2019429384488825 0 0)
(0.2189373304114331 0 0)
(0.2350390087475855 0 0)
(0.2496359068855605 0 0)
(0.262110470459472 0 0)
(0.2719167107815726 0 0)
(0.2777499623382219 0 0)
(0.2793462254611453 0 0)
(0.2785463100249397 0 0)
(0.2760385527948293 0 0)
(0.271947550129421 0 0)
(0.2664324165697712 0 0)
(0.2587123047453651 0 0)
(0.250590535530657 0 0)
(0.241567050088641 0 0)
(0.2314422067904398 0 0)
(0.2200362616543492 0 0)
(0.2072993731977254 0 0)
(0.1932664501330716 0 0)
(0.1780151825219465 0 0)
(0.1616619203499737 0 0)
(0.1443695119182507 0 0)
(0.1263625664732228 0 0)
(0.1079479011471336 0 0)
(0.08947676874964779 0 0)
(0.07139852420120989 0 0)
(0.05446289559783768 0 0)
(0.03950455702354194 0 0)
(0.02742248170292466 0 0)
(0.01994387075454668 0 0)
(0.01766691207806673 0 0)
(0.01828277588113961 0 0)
(0.02075510621718977 0 0)
(0.02506187359977115 0 0)
(0.03113551074943376 0 0)
(0.03925929989751618 0 0)
(0.04779095763452341 0 0)
(0.05741179472553145 0 0)
(0.06826957557610122 0 0)
(0.08046034722932821 0 0)
(0.09393410396128229 0 0)
(0.1085600498360934 0 0)
(0.1241782887491479 0 0)
(0.1406089017705423 0 0)
(0.1576358475917678 0 0)
(0.1749885207681327 0 0)
(0.1923429305095982 0 0)
(0.2093615929530011 0 0)
(0.2257117828823263 0 0)
(0.2408855456615062 0 0)
(0.2541913007250549 0 0)
(0.2651027722845829 0 0)
(0.272654197906725 0 0)
(0.2756218834779127 0 0)
(0.275509771149608 0 0)
(0.2736998832444997 0 0)
(0.2702034391099591 0 0)
(0.2651889803461644 0 0)
(0.258205987551699 0 0)
(0.2501596723221612 0 0)
(0.2414486350245823 0 0)
(0.2317522530904772 0 0)
(0.2208366168686065 0 0)
(0.2086140344531726 0 0)
(0.1951162095204449 0 0)
(0.1804267774556435 0 0)
(0.1646378347106132 0 0)
(0.1478626660077994 0 0)
(0.1302808847562775 0 0)
(0.1121678081052248 0 0)
(0.09385604576938883 0 0)
(0.07571753535132883 0 0)
(0.05836956920972453 0 0)
(0.04268284640495312 0 0)
(0.02945895707636366 0 0)
(0.02010347870593235 0 0)
(0.01625446503397515 0 0)
(0.01610847262696502 0 0)
(0.01789669816293142 0 0)
(0.02154589797893612 0 0)
(0.02689990470272226 0 0)
(0.03460466364329509 0 0)
(0.0428763023878833 0 0)
(0.05208964780354743 0 0)
(0.06244771089030843 0 0)
(0.07408917304205587 0 0)
(0.08699811246281167 0 0)
(0.1010656615870081 0 0)
(0.1161510060042785 0 0)
(0.1320917997318979 0 0)
(0.148685369447518 0 0)
(0.1656884362979406 0 0)
(0.182824174494811 0 0)
(0.1997817529865949 0 0)
(0.216249387047582 0 0)
(0.231811131442082 0 0)
(0.2457988293141061 0 0)
(0.2576509437995459 0 0)
(0.2666446594373448 0 0)
(0.2712490404698366 0 0)
(0.2720540204137623 0 0)
(0.2708794642131994 0 0)
(0.2679489840113841 0 0)
(0.2634334424581855 0 0)
(0.2573762842301999 0 0)
(0.2493652763271177 0 0)
(0.2410411975326023 0 0)
(0.2317339216106692 0 0)
(0.221300711462715 0 0)
(0.2096129504800623 0 0)
(0.1966749516625705 0 0)
(0.182554720423055 0 0)
(0.1673266398191863 0 0)
(0.1510887346629221 0 0)
(0.1339974497698224 0 0)
(0.1162824447787398 0 0)
(0.09823884685412937 0 0)
(0.08019411557179935 0 0)
(0.06264731339218603 0 0)
(0.04641646678269495 0 0)
(0.03228752435573923 0 0)
(0.02140019745431674 0 0)
(0.01569510153164071 0 0)
(0.01454478319701835 0 0)
(0.01568832213478142 0 0)
(0.01867760663645425 0 0)
(0.0234552208139029 0 0)
(0.03036534671494721 0 0)
(0.03849956280053529 0 0)
(0.04735876865823987 0 0)
(0.05726412484950139 0 0)
(0.06839759052158464 0 0)
(0.08078746260656471 0 0)
(0.09435422295530614 0 0)
(0.1089651470633368 0 0)
(0.1244532570591733 0 0)
(0.1406260615891431 0 0)
(0.157276866868249 0 0)
(0.1741699908263524 0 0)
(0.1910145314569723 0 0)
(0.2075058691065653 0 0)
(0.2233074857242841 0 0)
(0.2378484663308648 0 0)
(0.2504869022962492 0 0)
(0.2606332351730827 0 0)
(0.2670082220682812 0 0)
(0.2690116809720786 0 0)
(0.2684414157875962 0 0)
(0.2661725598316909 0 0)
(0.2622727835787935 0 0)
(0.2568929269912762 0 0)
(0.2493030564756688 0 0)
(0.2412013727586885 0 0)
(0.2322391725203993 0 0)
(0.2222299631854514 0 0)
(0.2110103307131301 0 0)
(0.1985382561788321 0 0)
(0.1848578245167426 0 0)
(0.1700593768020378 0 0)
(0.1542587702321002 0 0)
(0.1375910478472621 0 0)
(0.1202324968012822 0 0)
(0.1024405123293512 0 0)
(0.08452316776302864 0 0)
(0.06688119722102868 0 0)
(0.05022307786162765 0 0)
(0.03537518285372941 0 0)
(0.02324684299672362 0 0)
(0.01558798170532167 0 0)
(0.01313607460553291 0 0)
(0.01363183037276596 0 0)
(0.01598461135626119 0 0)
(0.0201783095291885 0 0)
(0.02611550449129365 0 0)
(0.03417009776229597 0 0)
(0.04260376396694967 0 0)
(0.05210207937054508 0 0)
(0.06276702114766637 0 0)
(0.07468038194704796 0 0)
(0.08778573830944997 0 0)
(0.1019456476219451 0 0)
(0.1170019819341909 0 0)
(0.1327919884599315 0 0)
(0.1491300970100937 0 0)
(0.1657872898505753 0 0)
(0.1824910151496661 0 0)
(0.1989544347644254 0 0)
(0.2148916229133765 0 0)
(0.2298438792140933 0 0)
(0.2431385200301916 0 0)
(0.2542410470292617 0 0)
(0.2622077260627401 0 0)
(0.2656088583872394 0 0)
(0.2657653595513967 0 0)
(0.2641923249383526 0 0)
(0.2608861445611764 0 0)
(0.2560339412057235 0 0)
(0.249239389657269 0 0)
(0.2412520233499399 0 0)
(0.2326230279759137 0 0)
(0.2230314219752518 0 0)
(0.212270716847363 0 0)
(0.2002648323994544 0 0)
(0.1870585528227338 0 0)
(0.1727468618227873 0 0)
(0.1574223025027178 0 0)
(0.1411869099134693 0 0)
(0.1241997362117909 0 0)
(0.106704082521729 0 0)
(0.08899233294982445 0 0)
(0.07139157825774417 0 0)
(0.05447376200812468 0 0)
(0.03907123572808031 0 0)
(0.02596195072089074 0 0)
(0.01656965128758837 0 0)
(0.0125976573685307 0 0)
(0.01232910411242757 0 0)
(0.01398920688208363 0 0)
(0.01751333417827755 0 0)
(0.02272835909688914 0 0)
(0.03031094351168801 0 0)
(0.03848608737099033 0 0)
(0.04759531134814556 0 0)
(0.05780872551528946 0 0)
(0.06924614254488264 0 0)
(0.08188573728753946 0 0)
(0.09561276668710332 0 0)
(0.1102795354635364 0 0)
(0.125722214643946 0 0)
(0.1417495178626106 0 0)
(0.1581471920971917 0 0)
(0.1746809205918714 0 0)
(0.1910831655053394 0 0)
(0.2070821818785295 0 0)
(0.2223135702902916 0 0)
(0.2361530392280321 0 0)
(0.2480403525699869 0 0)
(0.2572726793618765 0 0)
(0.2623174086324513 0 0)
(0.2634366555066814 0 0)
(0.26245944524872 0 0)
(0.2597425414106138 0 0)
(0.2554125046724816 0 0)
(0.2495636239458563 0 0)
(0.241623947293639 0 0)
(0.2334012743413142 0 0)
(0.2241749356658755 0 0)
(0.2138517994368715 0 0)
(0.202315654737716 0 0)
(0.1895729461914225 0 0)
(0.175697068528046 0 0)
(0.1607750350870739 0 0)
(0.1449182780050361 0 0)
(0.1282834546238662 0 0)
(0.1110799549524561 0 0)
(0.09357298968834032 0 0)
(0.0760568955178884 0 0)
(0.05898711052380132 0 0)
(0.04313903947692017 0 0)
(0.0292559249837264 0 0)
(0.01844495153685938 0 0)
(0.01265585295927488 0 0)
(0.01139009762360781 0 0)
(0.0124273695802695 0 0)
(0.01528953206007681 0 0)
(0.01991379634749807 0 0)
(0.02666053227521438 0 0)
(0.0346585751495242 0 0)
(0.04339329936296085 0 0)
(0.05315773408049032 0 0)
(0.06411861235270945 0 0)
(0.07630324722672034 0 0)
(0.08961883417813248 0 0)
(0.1039099161889597 0 0)
(0.1190076831794408 0 0)
(0.1347434752802183 0 0)
(0.1509292114483634 0 0)
(0.1673397492207352 0 0)
(0.1837185153783431 0 0)
(0.1998019531707955 0 0)
(0.2153319871529429 0 0)
(0.2298994978756334 0 0)
(0.2428960091223208 0 0)
(0.2538472757709939 0 0)
(0.2618865765356939 0 0)
(0.265632471320772 0 0)
(0.2661169460020654 0 0)
(0.2649047117115051 0 0)
(0.2620360163957948 0 0)
(0.257698478852093 0 0)
(0.2517195790492441 0 0)
(0.2442271009436977 0 0)
(0.2362735456724482 0 0)
(0.2275005501901453 0 0)
(0.2177969864137017 0 0)
(0.207098066450345 0 0)
(0.1954354879760749 0 0)
(0.1828971921565531 0 0)
(0.1695921752326432 0 0)
(0.1556513711775734 0 0)
(0.1412263955730115 0 0)
(0.1264924091037729 0 0)
(0.1116732183806848 0 0)
(0.09701997996003392 0 0)
(0.08286105953898992 0 0)
(0.06974674114629092 0 0)
(0.05822134143339736 0 0)
(0.04896798576247464 0 0)
(0.04333379561788554 0 0)
(0.04152345707968463 0 0)
(0.04186324604969449 0 0)
(0.04372441725370795 0 0)
(0.04703084042992758 0 0)
(0.05156456307327149 0 0)
(0.05815895804517249 0 0)
(0.06509996351018987 0 0)
(0.07276992163037965 0 0)
(0.08113558397657197 0 0)
(0.09021177653386465 0 0)
(0.09996790380911358 0 0)
(0.1103131397761602 0 0)
(0.1211354519727296 0 0)
(0.132332547469578 0 0)
(0.1437976227931256 0 0)
(0.1554099266466996 0 0)
(0.1670439102501322 0 0)
(0.1785643854532892 0 0)
(0.1898294171686935 0 0)
(0.2006206147221927 0 0)
(0.2105615194107385 0 0)
(0.2193207846642971 0 0)
(0.2264135528275942 0 0)
(0.230770794249763 0 0)
(0.2322025944089877 0 0)
(0.231918154031536 0 0)
(0.2303056502838427 0 0)
(0.2273839861645275 0 0)
(0.2232925284798652 0 0)
(0.2170748428860593 0 0)
(0.2105240832977021 0 0)
(0.2032004303746585 0 0)
(0.1951253419915933 0 0)
(0.186254897537215 0 0)
(0.1765829250367424 0 0)
(0.1661555401486523 0 0)
(0.1550479857373366 0 0)
(0.1433556073734377 0 0)
(0.1312055475625599 0 0)
(0.1187546918701072 0 0)
(0.1061809255307728 0 0)
(0.0936778520198855 0 0)
(0.08156362084241303 0 0)
(0.07032858256439337 0 0)
(0.06039608056021023 0 0)
(0.05255697049635048 0 0)
(0.0481269279794716 0 0)
(0.04686925305747969 0 0)
(0.04731094431226333 0 0)
(0.04921246515317417 0 0)
(0.05251940703459909 0 0)
(0.05720589700442446 0 0)
(0.06368061114363903 0 0)
(0.07052364995739389 0 0)
(0.07816944004987625 0 0)
(0.08656838578928987 0 0)
(0.0957273765945592 0 0)
(0.1056108941178925 0 0)
(0.1161169222065076 0 0)
(0.1271065541702077 0 0)
(0.1384438022504196 0 0)
(0.1500132498285685 0 0)
(0.1617000871826388 0 0)
(0.1733573952634144 0 0)
(0.1848291086272402 0 0)
(0.1959416181553486 0 0)
(0.2063610776366788 0 0)
(0.215699078025519 0 0)
(0.2235982510277088 0 0)
(0.2291499956212887 0 0)
(0.2314982186728158 0 0)
(0.2316938832157453 0 0)
(0.2306091262786273 0 0)
(0.2281089545069684 0 0)
(0.224370333161766 0 0)
(0.2188283868969831 0 0)
(0.2123928731251711 0 0)
(0.2053236079776327 0 0)
(0.197531903726141 0 0)
(0.1889501288301105 0 0)
(0.1795529825399948 0 0)
(0.169369903887613 0 0)
(0.1584935272742476 0 0)
(0.1470470444692781 0 0)
(0.1351509283137863 0 0)
(0.122930756988434 0 0)
(0.1105560111458492 0 0)
(0.0982194468971527 0 0)
(0.08615909322296382 0 0)
(0.0748015843639889 0 0)
(0.06458928994274149 0 0)
(0.05604395192530073 0 0)
(0.05039070443629645 0 0)
(0.04822262231147759 0 0)
(0.04817413941964117 0 0)
(0.04953096924971986 0 0)
(0.05228916297555598 0 0)
(0.05624171505152115 0 0)
(0.06232937501129968 0 0)
(0.06877766897162606 0 0)
(0.07606548446421926 0 0)
(0.08414166518360208 0 0)
(0.09301398386952546 0 0)
(0.1026573312873416 0 0)
(0.1129710753920819 0 0)
(0.1238072290505807 0 0)
(0.1350267488255588 0 0)
(0.1465015963978736 0 0)
(0.158088641488788 0 0)
(0.1696317129112734 0 0)
(0.1809912320818884 0 0)
(0.1920417957122273 0 0)
(0.2025315346965774 0 0)
(0.2120828424724533 0 0)
(0.2204078801096311 0 0)
(0.2268268632304321 0 0)
(0.2302585427174396 0 0)
(0.2311110166479956 0 0)
(0.2305190767856835 0 0)
(0.228512918935883 0 0)
(0.2251913234815742 0 0)
(0.2205854159929777 0 0)
(0.2141810289109979 0 0)
(0.2075052259603117 0 0)
(0.2000474588816573 0 0)
(0.1918239876799132 0 0)
(0.1827788126660369 0 0)
(0.1729211543635392 0 0)
(0.1623365409341296 0 0)
(0.1511327115662753 0 0)
(0.1394203815697444 0 0)
(0.1273432523643684 0 0)
(0.1150922841399073 0 0)
(0.1028616596469707 0 0)
(0.09083956531309545 0 0)
(0.07937701248046973 0 0)
(0.06892747268923788 0 0)
(0.05986041705803631 0 0)
(0.05315650794763454 0 0)
(0.04996068933640545 0 0)
(0.04937079613734945 0 0)
(0.05020153784111302 0 0)
(0.05247367342571556 0 0)
(0.05600848483458698 0 0)
(0.06129742334259016 0 0)
(0.067497396172063 0 0)
(0.07439332880100104 0 0)
(0.08206994285418243 0 0)
(0.09057316582916215 0 0)
(0.09989501917388877 0 0)
(0.1099709152934479 0 0)
(0.1206702272924886 0 0)
(0.131821534587988 0 0)
(0.1432401171207855 0 0)
(0.1547561851725493 0 0)
(0.1662277658105457 0 0)
(0.1775175325146956 0 0)
(0.1884961848485919 0 0)
(0.1989869522455265 0 0)
(0.2086646710213702 0 0)
(0.2172457602622967 0 0)
(0.2242908837678678 0 0)
(0.2287870396670262 0 0)
(0.2304283799661278 0 0)
(0.2303373347901197 0 0)
(0.2289183147283414 0 0)
(0.2261415722493134 0 0)
(0.2221890702309515 0 0)
(0.2161561559637557 0 0)
(0.2097222222647629 0 0)
(0.2025457547934273 0 0)
(0.1946502864196095 0 0)
(0.1859954838487468 0 0)
(0.1765388219887599 0 0)
(0.1662717211726949 0 0)
(0.1552513262193349 0 0)
(0.1436117420050531 0 0)
(0.1315484597290365 0 0)
(0.1192832783486448 0 0)
(0.1070497692207007 0 0)
(0.09506061602088142 0 0)
(0.08357639056644611 0 0)
(0.07299075259821769 0 0)
(0.06360612585911919 0 0)
(0.05610004153965596 0 0)
(0.05176481552540843 0 0)
(0.05043751871725017 0 0)
(0.05076759448238728 0 0)
(0.05257213125807633 0 0)
(0.05574267793981894 0 0)
(0.06012306689527532 0 0)
(0.06634134192750608 0 0)
(0.07280442823409315 0 0)
(0.08006457921515099 0 0)
(0.0880827733169315 0 0)
(0.09692404287325046 0 0)
(0.1066171698493593 0 0)
(0.1170866361929968 0 0)
(0.1281660704500573 0 0)
(0.1396312121182548 0 0)
(0.1512547660759398 0 0)
(0.1627153358084731 0 0)
(0.1741776948191869 0 0)
(0.1839260102728972 0 0)
(0.199917441907399 0 0)
)
;

boundaryField
{
    inlet
    {
        type            zeroGradient;
    }
    outlet
    {
        type            pressureInletOutletVelocity;
        value           uniform (0.199917441907399 0 0);
    }
    frontAndBack
    {
        type            empty;
    }
}


// ************************************************************************* //
