/*--------------------------------*- C++ -*----------------------------------*\
| =========                 |                                                 |
| \\      /  F ield         | OpenFOAM: The Open Source CFD Toolbox           |
|  \\    /   O peration     | Version:  v2012                                 |
|   \\  /    A nd           | Website:  www.openfoam.com                      |
|    \\/     M anipulation  |                                                 |
\*---------------------------------------------------------------------------*/
FoamFile
{
    version     2.0;
    format      ascii;
    class       volVectorField;
    location    "0.02";
    object      UMean;
}
// * * * * * * * * * * * * * * * * * * * * * * * * * * * * * * * * * * * * * //

dimensions      [0 1 -1 0 0 0 0];


internalField   nonuniform List<vector> 
1000
(
(0.01538048805700108 0 0)
(0.01533030875531552 0 0)
(0.01540821803290267 0 0)
(0.01542390867023712 0 0)
(0.0154824629038057 0 0)
(0.01551919141825784 0 0)
(0.01556959067852905 0 0)
(0.01562086434154624 0 0)
(0.01568107924881788 0 0)
(0.01574416594320211 0 0)
(0.01581009467197643 0 0)
(0.01587502360945199 0 0)
(0.01593533205272744 0 0)
(0.01599943091522252 0 0)
(0.01605332828275976 0 0)
(0.01611038305089509 0 0)
(0.01616581220554731 0 0)
(0.01621502910268622 0 0)
(0.0162576484654544 0 0)
(0.01629302521558599 0 0)
(0.01632014739126807 0 0)
(0.01634027886339473 0 0)
(0.01635122847563051 0 0)
(0.01635628603876169 0 0)
(0.01634758377888692 0 0)
(0.016338683679627 0 0)
(0.01632307808804186 0 0)
(0.01629573011160172 0 0)
(0.01626330219567325 0 0)
(0.01622341084234052 0 0)
(0.01617896151407506 0 0)
(0.01613065188790915 0 0)
(0.01607979518130394 0 0)
(0.01602610092528501 0 0)
(0.01597114658438564 0 0)
(0.01591067062170162 0 0)
(0.01585649680861199 0 0)
(0.01579351370109214 0 0)
(0.01574215223282874 0 0)
(0.01569630906087463 0 0)
(0.01565547199229055 0 0)
(0.01561998519473638 0 0)
(0.01559082929440946 0 0)
(0.01556858222631056 0 0)
(0.01555443998859532 0 0)
(0.01554818200356923 0 0)
(0.01555192837150017 0 0)
(0.01556048948056868 0 0)
(0.01558137360364808 0 0)
(0.01561575257747236 0 0)
(0.01565318250111301 0 0)
(0.01569993787685915 0 0)
(0.01575297215189563 0 0)
(0.0158122068357522 0 0)
(0.01587610516485354 0 0)
(0.01594402451817269 0 0)
(0.01601452922861366 0 0)
(0.0160872317653864 0 0)
(0.01615486453028655 0 0)
(0.01622575844251443 0 0)
(0.01628559343173394 0 0)
(0.01635087416706592 0 0)
(0.01641387225948399 0 0)
(0.01647303560388447 0 0)
(0.01652539577051746 0 0)
(0.01657043113795767 0 0)
(0.01660786003981746 0 0)
(0.01663687494924478 0 0)
(0.01665815275935792 0 0)
(0.01667129925130043 0 0)
(0.01667492598155859 0 0)
(0.0166700846498589 0 0)
(0.01666545206418484 0 0)
(0.01664760575980696 0 0)
(0.01662366262806523 0 0)
(0.01659250707051209 0 0)
(0.01655630065151201 0 0)
(0.01651625609079546 0 0)
(0.01647327740772319 0 0)
(0.01642799611110706 0 0)
(0.016381525555902 0 0)
(0.01633092715913561 0 0)
(0.01628164809025514 0 0)
(0.0162274497530235 0 0)
(0.01617985386317142 0 0)
(0.01613842315283529 0 0)
(0.0161032720878564 0 0)
(0.01607249846967757 0 0)
(0.01604760132567088 0 0)
(0.01602960162350783 0 0)
(0.01601884181598265 0 0)
(0.01601692592988772 0 0)
(0.01602285465269618 0 0)
(0.01603811878747265 0 0)
(0.01605816158849067 0 0)
(0.01609754612514482 0 0)
(0.01614009263642195 0 0)
(0.01619061998621548 0 0)
(0.01624826167095675 0 0)
(0.0163119629640025 0 0)
(0.01638058107652924 0 0)
(0.01645300217935208 0 0)
(0.01652885003446426 0 0)
(0.01660682468083587 0 0)
(0.01668343091425393 0 0)
(0.01675761677638729 0 0)
(0.01682818206249233 0 0)
(0.01689615280575891 0 0)
(0.01696600637034138 0 0)
(0.01703379309919752 0 0)
(0.01709520829907999 0 0)
(0.01714962829958972 0 0)
(0.01719635482515528 0 0)
(0.01723489324768519 0 0)
(0.01726563286807688 0 0)
(0.01728679951503033 0 0)
(0.01730161238099719 0 0)
(0.017301641506657 0 0)
(0.01730537467977774 0 0)
(0.01729757553643885 0 0)
(0.01728122589884958 0 0)
(0.01725846931018895 0 0)
(0.01722983706130757 0 0)
(0.01719728109306258 0 0)
(0.0171616175858323 0 0)
(0.01712386563521631 0 0)
(0.0170843674437859 0 0)
(0.01704341094344317 0 0)
(0.01699926151286214 0 0)
(0.01695537498590611 0 0)
(0.01690917809933389 0 0)
(0.01687231721862285 0 0)
(0.0168421018744718 0 0)
(0.01681609167378009 0 0)
(0.01679549636122108 0 0)
(0.0167809350819693 0 0)
(0.01677393722408491 0 0)
(0.01677499535744091 0 0)
(0.0167837502791927 0 0)
(0.01680335834933864 0 0)
(0.01682500290632757 0 0)
(0.01686522227296977 0 0)
(0.01691389648476832 0 0)
(0.01696791069955263 0 0)
(0.01702991710179773 0 0)
(0.01709775056662143 0 0)
(0.01717076570277491 0 0)
(0.01724777062674137 0 0)
(0.01732838184397509 0 0)
(0.01741116541455503 0 0)
(0.01749551559562089 0 0)
(0.01757533002821354 0 0)
(0.01765536359409462 0 0)
(0.01772622871894361 0 0)
(0.01780200218047301 0 0)
(0.01787720842912525 0 0)
(0.01794731400430626 0 0)
(0.018010896359665 0 0)
(0.01806672095560688 0 0)
(0.01811494426142296 0 0)
(0.01815467515048683 0 0)
(0.01818553600884094 0 0)
(0.01820908114691704 0 0)
(0.0182190682434006 0 0)
(0.01822672177277444 0 0)
(0.01822948619165254 0 0)
(0.0182214442147386 0 0)
(0.01820682307870725 0 0)
(0.01818575564360294 0 0)
(0.01816040890915699 0 0)
(0.0181320747419352 0 0)
(0.01810130082894776 0 0)
(0.01806877882432686 0 0)
(0.01803590492435759 0 0)
(0.01799919120909174 0 0)
(0.01796425563496836 0 0)
(0.01792154555020046 0 0)
(0.017888432417268 0 0)
(0.01786262979400949 0 0)
(0.01784148580849831 0 0)
(0.01782525553080919 0 0)
(0.01781437822158845 0 0)
(0.01781066525141259 0 0)
(0.01781434527628612 0 0)
(0.01782640531264201 0 0)
(0.01784760603618721 0 0)
(0.01787448789859873 0 0)
(0.01791252287787212 0 0)
(0.01796514026546272 0 0)
(0.01802245054953536 0 0)
(0.01808754681240849 0 0)
(0.01815871949223797 0 0)
(0.01823521882130956 0 0)
(0.01831589863177045 0 0)
(0.01840014606572888 0 0)
(0.01848699560134454 0 0)
(0.01857645489492719 0 0)
(0.01866278877127187 0 0)
(0.01874947901683885 0 0)
(0.01882554177608121 0 0)
(0.01890451957991752 0 0)
(0.01898544387147194 0 0)
(0.01906286862815414 0 0)
(0.01913427430089787 0 0)
(0.01919848074777526 0 0)
(0.019254996288134 0 0)
(0.01930334592031627 0 0)
(0.01934331885106462 0 0)
(0.01937447017988544 0 0)
(0.019395476432378 0 0)
(0.01940732625859342 0 0)
(0.01941796578311695 0 0)
(0.01941809195699838 0 0)
(0.01941051800354134 0 0)
(0.01939640758233706 0 0)
(0.01937742044233659 0 0)
(0.0193552289014583 0 0)
(0.01933043617979339 0 0)
(0.01930398546026808 0 0)
(0.01927686436938534 0 0)
(0.01924789863428001 0 0)
(0.01921850443509787 0 0)
(0.01918327924454591 0 0)
(0.01915040658263203 0 0)
(0.0191281334471304 0 0)
(0.01911071847953763 0 0)
(0.0190979394998223 0 0)
(0.01909028182410875 0 0)
(0.01908866990941864 0 0)
(0.01909455081903339 0 0)
(0.01910867451090395 0 0)
(0.01913063626228481 0 0)
(0.01916159756888847 0 0)
(0.01919798618181362 0 0)
(0.01925152032846253 0 0)
(0.01931168446157137 0 0)
(0.0193787815892322 0 0)
(0.01945266026584921 0 0)
(0.01953188342312516 0 0)
(0.01961543976842082 0 0)
(0.01970268652304106 0 0)
(0.01979295938546743 0 0)
(0.01988566694151696 0 0)
(0.01997846455334656 0 0)
(0.02006929525211385 0 0)
(0.02015450927451311 0 0)
(0.02023325594306495 0 0)
(0.02031906992216282 0 0)
(0.02040255061395393 0 0)
(0.02048092130875538 0 0)
(0.02055280684331563 0 0)
(0.02061685178322484 0 0)
(0.0206733673400069 0 0)
(0.02072154623166436 0 0)
(0.02076041886513749 0 0)
(0.02079143849136143 0 0)
(0.0208086363361249 0 0)
(0.02082523098106557 0 0)
(0.02083382579320234 0 0)
(0.02083329320317492 0 0)
(0.02082599397323727 0 0)
(0.02081297741765854 0 0)
(0.02079641227258382 0 0)
(0.02077712655188347 0 0)
(0.02075610737076013 0 0)
(0.0207337300136427 0 0)
(0.02071126498716202 0 0)
(0.02068718617961015 0 0)
(0.02066101164513203 0 0)
(0.02062742704245535 0 0)
(0.02060755141415828 0 0)
(0.02059296283804791 0 0)
(0.02058325825505292 0 0)
(0.02057827472602467 0 0)
(0.02057866993972636 0 0)
(0.02058609161700628 0 0)
(0.02060130339640425 0 0)
(0.0206241097876193 0 0)
(0.02065721276431111 0 0)
(0.02069285863678362 0 0)
(0.02074422312354032 0 0)
(0.02080711040114172 0 0)
(0.02087590174662185 0 0)
(0.02095153270986098 0 0)
(0.02103277091959176 0 0)
(0.02111840826846886 0 0)
(0.02120795092034018 0 0)
(0.02130070761875383 0 0)
(0.02139565857169464 0 0)
(0.02149283053768959 0 0)
(0.02158791775427789 0 0)
(0.02168157906134881 0 0)
(0.02176125229167697 0 0)
(0.02184929627947961 0 0)
(0.02193722237061835 0 0)
(0.02202136661936234 0 0)
(0.02209967264283893 0 0)
(0.02217054503310398 0 0)
(0.02223396932419563 0 0)
(0.02228920423981421 0 0)
(0.02233575516738531 0 0)
(0.0223744024016729 0 0)
(0.02239943863177581 0 0)
(0.02241864628090785 0 0)
(0.02243537062402489 0 0)
(0.02244204953836721 0 0)
(0.02244068970291765 0 0)
(0.02243317238664549 0 0)
(0.02242144336543072 0 0)
(0.02240677786578955 0 0)
(0.02239022187994631 0 0)
(0.02237188101824512 0 0)
(0.02235396754176108 0 0)
(0.02233448647040128 0 0)
(0.02231602045102221 0 0)
(0.02228568429251317 0 0)
(0.02226444923307022 0 0)
(0.02225174768804116 0 0)
(0.02224386002282242 0 0)
(0.02224062904974936 0 0)
(0.02224258848137327 0 0)
(0.02225045979972685 0 0)
(0.02226586739813854 0 0)
(0.02228925400392698 0 0)
(0.02232149350070434 0 0)
(0.02235962287173357 0 0)
(0.02240606318833715 0 0)
(0.02246892980676291 0 0)
(0.02253864433895254 0 0)
(0.02261436457906873 0 0)
(0.02269647761398489 0 0)
(0.02278318198504192 0 0)
(0.02287378544200982 0 0)
(0.02296780493336312 0 0)
(0.02306430695639194 0 0)
(0.0231634953633447 0 0)
(0.02326180080560227 0 0)
(0.02336091375848562 0 0)
(0.02344735687412962 0 0)
(0.02353225235319105 0 0)
(0.02362391258909126 0 0)
(0.02371173637041514 0 0)
(0.02379519141944398 0 0)
(0.02387189918138087 0 0)
(0.02394097083005902 0 0)
(0.02400234917828398 0 0)
(0.02405570794029195 0 0)
(0.02410007392775583 0 0)
(0.0241344822295498 0 0)
(0.02415714923521975 0 0)
(0.02417865137860853 0 0)
(0.02419165029604777 0 0)
(0.02419534179947116 0 0)
(0.02419269138749103 0 0)
(0.02418500579097559 0 0)
(0.02417405152747354 0 0)
(0.02416085874137065 0 0)
(0.0241460245359172 0 0)
(0.02413073480102572 0 0)
(0.02411521115327821 0 0)
(0.02410049291180193 0 0)
(0.02408012360002085 0 0)
(0.02405180862650089 0 0)
(0.02404178918027881 0 0)
(0.02403412172654888 0 0)
(0.02403202643157789 0 0)
(0.02403480194935037 0 0)
(0.02404288330800137 0 0)
(0.02405791427154702 0 0)
(0.02408103666833474 0 0)
(0.02411173895615351 0 0)
(0.0241516869453755 0 0)
(0.02419530054691179 0 0)
(0.02425505690273093 0 0)
(0.02432479819408887 0 0)
(0.02440006500274028 0 0)
(0.02448243923557952 0 0)
(0.02456966536606984 0 0)
(0.02466079542948322 0 0)
(0.02475551118768261 0 0)
(0.02485324307049502 0 0)
(0.02495307891334664 0 0)
(0.02505445371203931 0 0)
(0.02515538338825972 0 0)
(0.02525343618527289 0 0)
(0.02533178504618964 0 0)
(0.02542717089501235 0 0)
(0.02551761768766577 0 0)
(0.02560522760473266 0 0)
(0.02568686195511941 0 0)
(0.02576131856777595 0 0)
(0.02582799835818205 0 0)
(0.0258871891234718 0 0)
(0.02593687681 0 0)
(0.02597943596687981 0 0)
(0.02600684969559776 0 0)
(0.02603106346912807 0 0)
(0.02605040481886842 0 0)
(0.02605954959544402 0 0)
(0.02606156560045626 0 0)
(0.02605781088212034 0 0)
(0.0260501632990003 0 0)
(0.02603982307353257 0 0)
(0.02602799297590406 0 0)
(0.026014829830364 0 0)
(0.02600214382306215 0 0)
(0.02598985230513434 0 0)
(0.02597905211729557 0 0)
(0.02594677888317344 0 0)
(0.02593639446905198 0 0)
(0.02592922952552438 0 0)
(0.02592748781981672 0 0)
(0.0259307217698406 0 0)
(0.02593907059525444 0 0)
(0.02595340472455992 0 0)
(0.02597553989267815 0 0)
(0.02600499099611715 0 0)
(0.02604468752796699 0 0)
(0.0260873177338031 0 0)
(0.02614142291183471 0 0)
(0.02621086390169546 0 0)
(0.02628625960072526 0 0)
(0.02636818687783541 0 0)
(0.02645550229159015 0 0)
(0.02654694468911446 0 0)
(0.02664178443797736 0 0)
(0.02674026733609722 0 0)
(0.02684062347374728 0 0)
(0.02694358238286088 0 0)
(0.0270462621683924 0 0)
(0.02715165500792939 0 0)
(0.02723204228421121 0 0)
(0.02732515255577614 0 0)
(0.02741881368016059 0 0)
(0.02750933379849022 0 0)
(0.02759517877998225 0 0)
(0.02767460452150706 0 0)
(0.02774610167424296 0 0)
(0.02781027395116637 0 0)
(0.02786579223814034 0 0)
(0.02791361414665215 0 0)
(0.02794905983988678 0 0)
(0.02797329643537371 0 0)
(0.02799834172734936 0 0)
(0.02801424257210481 0 0)
(0.02802055332599133 0 0)
(0.02802071599484751 0 0)
(0.02801627800547741 0 0)
(0.02800859711220947 0 0)
(0.02799931855238844 0 0)
(0.02798839295165588 0 0)
(0.0279776711120263 0 0)
(0.02796721105578441 0 0)
(0.02796056492813279 0 0)
(0.02793671293347587 0 0)
(0.02791869246758979 0 0)
(0.0279130772007057 0 0)
(0.02791068037275687 0 0)
(0.02791402235390158 0 0)
(0.02792245598527513 0 0)
(0.02793634382097038 0 0)
(0.02795711868168288 0 0)
(0.02798592177147445 0 0)
(0.0280229158925004 0 0)
(0.02806775746509968 0 0)
(0.02811524714259983 0 0)
(0.02818255698633983 0 0)
(0.02825840661218837 0 0)
(0.0283388420423516 0 0)
(0.02842586931300154 0 0)
(0.02851732741638119 0 0)
(0.0286121763095991 0 0)
(0.02871069780518114 0 0)
(0.02881174770212212 0 0)
(0.02891532608209959 0 0)
(0.02901953284677805 0 0)
(0.02912600019731505 0 0)
(0.02922101249957212 0 0)
(0.02930415749374929 0 0)
(0.02940205139967924 0 0)
(0.02949413041798071 0 0)
(0.02958345407828966 0 0)
(0.02966707401902503 0 0)
(0.02974348484348821 0 0)
(0.02981211015915991 0 0)
(0.02987325036708142 0 0)
(0.0299251901342118 0 0)
(0.02996912177163567 0 0)
(0.02999707394264082 0 0)
(0.03002539204697798 0 0)
(0.03004666681859723 0 0)
(0.03005694614632183 0 0)
(0.03006107177084943 0 0)
(0.03005985216443781 0 0)
(0.03005492978797149 0 0)
(0.03004761695678659 0 0)
(0.03003917938180242 0 0)
(0.03002998649628067 0 0)
(0.03002168359006942 0 0)
(0.03001443553364451 0 0)
(0.03000730341803365 0 0)
(0.0299761841969287 0 0)
(0.02997385495238697 0 0)
(0.02997012792828743 0 0)
(0.02997326442658246 0 0)
(0.02998140579779039 0 0)
(0.02999513926575339 0 0)
(0.03001462969155793 0 0)
(0.03004241605394898 0 0)
(0.0300768079883666 0 0)
(0.0301222454708662 0 0)
(0.03016802743873538 0 0)
(0.03023065850332919 0 0)
(0.03030472054617037 0 0)
(0.03038382421368422 0 0)
(0.03047008145238686 0 0)
(0.03056127532910646 0 0)
(0.03065603379179268 0 0)
(0.03075407540539593 0 0)
(0.03085562836599926 0 0)
(0.03095939803097559 0 0)
(0.03106510133047906 0 0)
(0.03117091278337974 0 0)
(0.03128009146904784 0 0)
(0.03135518668826642 0 0)
(0.03145532723070355 0 0)
(0.03154944699583671 0 0)
(0.03164135791676855 0 0)
(0.0317285023742235 0 0)
(0.03180934172659194 0 0)
(0.03188241033939129 0 0)
(0.03194811875780921 0 0)
(0.0320046344686178 0 0)
(0.03205446530377111 0 0)
(0.03208897257613969 0 0)
(0.0321179282826322 0 0)
(0.03214408354075691 0 0)
(0.03216001048936567 0 0)
(0.03216797818522017 0 0)
(0.03217006106893563 0 0)
(0.0321679170498102 0 0)
(0.03216255564346914 0 0)
(0.03215620293967502 0 0)
(0.03214865173248362 0 0)
(0.03214176110522853 0 0)
(0.03213550516517023 0 0)
(0.03213539500130585 0 0)
(0.03210542273512834 0 0)
(0.0320980008273989 0 0)
(0.03209571866541849 0 0)
(0.03209778256421243 0 0)
(0.03210540060387179 0 0)
(0.03211865333821765 0 0)
(0.0321373931754961 0 0)
(0.03216330535572361 0 0)
(0.03219654690703388 0 0)
(0.03223893446064831 0 0)
(0.03228681294030383 0 0)
(0.03234054943993298 0 0)
(0.03241289768887855 0 0)
(0.0324927522553122 0 0)
(0.03257736036448469 0 0)
(0.03266804259869906 0 0)
(0.03276255218913408 0 0)
(0.0328601959294974 0 0)
(0.03296144303991873 0 0)
(0.03306543394182766 0 0)
(0.033171645630253 0 0)
(0.03327858185423684 0 0)
(0.03338896756639624 0 0)
(0.03347684661368833 0 0)
(0.03356703060612364 0 0)
(0.0336658319246042 0 0)
(0.0337589396042285 0 0)
(0.03384900960231231 0 0)
(0.03393356747271637 0 0)
(0.03401106692068742 0 0)
(0.03408071510180601 0 0)
(0.03414259924038252 0 0)
(0.03419517377252276 0 0)
(0.03423974994797847 0 0)
(0.03426592373720274 0 0)
(0.03429663270388164 0 0)
(0.03432040869938156 0 0)
(0.03433162089328802 0 0)
(0.03433718352911905 0 0)
(0.03433777842932263 0 0)
(0.03433470015448743 0 0)
(0.03432964640611223 0 0)
(0.0343238577415258 0 0)
(0.03431802055404001 0 0)
(0.03431314889687884 0 0)
(0.03431091522090467 0 0)
(0.03429952547548482 0 0)
(0.03427708275958588 0 0)
(0.03427804913901396 0 0)
(0.03427828363461722 0 0)
(0.0342851384676062 0 0)
(0.03429757602952296 0 0)
(0.03431583362143439 0 0)
(0.03434023629350196 0 0)
(0.03437255599582575 0 0)
(0.03441153187067662 0 0)
(0.03446127911320727 0 0)
(0.03450973167353469 0 0)
(0.03457849161091245 0 0)
(0.0346582098506484 0 0)
(0.0347408249961316 0 0)
(0.03483060448244815 0 0)
(0.03492487003225124 0 0)
(0.03502233988474624 0 0)
(0.03512296554707667 0 0)
(0.03522705080706494 0 0)
(0.03533375806050864 0 0)
(0.03544171868774655 0 0)
(0.0355499492836174 0 0)
(0.0356574759934186 0 0)
(0.03573372612837317 0 0)
(0.03583758987220772 0 0)
(0.03593162065530766 0 0)
(0.03602407562259558 0 0)
(0.03611173368388767 0 0)
(0.03619338115281804 0 0)
(0.03626742407868535 0 0)
(0.03633389832439562 0 0)
(0.03639050624507742 0 0)
(0.03644115636383877 0 0)
(0.03647403349077881 0 0)
(0.03650627151224316 0 0)
(0.03653352957655195 0 0)
(0.03654922239068163 0 0)
(0.0365579423739154 0 0)
(0.03656158091423504 0 0)
(0.03656093491053845 0 0)
(0.03655743724566402 0 0)
(0.0365530297450193 0 0)
(0.03654867109500169 0 0)
(0.03654503991611373 0 0)
(0.03654167275190083 0 0)
(0.03654542765425683 0 0)
(0.03651219561783288 0 0)
(0.03651415481142347 0 0)
(0.0365138624451784 0 0)
(0.03651969588401974 0 0)
(0.03653098539044983 0 0)
(0.03654852051538223 0 0)
(0.03657206601976237 0 0)
(0.03660270341340531 0 0)
(0.03663999901010134 0 0)
(0.03668748164375009 0 0)
(0.03673700815647076 0 0)
(0.03679906854797363 0 0)
(0.03687561973112159 0 0)
(0.03695831334345316 0 0)
(0.03704634950785717 0 0)
(0.03714018946883774 0 0)
(0.03723735975820533 0 0)
(0.037337438455864 0 0)
(0.03744080706747826 0 0)
(0.03754771291680815 0 0)
(0.03765636080772769 0 0)
(0.03776487000406496 0 0)
(0.03787933860361901 0 0)
(0.03795859072322652 0 0)
(0.0380573834564808 0 0)
(0.03815525278040027 0 0)
(0.0382492307188925 0 0)
(0.03833912610450262 0 0)
(0.03842417166565249 0 0)
(0.03850232032229503 0 0)
(0.03857274911940824 0 0)
(0.03863444807402527 0 0)
(0.03868765401837772 0 0)
(0.03872995825320481 0 0)
(0.03875946136429789 0 0)
(0.03879046484097882 0 0)
(0.03881355562473444 0 0)
(0.03882514173346635 0 0)
(0.03883170664115877 0 0)
(0.03883357513770314 0 0)
(0.03883192702892563 0 0)
(0.03882826576569627 0 0)
(0.03882505594011914 0 0)
(0.0388220408760032 0 0)
(0.03882013795292803 0 0)
(0.03882208756997561 0 0)
(0.03880581815142536 0 0)
(0.03879194588750411 0 0)
(0.03879554475135715 0 0)
(0.03879938561826773 0 0)
(0.03880922023592775 0 0)
(0.03882539439502242 0 0)
(0.03884802116702777 0 0)
(0.03887729676636473 0 0)
(0.03891374490019175 0 0)
(0.03895677609954307 0 0)
(0.03901031430523354 0 0)
(0.03906078574522485 0 0)
(0.03913515779129346 0 0)
(0.03922062635298779 0 0)
(0.0393063193198897 0 0)
(0.03939927313690689 0 0)
(0.03949626036034858 0 0)
(0.03959605752753716 0 0)
(0.03969869887376441 0 0)
(0.03980506294548837 0 0)
(0.03991421177538092 0 0)
(0.04002403016570897 0 0)
(0.04013474613842063 0 0)
(0.04023733668686972 0 0)
(0.0403177537634643 0 0)
(0.0404227169481069 0 0)
(0.04051715890138743 0 0)
(0.04060923649910238 0 0)
(0.04069662497674635 0 0)
(0.04077847696756599 0 0)
(0.04085326308707814 0 0)
(0.04091979637728045 0 0)
(0.04097583560476819 0 0)
(0.04102649636676822 0 0)
(0.04105605671694835 0 0)
(0.04109000276225845 0 0)
(0.04111951546326716 0 0)
(0.04113417536949835 0 0)
(0.04114341669687571 0 0)
(0.0411479248198429 0 0)
(0.04114847156499874 0 0)
(0.04114609306846118 0 0)
(0.04114311683740333 0 0)
(0.04114140728684975 0 0)
(0.04114049183974738 0 0)
(0.04113948760291341 0 0)
(0.04114365567856944 0 0)
(0.04111119211331736 0 0)
(0.04111963295095936 0 0)
(0.0411215730488928 0 0)
(0.04113062482493463 0 0)
(0.04114476601984677 0 0)
(0.04116622901073608 0 0)
(0.04119465739470379 0 0)
(0.0412299866903568 0 0)
(0.04127115643525064 0 0)
(0.04132335403426932 0 0)
(0.04137404636910254 0 0)
(0.04144332946153158 0 0)
(0.04152519057362457 0 0)
(0.04161044014258694 0 0)
(0.04170176757856864 0 0)
(0.04179838140835007 0 0)
(0.0418982733364081 0 0)
(0.04200073194985522 0 0)
(0.04210588439974024 0 0)
(0.04221574180280726 0 0)
(0.04232666076256878 0 0)
(0.0424364293388796 0 0)
(0.04255391812845338 0 0)
(0.04262482444337738 0 0)
(0.04273235121020998 0 0)
(0.04282915517316086 0 0)
(0.04292369228788544 0 0)
(0.04301291438861898 0 0)
(0.04309778082400969 0 0)
(0.0431766814985169 0 0)
(0.04324793595692744 0 0)
(0.04330911379667737 0 0)
(0.04336263508119163 0 0)
(0.04340148418631552 0 0)
(0.04343468812279329 0 0)
(0.0434655241861102 0 0)
(0.04348678481902112 0 0)
(0.04349770301319111 0 0)
(0.04350353089262256 0 0)
(0.0435049205700492 0 0)
(0.0435025255588638 0 0)
(0.0434975182275141 0 0)
(0.04349421376013089 0 0)
(0.04349097501412619 0 0)
(0.04348780231492698 0 0)
(0.04349051593108635 0 0)
(0.04346311204260597 0 0)
(0.04345585460467025 0 0)
(0.04345597020121769 0 0)
(0.04345802374974032 0 0)
(0.04346421563941341 0 0)
(0.04347645017500639 0 0)
(0.04349560529080931 0 0)
(0.04352134147993041 0 0)
(0.04355217832995433 0 0)
(0.0435891574800485 0 0)
(0.04363322206216268 0 0)
(0.04367748628169787 0 0)
(0.04374332741722189 0 0)
(0.04381878929675445 0 0)
(0.04389413027330252 0 0)
(0.0439775809113457 0 0)
(0.04406578287766973 0 0)
(0.04415762656280302 0 0)
(0.04425195808895626 0 0)
(0.04435158223609333 0 0)
(0.04445493478932045 0 0)
(0.04455974782093596 0 0)
(0.0446657473153755 0 0)
(0.04475755109681112 0 0)
(0.04483864965540559 0 0)
(0.04494092207306045 0 0)
(0.0450342403961389 0 0)
(0.04512556075755689 0 0)
(0.04521336307654355 0 0)
(0.0452983083487007 0 0)
(0.04537891213280352 0 0)
(0.04545217546917458 0 0)
(0.04551575549229135 0 0)
(0.0455756770775495 0 0)
(0.04561207396054163 0 0)
(0.04565949308340283 0 0)
(0.04570462271931219 0 0)
(0.04573083010573288 0 0)
(0.04575301663481224 0 0)
(0.04576899802619999 0 0)
(0.04578065869071765 0 0)
(0.04578794596022179 0 0)
(0.04579433019149484 0 0)
(0.04580158283937077 0 0)
(0.04580861466837917 0 0)
(0.04581339612481566 0 0)
(0.04582069482871916 0 0)
(0.0457912876933648 0 0)
(0.04580652140085273 0 0)
(0.04581075975007351 0 0)
(0.04582032959832234 0 0)
(0.04583287976615334 0 0)
(0.04585150194768171 0 0)
(0.04587733606272269 0 0)
(0.04590796648503557 0 0)
(0.04594170210129311 0 0)
(0.0459851357168736 0 0)
(0.04602147050784254 0 0)
(0.04608043984380533 0 0)
(0.04615223111289442 0 0)
(0.04622221083520492 0 0)
(0.04630016850301582 0 0)
(0.04638410429970014 0 0)
(0.04647316210114302 0 0)
(0.04656517226777505 0 0)
(0.04666082362025682 0 0)
(0.04676231200537621 0 0)
(0.04686720689085323 0 0)
(0.04696892967850568 0 0)
(0.0470833510034465 0 0)
(0.04713827933226717 0 0)
(0.04725057869916243 0 0)
(0.04734379449211033 0 0)
(0.04743745692266926 0 0)
(0.04752606943402657 0 0)
(0.04761154440585592 0 0)
(0.04769478720087664 0 0)
(0.04777243774713492 0 0)
(0.04784051998823315 0 0)
(0.04790253993469767 0 0)
(0.04794736668997016 0 0)
(0.04799386986289079 0 0)
(0.04803759354454972 0 0)
(0.04807025361297397 0 0)
(0.04809346210073955 0 0)
(0.04811131489856436 0 0)
(0.04812429896209326 0 0)
(0.04813348310219592 0 0)
(0.04813903858974825 0 0)
(0.04814623989787538 0 0)
(0.0481536076893803 0 0)
(0.04815808306560915 0 0)
(0.04817127002242552 0 0)
(0.048141187263732 0 0)
(0.04814989481884808 0 0)
(0.04815603844143674 0 0)
(0.04816492856360087 0 0)
(0.04817588546669982 0 0)
(0.04819116584524621 0 0)
(0.04821419613952035 0 0)
(0.0482443372674988 0 0)
(0.04827827875067983 0 0)
(0.04831729993068663 0 0)
(0.04835899555353786 0 0)
(0.04840745363937625 0 0)
(0.04847211269386429 0 0)
(0.04854599468966626 0 0)
(0.04861971261961125 0 0)
(0.04870168988780278 0 0)
(0.04878866528049508 0 0)
(0.04888025760301706 0 0)
(0.04897416229246579 0 0)
(0.04907393641940741 0 0)
(0.04917720928696768 0 0)
(0.04928163236926981 0 0)
(0.04938729447766344 0 0)
(0.0494720735982359 0 0)
(0.04955735831135994 0 0)
(0.04965913018855471 0 0)
(0.04975274259405506 0 0)
(0.04984293156168846 0 0)
(0.0499285868379895 0 0)
(0.05001135578786909 0 0)
(0.05009197472665931 0 0)
(0.05016558052483534 0 0)
(0.05022812353701506 0 0)
(0.05028600342071075 0 0)
(0.05031937689129919 0 0)
(0.05036469106327476 0 0)
(0.05041115761212067 0 0)
(0.05043410165024544 0 0)
(0.05045470204927758 0 0)
(0.05046884774673428 0 0)
(0.05047971891607238 0 0)
(0.05048666826288671 0 0)
(0.05049397318786086 0 0)
(0.0505002272860986 0 0)
(0.0505081849998486 0 0)
(0.05051204411714223 0 0)
(0.05051833015483408 0 0)
(0.050487360571906 0 0)
(0.05050630190460065 0 0)
(0.05051236601753253 0 0)
(0.05052340130907496 0 0)
(0.05053676650636801 0 0)
(0.05055527868064864 0 0)
(0.05058293099488119 0 0)
(0.05061738338601571 0 0)
(0.05065410977449342 0 0)
(0.05070009226023605 0 0)
(0.05073463207052832 0 0)
(0.0507962310524059 0 0)
(0.05087407958858956 0 0)
(0.05094447808186389 0 0)
(0.05102422376749673 0 0)
(0.05110909153355637 0 0)
(0.05119901597797584 0 0)
(0.05129208236422443 0 0)
(0.05139100199409048 0 0)
(0.05149234727677784 0 0)
(0.05159853272723827 0 0)
(0.0516980045487419 0 0)
(0.0518163589199442 0 0)
(0.0518577891732272 0 0)
(0.0519791489831618 0 0)
(0.05207088952707432 0 0)
(0.05216420257800491 0 0)
(0.05225135183127319 0 0)
(0.05233396187617324 0 0)
(0.05241429453517454 0 0)
(0.05249118991263112 0 0)
(0.05255981666921203 0 0)
(0.05262073757164425 0 0)
(0.05266156422513425 0 0)
(0.05270597958030793 0 0)
(0.05275013527389374 0 0)
(0.05278089950831169 0 0)
(0.05280236902538572 0 0)
(0.05281880018678267 0 0)
(0.05283079952586617 0 0)
(0.05283872717434254 0 0)
(0.05284636694200325 0 0)
(0.05285481523090316 0 0)
(0.0528614053409903 0 0)
(0.05286599012057206 0 0)
(0.05288054698645383 0 0)
(0.05284093364833119 0 0)
(0.05285911183149264 0 0)
(0.05286623762924934 0 0)
(0.05287711528642825 0 0)
(0.05288978371950132 0 0)
(0.05290630291889471 0 0)
(0.05292945139733521 0 0)
(0.0529600318256525 0 0)
(0.05299833072323627 0 0)
(0.05304103061349306 0 0)
(0.05308527173472233 0 0)
(0.05313362976167948 0 0)
(0.05319955471846503 0 0)
(0.05327869753236897 0 0)
(0.05335226952977432 0 0)
(0.05343601845606635 0 0)
(0.05352435375961481 0 0)
(0.0536163931411971 0 0)
(0.05371099045499251 0 0)
(0.05381542672818906 0 0)
(0.05391879279827163 0 0)
(0.05402155063088601 0 0)
(0.05412799504251356 0 0)
(0.05420390837994273 0 0)
(0.05429144631224608 0 0)
(0.05439628157838182 0 0)
(0.05448885348941967 0 0)
(0.05457709048161718 0 0)
(0.05466191209877185 0 0)
(0.05474525550106081 0 0)
(0.05482237491870902 0 0)
(0.05488979303344779 0 0)
(0.05496143509604324 0 0)
(0.05508192258025479 0 0)
(0.05507411574657049 0 0)
)
;

boundaryField
{
    inlet
    {
        type            calculated;
        value           uniform (0.01538048805700108 0 0);
    }
    outlet
    {
        type            calculated;
        value           uniform (0.05507411574657049 0 0);
    }
    frontAndBack
    {
        type            empty;
    }
}


// ************************************************************************* //
