/*--------------------------------*- C++ -*----------------------------------*\
| =========                 |                                                 |
| \\      /  F ield         | OpenFOAM: The Open Source CFD Toolbox           |
|  \\    /   O peration     | Version:  v2012                                 |
|   \\  /    A nd           | Website:  www.openfoam.com                      |
|    \\/     M anipulation  |                                                 |
\*---------------------------------------------------------------------------*/
FoamFile
{
    version     2.0;
    format      ascii;
    class       volScalarField;
    location    "0.014";
    object      p;
}
// * * * * * * * * * * * * * * * * * * * * * * * * * * * * * * * * * * * * * //

dimensions      [1 -1 -2 0 0 0 0];


internalField   nonuniform List<scalar> 
1000
(
101311.604058059
101314.2347502101
101307.4463580306
101302.0954560535
101296.1714610782
101290.8453920946
101286.268108335
101282.3646648978
101279.0018512506
101276.6534704498
101275.8882561841
101275.9430631574
101276.2687230763
101277.1833180974
101279.009799291
101281.8536184663
101285.6276765364
101290.1653991335
101295.3254081817
101301.013976005
101307.156496496
101313.6655323905
101320.4271675298
101327.3038684922
101334.1431057604
101340.7861903763
101347.0822422602
101352.9391514183
101358.3679256753
101363.4238968767
101367.9904489802
101371.3265191406
101372.7312240654
101373.0072200604
101372.8946876513
101372.7250897223
101372.1982206548
101371.0735240356
101369.0845315112
101366.0550971489
101361.9614419485
101356.9190526872
101351.1202827006
101344.763509873
101338.0134485702
101331.003480914
101323.8629803193
101316.7413470464
101309.8004807311
101303.1736302549
101296.9192367217
101290.9976449875
101285.5813788359
101281.0542644115
101278.2963692985
101277.6233736647
101277.7824041661
101278.2397429472
101279.1346096828
101280.0382488817
101281.2498725974
101282.9524775785
101285.3237663323
101288.4647056297
101292.3779977302
101296.9708913754
101302.0964009129
101307.6118438201
101313.4167105384
101319.4581372721
101325.7207054607
101332.2160187659
101338.9736064644
101346.0772641745
101353.4629066395
101361.0800704694
101368.0342408343
101372.7792626362
101376.7950364352
101379.8995502085
101382.2180928254
101383.897855885
101385.0500549806
101385.3579652699
101384.5921726166
101382.8389080129
101379.7909148331
101375.3096796783
101369.427719557
101362.3830563265
101354.5279760367
101346.2216980649
101337.7701858717
101329.395574474
101321.2160027783
101313.2718553384
101305.5846421433
101298.2617651627
101291.6929184153
101286.5732430644
101283.3279707773
101281.5087418556
101280.9716202546
101281.145982713
101281.7159433244
101282.678547606
101284.008610749
101285.6631715578
101287.7172633047
101290.3347781638
101293.6728342496
101297.8113447242
101302.7223868766
101308.2801996737
101314.3035986685
101320.6155643009
101327.1038997219
101333.7491211696
101340.5853090882
101347.6853421142
101355.0155597919
101362.3360932688
101369.1620595503
101374.0608573827
101377.9477156082
101381.0760091754
101383.4806850116
101385.2807129904
101386.5540666117
101387.0596996632
101386.6256294983
101385.3266644316
101382.9736619655
101379.3836043604
101374.4532525379
101368.2395166631
101360.944675067
101352.8661275865
101344.3440536665
101335.6992622899
101327.1613928216
101318.8547674687
101310.8618736706
101303.3167244956
101296.5456676778
101291.1347527903
101287.5426402157
101285.5355304907
101284.5909739685
101284.3945367689
101284.6536398693
101285.3260480556
101286.4310785968
101287.904116128
101289.7787080378
101292.1670128131
101295.1995082561
101298.9821399805
101303.5687462565
101308.9396654354
101314.991242725
101321.5531158399
101328.445396872
101335.5449972538
101342.7934113919
101350.1626920707
101357.5795100755
101364.7654244803
101371.5127740483
101376.7149804139
101380.2575724966
101383.2779404169
101385.6560007901
101387.5253990474
101388.8995273102
101389.6388146204
101389.5744059992
101388.6595662213
101386.8171685828
101383.8620309992
101379.6827968406
101374.2613295402
101367.6771735494
101360.0973557524
101351.7756206567
101343.0263882955
101334.1511129603
101325.3830478028
101316.9081269696
101308.9244308848
101301.7591265911
101295.9822839729
101292.0572577759
101289.7978615026
101288.6621665304
101288.107631117
101287.9578767102
101288.2629478639
101288.9576399086
101290.0496939354
101291.5871349636
101293.6729836941
101296.4230895872
101299.9369485856
101304.2825188595
101309.4820955071
101315.4963404621
101322.2160885283
101329.4776219985
101337.1083108116
101344.9605209711
101352.9147535297
101360.7654621847
101368.1791918219
101375.0165268786
101380.5047503501
101383.7340993965
101386.561983592
101388.7951702619
101390.6097071667
101392.0214361987
101392.9673898296
101393.2065689007
101392.6193801439
101391.2457179089
101388.8653268656
101385.3555524754
101380.6499886412
101374.7425123464
101367.7066971882
101359.7185065973
101351.0412068109
101341.9652341898
101332.7628565562
101323.704224205
101315.0870510868
101307.3096216218
101301.0128681941
101296.7186480718
101294.241233001
101293.0151406568
101292.2123812127
101291.7765783761
101291.7500801446
101292.0087023774
101292.619695825
101293.6697736499
101295.2781375797
101297.5754798592
101300.6784660163
101304.6800068169
101309.639715022
101315.5627580842
101322.3807173045
101329.954738505
101338.0993551321
101346.6181108101
101355.3062315214
101363.8800608754
101371.9854287093
101379.2859037638
101385.023871018
101388.398276914
101391.0029260613
101393.1431267697
101394.8524708671
101396.1733860985
101397.1070503877
101397.4903410287
101397.215304036
101396.2644935873
101394.4235153114
101391.5242560423
101387.4653008281
101382.1976201325
101375.7355830902
101368.1751871858
101359.6949800178
101350.5360803054
101340.9766454716
101331.3349984067
101321.9727251141
101313.3780939555
101306.3498921661
101301.5922155341
101298.8685035793
101297.4524038168
101296.5832196502
101295.9876984018
101295.7660502917
101295.7642014959
101295.9861466002
101296.541974797
101297.5664797138
101299.2289124781
101301.6966700191
101305.1135462202
101309.5914547377
101315.1913792696
101321.8969756873
101329.607883069
101338.1560368372
101347.333040005
101356.87850423
101366.4413787846
101375.6186812477
101383.8336544653
101390.1399037012
101394.0534078631
101396.7095365407
101398.9114036291
101400.5588146271
101401.7487546265
101402.5395285625
101402.8889186465
101402.7807549495
101402.1619685022
101400.7944640737
101398.4690930601
101395.0588779814
101390.4835383051
101384.6899292694
101377.6734292617
101369.5221769393
101360.4285728979
101350.6413881177
101340.4627001006
101330.3025632822
101320.7464600954
101312.7075401028
101307.1091114366
101303.8349151574
101302.0292706046
101301.0517184252
101300.3405562992
101300.0878414668
101300.0568700085
101300.1671377601
101300.4759432269
101301.0789140378
101302.1488904044
101303.9030267447
101306.5547383357
101310.277481131
101315.1852840015
101321.3270527929
101328.6917218994
101337.1963281453
101346.6719012092
101356.8473335201
101367.3219624141
101377.6409529608
101387.1394633491
101394.6279143076
101399.5511700036
101403.0684352839
101405.876817935
101407.9193531511
101409.4240786375
101410.526343213
101411.2305158769
101411.4577212657
101411.1999240968
101410.4133949839
101408.852823247
101406.2940226458
101402.557654639
101397.5222313851
101391.1426585951
101383.4625840228
101374.6054666362
101364.7458664561
101354.1472203791
101343.2472193734
101332.6585558975
101323.3176899648
101316.3618821753
101311.9830062235
101309.363769503
101307.5688032429
101306.3449509057
101305.7577054277
101305.5806043749
101305.5822491602
101305.757600996
101306.1990143689
101307.0195445505
101308.3937150587
101310.5239171405
101313.602277536
101317.791173569
101323.2116582969
101329.9234947267
101337.8975927484
101347.0151985103
101357.114746782
101367.8961951144
101378.8779001941
101389.5120738994
101398.5500846825
101404.8146486875
101410.0417317445
101414.3412439291
101417.8479684076
101420.7825896506
101423.2416645559
101425.2409010375
101426.7736436143
101427.8577135397
101428.2344048705
101427.683881604
101426.1899286488
101423.542927135
101419.5367942414
101414.0082780618
101406.8916404959
101398.2345176137
101388.1918184004
101377.0244455366
101365.1894816097
101353.3258820024
101342.335320987
101333.5012416679
101327.2927136632
101322.9065853644
101319.4255617732
101317.0545288606
101315.4863489377
101314.3944426979
101313.6396277348
101313.2670862076
101313.2548999034
101313.6061753221
101314.4937449439
101316.0950291525
101318.5929396398
101322.1879744493
101327.0706725638
101333.3673182862
101341.1032662279
101350.2164870117
101360.6192409901
101372.0524718214
101383.9709166889
101395.8506859965
101406.4593236347
101414.436364889
101421.5466264242
101427.4496381115
101432.3445635368
101436.4523145814
101439.8834763878
101442.6824490008
101444.8855256162
101446.4976437975
101447.598146007
101447.852399524
101447.008240444
101445.0795408741
101441.8469797981
101437.1514748051
101430.8135278642
101422.7600716922
101413.0663381829
101401.8957652585
101389.6293454329
101376.9388664901
101364.6111558887
101353.9646123456
101345.9814924417
101339.3866762524
101334.0227199487
101329.927065591
101326.836897218
101324.4927728533
101322.7053844203
101321.3593780372
101320.3793992064
101319.9303651321
101320.2244888241
101321.3115679379
101323.3287282533
101326.4671021178
101330.9331948531
101336.8901906984
101344.4191152398
101353.5296537992
101364.1881729914
101376.1459644243
101388.8027264937
101401.6480593688
101413.5624794905
101423.0813572697
101431.726282487
101439.0336524782
101445.106164376
101450.1200694064
101454.2150220193
101457.5144621213
101460.1229554766
101462.0537776524
101463.3089184661
101463.8620891181
101463.4129213962
101461.7886190749
101458.9124550635
101454.6241960762
101448.8503714819
101441.498513966
101432.4718632277
101421.7513690774
101409.6251733658
101396.801354339
101383.9418985247
101372.0760086023
101362.6557238351
101354.6351083112
101347.7805872177
101342.2345399574
101337.8150079237
101334.2914147702
101331.4618887756
101329.1887582432
101327.4512391564
101326.2742901785
101325.6987422272
101326.0832988255
101327.6416502403
101330.4296769458
101334.6060241807
101340.2693344485
101347.5529192814
101356.5609410327
101367.2952898849
101379.512000005
101392.6291125379
101406.1753650528
101419.1409335545
101429.950200844
101439.7631327291
101448.2184772978
101455.2493466671
101461.0088768012
101465.6769613485
101469.4004407796
101472.2859270411
101474.4137248983
101475.7809190897
101476.5749960573
101476.3162424769
101474.8290885296
101472.2228732043
101468.2122197732
101462.7727884442
101455.81689811
101447.2522915013
101437.0695685502
101425.4315480309
101412.8074041026
101399.874002464
101387.3987816848
101376.6912243406
101367.9031768868
101359.9654855332
101353.3191569129
101347.8608983388
101343.3912364043
101339.7126980779
101336.688742439
101334.2616153319
101332.4836228113
101331.3892940589
101331.1417633513
101332.1340590482
101334.5736265779
101338.5407651051
101344.1256900861
101351.3843427392
101360.3980369573
101371.1914565066
101383.5811674037
101397.067937632
101411.227447574
101425.1011254404
101437.1350271343
101448.0112268158
101457.5347871554
101465.4993614147
101472.0101922777
101477.2309493304
101481.3327986207
101484.4854798482
101486.8354711342
101488.3932437088
101489.2473128414
101489.2101687423
101488.101183362
101485.8093392018
101482.1316069349
101476.9808300981
101470.2888326438
101462.0421111659
101452.2602292727
101440.9755409468
101428.4532105043
101415.3412880433
101402.2700713833
101390.3305600908
101380.6014647643
101371.6708146033
101364.092872343
101357.8584598982
101352.8315490948
101348.8320801948
101345.6944932341
101343.3059143047
101341.6322898766
101340.6616206706
101340.4223784263
101341.2914091561
101343.4834851854
101347.0604362883
101352.1557297321
101358.739060832
101366.7608314042
101376.1685100717
101386.8751933107
101398.586310074
101410.7085725239
101422.6030876885
101433.562850295
101442.7564456426
101450.0050474511
101455.7136779321
101460.3011058879
101463.4070668714
101465.2093515447
101465.9913987227
101466.0334431652
101465.5765459281
101464.6870248844
101463.339331156
101461.4530817307
101458.8988959396
101455.5119203942
101451.1170138807
101445.5400007865
101438.6173593318
101430.2507817914
101420.4800836061
101409.4822381335
101397.6528614695
101385.5512181547
101373.781241227
101363.5984917828
101355.6298324418
101348.5563323926
101342.8428111279
101338.353248218
101334.9251815425
101332.4222994388
101330.6919246727
101329.5939694108
101328.9680935111
101328.9080864256
101329.6342432868
101331.3019178146
101334.0957625101
101338.1740967986
101343.7197708795
101350.8850824445
101359.7202117283
101370.128815404
101381.8609117651
101394.4876055019
101407.6209069446
101420.4560822417
101431.6416564305
101441.097171955
101449.3803624802
101456.0618130076
101461.2489157023
101465.1222355537
101467.8435973941
101469.5316393665
101470.3782114832
101470.4693716201
101469.8328343091
101468.4984700114
101466.3753266004
101463.3790728119
101459.3815901996
101454.2183126795
101447.7301657209
101439.8313399499
101430.5203717362
101419.8517620946
101408.1162661152
101395.9508269163
101383.8453610102
101372.7432922816
101363.9503859599
101356.0834539403
101349.4782062356
101344.1607951728
101339.9996368298
101336.8523868199
101334.5796778387
101333.0432217323
101332.1420800255
101331.7082441139
101332.0474466032
101333.357627155
101335.6785509655
101339.2842001737
101344.3241652679
101350.9530497199
101359.2586975116
101369.1955940389
101380.6121432932
101393.1873384775
101406.5035859308
101419.8429971436
101431.9332156121
101442.1919765233
101451.3369333861
101458.9305032095
101464.9920552371
101469.6284501148
101472.9677221758
101475.1763128592
101476.4137874208
101476.8897567106
101476.5598990838
101475.4548731954
101473.6284787564
101470.8968017718
101467.1378008402
101462.2263030928
101456.0845465873
101448.6389648932
101439.8054545908
101429.5689458199
101418.1494478296
101406.0772738024
101393.8426134416
101382.1528134742
101372.4265894768
101364.0441399479
101356.6927790184
101350.6127776575
101345.7418231459
101341.9526620282
101339.1054500126
101337.0576994289
101335.7137559158
101334.9965295882
101334.9209601417
101335.7614771081
101337.7388829651
101340.9859842337
101345.6790664009
101351.9389460866
101359.8544188565
101369.4322087919
101380.6204387525
101393.176482454
101406.6332113219
101420.3684121983
101433.2674328725
101444.4318250917
101454.3819274387
101462.7715378472
101469.5226646376
101474.7476384273
101478.5822081114
101481.1976530999
101482.7448896234
101483.478549567
101483.3710262046
101482.460221861
101480.8318917583
101478.3020083291
101474.8016434266
101470.2206109281
101464.4551625503
101457.3863720446
101448.9296114008
101439.1057962651
101428.0524868529
101416.1222786485
101403.8661932859
101391.8236367457
101381.0505221965
101372.2189675938
101364.148637925
101357.3753950816
101351.8641748742
101347.5059094867
101344.17287892
101341.7342872574
101340.0583838274
101339.0857631594
101338.6732351332
101339.2041158933
101340.8832380183
101343.7297929726
101348.0110455136
101353.8158048626
101361.2239371195
101370.2597248906
101380.8520323134
101392.759981722
101405.5291146227
101418.699401376
101431.4726847091
101442.750229203
101452.2767380929
101460.2799052303
101466.7432554735
101471.4965303414
101474.7301149938
101476.7069157031
101477.5186177985
101477.3549006206
101476.5508564021
101475.1165822498
101473.0831732922
101470.4016142277
101466.9770766221
101462.6768675616
101457.3669164575
101450.9474654459
101443.3514448108
101434.5287454287
101424.4892316426
101413.4528654192
101401.9136763737
101390.2758803419
101379.1469970191
101369.9498759958
101361.8871944713
101354.8426364442
101349.0309595735
101344.4370272232
101340.9959532735
101338.6099089883
101337.1366660504
101336.3890569936
101336.2453827144
101336.8071063048
101338.2021079413
101340.5713264348
101344.1205283378
101349.0406520628
101355.514001456
101363.6445813275
101373.39283336
101384.6294721715
101397.0700785129
101410.3692900276
101423.8433716218
101436.2761464961
101447.0808073359
101456.5968515877
101464.4496523855
101470.6124059255
101475.1896892772
101478.3029071153
101480.1575314922
101480.8715310353
101480.6173269814
101479.6686151986
101478.0532756832
101475.7504660394
101472.6782890542
101468.7074796548
101463.7202963401
101457.6271295104
101450.3443022458
101441.8064832371
101432.0410747674
101421.2225547463
101409.7357042491
101398.0632151204
101386.6588007883
101376.5273804222
101368.2312775128
101360.609200995
101354.2013666187
101349.0107400643
101344.9990625106
101342.0933571883
101340.1665144139
101339.0862974413
101338.6418203575
101338.9439693025
101340.0640331993
101342.0346867703
101345.1243142747
101349.527014279
101355.4492498131
101363.0232941788
101372.267315927
101383.110491269
101395.3183733231
101408.4625033681
101422.0193317146
101434.9779755408
101446.4801388817
101456.577733474
101465.1053528547
101471.8395084613
101476.8842479836
101480.3687284796
101482.5025320101
101483.3696176322
101483.1675119879
101482.2523087556
101480.6673323747
101478.4295195897
101475.5014331228
101471.7996590873
101467.199766312
101461.5451923346
101454.6986989212
101446.6024180638
101437.2899797877
101426.8526108939
101415.5709032458
101403.9595190342
101392.4133132018
101381.6732758864
101372.9069716606
101365.0539193255
101358.2359905953
101352.6057548546
101348.1198761639
101344.7246196218
101342.3752945473
101341.00386608
101340.4061583192
101340.6346723871
101341.666014966
101343.4320030299
101346.1448022998
101349.9859165705
101355.1769955553
101361.9296462396
101370.3651193272
101380.4349346276
101391.9175977568
101404.3744702842
101417.4067411208
101430.2299532886
101441.7632052801
101451.6880704363
101460.0109042239
101466.7644790574
101471.7458529031
101475.0818346383
101477.0661016527
101477.7069522234
101477.1491318238
101475.8938690362
101473.9085971122
101471.3326955597
101468.2321362666
101464.5727265034
101460.2112549497
101454.975066291
101448.7308985353
101441.3912370433
101432.9140994489
101423.3458306917
101412.874876791
101401.8821326362
101390.7845955012
101379.9778140228
101370.4777664448
101362.7936913248
101355.9065445813
101350.3027516763
101345.9088489782
101342.5474034425
101340.0254151229
101338.221255163
101337.1724795772
101337.0059559017
101338.2007682968
101340.9247250961
101344.6639872445
101348.7491085458
101352.867530426
101357.5910068888
101364.1420205379
101373.0557526397
101384.5664326146
101396.8181410543
101416.0235082428
)
;

boundaryField
{
    inlet
    {
        type            uniformFixedValue;
        uniformValue    sine;
        uniformValueCoeffs
        {
            frequency       constant 3000;
            scale           constant 50;
            level           constant 101325;
        }
        value           uniform 101325;
    }
    outlet
    {
        type            characteristicVelocityInletOutletPressure;
        UName           U;
        pName           p;
        TName           T;
        phiName         phi;
        rhoName         rho;
        U               (0 0 0);
        p               101325;
        T               300;
        value           uniform 101416.0235082428;
    }
    frontAndBack
    {
        type            empty;
    }
}


// ************************************************************************* //
