/*--------------------------------*- C++ -*----------------------------------*\
| =========                 |                                                 |
| \\      /  F ield         | OpenFOAM: The Open Source CFD Toolbox           |
|  \\    /   O peration     | Version:  v2012                                 |
|   \\  /    A nd           | Website:  www.openfoam.com                      |
|    \\/     M anipulation  |                                                 |
\*---------------------------------------------------------------------------*/
FoamFile
{
    version     2.0;
    format      ascii;
    class       volScalarField;
    location    "0.014";
    object      pMean;
}
// * * * * * * * * * * * * * * * * * * * * * * * * * * * * * * * * * * * * * //

dimensions      [1 -1 -2 0 0 0 0];


internalField   nonuniform List<scalar> 
1000
(
101325.0415089844
101325.002652198
101325.0128801399
101325.0225620542
101325.0357552999
101325.0517051896
101325.0686712916
101325.0899350307
101325.1124907455
101325.1372442909
101325.1627450498
101325.1880731557
101325.2133799424
101325.2382594982
101325.2624906789
101325.2854428869
101325.3066627549
101325.3256844499
101325.342121198
101325.3558126824
101325.3664000032
101325.3738519529
101325.3779322179
101325.3786733094
101325.375922665
101325.3698529411
101325.3604905002
101325.3480143805
101325.3325150412
101325.3143062367
101325.2933801403
101325.2701514608
101325.2455342422
101325.2204309194
101325.1952084129
101325.1701586808
101325.1453962498
101325.1212336047
101325.0980830245
101325.0765297834
101325.0570078506
101325.0399540177
101325.0258199727
101325.0147701181
101325.0068623613
101325.0021779819
101325.0008819567
101325.0028722998
101325.0081224648
101325.0166124864
101325.0282706509
101325.042976564
101325.06080028
101325.0813092948
101325.1043188517
101325.1287098723
101325.1537282767
101325.1790729764
101325.2046220252
101325.2300099144
101325.2550938682
101325.2793245561
101325.3021137436
101325.322962565
101325.3410563769
101325.3560391675
101325.3672436688
101325.3746638672
101325.3778675272
101325.3774575807
101325.37310853
101325.3650953502
101325.3537654508
101325.3396101851
101325.3225211178
101325.3033337345
101325.280998548
101325.2587952687
101325.2366229798
101325.2150915145
101325.1944914074
101325.1749769081
101325.1570579659
101325.1403044693
101325.1249109582
101325.1111301695
101325.0988108252
101325.0884284988
101325.0806779252
101325.0752974384
101325.0727423332
101325.0729125412
101325.076167494
101325.0824955914
101325.0911504136
101325.1040369395
101325.1187368798
101325.1364068178
101325.1573052517
101325.179330766
101325.2041866668
101325.2300012053
101325.2565757975
101325.2835336515
101325.3101473283
101325.337235662
101325.3637511684
101325.3892966836
101325.4136364054
101325.4364901293
101325.4570068208
101325.4752648795
101325.4898711329
101325.5009210479
101325.5078131608
101325.5107663014
101325.5101254731
101325.5048634559
101325.4974018346
101325.4856461773
101325.4707034686
101325.4538353582
101325.4326226111
101325.4114700682
101325.3902653544
101325.3696010519
101325.3500925767
101325.3310996698
101325.3142777362
101325.2987130306
101325.2842895347
101325.2711594922
101325.2598292404
101325.2495795518
101325.2420251909
101325.2366634352
101325.2336335921
101325.2335636585
101325.2363808204
101325.24304642
101325.2518860573
101325.2660812551
101325.2821420471
101325.3011727736
101325.3236235669
101325.3472782448
101325.3732409458
101325.4007205709
101325.4287660106
101325.4573757154
101325.4854424812
101325.513751762
101325.5422320963
101325.5693334893
101325.594808221
101325.6196694325
101325.6417897125
101325.662356049
101325.6801628897
101325.6942540446
101325.7049547999
101325.7115277709
101325.7147637088
101325.7132433936
101325.7090776702
101325.7012018798
101325.6891636287
101325.6745678403
101325.6565698924
101325.6361629231
101325.6166271919
101325.5972938359
101325.5789767166
101325.5615633046
101325.5454708437
101325.531860098
101325.5188378441
101325.5067164009
101325.4970059038
101325.4875340039
101325.4807667757
101325.4764727212
101325.4736726986
101325.473894465
101325.4767548079
101325.4835081441
101325.4931583531
101325.5069094481
101325.5256996687
101325.5459285911
101325.5697143641
101325.5961607606
101325.6228640959
101325.6523906339
101325.6821855093
101325.7123954819
101325.7424540931
101325.7718343587
101325.8022503004
101325.8310195476
101325.8578139422
101325.8842764792
101325.9078761849
101325.9301836914
101325.9505115477
101325.9672449187
101325.9809628068
101325.991133505
101325.99780596
101326.0006209784
101325.9990191083
101325.9967504966
101325.9879183606
101325.9763218707
101325.9621976687
101325.9433525206
101325.9258819579
101325.9083799302
101325.8917442374
101325.8762947845
101325.8614514553
101325.8494636074
101325.8384441005
101325.8281100442
101325.8197568171
101325.8122498667
101325.8067941856
101325.8038893199
101325.8022620235
101325.803202281
101325.8070071148
101325.8138389491
101325.8246400091
101325.8373306463
101325.859268061
101325.8803946253
101325.9055968218
101325.9345687306
101325.9626325428
101325.9941179326
101326.0258559659
101326.0579581613
101326.0901307428
101326.121239595
101326.1528961046
101326.1839704418
101326.2127283861
101326.2400708537
101326.2657699345
101326.289447326
101326.3116161774
101326.3304155021
101326.3466032088
101326.3598711678
101326.3694900439
101326.3764511614
101326.3774745443
101326.3803046884
101326.3755177128
101326.3673361851
101326.3570991705
101326.3413268989
101326.3262586811
101326.3110931923
101326.2967386513
101326.2834943104
101326.2707481644
101326.260111028
101326.2518143788
101326.2437215085
101326.2368144724
101326.2320470265
101326.2283379454
101326.2272789668
101326.2274408489
101326.229892737
101326.2350883275
101326.2428531294
101326.2548461815
101326.2681284773
101326.2903058485
101326.3140234639
101326.3403474777
101326.3710963393
101326.4017330393
101326.4346357803
101326.4683741191
101326.5026406826
101326.5369509863
101326.5705327661
101326.6034291789
101326.6373801786
101326.6682097604
101326.6968149186
101326.7247209857
101326.7498690637
101326.7736840779
101326.7945273933
101326.8124681696
101326.828090292
101326.8403755459
101326.8503792799
101326.8553307074
101326.8598820865
101326.8610766847
101326.8563954713
101326.8494880747
101326.8387054022
101326.8260512843
101326.8139903822
101326.8025300436
101326.79200224
101326.7823522851
101326.7735189083
101326.7684349435
101326.7629729921
101326.7584561065
101326.7565277946
101326.755288144
101326.7565893064
101326.7597298454
101326.7640743267
101326.7714552457
101326.7814125388
101326.7948507254
101326.8109168821
101326.8314080809
101326.8597240894
101326.887155848
101326.919274552
101326.9534372388
101326.9874883709
101327.0234890752
101327.059852275
101327.0965026334
101327.1328354207
101327.167705279
101327.2039136865
101327.2375610451
101327.2685699435
101327.2985986955
101327.325861732
101327.3514634436
101327.3752460237
101327.3944100414
101327.4121874
101327.426976189
101327.4388974117
101327.4479010214
101327.4522843978
101327.459978499
101327.4576155027
101327.4540023005
101327.4477673001
101327.4381073292
101327.4294817402
101327.4210412331
101327.4141439753
101327.4083067231
101327.4030822177
101327.4012132055
101327.4005406506
101327.4001864446
101327.4024714366
101327.405895921
101327.4115411387
101327.4200337899
101327.4283503867
101327.4401532559
101327.4547433066
101327.4718532428
101327.4930062863
101327.5148716391
101327.5488368933
101327.5796411447
101327.6151439923
101327.6536660863
101327.6914084223
101327.7308253718
101327.7701133641
101327.8103096573
101327.8500916026
101327.8884268851
101327.9265576917
101327.9646150688
101327.9987748631
101328.0312137857
101328.0620032313
101328.0905050488
101328.1174308052
101328.1404624523
101328.1604386042
101328.1786446835
101328.1935231691
101328.2062918654
101328.2131683211
101328.2236466327
101328.2263740319
101328.2253819346
101328.2231670309
101328.2173642182
101328.2123527439
101328.2076084186
101328.2052037847
101328.2046534161
101328.2055929153
101328.2089549705
101328.2166837829
101328.2240696564
101328.2339294661
101328.246885655
101328.2617000045
101328.2792341121
101328.2986667336
101328.3186760347
101328.3426915092
101328.3691384863
101328.3991435728
101328.4304684079
101328.468508358
101328.5117437988
101328.5537040343
101328.5997364277
101328.6451245097
101328.6909112176
101328.7364567286
101328.7821871024
101328.8277201528
101328.8716280845
101328.9139402618
101328.9567429349
101328.9957643031
101329.032071921
101329.066803925
101329.0989399159
101329.1290827187
101329.1572312825
101329.1801974104
101329.2021929889
101329.2213767468
101329.2381804911
101329.2512772874
101329.2622193993
101329.2752909164
101329.2787062959
101329.2824467969
101329.2838995174
101329.2850371891
101329.2870604472
101329.2907660329
101329.2976680675
101329.3066807741
101329.317767576
101329.3338009324
101329.3508385379
101329.3699367996
101329.3924589831
101329.416846576
101329.4441866478
101329.474450193
101329.5048857792
101329.5382590804
101329.5747765768
101329.6138745044
101329.6560506158
101329.6999327415
101329.754699908
101329.8053603949
101329.8601345557
101329.9145589983
101329.9681642208
101330.0215223578
101330.0736985715
101330.1259478412
101330.1763258493
101330.2240406193
101330.2711179009
101330.3157796352
101330.3563493273
101330.3946763488
101330.4299342941
101330.4634445627
101330.494809539
101330.5226240215
101330.5470209569
101330.5705266835
101330.5910153828
101330.6098372303
101330.6235848993
101330.6433533065
101330.652436948
101330.6628914486
101330.6709362545
101330.6783976062
101330.6867435003
101330.6962190902
101330.7092288126
101330.7251494272
101330.7430700174
101330.7652546494
101330.7907175607
101330.8172150597
101330.8471137721
101330.8789432716
101330.9138868854
101330.9514810533
101330.9911272025
101331.030831914
101331.0746847853
101331.1207509245
101331.170168882
101331.2204418521
101331.2796976682
101331.339315186
101331.4010220041
101331.462770876
101331.5234017142
101331.5838025812
101331.6424845985
101331.7004109911
101331.7571290891
101331.8105367735
101331.8618813822
101331.9115157698
101331.9565129787
101331.9986557127
101332.0374762516
101332.0739813765
101332.1081557143
101332.1401550027
101332.1672626121
101332.1936888007
101332.2183099848
101332.2411586628
101332.2604732609
101332.2812819829
101332.3002413286
101332.3144323457
101332.3291193114
101332.3421581638
101332.3563303353
101332.3711430017
101332.3883968049
101332.4096945951
101332.4332866626
101332.4600517377
101332.4912293578
101332.5237740898
101332.559441376
101332.5974405682
101332.6378615224
101332.6811482664
101332.726686807
101332.7728935074
101332.8211569474
101332.8728062838
101332.9267532915
101332.9830406674
101333.0424296713
101333.1112564062
101333.1753545709
101333.2436589975
101333.309891841
101333.3762614253
101333.4408147789
101333.5035576152
101333.5656847785
101333.6249498392
101333.6805524841
101333.7346552485
101333.7844204775
101333.8303659991
101333.872810091
101333.9122554623
101333.9497261075
101333.9845962485
101334.0167895105
101334.0452556015
101334.0739238381
101334.1007488486
101334.1258937525
101334.1490378357
101334.1763289026
101334.1956563831
101334.2166698808
101334.236319787
101334.2564904383
101334.277430314
101334.2996915764
101334.3258653186
101334.3553766369
101334.387008839
101334.4235690442
101334.462247654
101334.503579507
101334.5475778196
101334.5934009375
101334.6426935388
101334.6939350368
101334.7474731457
101334.8004103884
101334.8574185187
101334.9165316468
101334.9783901905
101335.0407661887
101335.1140773972
101335.1826664777
101335.2563169053
101335.3275466648
101335.3989155939
101335.4692102025
101335.537222981
101335.6039351891
101335.6692621968
101335.7304469094
101335.7898181012
101335.8456299461
101335.8974372969
101335.9456845186
101335.9902010101
101336.033219481
101336.0736441032
101336.1118498746
101336.1458381379
101336.1789794339
101336.2108704567
101336.2408825774
101336.2672128772
101336.2972727426
101336.320348907
101336.3430736376
101336.3624265258
101336.3807950666
101336.3989917588
101336.4163850897
101336.4347438068
101336.4561560113
101336.4783128638
101336.5031271665
101336.529523959
101336.5582347994
101336.5889744282
101336.6202450458
101336.6547959321
101336.6913737686
101336.7298741405
101336.7695782219
101336.8110022394
101336.8565506868
101336.905015764
101336.9550999789
101337.0116511174
101337.0707610698
101337.1315140784
101337.1931240117
101337.2549469139
101337.3167537556
101337.376749812
101337.4352294637
101337.493418222
101337.5491286894
101337.6019040455
101337.6521945253
101337.6993860579
101337.7431967447
101337.7826295137
101337.819888627
101337.8548395148
101337.8869150025
101337.9166097973
101337.9421125942
101337.9677504259
101337.9922421199
101338.0133317351
101338.0353142574
101338.0552098494
101338.0724752036
101338.0886544003
101338.1040579724
101338.1199640661
101338.1358536879
101338.1526099711
101338.1723861365
101338.1952035264
101338.2196491232
101338.247909048
101338.2779775795
101338.3106835327
101338.3452694493
101338.3819443051
101338.4215701865
101338.4630069719
101338.5068696479
101338.5502577432
101338.5980381246
101338.6491962445
101338.7021168994
101338.7580199477
101338.8223653426
101338.8829427042
101338.9480974026
101339.0126158772
101339.0774470957
101339.1411538415
101339.2026679999
101339.2630561179
101339.3224522658
101339.3780810998
101339.4318222742
101339.4819504829
101339.5278749565
101339.5704868009
101339.609254001
101339.6460137291
101339.6798977036
101339.7115812502
101339.738998233
101339.765614722
101339.7918465683
101339.8159205579
101339.8369614318
101339.8642831657
101339.8794983889
101339.9004928927
101339.9179803634
101339.9365124483
101339.9552687407
101339.9742030134
101339.9953148445
101340.0198440831
101340.0465318494
101340.0767931709
101340.1086163898
101340.1432833346
101340.1815736811
101340.2204721323
101340.2627244072
101340.3070978809
101340.3535263698
101340.4009650638
101340.4499810292
101340.5030907772
101340.5592220293
101340.6151905679
101340.6837964651
101340.7433963917
101340.8122531741
101340.8791063602
101340.9469138996
101341.0140653738
101341.0791418204
101341.1425135693
101341.2045179511
101341.2642315126
101341.3206943769
101341.3737040226
101341.4227214287
101341.4687548729
101341.5100246718
101341.5487686259
101341.5847409271
101341.6180857743
101341.6488741673
101341.6761261271
101341.7041280157
101341.7316245212
101341.75460301
101341.7858974595
101341.8027604433
101341.8270113994
101341.8483680739
101341.8701201654
101341.8922789677
101341.9146664831
101341.937925359
101341.9643288413
101341.9935829914
101342.0253860417
101342.0604979792
101342.0972013354
101342.137410041
101342.1798849219
101342.2242950866
101342.2714527761
101342.3205602855
101342.3716571637
101342.422936655
101342.4779892127
101342.5366475051
101342.5953935475
101342.6629494453
101342.7277855812
101342.7954727208
101342.8663277922
101342.9365814934
101343.0069729785
101343.075862955
101343.142189685
101343.2075076788
101343.2702362638
101343.3302158401
101343.3876927155
101343.4403938973
101343.4883507334
101343.5338350893
101343.5748394041
101343.6134688033
101343.649223568
101343.6828934463
101343.7127494198
101343.7419728755
101343.7713139779
101343.7988084507
101343.8260494755
101343.8552147043
101343.8742339507
101343.8995022254
101343.9218520625
101343.944808562
101343.9673641911
101343.9897002371
101344.0136496351
101344.0397434206
101344.0683396439
101344.099767745
101344.1323659438
101344.1663008337
101344.2052001458
101344.2440951629
101344.2858845841
101344.3297281843
101344.3760028981
101344.4225021046
101344.4716634635
101344.5246864047
101344.5818535422
101344.6384622406
101344.7080484578
101344.7644031713
101344.8333939086
101344.9007546814
101344.9690185962
101345.0362143538
101345.10157511
101345.164664543
101345.2266361747
101345.2855980783
101345.342707571
101345.3952855184
101345.442334829
101345.4892691299
101345.5302436479
101345.568185324
101345.6032202501
101345.6359796358
101345.6649616463
101345.6923192997
101345.7188613606
101345.7471664734
101345.7691175501
101345.8039975592
101345.8144549248
101345.8402511427
101345.8620388581
101345.8846776282
101345.9074287236
101345.9303207997
101345.9536488942
101345.9801982669
101346.0080270008
101346.0407564946
101346.0734204924
101346.1082262432
101346.1489198508
101346.1898115851
101346.2330048034
101346.2785175383
101346.3264492384
101346.3755682607
101346.4263545082
101346.479628712
101346.538633951
101346.5962005618
101346.6698452082
101346.7225554681
101346.7930924538
101346.8624321654
101346.93252608
101347.0024296416
101347.0704699618
101347.1362820089
101347.2004675493
101347.2617836891
101347.3212368555
101347.3772248099
101347.4279011625
101347.4755095892
101347.5200458666
101347.5599754511
101347.5968490399
101347.6308536526
101347.6625907446
101347.6902642568
101347.7181591534
101347.7460708087
101347.772535805
101347.8056347143
101347.8223671993
101347.846521497
101347.8707926552
101347.8952862378
101347.9202706398
101347.9449440787
101347.970173897
101347.9965847461
101348.0255706775
101348.0566053844
101348.0918779897
101348.1269396006
101348.1643926921
101348.2077742753
101348.2509375345
101348.2966987968
101348.3445796491
101348.3954423122
101348.4452144735
101348.5000010967
101348.5560916195
101348.6184249699
101348.6825210557
101348.7513367912
101348.8111323244
101348.8817655332
101348.9526255507
101349.0239814875
101349.0942065507
101349.162234345
101349.2282341227
101349.2916668391
101349.3520757632
101349.4108502026
101349.4646601376
101349.5125304919
101349.5611582232
101349.6030665318
101349.6418312288
101349.6774497635
101349.7108868567
101349.7398895304
101349.7682872022
101349.7952107889
101349.8250723927
101349.8512325938
101349.8865937891
101349.8954704915
101349.9229528865
101349.9465329308
101349.9706650988
101349.9950523437
101350.0183879129
101350.0427154982
101350.0684665732
101350.0953038891
101350.124516663
101350.1572809459
101350.1898720076
101350.2275584613
101350.2665048244
101350.3072638228
101350.3502134904
101350.3957204065
101350.4427330645
101350.4906564408
101350.5427485328
101350.5995576467
101350.6592756099
101350.7288674363
101350.7780923372
101350.8470721477
101350.9133658034
101350.9830395709
101351.0515868493
101351.1182764979
101351.183898524
101351.2471129476
101351.3073897745
101351.3632286048
101351.4173602658
101351.4672770725
101351.5118770239
101351.5560804753
101351.5953106105
101351.6313530861
101351.6644096736
101351.6949559364
101351.7255595992
101351.7585520918
101351.7776956275
101351.8115518186
101351.8359298144
)
;

boundaryField
{
    inlet
    {
        type            calculated;
        value           uniform 101325.0000006;
    }
    outlet
    {
        type            calculated;
        value           uniform 101351.8359298144;
    }
    frontAndBack
    {
        type            empty;
    }
}


// ************************************************************************* //
