/*--------------------------------*- C++ -*----------------------------------*\
| =========                 |                                                 |
| \\      /  F ield         | OpenFOAM: The Open Source CFD Toolbox           |
|  \\    /   O peration     | Version:  v2012                                 |
|   \\  /    A nd           | Website:  www.openfoam.com                      |
|    \\/     M anipulation  |                                                 |
\*---------------------------------------------------------------------------*/
FoamFile
{
    version     2.0;
    format      ascii;
    class       volScalarField;
    location    "0.014";
    object      rho;
}
// * * * * * * * * * * * * * * * * * * * * * * * * * * * * * * * * * * * * * //

dimensions      [1 -3 0 0 0 0 0];


internalField   nonuniform List<scalar> 
1000
(
1.176307291786352
1.176330935975923
1.176277031465568
1.17623320249282
1.176181804567163
1.176134850580078
1.176095093344108
1.17606168318672
1.176032958218573
1.176012560192803
1.176005414179387
1.176004947306294
1.17600666572512
1.176013753882488
1.176028692698073
1.176052185161662
1.176083497521673
1.176121255766299
1.176164279408905
1.176211768663845
1.176263068525644
1.176317410558839
1.176373811535214
1.176431106403767
1.17648802006225
1.176543233365503
1.176595492548619
1.17664403377078
1.176688960362206
1.176730757783601
1.176768480312515
1.176795990566115
1.176807492801943
1.176809669646978
1.176808637416677
1.176807158674281
1.176802780481567
1.17679348061384
1.176777034270666
1.176751976994262
1.176718103920627
1.176676363053938
1.176628340756253
1.176575675715597
1.176519730907813
1.176461612939776
1.17640239726816
1.176343325933857
1.176285744802041
1.176230763100893
1.176178870800328
1.176129744086608
1.176084816154926
1.176047269122905
1.176024399534854
1.176018821913812
1.176020148366395
1.176023953925539
1.176031386988259
1.176038889724968
1.176048943360657
1.17606306534506
1.176082729742028
1.176108774383699
1.176141222281456
1.176179304942815
1.17622180411034
1.176267537039901
1.176315670405023
1.176365765673108
1.176417694649574
1.176471553200091
1.176527585860431
1.176586487061906
1.17664772499908
1.176710880841922
1.176768538097373
1.176807878333358
1.176841171722435
1.176866909616582
1.176886131089665
1.176900056703597
1.176909608610693
1.17691216110224
1.176905812146418
1.176891276609463
1.176866007140007
1.176828854945851
1.176780089085311
1.176721682419869
1.176656555248464
1.176587685543721
1.176517609958684
1.176448170302861
1.176380346235961
1.176314472764613
1.176250728409891
1.176190003960199
1.176135531216713
1.176093075182876
1.176066162740107
1.176051076096705
1.176046621798744
1.176048067767066
1.176052794386673
1.176060777141996
1.176071807149507
1.176085528103962
1.176102562202065
1.176124268497842
1.176151949811258
1.176186268655937
1.176226993252011
1.176273080486843
1.176323027701747
1.17637536685559
1.176429167502028
1.176484268007927
1.176540950881765
1.176599820296255
1.176660597042909
1.176721292242988
1.176777885814056
1.176818500737097
1.17685072546465
1.176876660902856
1.176896596955481
1.176911520059192
1.176922076722869
1.176926268627903
1.176922669970646
1.176911900921911
1.176892393335748
1.176862629707765
1.176821753791548
1.176770236955766
1.176709755739955
1.176642775403412
1.17657211607672
1.176500437521137
1.176429643786772
1.176360765818945
1.176294487761191
1.176231921087031
1.17617577229933
1.176130901690589
1.176101113322067
1.176084468788338
1.176076635737247
1.176075006699178
1.176077155374877
1.176082731510379
1.176091895286725
1.176104110821885
1.176119656274486
1.176139461686502
1.17616460897322
1.176195976552372
1.176234010671682
1.176278548030469
1.176328728812857
1.176383140090215
1.176440290031769
1.1764991578725
1.176559258414691
1.176620359867014
1.176681854190397
1.17674143282519
1.176797374196371
1.176840504299446
1.176869874611634
1.176894915112383
1.176914630374322
1.176930128480484
1.176941520525675
1.176947649480297
1.176947115476461
1.176939531050154
1.176924256769418
1.176899757262287
1.176865109076147
1.17682016148336
1.176765573505284
1.176702729435474
1.176633732604844
1.176561189578166
1.176487599645326
1.176414896829992
1.176344622981663
1.176278420818295
1.176219003637065
1.176171099198299
1.176138550489937
1.176119814018412
1.176110395988215
1.17610579733884
1.176104555427955
1.17610708526505
1.176112846126215
1.176121902185163
1.176134651657273
1.17615194880661
1.176174754243885
1.17620389291109
1.176239928155987
1.176283044601101
1.176332915736893
1.17638863602375
1.17644884761472
1.176512118852694
1.176577225447534
1.176643176487827
1.176708267731155
1.176769734601307
1.176826421463631
1.176871922368308
1.176898695414273
1.176922139880712
1.176940653885083
1.176955697024234
1.176967400688194
1.176975242891156
1.176977225721009
1.176972357707048
1.176960969551802
1.176941235206222
1.176912137633207
1.17687312600557
1.1768241491657
1.176765816606097
1.176699586693436
1.176627641701833
1.176552389352744
1.176476086950108
1.176400974477869
1.176329520715519
1.17626502863793
1.176212813614136
1.176177203806307
1.176156659631461
1.176146492078359
1.176139835034336
1.17613622102936
1.176136001245555
1.17613814586703
1.176143212586739
1.176151920452064
1.176165257915688
1.176184308687499
1.176210040105511
1.176243222448908
1.176284349791212
1.176333464646353
1.176389999285477
1.176452801929349
1.1765203343628
1.176590967363538
1.176663002892172
1.176734089065821
1.176801289613147
1.176861815586236
1.176909386432537
1.176937361711854
1.176958955166636
1.176976698048455
1.176990868920053
1.177001819569189
1.177009559794672
1.177012737318235
1.177010457170013
1.177002574696963
1.176987312497079
1.176963276742635
1.176929626445198
1.176885954797782
1.176832380486601
1.17676969887146
1.176699389714785
1.176623451643066
1.176544190554659
1.176464245628234
1.176386615072265
1.176315347889686
1.176257068364808
1.176217615918852
1.176195029612014
1.176183286550904
1.176176078760345
1.176171140310857
1.176169302231704
1.176169286858056
1.176171127311809
1.176175736513217
1.176184232215026
1.176198017896701
1.176218481615131
1.176246815625072
1.176283947718711
1.17633038324788
1.176385986245054
1.176449924015684
1.176520802490354
1.176596893265334
1.176676037016975
1.176755322972344
1.176831410127177
1.176899517148915
1.176951798659746
1.17698424280821
1.177006262696453
1.177024516517672
1.177038173722064
1.177048038391499
1.177054593919963
1.177057490357426
1.177056593642294
1.177051463813722
1.177040127034993
1.177020849352804
1.176992577936246
1.176954646978897
1.176906615516398
1.176848444739144
1.176780864786356
1.176705470203719
1.176624323006175
1.176539927391687
1.176455683159969
1.17637644515768
1.176309785813627
1.17626336232539
1.176236211556001
1.176221238397274
1.176213132074699
1.176207234749175
1.176205139068152
1.176204882190447
1.176205796545273
1.176208357276816
1.176213357353791
1.176222230022144
1.176236775974415
1.176258764837157
1.176289634784876
1.176330331081761
1.176381258846219
1.17644232579103
1.176512843384068
1.176591409941297
1.176675777017774
1.176762622259749
1.176848174579326
1.176926922306601
1.176989004111092
1.177029818848894
1.177058977281378
1.177082258796192
1.177099191300573
1.177111665316397
1.17712080292866
1.177126640388208
1.177128523859753
1.177126386726051
1.177119866462768
1.177106929448057
1.177085717089188
1.177054742480555
1.177012998164808
1.176960109841391
1.176896438771894
1.176823007814521
1.176741263493037
1.176653389308199
1.176563013802769
1.176475217028411
1.176397764314222
1.176340086749416
1.176303776505431
1.176282057197038
1.176267172824426
1.17625702423598
1.176252154561021
1.176250685934974
1.176250699528479
1.176252153566123
1.176255813888028
1.176262617958031
1.176274012947949
1.176291677079564
1.176317203386759
1.176351938109012
1.176396884684518
1.176452538185776
1.176518656800009
1.176594255184308
1.17667799303796
1.176767382043907
1.176858428560267
1.176946591088516
1.177021518607262
1.17707345239805
1.177116784649511
1.177152426893025
1.177181496729303
1.177205823748835
1.177226208488049
1.177242781244556
1.17725548691421
1.177264473275444
1.177267595832127
1.177263032254622
1.177250648095938
1.177228705630182
1.177195496287134
1.177149666357247
1.17709067028422
1.177018902185138
1.176935645372758
1.176843061911068
1.176744940554106
1.176646578470332
1.176555451891417
1.176482203434448
1.176430723831821
1.176394354555942
1.176365489978703
1.176345829251073
1.176332825740508
1.176323771495308
1.176317512429048
1.176314423231888
1.176314322152966
1.176317234950148
1.176324594781471
1.176337872786965
1.176358585592914
1.176388395570122
1.176428882366692
1.176481092653448
1.176545236031
1.176620797407079
1.176707048431691
1.176801840372702
1.176900651890989
1.176999139430967
1.177087086093554
1.177153214837947
1.177212156799231
1.177261090105016
1.177301666210318
1.17733571665888
1.177364158337804
1.177387359448987
1.177405620956086
1.17741898387907
1.177428105952943
1.177430213445332
1.177423216159755
1.177407229034721
1.177380433968531
1.177341511987658
1.177288974671349
1.177222215590719
1.177141857430791
1.177049253971697
1.176947562608773
1.176842351951708
1.176740145200986
1.176651873865109
1.176585683441889
1.176531002706926
1.176486526855622
1.176452566818164
1.176426943729954
1.176407506542885
1.176392685649443
1.176381524607583
1.176373398621597
1.17636967521931
1.176372114065377
1.176381128066637
1.176397854224104
1.176423877248247
1.176460909182604
1.176510302677051
1.176572728928057
1.176648267398738
1.176736638201844
1.176835778195138
1.176940709540403
1.177047200356645
1.177145970274992
1.177224878905104
1.177296540870619
1.177357113817324
1.177407449714413
1.177449010024121
1.177482952690849
1.177510301143481
1.177531922281354
1.177547926267187
1.177558329690977
1.177562914718386
1.177559191692348
1.177545728341474
1.177521888612293
1.177486344112235
1.17743848540823
1.17737754541437
1.177302721227883
1.177213853852627
1.177113330662518
1.177007020558139
1.176900411101804
1.176802035236154
1.176723932684484
1.176657432971473
1.176600600259124
1.17655461566076
1.176517970960058
1.176488754640334
1.176465293054862
1.176446444795016
1.176432037610248
1.176422278524882
1.176417506157288
1.176420694812472
1.176433616352474
1.176456734044862
1.176491363095364
1.176538320991528
1.176598712472523
1.176673400326424
1.176762399111015
1.176863684872496
1.1769724317068
1.177084732011431
1.177192214358733
1.177281818350795
1.177363160769667
1.177433247906668
1.177491526170123
1.177539265559891
1.177577957648211
1.177608819876026
1.177632736132408
1.177650372183544
1.177661703988589
1.177668285580453
1.17766614090654
1.177653814763963
1.177632213347221
1.177598971120746
1.177553885933851
1.177496230456576
1.177425239217749
1.177340833313847
1.177244361251779
1.177139711195724
1.177032493559333
1.176929070486628
1.176840298957549
1.176767439192103
1.176701627972789
1.176646522278644
1.176601266284815
1.176564206516952
1.17653370592521
1.176508632565711
1.176488507695618
1.176473765123396
1.176464691244205
1.176462638775887
1.17647086657546
1.176491094648076
1.176523988606552
1.176570296058605
1.176630480184836
1.176705214294454
1.176794701900417
1.176897420860004
1.177009231025181
1.177126613776454
1.17724162241726
1.177341376226914
1.177431530424874
1.177510470130869
1.177576485955862
1.177630451073324
1.177673722686463
1.177707719924252
1.177733849932664
1.17775332694446
1.17776623787693
1.177773316436122
1.177773008566505
1.177763817191425
1.177744822126004
1.177714340476043
1.177671649513533
1.177616183623027
1.17754783014762
1.177466750331458
1.177373211273529
1.177269409821252
1.177160717049487
1.177052357639261
1.176953376495488
1.176872717703435
1.176798676425305
1.176735848561341
1.176684158753481
1.176642479744064
1.176609319019142
1.176583304139193
1.176563499401796
1.176549622578272
1.176541574266369
1.176539590583529
1.176546796122997
1.176564971613903
1.176594629558437
1.176636876242115
1.176691459859492
1.176757968497259
1.176835965803497
1.176924730360188
1.177021819114064
1.177122312935033
1.177220915313479
1.177311765879366
1.177387973678367
1.177448057557834
1.177495375692524
1.177533399775097
1.177559144056791
1.177574082493163
1.177580564554585
1.177580913023712
1.177577125955534
1.177569753037842
1.177558582484402
1.177542947974892
1.177521777034675
1.177493703115974
1.17745727430605
1.177411046553808
1.177353663925667
1.177284310835776
1.177203316460874
1.177112146894436
1.177014080899874
1.176913754340185
1.17681617406955
1.176731750285148
1.176665681502734
1.176607033291354
1.17655966015548
1.176522434829913
1.176494010615843
1.176473257504967
1.17645890969269
1.176449805691656
1.176444616043786
1.176444118458155
1.176450139560006
1.17646396747186
1.176487133199011
1.176520949247663
1.176566931340231
1.176626341646715
1.1766995953927
1.17678589275222
1.176883160050599
1.176987840512105
1.177096716906517
1.177203117880547
1.177295840860033
1.177374220173832
1.177442880035597
1.177498261807011
1.177541256387526
1.177573360949342
1.177595917135879
1.177609908491863
1.177616925279954
1.177617680842738
1.177612404876091
1.177601344930954
1.177583747118753
1.177558912350491
1.177525778502898
1.177482981229673
1.177429201539593
1.177363727531426
1.177286546264946
1.177198108571297
1.177100823744377
1.176999971292605
1.176899612508752
1.176807569246478
1.176734668371833
1.176669443074
1.176614677362299
1.176570588680563
1.176536086475321
1.176509990814203
1.17649114632796
1.176478406508792
1.176470934489165
1.176467337239439
1.176470149780497
1.176481013351367
1.176500257640951
1.176530154244374
1.17657194315172
1.176626905708731
1.176695769489676
1.176778156142828
1.176872807670098
1.176977061601646
1.177087455036753
1.177198036288903
1.177298258370259
1.177383295835518
1.177459098597089
1.17752204038252
1.177572282576391
1.177610711539014
1.177638388928613
1.177656694574745
1.177666951188374
1.177670896179003
1.177668162177819
1.177659003276109
1.177643865377856
1.177621224050499
1.177590067574162
1.177549358158838
1.177498450855196
1.177436735336881
1.177363513750859
1.177278660277058
1.177183997678907
1.177083921276723
1.176982494317267
1.176885581019119
1.176804944158394
1.17673544627605
1.176674495656878
1.176624085011235
1.176583698226666
1.176552280591082
1.176528672859061
1.176511693760545
1.176500550275797
1.176494603274686
1.176493976666603
1.176500945897333
1.1765173417333
1.176544265232863
1.176583177778943
1.176635080610548
1.176700709237737
1.176780118470275
1.176872877057151
1.176976972242329
1.177088530302874
1.177202392496355
1.177309318895045
1.177401862919782
1.177484338939457
1.177553878288488
1.177609835473366
1.177653142306264
1.177684924465826
1.177706601929022
1.177719425746234
1.17772550646268
1.177724615261852
1.177717066276228
1.177703570268723
1.177682601907627
1.177653589733885
1.177615620233685
1.177567833135427
1.17750924220694
1.177439145306415
1.177357714948618
1.177266090444803
1.177167193739492
1.177065592078231
1.176965757059291
1.17687644307839
1.176803223459917
1.176736313303448
1.176680155960977
1.176634461336902
1.176598325594138
1.176570690095931
1.176550470582175
1.17653657478684
1.176528510238738
1.176525089730267
1.176529491526696
1.176543413972688
1.176567016108524
1.176602513711747
1.176650642692439
1.17671206459498
1.176786979890714
1.176874797755617
1.176973520037147
1.177079378135067
1.1771885577563
1.177294442357803
1.177387924772557
1.177466890036008
1.177533226650461
1.177586798943376
1.177626196436861
1.177652997688474
1.177669382092415
1.177676109734669
1.177674752762511
1.177668088519959
1.177656200691227
1.177639346962132
1.177617120991171
1.177588736668947
1.177553093979566
1.177509081388517
1.177455871636941
1.177392908261371
1.177319775227701
1.177236553499684
1.177145065627
1.177049406373388
1.176952926425322
1.176860662477423
1.176784411612538
1.176717564421887
1.176659157168434
1.176610971007516
1.176572880940054
1.176544349345158
1.176524565337485
1.176512349788939
1.176506150879459
1.176504959571362
1.176509617135298
1.176521183878716
1.176540828365413
1.176570256555393
1.176611051282675
1.176664723576093
1.17673213502139
1.176812956686166
1.176906115581684
1.177009252588696
1.177119503597706
1.177231200005134
1.177334260492393
1.177423821874253
1.177502699430508
1.177567788916152
1.177618869100115
1.177656807486354
1.177682610825113
1.17769798244116
1.177703900239627
1.177701793301749
1.177693930073626
1.177680541627485
1.177661455166457
1.177635991787767
1.177603079907828
1.17756174336132
1.177511239041728
1.177450872876386
1.177380102693188
1.17729915484803
1.177209474813161
1.177114251564097
1.177017486161299
1.176922939974479
1.176838944761354
1.176770163557649
1.176706969128062
1.176653840892886
1.17661080400126
1.17657754167021
1.176553449135534
1.176537472681981
1.17652851599688
1.176524830582013
1.176527335836665
1.176536622839628
1.176552962502769
1.176578580019135
1.176615084483339
1.176664187305293
1.17672698452138
1.176803625867647
1.176893523056042
1.176994731199833
1.177103697199563
1.177216080178887
1.177323500302489
1.177418843656411
1.177502541701115
1.177573224485784
1.17762904059832
1.177670853276289
1.177699733608888
1.177717419031859
1.177724605599697
1.177722930475874
1.177715345023098
1.177702208317902
1.177683660690343
1.17765939175518
1.177628710001873
1.177590583879491
1.177543715406967
1.177486966618026
1.177419857252655
1.177342665330618
1.177256146230343
1.177162625132098
1.177066367923448
1.176970647819956
1.176881608171838
1.17680892962247
1.17674382098872
1.17668729324999
1.176640611909842
1.176603418122112
1.176575266697786
1.176555787334718
1.176544416094725
1.176539460166281
1.176541354867427
1.176549906211551
1.176564548849524
1.176587041870437
1.176618890018191
1.176661930720262
1.176717917890556
1.17678785599784
1.176871342030193
1.176966538466783
1.177069807755556
1.177177842988126
1.177284141128094
1.177379742830631
1.177462009959353
1.17753099678208
1.177586976321382
1.177628267017649
1.177655919547413
1.17767236790904
1.177677680802433
1.17767305899978
1.177662656791798
1.177646201417645
1.177624845124363
1.177599131330584
1.177568774068187
1.177532587084392
1.17748914582665
1.177437358762152
1.177376518065371
1.177306295693144
1.177227098385458
1.177140508792507
1.177049682881988
1.176958029593065
1.17686872964141
1.176790091569056
1.176726241806072
1.176668668743809
1.176621403667083
1.176583908948269
1.176554817611739
1.176532503569578
1.17651565558616
1.176504741278765
1.176501132095199
1.176507791887058
1.176525825042557
1.176551754118617
1.17658050777538
1.176611415312591
1.176653369932676
1.176720560091472
1.176817679448108
1.17694400496113
1.177083736780257
1.177300759335576
)
;

boundaryField
{
    inlet
    {
        type            calculated;
        value           uniform 1.176411716172193;
    }
    outlet
    {
        type            calculated;
        value           uniform 1.177468524674969;
    }
    frontAndBack
    {
        type            empty;
    }
}


// ************************************************************************* //
