/*--------------------------------*- C++ -*----------------------------------*\
| =========                 |                                                 |
| \\      /  F ield         | OpenFOAM: The Open Source CFD Toolbox           |
|  \\    /   O peration     | Version:  v2012                                 |
|   \\  /    A nd           | Website:  www.openfoam.com                      |
|    \\/     M anipulation  |                                                 |
\*---------------------------------------------------------------------------*/
FoamFile
{
    version     2.0;
    format      ascii;
    class       volScalarField;
    location    "0.014";
    object      T;
}
// * * * * * * * * * * * * * * * * * * * * * * * * * * * * * * * * * * * * * //

dimensions      [0 0 0 1 0 0 0];


internalField   nonuniform List<scalar> 
1000
(
299.986966093665
299.9887257802663
299.9823720077077
299.9777048011109
299.9732705019289
299.969473143072
299.9660575111124
299.9630184619371
299.9603854275608
299.9586328879599
299.958189184759
299.9584705948973
299.9589968220694
299.9598977086152
299.9614969402951
299.9639274679201
299.9671183840953
299.9709266975625
299.9752346879985
299.9799686661169
299.9850746545632
299.9904896230672
299.9961269370652
300.0018764368333
300.0076116720193
300.0131992375082
300.0185122228779
300.0234728080731
300.0280873209015
300.0323958455078
300.0362944077171
300.0391544947813
300.0403794908324
300.0406413648718
300.0405714734543
300.0404465242083
300.0400033790362
300.0390456232444
300.0373517734917
300.034773782195
300.0312933852466
300.0270105588744
300.0220900432124
300.0167010996194
300.0109836810562
300.0050503983022
299.9990099780729
299.9929880056197
299.9871206501672
299.9815196433561
299.9762331611885
299.9712264375742
299.9666449442527
299.9628139214794
299.9604789740624
299.9599083755127
299.9600410552501
299.9604249197467
299.9611793822711
299.9619420456031
299.9629662201839
299.9644068268719
299.9664141511475
299.9690734617446
299.9723868056745
299.9762754039693
299.9806145853263
299.9852833872848
299.9901966422836
299.9953096006404
300.0006092518419
300.0061054541875
300.0118232183686
300.0178334706933
300.0240820205246
300.0305262116663
300.0364092928108
300.0404233785391
300.0438205370852
300.0464468213395
300.0484082214982
300.0498292410712
300.0508039620338
300.0510644745497
300.0504167511776
300.0489337131972
300.0463553909829
300.0425645769994
300.0375886863987
300.031628941787
300.0249832512246
300.0179554416248
300.0108043412441
300.0037179004307
299.9967961039235
299.9900731527821
299.9835672798166
299.9773694200793
299.9718094685383
299.9674759276331
299.9647288888464
299.9631889329712
299.9627342618934
299.9628818600501
299.9633643302338
299.9641791671183
299.9653050463968
299.9667055945869
299.9684443140254
299.9706599141594
299.9734853559162
299.9769882341951
299.9811448570908
299.9858487213705
299.9909464271592
299.996288120093
300.0017788245642
300.00740203328
300.0131865637388
300.019194054713
300.0253959921664
300.0315894159597
300.037364130854
300.0415082969024
300.044796308583
300.0474425645437
300.0494766659332
300.0509992780158
300.0520763760866
300.0525040772418
300.0521369190093
300.0510381717539
300.0490478161041
300.046010991849
300.0418402877349
300.036583730976
300.0304123104584
300.023577505599
300.0163670357731
300.0090522938077
300.0018275882464
299.9947981460779
299.9880338108885
299.9816480490356
299.9759171405597
299.9713372331893
299.9682967003077
299.9665977577949
299.9657982212158
299.9656319464319
299.9658512764913
299.9664204576671
299.9673558346773
299.968602707361
299.9701894625103
299.972211020077
299.9747777951618
299.9779794236252
299.9818614215317
299.986407083261
299.9915286117733
299.9970817641558
300.0029142573962
300.0089218968187
300.0150551522688
300.0212903580857
300.0275654577959
300.0336448840518
300.0393529981895
300.0437537602149
300.0467504960124
300.0493054183839
300.051316978097
300.0528982482818
300.0540605731321
300.0546859045043
300.0546314328105
300.0538576277114
300.0522992271705
300.049799558184
300.0462643667088
300.0416782197282
300.0361082898839
300.0296957492277
300.0226551499503
300.0152524221401
300.0077425854513
300.0003230071654
299.9931510558674
299.9863944150865
299.9803300573654
299.975440598363
299.9721183843952
299.9702059528855
299.9692446546496
299.9687752749357
299.9686485236767
299.9689067626836
299.9694947944512
299.9704191669896
299.9717205249459
299.9734860547166
299.9758137905222
299.9787879106212
299.982465883394
299.9868665131503
299.9919564296471
299.9976431651315
300.0037880967402
300.0102450818171
300.0168891542504
300.023619177941
300.0302612401509
300.0365332607869
300.0423173632579
300.0469599653316
300.0496916565684
300.0520837044112
300.0539726796898
300.0555075134242
300.0567016181812
300.0575017460299
300.0577040591127
300.0572074095245
300.0560455330358
300.054032099518
300.0510633172344
300.0470829433352
300.0420856972326
300.0361336936644
300.0293756610728
300.0220342088786
300.0143549803055
300.0065683020366
299.9989027652687
299.991610344406
299.9850281882397
299.9796988826638
299.9760643017805
299.9739674001833
299.9729296198238
299.9722501548659
299.971881288745
299.9718588707492
299.9720777880121
299.9725949590743
299.9734837801447
299.9748451378996
299.9767896328592
299.9794159785266
299.9828027643513
299.9870003771798
299.9920131055429
299.997782949215
300.004192301342
300.0110841269795
300.0182921211856
300.0256429772875
300.0328966936378
300.0397536749293
300.0459293973118
300.0507831140274
300.0536374168807
300.0558405675017
300.0576508362459
300.0590966512991
300.0602139114177
300.0610036226721
300.0613278185672
300.0610952014978
300.0602910151239
300.0587339020286
300.0562816366103
300.0528483812216
300.0483925768082
300.042926264185
300.0365305174929
300.0293562460224
300.0216073193447
300.0135189890065
300.0053605509785
299.997437982076
299.9901645476813
299.9842164134575
299.9801897116426
299.9778844190513
299.9766858505866
299.9759501847284
299.9754461470067
299.975258554596
299.9752570005703
299.9754448668691
299.9759153316098
299.9767824840659
299.9781895677139
299.9802782428488
299.9831701729757
299.9869600143797
299.9916992916809
299.9973740616564
300.0038992667252
300.011132561058
300.0188974939426
300.0269736635888
300.0350640224092
300.0428276693581
300.0497767933775
300.0551110321651
300.0584212143419
300.0606678184849
300.0625301712481
300.0639235466581
300.0649299880729
300.0655988169287
300.0658943282957
300.065802854661
300.0652795137212
300.0641229180615
300.0621561538959
300.0592717819875
300.0554018297495
300.0505012465507
300.0445659963081
300.0376704888444
300.0299773365739
300.0216968706341
300.01308457237
300.0044873585668
299.9964006983926
299.9895974968243
299.9848594122099
299.9820883005697
299.9805600738397
299.9797327089531
299.9791308086524
299.9789169288788
299.978890727403
299.9789840654279
299.9792454390346
299.9797557876308
299.9806613962407
299.9821460465832
299.9843903390866
299.9875410294943
299.991694547325
299.9968921751641
300.0031244139969
300.0103209033066
300.0183385052316
300.0269476891982
300.0358093765002
300.0445387559991
300.0525734831739
300.0589075275863
300.06307164375
300.0660464841487
300.0684217143776
300.0701491919392
300.071421803489
300.0723540307602
300.0729495762903
300.0731417359837
300.0729237195961
300.0722585428831
300.0709387276436
300.0687746492941
300.0656145823207
300.0613556915218
300.0559597162196
300.0494634240143
300.0419710764529
300.0336301680697
300.0246634094816
300.0154410036687
300.0064813424813
299.9985769522009
299.9926904934352
299.9889846597032
299.9867679558413
299.9852488248349
299.9842130359013
299.9837160337224
299.9835661558125
299.983567559508
299.9837159782148
299.9840895729796
299.9847840293197
299.9859470475391
299.9877499015234
299.9903551590508
299.9939001834014
299.9984873314464
300.0041670554995
300.0109145861441
300.0186292667677
300.0271742228451
300.0362954497964
300.0455853903727
300.0545806548689
300.0622252118615
300.0675236370171
300.07194441286
300.0755805825671
300.0785461991032
300.0810279371403
300.0831074794025
300.0847981288796
300.086094273413
300.0870109959489
300.0873295377594
300.0868640112507
300.0856006942876
300.0833622920669
300.0799744714341
300.0752990730768
300.0692803488052
300.0619583875544
300.0534639846157
300.0440175997386
300.0340057014351
300.0239687476634
300.0146696598568
300.0071946371374
300.0019409702486
299.9982292887337
299.9952834555519
299.9932769181438
299.9919497962099
299.9910257302206
299.9903869397425
299.9900716634193
299.9900613572864
299.9903586509704
299.991109805341
299.9924649638291
299.9945789000672
299.9976212436427
300.0017531605528
300.0070813976347
300.0136272498078
300.0213380378298
300.0301393117508
300.0398116855872
300.049893724902
300.059942212999
300.0689147933967
300.0756611764007
300.0816741895592
300.0866660294739
300.0908052316753
300.0942786815265
300.0971799424582
300.0995465972837
300.1014093635991
300.1027724395296
300.1037029271601
300.1039179039424
300.1032041721294
300.1015734400761
300.0988402188872
300.0948699194715
300.089510636916
300.0827003961102
300.074502576003
300.0650551293395
300.0546800284818
300.0439453216015
300.0335165635184
300.0245092696952
300.0177548698041
300.0121748134718
300.0076360322012
300.0041703261672
300.0015553881255
299.9995717248428
299.9980591662447
299.9969201116509
299.9960908017613
299.9957108043803
299.9959597173269
299.996879677865
299.9985867060882
300.0012425092162
300.0050217687337
300.0100624574597
300.0164329733498
300.0241413016415
300.0331587368117
300.0432746002654
300.0539808529071
300.0648456539872
300.0749221860809
300.082972094558
300.0902824596573
300.0964614114687
300.1015959518907
300.1058352340066
300.1092974265781
300.1120869589071
300.1142922811973
300.115924649143
300.1169857669304
300.1174534238094
300.1170737028225
300.1157005073882
300.1132689223244
300.1096434098997
300.1047617458736
300.0985455945246
300.0909129308079
300.0818473792411
300.0715923113781
300.0607463266372
300.0498692334991
300.0398316666862
300.0318622788917
300.0250765765266
300.0192771269903
300.0145845406842
300.0108449820785
300.0078634328315
300.0054691272765
300.0035456022401
300.0020752929892
300.0010793354625
300.000592291883
300.0009177235937
300.0022364511764
300.0045957156502
300.0081296940912
300.0129217491167
300.0190845258628
300.0267059418113
300.0357873244222
300.0461219774156
300.0572173456874
300.0686746536705
300.0796397978431
300.0887805619008
300.0970781898931
300.1042274127869
300.110171877951
300.1150412293006
300.1189876807445
300.1221354595722
300.1245747547931
300.1263734948724
300.1275292419261
300.1282005006409
300.1279817770166
300.1267246484571
300.1245214944074
300.1211310051922
300.116532506095
300.1106517311168
300.103410490295
300.0948005938711
300.0849594406716
300.0742835206072
300.0633451033531
300.0527932590981
300.043735802934
300.036301544092
300.0295862536937
300.0239631680773
300.0193450428253
300.015563216111
300.0124506773064
300.0098919435738
300.0078381809072
300.0063336759771
300.0054076659945
300.0051982086653
300.0060378953341
300.0081022334392
300.0114590912923
300.0161846892255
300.0223261985215
300.0299521996039
300.0390832976807
300.0495639942911
300.0609716924883
300.0729472811335
300.0846799681491
300.0948558644821
300.1040520757552
300.1121040106868
300.1188374461551
300.1243415704066
300.1287549086063
300.1322222698812
300.1348872157317
300.1368736138324
300.138190349032
300.1389122611465
300.1388808693795
300.1379434993393
300.1360062830123
300.1328975403898
300.1285435020088
300.1228864005629
300.1159146382183
300.10764453133
300.0981031776808
300.0875145109781
300.07642631621
300.0653715448316
300.0552730051016
300.0470434293861
300.039488746682
300.0330779864407
300.0278035618691
300.0235505347677
300.0201666682902
300.0175119551082
300.0154909390836
300.0140748382367
300.0132535193598
300.0130510869385
300.0137864179916
300.0156412137474
300.0186677233261
300.0229787753209
300.0285485935965
300.0353350468417
300.0432934964959
300.0523502100559
300.0622558020776
300.0725083128421
300.0825673728107
300.0918351862519
300.0996089442613
300.1057377431036
300.1105642566478
300.1144426768535
300.1170685263868
300.1185921924653
300.1192533354123
300.1192888845981
300.1189026344184
300.1181506409197
300.1170112963281
300.1154166339333
300.1132572523512
300.110393741412
300.1066779672578
300.101962579621
300.096109194587
300.089034520942
300.0807720217042
300.0714711332149
300.0614662328009
300.0512302159588
300.041273910426
300.0326595811946
300.0259178875091
300.0199332102233
300.0150989538377
300.0113001599196
300.0083994568951
300.0062815662238
300.0048173354502
300.0038882464721
300.0033586304066
300.0033078567447
300.0039223452409
300.0053335428524
300.0076976612227
300.0111486045812
300.0158409936578
300.0219035394044
300.02937849024
300.0381840858714
300.0481085858111
300.0587889544369
300.069896857961
300.0807516270611
300.0902105208039
300.0982058485084
300.1052094573727
300.1108584654579
300.1152438535435
300.1185184105456
300.1208190327941
300.1222460717751
300.1229617440901
300.123038812141
300.1225007115254
300.1213726855385
300.1195778171108
300.1170447767019
300.113665201915
300.1092998868092
300.1038142257242
300.097135511135
300.0892623131639
300.0802404975271
300.0703157170068
300.0600264873502
300.0497871274662
300.040395719626
300.0329571468034
300.0263015407452
300.020713066752
300.0162139969887
300.012693115415
300.0100300632574
300.0081069701239
300.006806855244
300.0060443240678
300.0056772162268
300.0059642550219
300.0070729284451
300.0090368466336
300.0120877917128
300.016352253304
300.021960910852
300.0289878968349
300.0373944634345
300.0470520964102
300.0576889900805
300.0689517158212
300.0802329894067
300.0904568934182
300.099131381254
300.1068635501368
300.1132836268939
300.1184081928341
300.122327752147
300.1251506589637
300.1270176909274
300.1280637772875
300.1284661297227
300.1281872987723
300.1272531966832
300.1257092749643
300.1234000292744
300.1202222430887
300.1160700249284
300.110877529229
300.1045824222512
300.0971134228408
300.0884575789932
300.0788007021509
300.0685910708424
300.0582431613079
300.0483552633422
300.0401276462334
300.0330363116996
300.0268169108413
300.0216728621177
300.017551579088
300.0143454951016
300.0119363560698
300.0102036443099
300.0090664502837
300.008459558
300.0083956162993
300.0091068470954
300.0107800660821
300.0135275932088
300.0174985071234
300.0227949077989
300.0294917463156
300.0375944816954
300.0470589573068
300.0576796445325
300.0690611741849
300.0806771383267
300.091584917473
300.1010250554128
300.1094378272117
300.1165307554874
300.1222381359871
300.1266551245528
300.1298966164603
300.1321074901508
300.1334153703603
300.1340355260917
300.1339446447168
300.1331747641695
300.1317983470062
300.129659803668
300.1267008247565
300.122828201649
300.1179541354761
300.1119779585928
300.1048279579823
300.0965216187577
300.0871750373222
300.0770861664967
300.0667208581365
300.0565352834369
300.0474226681289
300.0399518429022
300.0331245544075
300.0273942693149
300.0227314741437
300.0190440123101
300.0162239092319
300.0141605569287
300.0127425155711
300.0119195414064
300.011570482491
300.0120196956856
300.013440487065
300.0158490475673
300.0194714432466
300.0243827010916
300.030650233183
300.0382943740692
300.0472546960262
300.057327175705
300.0681271849592
300.0792654976962
300.0900670852177
300.0996030194779
300.1076577590554
300.1144240901393
300.1198882952493
300.1239066209708
300.1266401524495
300.128311221939
300.1289973791051
300.1288589928186
300.1281793257086
300.1269668960017
300.125247968904
300.1229810850975
300.1200860457698
300.1164506227853
300.1119613965851
300.1065339269371
300.1001113813124
300.0926512382181
300.0841616584186
300.0748284568741
300.0650692795546
300.0552259273928
300.045812273596
300.0380320932227
300.0312111703473
300.0252512538337
300.020334169542
300.0164472375327
300.0135356576557
300.0115167255195
300.0102701393077
300.00963754691
300.0095159786052
300.009991297377
300.0111717008413
300.0131764100419
300.0161794815453
300.0203423928008
300.0258192644572
300.0326979079548
300.0409446231547
300.0504497798237
300.0609725306292
300.0722205386354
300.0836153885246
300.0941286637588
300.1032644560624
300.1113101038885
300.1179491070014
300.1231590353555
300.1270284779127
300.1296601892948
300.1312279385331
300.131831489617
300.1316166177184
300.1308146778372
300.1294492154968
300.1275025855651
300.1249055257471
300.1215487164662
300.1173325541418
300.1121811876568
300.1060237506132
300.0988048542766
300.0905474890025
300.0813990014091
300.0716846150595
300.0618124541782
300.0521662524268
300.0435961371858
300.0365780582158
300.0301298134895
300.0247085454174
300.0203168987659
300.0169226168021
300.0144640388037
300.0128336711566
300.0119196548231
300.011543561821
300.0117992336757
300.0127469869911
300.0144144387054
300.017028636242
300.0207537408727
300.0257643292054
300.0321721470125
300.0399923449221
300.0491647480909
300.059490761253
300.0706077345491
300.0820727043596
300.0930307760198
300.1027563960556
300.1112937526484
300.1185032534221
300.1241962035462
300.1284607708106
300.1314062834717
300.1332099985533
300.1339429412321
300.1337721120245
300.1329985130032
300.131658745117
300.1297670993496
300.12729189972
300.1241625947059
300.120273939571
300.1154934980008
300.1097051343178
300.1028597794576
300.0949856990371
300.0861598480013
300.0766193213963
300.0667992361444
300.0570335015501
300.0479489152956
300.0405333301738
300.0338899012315
300.0281218581035
300.0233584063373
300.0195629996759
300.0166902666122
300.0147024618448
300.0135420621724
300.013036324048
300.0132296863238
300.014102353732
300.0155966086636
300.017891935156
300.0211418494845
300.0255338034528
300.0312467026133
300.0383829473983
300.046901296762
300.0566141367377
300.0671502185273
300.0781720649066
300.0890161566275
300.0987685478523
300.1071602222498
300.1141967181951
300.1199058641122
300.1241163481894
300.1269357748408
300.1286126188672
300.1291540108261
300.1286820651182
300.1276204834288
300.1259424266894
300.1237664327201
300.1211490830481
300.1180620649196
300.1143840303469
300.1099672252127
300.104695481211
300.0984900909354
300.0913101778873
300.0831888368998
300.0742798462605
300.0649054461401
300.0554304084526
300.0462144313419
300.0381463735437
300.031681899082
300.0259753055063
300.0214388146466
300.0179922997773
300.0154592484605
300.0136830627098
300.0126380994447
300.012316346722
300.0127437016234
300.0145827118365
300.0180484763807
300.0225063970782
300.0272677182003
300.0315781528171
300.0348625149304
300.037121626145
300.0387428356067
300.0406036891127
300.0412395943611
300.0427499952062
)
;

boundaryField
{
    inlet
    {
        type            fixedValue;
        value           uniform 300;
    }
    outlet
    {
        type            characteristicVelocityInletOutletTemperature;
        UName           U;
        pName           p;
        TName           T;
        phiName         phi;
        rhoName         rho;
        U               (0 0 0);
        p               101325;
        T               300;
        value           uniform 300;
    }
    frontAndBack
    {
        type            empty;
    }
}


// ************************************************************************* //
