/*--------------------------------*- C++ -*----------------------------------*\
| =========                 |                                                 |
| \\      /  F ield         | OpenFOAM: The Open Source CFD Toolbox           |
|  \\    /   O peration     | Version:  v2012                                 |
|   \\  /    A nd           | Website:  www.openfoam.com                      |
|    \\/     M anipulation  |                                                 |
\*---------------------------------------------------------------------------*/
FoamFile
{
    version     2.0;
    format      ascii;
    class       volVectorField;
    location    "0.014";
    object      U;
}
// * * * * * * * * * * * * * * * * * * * * * * * * * * * * * * * * * * * * * //

dimensions      [0 1 -1 0 0 0 0];


internalField   nonuniform List<vector> 
1000
(
(-0.001128570537877045 0 0)
(-0.03293840843696065 0 0)
(-0.04108546449559888 0 0)
(-0.05631540017756572 0 0)
(-0.07029003036503556 0 0)
(-0.08334792758953387 0 0)
(-0.094538226236363 0 0)
(-0.1041604207411916 0 0)
(-0.1125642552732092 0 0)
(-0.1185605257031202 0 0)
(-0.1205301988710507 0 0)
(-0.12058387017606 0 0)
(-0.1198673991326818 0 0)
(-0.1175389720438087 0 0)
(-0.1128724603094482 0 0)
(-0.1056143009565631 0 0)
(-0.09603193129980707 0 0)
(-0.08460134186476066 0 0)
(-0.07174582549614535 0 0)
(-0.0577616300508064 0 0)
(-0.04286771124837096 0 0)
(-0.02727139781167269 0 0)
(-0.01120182801427562 0 0)
(0.005083517098866215 0 0)
(0.02130226252686237 0 0)
(0.03716574376235397 0 0)
(0.0524128556273443 0 0)
(0.06689689136026448 0 0)
(0.08064151114875358 0 0)
(0.09369991272450268 0 0)
(0.1056899261830629 0 0)
(0.1147251348240019 0 0)
(0.1188726105910775 0 0)
(0.11984928414981 0 0)
(0.1198679148120953 0 0)
(0.1189851849418696 0 0)
(0.1168989317156082 0 0)
(0.1130594944985814 0 0)
(0.1069587634307518 0 0)
(0.09833805776827413 0 0)
(0.0873239494881129 0 0)
(0.07437563662635052 0 0)
(0.0600953349644907 0 0)
(0.04502203892915399 0 0)
(0.02952320477868638 0 0)
(0.01381216148210789 0 0)
(-0.001964900012018357 0 0)
(-0.01765655491450021 0 0)
(-0.03310953904866363 0 0)
(-0.04822284560232104 0 0)
(-0.06299925821764528 0 0)
(-0.07762273356081061 0 0)
(-0.09179118722344808 0 0)
(-0.1046728181005181 0 0)
(-0.1138052765593837 0 0)
(-0.1178173056804005 0 0)
(-0.1201257620393094 0 0)
(-0.1213886327899998 0 0)
(-0.1216069129669883 0 0)
(-0.1205511645360925 0 0)
(-0.1178167483946178 0 0)
(-0.1126498122043882 0 0)
(-0.1045506072882187 0 0)
(-0.09334324790878661 0 0)
(-0.07922020394876279 0 0)
(-0.06270318235870204 0 0)
(-0.04453116865474772 0 0)
(-0.02550570453497788 0 0)
(-0.006358684835908604 0 0)
(0.01231744898903364 0 0)
(0.03007477975231333 0 0)
(0.04658609691443787 0 0)
(0.06167170933687179 0 0)
(0.07545576806780538 0 0)
(0.08778222898905098 0 0)
(0.09830250864352436 0 0)
(0.1052677202215778 0 0)
(0.106932313126797 0 0)
(0.1051048163415168 0 0)
(0.1010415778900064 0 0)
(0.09562084670112629 0 0)
(0.08970767141695432 0 0)
(0.08380914843203828 0 0)
(0.07658487722347221 0 0)
(0.06973473565212573 0 0)
(0.06214516766606647 0 0)
(0.05348439239215459 0 0)
(0.0432780807141839 0 0)
(0.03150350043656215 0 0)
(0.01851528861231129 0 0)
(0.004811060716450099 0 0)
(-0.009168138494633308 0 0)
(-0.023093306274851 0 0)
(-0.03679650788754391 0 0)
(-0.05033319034853105 0 0)
(-0.06388527631944996 0 0)
(-0.0775769924574001 0 0)
(-0.09128880430943613 0 0)
(-0.1042456020893537 0 0)
(-0.1147543819689217 0 0)
(-0.1215124675289813 0 0)
(-0.1255329741421253 0 0)
(-0.1272105619551147 0 0)
(-0.1278577295469616 0 0)
(-0.1276172455837652 0 0)
(-0.1262616685303951 0 0)
(-0.1234981723737577 0 0)
(-0.1191791346712768 0 0)
(-0.1129390918397419 0 0)
(-0.1043045022818077 0 0)
(-0.0929235005479071 0 0)
(-0.07874095824689581 0 0)
(-0.06207990113157023 0 0)
(-0.04361042398133701 0 0)
(-0.02420708162983387 0 0)
(-0.004732695836569575 0 0)
(0.01416427510483887 0 0)
(0.03211404143655076 0 0)
(0.04889335899785939 0 0)
(0.06434994169539322 0 0)
(0.07810827621751021 0 0)
(0.08961532703751315 0 0)
(0.0982097916014264 0 0)
(0.1012932843683175 0 0)
(0.1001328533307542 0 0)
(0.09675961902911415 0 0)
(0.09177152857305808 0 0)
(0.0858920472226832 0 0)
(0.07974500016379168 0 0)
(0.07288429822297621 0 0)
(0.06573041273641428 0 0)
(0.05842005745862285 0 0)
(0.05053057202640894 0 0)
(0.04159092224226881 0 0)
(0.03125663017935901 0 0)
(0.01941452385758159 0 0)
(0.006188066805663107 0 0)
(-0.008107497088458256 0 0)
(-0.0230378016061829 0 0)
(-0.03819619186164189 0 0)
(-0.05336293290224402 0 0)
(-0.06848314254333661 0 0)
(-0.08348735842810011 0 0)
(-0.0981352842312712 0 0)
(-0.1116846941823231 0 0)
(-0.1225985882572791 0 0)
(-0.1296472223919443 0 0)
(-0.1334668517097204 0 0)
(-0.1351253501628196 0 0)
(-0.1350341063615811 0 0)
(-0.1344081838616704 0 0)
(-0.1326682025310243 0 0)
(-0.1297442706850116 0 0)
(-0.1256123574521925 0 0)
(-0.1200636538345436 0 0)
(-0.1127359932087678 0 0)
(-0.1032684560454885 0 0)
(-0.09141768825521107 0 0)
(-0.07714852090509874 0 0)
(-0.0606981778523574 0 0)
(-0.04257624888638342 0 0)
(-0.02347343159011769 0 0)
(-0.004103200560256268 0 0)
(0.01492822760623306 0 0)
(0.03310981812013072 0 0)
(0.04999335918016647 0 0)
(0.06519046940053305 0 0)
(0.07812054314092985 0 0)
(0.08827005293265389 0 0)
(0.09296762884385258 0 0)
(0.0927770038530582 0 0)
(0.0900637233935915 0 0)
(0.08550373384056185 0 0)
(0.07986552271115679 0 0)
(0.07375709566558662 0 0)
(0.06736732222956891 0 0)
(0.05975037890239163 0 0)
(0.0525957082192994 0 0)
(0.04495228181748934 0 0)
(0.03662150625470257 0 0)
(0.02724074341874995 0 0)
(0.01654059966278099 0 0)
(0.004382689455680416 0 0)
(-0.009216592497956999 0 0)
(-0.02406754989785426 0 0)
(-0.03984090375509963 0 0)
(-0.05617930249800489 0 0)
(-0.07276391421908616 0 0)
(-0.08925830977314408 0 0)
(-0.1052204392742338 0 0)
(-0.1198216030228996 0 0)
(-0.1315225428632268 0 0)
(-0.139043339638683 0 0)
(-0.1427554365965517 0 0)
(-0.1438863459653973 0 0)
(-0.14374537816314 0 0)
(-0.1421895065032685 0 0)
(-0.1398049218200245 0 0)
(-0.1363964263301471 0 0)
(-0.1320079529391879 0 0)
(-0.1265466227282583 0 0)
(-0.1197771042042615 0 0)
(-0.111424089098027 0 0)
(-0.1012455392412632 0 0)
(-0.08907938633235918 0 0)
(-0.07489746460745941 0 0)
(-0.05886118683205822 0 0)
(-0.04133374140229785 0 0)
(-0.0228255650990551 0 0)
(-0.003909924537767795 0 0)
(0.01480785844800825 0 0)
(0.03276318167847646 0 0)
(0.04935029516154656 0 0)
(0.06375372936371418 0 0)
(0.07527859272596668 0 0)
(0.08191684708588354 0 0)
(0.08299521409006025 0 0)
(0.08101975351497712 0 0)
(0.07709101598356079 0 0)
(0.07193030418753954 0 0)
(0.06611053957796813 0 0)
(0.05986646402614116 0 0)
(0.05230018283121184 0 0)
(0.04500349228875456 0 0)
(0.03739589531532257 0 0)
(0.02930001172506625 0 0)
(0.02039363310415061 0 0)
(0.01044492097325187 0 0)
(-0.0007352226473860201 0 0)
(-0.01330306106705247 0 0)
(-0.02733702490783397 0 0)
(-0.04275357805166843 0 0)
(-0.059302797176541 0 0)
(-0.07663059254556832 0 0)
(-0.09427851639653886 0 0)
(-0.1116294361357458 0 0)
(-0.1276672419547317 0 0)
(-0.140594939622462 0 0)
(-0.1488814311413203 0 0)
(-0.1528496298447653 0 0)
(-0.1538549530913546 0 0)
(-0.1534159385642031 0 0)
(-0.1515934646224645 0 0)
(-0.1483854855701825 0 0)
(-0.1443583763025729 0 0)
(-0.139389901079174 0 0)
(-0.1334989310649023 0 0)
(-0.1266086985117712 0 0)
(-0.118575600261665 0 0)
(-0.1092355722021624 0 0)
(-0.098435722731449 0 0)
(-0.08606725406742807 0 0)
(-0.07210364243069428 0 0)
(-0.05663207162022967 0 0)
(-0.03987317739235481 0 0)
(-0.02218382785213258 0 0)
(-0.00401347976362841 0 0)
(0.01411755359595598 0 0)
(0.03148902507316555 0 0)
(0.04711593805540597 0 0)
(0.05990680013067688 0 0)
(0.06806746014530991 0 0)
(0.07031589339050716 0 0)
(0.06924251520503712 0 0)
(0.06635038380255934 0 0)
(0.06195669403007197 0 0)
(0.05647026740851665 0 0)
(0.05023710441875691 0 0)
(0.04309704898402067 0 0)
(0.0355575058386093 0 0)
(0.02793297812649044 0 0)
(0.01987562518218294 0 0)
(0.01116944108366312 0 0)
(0.001676519154283675 0 0)
(-0.00877193482918197 0 0)
(-0.02041199227868744 0 0)
(-0.0334603029740381 0 0)
(-0.04799683441452973 0 0)
(-0.06394958501302388 0 0)
(-0.08114493955958052 0 0)
(-0.09923416994138431 0 0)
(-0.1175662883272182 0 0)
(-0.1349267959832438 0 0)
(-0.1491890867089748 0 0)
(-0.1584515345532375 0 0)
(-0.1630419642299199 0 0)
(-0.1644307623298066 0 0)
(-0.1641235215049859 0 0)
(-0.1623360692701576 0 0)
(-0.1589217968013439 0 0)
(-0.154276245878396 0 0)
(-0.148638291768621 0 0)
(-0.1420287688411097 0 0)
(-0.1345541176477407 0 0)
(-0.1262154025000749 0 0)
(-0.116933975642679 0 0)
(-0.1066097080701302 0 0)
(-0.0951694655368672 0 0)
(-0.08257736122716371 0 0)
(-0.06881901755356221 0 0)
(-0.05391698126057991 0 0)
(-0.03799038320522895 0 0)
(-0.02125815856934982 0 0)
(-0.004063501483226814 0 0)
(0.01299290226887775 0 0)
(0.0290364343216975 0 0)
(0.04263271493466373 0 0)
(0.05152260577282237 0 0)
(0.0546080236808184 0 0)
(0.05439101114509887 0 0)
(0.05244625061145695 0 0)
(0.04884013823486068 0 0)
(0.04387155723374734 0 0)
(0.0378559959337325 0 0)
(0.03093470242156281 0 0)
(0.02338962916089191 0 0)
(0.01579548611474061 0 0)
(0.007788441157449162 0 0)
(-0.0008098325760984541 0 0)
(-0.01011577103828032 0 0)
(-0.02025560802800519 0 0)
(-0.0313925686117343 0 0)
(-0.04369516189289311 0 0)
(-0.05731451894388726 0 0)
(-0.07236667949066618 0 0)
(-0.08888285458596974 0 0)
(-0.106639083102079 0 0)
(-0.1250276707816901 0 0)
(-0.1429266159576201 0 0)
(-0.1581948878300058 0 0)
(-0.1684095254858894 0 0)
(-0.1735544622308702 0 0)
(-0.175370014442291 0 0)
(-0.1754653937609494 0 0)
(-0.1740180667790803 0 0)
(-0.170693757615365 0 0)
(-0.1659726919845318 0 0)
(-0.1600669174322974 0 0)
(-0.1530444031024193 0 0)
(-0.1450720309960258 0 0)
(-0.1362501883603813 0 0)
(-0.1266034591003099 0 0)
(-0.1161147614616274 0 0)
(-0.1047559301917723 0 0)
(-0.09250421515471605 0 0)
(-0.07935732604102684 0 0)
(-0.06535014616513846 0 0)
(-0.05056822641018689 0 0)
(-0.03509225713641992 0 0)
(-0.01904180734809532 0 0)
(-0.00285612654534694 0 0)
(0.01271426913302008 0 0)
(0.02623761582814287 0 0)
(0.03506951623295983 0 0)
(0.03813189088160305 0 0)
(0.03792222441162074 0 0)
(0.03578142793838091 0 0)
(0.03174309081375784 0 0)
(0.02630153761101411 0 0)
(0.01984940492062261 0 0)
(0.01251718684570798 0 0)
(0.004090292730922818 0 0)
(-0.004547342652376988 0 0)
(-0.01330384782711288 0 0)
(-0.02236974833046352 0 0)
(-0.03194487391480624 0 0)
(-0.04216113143457507 0 0)
(-0.05312140779637322 0 0)
(-0.06497345921739896 0 0)
(-0.07791935044753001 0 0)
(-0.09212797706498461 0 0)
(-0.1077012373206692 0 0)
(-0.1245870903360509 0 0)
(-0.1423178895709498 0 0)
(-0.1598777219607231 0 0)
(-0.1752568609332637 0 0)
(-0.1857378213156429 0 0)
(-0.1907870780535817 0 0)
(-0.192265365076093 0 0)
(-0.1920616409894977 0 0)
(-0.1903139950678474 0 0)
(-0.1865569163510179 0 0)
(-0.181247176785929 0 0)
(-0.1749106283084173 0 0)
(-0.1676348361824673 0 0)
(-0.1594684421083695 0 0)
(-0.1505657090671741 0 0)
(-0.1409894018857035 0 0)
(-0.1306896470986224 0 0)
(-0.1195667254609705 0 0)
(-0.1075488478440336 0 0)
(-0.09463401819138786 0 0)
(-0.08086364038137366 0 0)
(-0.0662712268374754 0 0)
(-0.05091372147386791 0 0)
(-0.03496263627658379 0 0)
(-0.0189277696820111 0 0)
(-0.003606529799947911 0 0)
(0.009828699520671742 0 0)
(0.01852275305200815 0 0)
(0.02087813045665546 0 0)
(0.01933485655199356 0 0)
(0.01509728536110004 0 0)
(0.008507454289543085 0 0)
(0.0001970127638637887 0 0)
(-0.00938101129967903 0 0)
(-0.01987564273546972 0 0)
(-0.03097931496246474 0 0)
(-0.04218810115955052 0 0)
(-0.05397167114531683 0 0)
(-0.06553464662309451 0 0)
(-0.07673776141599152 0 0)
(-0.08771999261372003 0 0)
(-0.09884789333083219 0 0)
(-0.1104876768136221 0 0)
(-0.1228165371012715 0 0)
(-0.1358783230320776 0 0)
(-0.1498276595702434 0 0)
(-0.1648941104922449 0 0)
(-0.180776484931534 0 0)
(-0.1965109751082159 0 0)
(-0.210402412331761 0 0)
(-0.2197441222843403 0 0)
(-0.2234982784265067 0 0)
(-0.2238874366311887 0 0)
(-0.2221893840742688 0 0)
(-0.218198717660635 0 0)
(-0.2124167022356734 0 0)
(-0.2054281730076361 0 0)
(-0.1974932766420757 0 0)
(-0.1886244593572797 0 0)
(-0.178833051590967 0 0)
(-0.1688981029247059 0 0)
(-0.1586069277893581 0 0)
(-0.1479675356251207 0 0)
(-0.136938564178551 0 0)
(-0.1254335726846055 0 0)
(-0.1133674885230753 0 0)
(-0.1006703492507686 0 0)
(-0.08727625719251346 0 0)
(-0.0732138296131522 0 0)
(-0.05867979428053748 0 0)
(-0.04416452105023723 0 0)
(-0.03038153697914509 0 0)
(-0.01825390205329058 0 0)
(-0.01078699418097098 0 0)
(-0.009313523891880549 0 0)
(-0.01172807437601994 0 0)
(-0.01729705213425231 0 0)
(-0.0254904771723886 0 0)
(-0.03559858186479806 0 0)
(-0.04710837413746342 0 0)
(-0.05955418272642911 0 0)
(-0.07248733724959394 0 0)
(-0.08560590659557005 0 0)
(-0.09823894772457555 0 0)
(-0.1114022124192473 0 0)
(-0.1236461107139857 0 0)
(-0.1357284966425839 0 0)
(-0.1474408329954479 0 0)
(-0.1589745725889709 0 0)
(-0.170640904340376 0 0)
(-0.1828547680976846 0 0)
(-0.1959525050666754 0 0)
(-0.2100473268297595 0 0)
(-0.2246705766962083 0 0)
(-0.2389031901563538 0 0)
(-0.251507230447306 0 0)
(-0.2597870256163349 0 0)
(-0.2624111743682386 0 0)
(-0.2615085658041308 0 0)
(-0.2579344970930736 0 0)
(-0.2516505835603295 0 0)
(-0.2432468253497774 0 0)
(-0.2333441758834429 0 0)
(-0.2224515692772 0 0)
(-0.2109715695937257 0 0)
(-0.1994194250638202 0 0)
(-0.1876671108041881 0 0)
(-0.1756161977841481 0 0)
(-0.1639495839576325 0 0)
(-0.1524902132704866 0 0)
(-0.1412794391357723 0 0)
(-0.1301836224847941 0 0)
(-0.1189408154037967 0 0)
(-0.1072743969163716 0 0)
(-0.09508232680451545 0 0)
(-0.08247097880996326 0 0)
(-0.06975704959133974 0 0)
(-0.05756234249617005 0 0)
(-0.04671177858553357 0 0)
(-0.03993683330350708 0 0)
(-0.03861891009369419 0 0)
(-0.04109050610396107 0 0)
(-0.04688302065813205 0 0)
(-0.05558274658216398 0 0)
(-0.06647561918969942 0 0)
(-0.07895971909245025 0 0)
(-0.0924783490310826 0 0)
(-0.1064385371774701 0 0)
(-0.1203648021350829 0 0)
(-0.133843122789 0 0)
(-0.1469101289997232 0 0)
(-0.1599914219212536 0 0)
(-0.172012752248483 0 0)
(-0.1837445507402119 0 0)
(-0.1950773669557333 0 0)
(-0.2062744640525091 0 0)
(-0.2177973778478433 0 0)
(-0.2300606335427139 0 0)
(-0.2432547266815317 0 0)
(-0.2572157161682649 0 0)
(-0.2710039341173521 0 0)
(-0.2833341053884029 0 0)
(-0.2921949045475921 0 0)
(-0.295384968177335 0 0)
(-0.2943342333076787 0 0)
(-0.290209098896281 0 0)
(-0.2828869833890194 0 0)
(-0.2729129285693179 0 0)
(-0.2609719093597694 0 0)
(-0.2477325969786543 0 0)
(-0.233824199788994 0 0)
(-0.2197568283886538 0 0)
(-0.2059961047891251 0 0)
(-0.1927252131531473 0 0)
(-0.1793308293349232 0 0)
(-0.1672867911185438 0 0)
(-0.1557928439614824 0 0)
(-0.1450373658882677 0 0)
(-0.1348217499305591 0 0)
(-0.1248135205424849 0 0)
(-0.114720611758874 0 0)
(-0.1043600517279465 0 0)
(-0.09366754087921232 0 0)
(-0.08308397946804078 0 0)
(-0.07340994653965448 0 0)
(-0.06683864542733338 0 0)
(-0.06506954404852024 0 0)
(-0.06694376881600086 0 0)
(-0.07202232618226595 0 0)
(-0.08025720480242106 0 0)
(-0.09107526945010645 0 0)
(-0.1038146823071909 0 0)
(-0.1177794469240293 0 0)
(-0.1322786832491014 0 0)
(-0.1467365781444201 0 0)
(-0.1609606395800884 0 0)
(-0.1741886648620856 0 0)
(-0.1879508397207693 0 0)
(-0.1995873695748292 0 0)
(-0.2110668787229968 0 0)
(-0.2220699155086819 0 0)
(-0.2329004492169495 0 0)
(-0.2437004088565189 0 0)
(-0.254817535572245 0 0)
(-0.2667771559113258 0 0)
(-0.2798673258731825 0 0)
(-0.2932814005775628 0 0)
(-0.3056525866862624 0 0)
(-0.3157449955357027 0 0)
(-0.3206668465624681 0 0)
(-0.3205845359915092 0 0)
(-0.3171335655189749 0 0)
(-0.3100499096420685 0 0)
(-0.2996784634049623 0 0)
(-0.2867420923634469 0 0)
(-0.2720488128045441 0 0)
(-0.2563517433109844 0 0)
(-0.2403599880391396 0 0)
(-0.2246429050302942 0 0)
(-0.2098230168917619 0 0)
(-0.1954058904113517 0 0)
(-0.1825050808900862 0 0)
(-0.1709548939086597 0 0)
(-0.1604246230906974 0 0)
(-0.1509851098487385 0 0)
(-0.1424446623335376 0 0)
(-0.1344625809536328 0 0)
(-0.126594142661979 0 0)
(-0.1184176523773921 0 0)
(-0.1100459497355647 0 0)
(-0.1019862501449512 0 0)
(-0.09599312287695856 0 0)
(-0.09393397621726274 0 0)
(-0.09514918063328701 0 0)
(-0.09932307746569977 0 0)
(-0.1066842070446725 0 0)
(-0.1168273664409127 0 0)
(-0.1291387881483297 0 0)
(-0.1429744708991438 0 0)
(-0.1577265898670737 0 0)
(-0.1727674408062414 0 0)
(-0.1876320914647592 0 0)
(-0.2014813921202546 0 0)
(-0.2156176787846477 0 0)
(-0.2276958441043884 0 0)
(-0.2392964218438895 0 0)
(-0.2502803740066293 0 0)
(-0.2607497820681744 0 0)
(-0.2708294962153011 0 0)
(-0.280922428519178 0 0)
(-0.2915817705614016 0 0)
(-0.3031303051876819 0 0)
(-0.3151328623624862 0 0)
(-0.3266362356947733 0 0)
(-0.3366890929114387 0 0)
(-0.342638199781734 0 0)
(-0.34359353076946 0 0)
(-0.3410584564918667 0 0)
(-0.335021306853062 0 0)
(-0.3255766404311109 0 0)
(-0.3132841359787619 0 0)
(-0.2988777986411076 0 0)
(-0.2831868759089967 0 0)
(-0.2670678491169647 0 0)
(-0.2512268222952844 0 0)
(-0.2361986457356681 0 0)
(-0.2218274766482518 0 0)
(-0.2088466694911862 0 0)
(-0.1973327466987143 0 0)
(-0.1867073424036033 0 0)
(-0.1770519844961835 0 0)
(-0.1680502016875525 0 0)
(-0.1592154588082619 0 0)
(-0.1499790149150816 0 0)
(-0.1398937221201781 0 0)
(-0.1288532839508213 0 0)
(-0.1173198684848563 0 0)
(-0.1060893477634421 0 0)
(-0.09646201373569634 0 0)
(-0.09012262293428609 0 0)
(-0.08741569051606175 0 0)
(-0.08703749574296962 0 0)
(-0.08867135952158647 0 0)
(-0.0929660677513048 0 0)
(-0.09953447894102989 0 0)
(-0.1077472755999336 0 0)
(-0.1176022490485794 0 0)
(-0.1274441069307936 0 0)
(-0.1376322370923794 0 0)
(-0.1479885151519968 0 0)
(-0.1584491908785468 0 0)
(-0.1690120811141225 0 0)
(-0.1797187394946527 0 0)
(-0.190682734748755 0 0)
(-0.2020458403546747 0 0)
(-0.2139155659320102 0 0)
(-0.2263800477026075 0 0)
(-0.2395510593992467 0 0)
(-0.2533672125848413 0 0)
(-0.2670370022446294 0 0)
(-0.2795360829001241 0 0)
(-0.2900080043900144 0 0)
(-0.2955870405584743 0 0)
(-0.2961279386750681 0 0)
(-0.2935029238494028 0 0)
(-0.2877026459683419 0 0)
(-0.2790993246388592 0 0)
(-0.2682013318075227 0 0)
(-0.2554704709334902 0 0)
(-0.2414316366246352 0 0)
(-0.226675992925257 0 0)
(-0.2121160721450868 0 0)
(-0.1974364854496537 0 0)
(-0.1839968683621842 0 0)
(-0.1713405789119941 0 0)
(-0.1596647020031387 0 0)
(-0.1489565564906382 0 0)
(-0.1390560468740202 0 0)
(-0.129694537805624 0 0)
(-0.1206152816796042 0 0)
(-0.1115663160016865 0 0)
(-0.1023005495435254 0 0)
(-0.09304543887360359 0 0)
(-0.08422883363400943 0 0)
(-0.07689625107202414 0 0)
(-0.07332868998261416 0 0)
(-0.07317916715190594 0 0)
(-0.07544310761716047 0 0)
(-0.0804671299430321 0 0)
(-0.08797599826370252 0 0)
(-0.09750676491737333 0 0)
(-0.1085554763102363 0 0)
(-0.1206966151109735 0 0)
(-0.1332911587632186 0 0)
(-0.1466791075714043 0 0)
(-0.1591149177308885 0 0)
(-0.171158608970752 0 0)
(-0.1827643163065786 0 0)
(-0.1940634296544772 0 0)
(-0.2051599969974295 0 0)
(-0.2161519129186551 0 0)
(-0.2272318639608688 0 0)
(-0.2387576020664229 0 0)
(-0.2510457351882841 0 0)
(-0.2640950522461029 0 0)
(-0.2773692486632778 0 0)
(-0.2898641915314845 0 0)
(-0.3006346180234619 0 0)
(-0.3075443854272981 0 0)
(-0.309266558212332 0 0)
(-0.3073690186334667 0 0)
(-0.3023615483861672 0 0)
(-0.2942478314217499 0 0)
(-0.283456071426075 0 0)
(-0.2704806317769334 0 0)
(-0.2559280700657082 0 0)
(-0.2404883955225651 0 0)
(-0.2247287556366666 0 0)
(-0.209396881577558 0 0)
(-0.1941861158086952 0 0)
(-0.1806863130928497 0 0)
(-0.1681179054493625 0 0)
(-0.1568661953945774 0 0)
(-0.1468326714062702 0 0)
(-0.137817158976531 0 0)
(-0.129439080775552 0 0)
(-0.1212628405755928 0 0)
(-0.1129394211377314 0 0)
(-0.1046639488156376 0 0)
(-0.09671361261485223 0 0)
(-0.08954687007301647 0 0)
(-0.08539372225316756 0 0)
(-0.08466771420105965 0 0)
(-0.08632699869862573 0 0)
(-0.09062548420249238 0 0)
(-0.09747999419098918 0 0)
(-0.1065381540798929 0 0)
(-0.117444955495707 0 0)
(-0.1297575074924888 0 0)
(-0.1430189311770636 0 0)
(-0.156623146739761 0 0)
(-0.1703639715727197 0 0)
(-0.1831447206526597 0 0)
(-0.1955504099928362 0 0)
(-0.2073247560471769 0 0)
(-0.2185593843821156 0 0)
(-0.2293460582108667 0 0)
(-0.2399587686468016 0 0)
(-0.2507797643012686 0 0)
(-0.2621136012440368 0 0)
(-0.274127023694467 0 0)
(-0.2867384248862544 0 0)
(-0.2990861412946286 0 0)
(-0.3100674214306325 0 0)
(-0.3184683398061764 0 0)
(-0.3218798838734023 0 0)
(-0.3209880171602237 0 0)
(-0.31705270356647 0 0)
(-0.3098150314065805 0 0)
(-0.2995603671320423 0 0)
(-0.2867367893001978 0 0)
(-0.2718997659420734 0 0)
(-0.2557619790843252 0 0)
(-0.2390652985535192 0 0)
(-0.2225837978805491 0 0)
(-0.2062406271632864 0 0)
(-0.1914561956769223 0 0)
(-0.1781069731393925 0 0)
(-0.1662036097747961 0 0)
(-0.1559491467697142 0 0)
(-0.1471936520872597 0 0)
(-0.1395275383106536 0 0)
(-0.1324409046797772 0 0)
(-0.1255316203913312 0 0)
(-0.1187514762631847 0 0)
(-0.112068937112183 0 0)
(-0.1055624899148929 0 0)
(-0.1011847649312301 0 0)
(-0.09993835899439862 0 0)
(-0.1009444344339478 0 0)
(-0.1043237462709185 0 0)
(-0.1101930619922602 0 0)
(-0.1183211538380665 0 0)
(-0.1284972629498184 0 0)
(-0.1403363762271123 0 0)
(-0.1534360932999612 0 0)
(-0.1669462184233113 0 0)
(-0.1814633672026389 0 0)
(-0.1948182336358961 0 0)
(-0.2078789737918007 0 0)
(-0.220127911977883 0 0)
(-0.2316764052345701 0 0)
(-0.2426366166223068 0 0)
(-0.2531989290463253 0 0)
(-0.263560200527226 0 0)
(-0.2740151936617796 0 0)
(-0.284970115044317 0 0)
(-0.2966339826622275 0 0)
(-0.3083988529706077 0 0)
(-0.3192713028494138 0 0)
(-0.3284581283496554 0 0)
(-0.3334280975470427 0 0)
(-0.3338347856787494 0 0)
(-0.3311206779579734 0 0)
(-0.3250292899104836 0 0)
(-0.3156603035948314 0 0)
(-0.3034196959900571 0 0)
(-0.2888586364148693 0 0)
(-0.2726401236322805 0 0)
(-0.2555236609680401 0 0)
(-0.2381155745334711 0 0)
(-0.2212458048015291 0 0)
(-0.2049723923596384 0 0)
(-0.1908613406691643 0 0)
(-0.1782077806664846 0 0)
(-0.1674269601702621 0 0)
(-0.1583279286704162 0 0)
(-0.1506257447783342 0 0)
(-0.1438432342192187 0 0)
(-0.137423072874013 0 0)
(-0.1308261579862527 0 0)
(-0.1238935131399241 0 0)
(-0.1167209227003353 0 0)
(-0.1102502239648177 0 0)
(-0.1060718942594178 0 0)
(-0.1043356514288627 0 0)
(-0.1043279390484849 0 0)
(-0.1063181676089799 0 0)
(-0.1106799887534697 0 0)
(-0.1172434791121868 0 0)
(-0.1254844907211538 0 0)
(-0.1355096525945064 0 0)
(-0.1469759200260829 0 0)
(-0.1588332850436434 0 0)
(-0.1709619545424652 0 0)
(-0.1831063993899961 0 0)
(-0.1950526794737013 0 0)
(-0.2066996459657869 0 0)
(-0.2179801961791547 0 0)
(-0.2289164083502042 0 0)
(-0.2397221305627837 0 0)
(-0.2507701237469718 0 0)
(-0.262365323258752 0 0)
(-0.2746070841484187 0 0)
(-0.287273030409747 0 0)
(-0.299445672220586 0 0)
(-0.3101018515806466 0 0)
(-0.3181270275992556 0 0)
(-0.3211794811077477 0 0)
(-0.3199621286816448 0 0)
(-0.3157231875480399 0 0)
(-0.3082988738436345 0 0)
(-0.2979989680727391 0 0)
(-0.2852184582266424 0 0)
(-0.2704651346230468 0 0)
(-0.2543795321698845 0 0)
(-0.2377330125563399 0 0)
(-0.2207700896393945 0 0)
(-0.2046547153214027 0 0)
(-0.1896212536982594 0 0)
(-0.1758141940310909 0 0)
(-0.1635693467716764 0 0)
(-0.1530003996771932 0 0)
(-0.1440300040870994 0 0)
(-0.1363503826202993 0 0)
(-0.1295109589868133 0 0)
(-0.1230439885733583 0 0)
(-0.1169054811859851 0 0)
(-0.1110189231106394 0 0)
(-0.1054842985630547 0 0)
(-0.1020167796987041 0 0)
(-0.1011059520982576 0 0)
(-0.1020402082759627 0 0)
(-0.1050856326286303 0 0)
(-0.1103136935977026 0 0)
(-0.1175420107648997 0 0)
(-0.126662635892537 0 0)
(-0.13728900007479 0 0)
(-0.1494677119917172 0 0)
(-0.1626566365269416 0 0)
(-0.1758760431806551 0 0)
(-0.1891355564499333 0 0)
(-0.2021301824599456 0 0)
(-0.2146226744357657 0 0)
(-0.2264586991076397 0 0)
(-0.2376618923496037 0 0)
(-0.2484250806952218 0 0)
(-0.2590217109400231 0 0)
(-0.2697341926780904 0 0)
(-0.2808663306130856 0 0)
(-0.2925487607578764 0 0)
(-0.3041942713112211 0 0)
(-0.3149071755392294 0 0)
(-0.3239155039622249 0 0)
(-0.3286745205727248 0 0)
(-0.3288810999312128 0 0)
(-0.3259409935542788 0 0)
(-0.3196470324582669 0 0)
(-0.310188874866909 0 0)
(-0.2979963994997119 0 0)
(-0.2835823074230389 0 0)
(-0.2675582353045174 0 0)
(-0.2504992898708022 0 0)
(-0.2332181568335356 0 0)
(-0.2158555841524676 0 0)
(-0.1998720906121393 0 0)
(-0.1849413400901644 0 0)
(-0.1716828484689117 0 0)
(-0.1602537864407119 0 0)
(-0.1507108516574616 0 0)
(-0.142835925666532 0 0)
(-0.1362500093670686 0 0)
(-0.1305209335042376 0 0)
(-0.1253235047835963 0 0)
(-0.1203168390252253 0 0)
(-0.115210077902323 0 0)
(-0.1114180564817238 0 0)
(-0.1099131094872044 0 0)
(-0.1100538787304357 0 0)
(-0.112027791526099 0 0)
(-0.1160994430515509 0 0)
(-0.1220741496566797 0 0)
(-0.129886487016376 0 0)
(-0.139213610293927 0 0)
(-0.1502833316363598 0 0)
(-0.1628048240501919 0 0)
(-0.1756783773213613 0 0)
(-0.1889186632306568 0 0)
(-0.2021770948495676 0 0)
(-0.2151674296663164 0 0)
(-0.2276851594150501 0 0)
(-0.2395891124250435 0 0)
(-0.2508029277179864 0 0)
(-0.2614252903180976 0 0)
(-0.2718075581517942 0 0)
(-0.2823916589486692 0 0)
(-0.2934020229571995 0 0)
(-0.3045481404415145 0 0)
(-0.3151385580522175 0 0)
(-0.3245108665852653 0 0)
(-0.3310649552509178 0 0)
(-0.3331380083646033 0 0)
(-0.3316808347116985 0 0)
(-0.3271150152904246 0 0)
(-0.3190894259272655 0 0)
(-0.3079042378407854 0 0)
(-0.2940872546325092 0 0)
(-0.278329990672761 0 0)
(-0.26134423637411 0 0)
(-0.2439944592648314 0 0)
(-0.2261979830441245 0 0)
(-0.2098754172453274 0 0)
(-0.1943733212375786 0 0)
(-0.1801579689876123 0 0)
(-0.1675046774405795 0 0)
(-0.1566500588410498 0 0)
(-0.1476356210223798 0 0)
(-0.1402881045304443 0 0)
(-0.1342095766550478 0 0)
(-0.1287590078832182 0 0)
(-0.1235058853850036 0 0)
(-0.1180719332283219 0 0)
(-0.1128601649188273 0 0)
(-0.1090821917384752 0 0)
(-0.1070946085372353 0 0)
(-0.106547654802579 0 0)
(-0.1076104803040702 0 0)
(-0.1106911544991353 0 0)
(-0.1157976198413339 0 0)
(-0.1226493433351232 0 0)
(-0.1321966722671267 0 0)
(-0.1424617704245723 0 0)
(-0.1537323615569673 0 0)
(-0.1656861749138226 0 0)
(-0.1781733125166335 0 0)
(-0.190856199066606 0 0)
(-0.2034391611738654 0 0)
(-0.2156657782515696 0 0)
(-0.2274070218362649 0 0)
(-0.2387355786345123 0 0)
(-0.2498849058375137 0 0)
(-0.2611221359239987 0 0)
(-0.2726826464250057 0 0)
(-0.2845787956204274 0 0)
(-0.2961561688947707 0 0)
(-0.3066091842441732 0 0)
(-0.3153246722070003 0 0)
(-0.3198950365305353 0 0)
(-0.3201807129493948 0 0)
(-0.3176438746235362 0 0)
(-0.3120544855962458 0 0)
(-0.3034617320295447 0 0)
(-0.2919481370691117 0 0)
(-0.2775961214460006 0 0)
(-0.2608276407520712 0 0)
(-0.242591728839298 0 0)
(-0.2243900377046889 0 0)
(-0.2078790996706972 0 0)
(-0.1946018454285813 0 0)
(-0.1827867086386197 0 0)
(-0.170703551258762 0 0)
(-0.1574769351111326 0 0)
(-0.1440197635391441 0 0)
(-0.1328692928671555 0 0)
(-0.1255537171411207 0 0)
(-0.1206428915902261 0 0)
(-0.1196092175639247 0 0)
(-0.1118248202988125 0 0)
)
;

boundaryField
{
    inlet
    {
        type            zeroGradient;
    }
    outlet
    {
        type            characteristicPressureInletOutletVelocity;
        UName           U;
        pName           p;
        TName           T;
        phiName         phi;
        rhoName         rho;
        U               (0 0 0);
        p               101325;
        T               300;
        value           uniform (-0.1118248202988125 0 0);
    }
    frontAndBack
    {
        type            empty;
    }
}


// ************************************************************************* //
