/*--------------------------------*- C++ -*----------------------------------*\
| =========                 |                                                 |
| \\      /  F ield         | OpenFOAM: The Open Source CFD Toolbox           |
|  \\    /   O peration     | Version:  v2012                                 |
|   \\  /    A nd           | Website:  www.openfoam.com                      |
|    \\/     M anipulation  |                                                 |
\*---------------------------------------------------------------------------*/
FoamFile
{
    version     2.0;
    format      ascii;
    class       volVectorField;
    location    "0.014";
    object      UMean;
}
// * * * * * * * * * * * * * * * * * * * * * * * * * * * * * * * * * * * * * //

dimensions      [0 1 -1 0 0 0 0];


internalField   nonuniform List<vector> 
1000
(
(-2.643192555193451e-05 0 0)
(-8.464090803687138e-07 0 0)
(1.40394138362615e-05 0 0)
(4.312048102976949e-05 0 0)
(7.739028109447206e-05 0 0)
(0.0001121344954630651 0 0)
(0.0001581489994310049 0 0)
(0.0002063348407673366 0 0)
(0.000263685504533895 0 0)
(0.00032364807763376 0 0)
(0.0003860819379939996 0 0)
(0.0004479338654289685 0 0)
(0.0005093874535952933 0 0)
(0.0005700710614398861 0 0)
(0.0006290566107438835 0 0)
(0.0006852936257870897 0 0)
(0.0007372540606201039 0 0)
(0.0007841019748603909 0 0)
(0.0008247206179067285 0 0)
(0.0008586697818977757 0 0)
(0.0008851289200340756 0 0)
(0.0009036312456626434 0 0)
(0.0009138391308163032 0 0)
(0.0009153631588662328 0 0)
(0.0009083254059357625 0 0)
(0.0008926930110853882 0 0)
(0.0008691520299687186 0 0)
(0.000837726675602831 0 0)
(0.0007992980874376788 0 0)
(0.0007542536429331472 0 0)
(0.000703072768064862 0 0)
(0.0006466089773408105 0 0)
(0.0005872960879888401 0 0)
(0.0005271016228483592 0 0)
(0.0004667461155141918 0 0)
(0.0004065402927704783 0 0)
(0.0003468806421861246 0 0)
(0.000288103402900861 0 0)
(0.0002314124389014502 0 0)
(0.0001778070224614558 0 0)
(0.0001287808762615982 0 0)
(8.511836464749913e-05 0 0)
(4.856800041756651e-05 0 0)
(1.955456042131374e-05 0 0)
(-1.194232627977644e-06 0 0)
(-1.34097735922845e-05 0 0)
(-1.646312674308868e-05 0 0)
(-1.068021566477261e-05 0 0)
(3.917480481433727e-06 0 0)
(2.690590567484698e-05 0 0)
(5.820424962076427e-05 0 0)
(9.698330880529125e-05 0 0)
(0.0001432559933228611 0 0)
(0.0001954458718836833 0 0)
(0.0002530986018119067 0 0)
(0.0003123140669707636 0 0)
(0.0003719300717047856 0 0)
(0.0004309081419603708 0 0)
(0.0004892131021227712 0 0)
(0.0005463635810812411 0 0)
(0.000602357671795366 0 0)
(0.0006562160379789624 0 0)
(0.0007076628218721416 0 0)
(0.0007556937971265086 0 0)
(0.0007992054658341642 0 0)
(0.0008377003294944733 0 0)
(0.0008698791076620216 0 0)
(0.000895480833521189 0 0)
(0.0009137041743315055 0 0)
(0.0009251484914392933 0 0)
(0.0009278771887725578 0 0)
(0.0009228550730699664 0 0)
(0.0009092929766730879 0 0)
(0.0008874230542586845 0 0)
(0.0008561205267988704 0 0)
(0.0008164562008518209 0 0)
(0.0007663815575726098 0 0)
(0.0007089578630933345 0 0)
(0.0006463624140478785 0 0)
(0.000579410439064424 0 0)
(0.0005091809770651658 0 0)
(0.000435596572366966 0 0)
(0.0003606521206321501 0 0)
(0.0002843689305469427 0 0)
(0.0002087861219451535 0 0)
(0.0001347508953750666 0 0)
(6.333648239983093e-05 0 0)
(-2.037845377876984e-06 0 0)
(-6.086894379658272e-05 0 0)
(-0.0001124339852473048 0 0)
(-0.0001545547668911225 0 0)
(-0.000186871780777173 0 0)
(-0.0002080066827220367 0 0)
(-0.0002191761897490105 0 0)
(-0.0002208573752189533 0 0)
(-0.0002116701058379316 0 0)
(-0.0001916408265395886 0 0)
(-0.000163260311727926 0 0)
(-0.0001246322936590562 0 0)
(-7.956466989411591e-05 0 0)
(-2.936005392672601e-05 0 0)
(2.486234467978486e-05 0 0)
(8.029859006474519e-05 0 0)
(0.0001360389807429739 0 0)
(0.000190441680614851 0 0)
(0.0002444998086500314 0 0)
(0.0002966775448568511 0 0)
(0.000345895453563545 0 0)
(0.0003942490233683065 0 0)
(0.0004392155100548828 0 0)
(0.0004813040821428402 0 0)
(0.0005196500291765388 0 0)
(0.0005509397517227453 0 0)
(0.0005760729927050776 0 0)
(0.000593269889349077 0 0)
(0.0006030694044692485 0 0)
(0.0006049825296099678 0 0)
(0.0005965334954002886 0 0)
(0.0005807612199046822 0 0)
(0.0005572598998806228 0 0)
(0.0005234350806597806 0 0)
(0.0004824317159951796 0 0)
(0.0004313959869315092 0 0)
(0.0003717790078009496 0 0)
(0.00030828003473848 0 0)
(0.0002398563072074028 0 0)
(0.0001687187642384693 0 0)
(9.333018352976792e-05 0 0)
(1.659854941606255e-05 0 0)
(-6.132704901248974e-05 0 0)
(-0.0001413406549468716 0 0)
(-0.000218151172005061 0 0)
(-0.0002928681151069606 0 0)
(-0.0003641862745142468 0 0)
(-0.0004262511010034204 0 0)
(-0.0004847433376544903 0 0)
(-0.0005340953534563311 0 0)
(-0.0005744423333036015 0 0)
(-0.0006044289556528377 0 0)
(-0.0006227356622166418 0 0)
(-0.0006333648659293976 0 0)
(-0.0006319635514108028 0 0)
(-0.0006187596866960679 0 0)
(-0.0005969921982012859 0 0)
(-0.0005647808688424111 0 0)
(-0.0005251198283003095 0 0)
(-0.000480668531568282 0 0)
(-0.0004314906900903996 0 0)
(-0.0003806739969736106 0 0)
(-0.0003288338404061762 0 0)
(-0.0002778341289476419 0 0)
(-0.0002279731017987638 0 0)
(-0.0001770322842806037 0 0)
(-0.0001342897162593969 0 0)
(-8.82930534129676e-05 0 0)
(-4.550930728750648e-05 0 0)
(-7.176246785452292e-06 0 0)
(3.20448416289401e-05 0 0)
(6.203206891264869e-05 0 0)
(8.643523979892339e-05 0 0)
(0.0001032872251913617 0 0)
(0.0001115721499922702 0 0)
(0.0001127999185942635 0 0)
(0.0001018733802513298 0 0)
(8.286280219467098e-05 0 0)
(5.594762501627994e-05 0 0)
(1.941082307353933e-05 0 0)
(-2.589421481845e-05 0 0)
(-7.902116570012289e-05 0 0)
(-0.0001416205761439119 0 0)
(-0.0002084863823063523 0 0)
(-0.0002791848355825657 0 0)
(-0.0003534173269947378 0 0)
(-0.000430479012254398 0 0)
(-0.0005107125273812854 0 0)
(-0.0005897749262038351 0 0)
(-0.0006765823529576093 0 0)
(-0.0007573013006322338 0 0)
(-0.0008360881944003741 0 0)
(-0.0009145373946993458 0 0)
(-0.00098060969572873 0 0)
(-0.001046027998733575 0 0)
(-0.001102973291703855 0 0)
(-0.001151574718873112 0 0)
(-0.001191049937463752 0 0)
(-0.001218250898428589 0 0)
(-0.001237419488117806 0 0)
(-0.001245884775902034 0 0)
(-0.001241419983491391 0 0)
(-0.001226055278524569 0 0)
(-0.001202045700654814 0 0)
(-0.001167752672775706 0 0)
(-0.001129100765807785 0 0)
(-0.00108576060754079 0 0)
(-0.001039669034422036 0 0)
(-0.0009930087870446997 0 0)
(-0.0009454716642843133 0 0)
(-0.000899924255049286 0 0)
(-0.0008512837420600388 0 0)
(-0.0008126601469580905 0 0)
(-0.0007704321109370316 0 0)
(-0.0007293807243687673 0 0)
(-0.0006938610114498563 0 0)
(-0.000655239477947766 0 0)
(-0.0006254442246436232 0 0)
(-0.0006015364414293405 0 0)
(-0.0005850561087115109 0 0)
(-0.0005774996619907317 0 0)
(-0.0005775052695938536 0 0)
(-0.0005888455120516898 0 0)
(-0.0006117005548267606 0 0)
(-0.0006423860561408128 0 0)
(-0.0006817742775446935 0 0)
(-0.0007323806122820015 0 0)
(-0.0007891871580403125 0 0)
(-0.0008563337645367964 0 0)
(-0.000928061861849473 0 0)
(-0.001002704620401986 0 0)
(-0.001081042139070882 0 0)
(-0.001161399925206664 0 0)
(-0.001245486804605946 0 0)
(-0.001328647449942856 0 0)
(-0.001418215796246452 0 0)
(-0.001506827931712203 0 0)
(-0.001590638197061275 0 0)
(-0.001674818186659676 0 0)
(-0.001749225370627491 0 0)
(-0.001820332595271673 0 0)
(-0.001885482878600879 0 0)
(-0.00194299743458439 0 0)
(-0.00199176334897724 0 0)
(-0.002029814432213158 0 0)
(-0.002056674265032285 0 0)
(-0.002076831096668712 0 0)
(-0.002081822213106643 0 0)
(-0.002073742680533697 0 0)
(-0.002058046599146701 0 0)
(-0.002029990410438728 0 0)
(-0.001997504277388639 0 0)
(-0.00196019166664595 0 0)
(-0.001919352752173488 0 0)
(-0.001877916574934212 0 0)
(-0.001835127708919851 0 0)
(-0.001793540160198897 0 0)
(-0.001750517011163203 0 0)
(-0.001710276601979036 0 0)
(-0.001676860252633361 0 0)
(-0.001637489767590308 0 0)
(-0.001603042637387646 0 0)
(-0.001568241998720105 0 0)
(-0.001536598689893421 0 0)
(-0.001512879190918756 0 0)
(-0.001496198260698331 0 0)
(-0.001488298851605859 0 0)
(-0.001489767289370835 0 0)
(-0.001499864086236335 0 0)
(-0.001526287182851894 0 0)
(-0.001559618794476153 0 0)
(-0.001601915056540354 0 0)
(-0.001657567378687383 0 0)
(-0.001719437600484594 0 0)
(-0.001791859009810745 0 0)
(-0.001869992753343508 0 0)
(-0.001949993590260013 0 0)
(-0.002033608622348177 0 0)
(-0.00211955446685235 0 0)
(-0.002208181904840488 0 0)
(-0.002298093850371395 0 0)
(-0.002387291496529045 0 0)
(-0.002487654286911271 0 0)
(-0.002576752041922705 0 0)
(-0.002666630711574268 0 0)
(-0.002751565595473004 0 0)
(-0.002828469976586095 0 0)
(-0.002902512010878559 0 0)
(-0.002969212098282298 0 0)
(-0.003027826075039115 0 0)
(-0.003077364732283803 0 0)
(-0.003113570373653125 0 0)
(-0.003144666591827073 0 0)
(-0.003160488508451835 0 0)
(-0.003161688852705606 0 0)
(-0.003153714915988946 0 0)
(-0.003133647929226291 0 0)
(-0.003107294769163692 0 0)
(-0.003076647275758811 0 0)
(-0.003040867946386092 0 0)
(-0.003004594230119648 0 0)
(-0.002967704070504525 0 0)
(-0.002930260075438402 0 0)
(-0.00289390995620347 0 0)
(-0.002852368657663157 0 0)
(-0.002828547550149337 0 0)
(-0.002792079222318125 0 0)
(-0.002759415105438923 0 0)
(-0.002728863112300661 0 0)
(-0.002696554434378492 0 0)
(-0.002672657878275816 0 0)
(-0.002654935215852998 0 0)
(-0.002646277555526912 0 0)
(-0.002647629955490519 0 0)
(-0.002656970854889749 0 0)
(-0.002682927526984717 0 0)
(-0.002719173676902651 0 0)
(-0.002764484043772782 0 0)
(-0.002822786718448184 0 0)
(-0.002891706753849835 0 0)
(-0.002969459102273909 0 0)
(-0.003054869008377246 0 0)
(-0.003141229056098862 0 0)
(-0.003232124156413238 0 0)
(-0.003325682482072339 0 0)
(-0.00342052169506377 0 0)
(-0.003518671873264194 0 0)
(-0.003611715364631887 0 0)
(-0.003720118918066785 0 0)
(-0.003817972813685004 0 0)
(-0.00391459469399275 0 0)
(-0.004010035180964727 0 0)
(-0.004095589174449633 0 0)
(-0.004179127782026331 0 0)
(-0.004255864502702329 0 0)
(-0.004325968544522095 0 0)
(-0.004387518398846002 0 0)
(-0.004436457862776607 0 0)
(-0.004477239758559489 0 0)
(-0.004507422889177958 0 0)
(-0.004520125154544289 0 0)
(-0.004520268420221027 0 0)
(-0.004510971532957764 0 0)
(-0.004491192901684386 0 0)
(-0.004468106994583522 0 0)
(-0.004437499635956654 0 0)
(-0.004406901481311984 0 0)
(-0.004375598887026328 0 0)
(-0.004343218843021059 0 0)
(-0.004312613166508017 0 0)
(-0.004276761958407286 0 0)
(-0.004253245398308388 0 0)
(-0.004226995187261566 0 0)
(-0.004196708629021695 0 0)
(-0.004171209406081939 0 0)
(-0.004141478855783559 0 0)
(-0.00411819072668654 0 0)
(-0.004099964159318352 0 0)
(-0.00409067072170418 0 0)
(-0.004090762615711618 0 0)
(-0.004100078493359842 0 0)
(-0.004121631863480642 0 0)
(-0.004160828806024948 0 0)
(-0.004206276479684904 0 0)
(-0.004264866227915784 0 0)
(-0.004339162073188507 0 0)
(-0.004421251692188288 0 0)
(-0.004513091258204886 0 0)
(-0.004607683049159206 0 0)
(-0.004705551568280094 0 0)
(-0.004808401540496658 0 0)
(-0.004912797172495281 0 0)
(-0.00502052223450518 0 0)
(-0.005125640220918342 0 0)
(-0.005238510498060277 0 0)
(-0.005353649199087436 0 0)
(-0.005460075445052079 0 0)
(-0.0055691396433734 0 0)
(-0.005669535478095272 0 0)
(-0.005766813464200841 0 0)
(-0.005858751558049534 0 0)
(-0.005944738624601621 0 0)
(-0.006023145733850273 0 0)
(-0.006091245242988666 0 0)
(-0.006146394227397557 0 0)
(-0.006196365165731458 0 0)
(-0.006226032817238242 0 0)
(-0.006240754442246857 0 0)
(-0.006246874334331524 0 0)
(-0.006239379529827691 0 0)
(-0.006226592432821442 0 0)
(-0.006208899106487008 0 0)
(-0.006184251238350565 0 0)
(-0.006160806017146287 0 0)
(-0.006136193825241974 0 0)
(-0.006111737253943293 0 0)
(-0.006086119940449425 0 0)
(-0.006059978791445174 0 0)
(-0.006048743455313573 0 0)
(-0.006022721441473931 0 0)
(-0.006003112912539845 0 0)
(-0.005981118629451082 0 0)
(-0.005961446453563349 0 0)
(-0.005946773535518793 0 0)
(-0.005938701109517943 0 0)
(-0.00594079285107285 0 0)
(-0.005952288456953396 0 0)
(-0.005972456797846835 0 0)
(-0.006012392752554382 0 0)
(-0.006060045575865616 0 0)
(-0.006118883027306398 0 0)
(-0.006195566734010427 0 0)
(-0.006281902790407305 0 0)
(-0.006378879848135442 0 0)
(-0.006484510822878945 0 0)
(-0.006589586962617447 0 0)
(-0.006703482222501038 0 0)
(-0.006821768289385959 0 0)
(-0.006943663905847796 0 0)
(-0.007068909223619886 0 0)
(-0.007192045652678052 0 0)
(-0.007334358563534624 0 0)
(-0.00746177094435321 0 0)
(-0.007592944047899535 0 0)
(-0.007720375271265156 0 0)
(-0.007842506353977255 0 0)
(-0.007961273043356297 0 0)
(-0.008073608308378048 0 0)
(-0.008181231877559429 0 0)
(-0.008279324749686932 0 0)
(-0.008363676270505754 0 0)
(-0.008440255294077843 0 0)
(-0.008502364301240678 0 0)
(-0.008543608506340613 0 0)
(-0.008572823643393169 0 0)
(-0.008588822558065284 0 0)
(-0.008595907787839167 0 0)
(-0.008598152423350198 0 0)
(-0.008589611395173266 0 0)
(-0.008579123298522661 0 0)
(-0.008567624391647323 0 0)
(-0.008553911250953138 0 0)
(-0.008540535068524154 0 0)
(-0.008521015710600672 0 0)
(-0.008516600473755066 0 0)
(-0.008505011311991256 0 0)
(-0.008491621165866752 0 0)
(-0.008479326557842219 0 0)
(-0.008465946204544354 0 0)
(-0.008456983697490312 0 0)
(-0.008452829706505873 0 0)
(-0.008458632116303435 0 0)
(-0.008474540096537289 0 0)
(-0.008499207208577308 0 0)
(-0.008539892062660205 0 0)
(-0.008597370727433239 0 0)
(-0.0086613069584024 0 0)
(-0.00874270824481563 0 0)
(-0.008839861205122717 0 0)
(-0.008947599874391947 0 0)
(-0.009066133771323722 0 0)
(-0.00918980963643261 0 0)
(-0.009318479918139154 0 0)
(-0.009455992525115009 0 0)
(-0.009597290401819334 0 0)
(-0.009744685717345377 0 0)
(-0.009889982507869287 0 0)
(-0.01004998435476623 0 0)
(-0.01020730633337164 0 0)
(-0.0103628786799574 0 0)
(-0.01051750636313214 0 0)
(-0.01066623981193717 0 0)
(-0.01081251492449475 0 0)
(-0.01095290826871257 0 0)
(-0.01108833264480687 0 0)
(-0.01121712738974565 0 0)
(-0.01133340853779432 0 0)
(-0.01143799122253348 0 0)
(-0.01153390304979699 0 0)
(-0.01160569648303526 0 0)
(-0.01166246411755381 0 0)
(-0.01170692653323012 0 0)
(-0.01173814235658833 0 0)
(-0.01176135806320623 0 0)
(-0.01177656768730545 0 0)
(-0.01178048371684898 0 0)
(-0.01178426449679954 0 0)
(-0.01178384106801699 0 0)
(-0.01178218816825706 0 0)
(-0.01177519426385344 0 0)
(-0.01177260633261418 0 0)
(-0.01177470776577858 0 0)
(-0.01176978346169275 0 0)
(-0.01176566058671112 0 0)
(-0.01175852737389624 0 0)
(-0.01175580473161997 0 0)
(-0.01175660294422464 0 0)
(-0.01176480445672819 0 0)
(-0.01178500621202375 0 0)
(-0.01181500499828221 0 0)
(-0.01185694387868789 0 0)
(-0.01192063788182131 0 0)
(-0.01199078950964065 0 0)
(-0.01207818123904824 0 0)
(-0.01218501757544771 0 0)
(-0.0123020389755371 0 0)
(-0.01243177723334663 0 0)
(-0.01257247378077455 0 0)
(-0.01271473999622714 0 0)
(-0.01286791307824521 0 0)
(-0.01302750131357966 0 0)
(-0.01319227560909948 0 0)
(-0.01335900237601829 0 0)
(-0.01353141128287466 0 0)
(-0.01371186706433191 0 0)
(-0.01388769937841607 0 0)
(-0.01406456311312921 0 0)
(-0.01423455784547728 0 0)
(-0.01440265050730487 0 0)
(-0.01456476154126235 0 0)
(-0.0147204910875812 0 0)
(-0.01487188832187763 0 0)
(-0.01501322095675065 0 0)
(-0.01514062088628352 0 0)
(-0.01526041347781644 0 0)
(-0.01536023134353334 0 0)
(-0.0154414687030619 0 0)
(-0.01550931269839429 0 0)
(-0.01556177544544038 0 0)
(-0.01560495451813929 0 0)
(-0.01563948566743816 0 0)
(-0.01566130008448414 0 0)
(-0.01567752903507967 0 0)
(-0.01569102879943816 0 0)
(-0.01570003095963471 0 0)
(-0.01570584925282267 0 0)
(-0.0157074288106951 0 0)
(-0.01571798380538562 0 0)
(-0.01572253544239899 0 0)
(-0.01572614241982452 0 0)
(-0.01572588022253326 0 0)
(-0.01572851539471337 0 0)
(-0.01573444521656893 0 0)
(-0.01574585532759682 0 0)
(-0.0157689584819996 0 0)
(-0.01580370867165812 0 0)
(-0.01584870018912795 0 0)
(-0.01591375925237853 0 0)
(-0.01599387751159296 0 0)
(-0.01608512752282776 0 0)
(-0.0161966656872322 0 0)
(-0.01632198914841469 0 0)
(-0.01646106735481214 0 0)
(-0.01661197959436822 0 0)
(-0.01677061993292889 0 0)
(-0.01693370963834246 0 0)
(-0.01710795584959663 0 0)
(-0.01728640985272227 0 0)
(-0.01747014679448325 0 0)
(-0.01765415674802405 0 0)
(-0.01784944791574503 0 0)
(-0.01804270844505794 0 0)
(-0.0182372882668929 0 0)
(-0.01842474844792846 0 0)
(-0.01860911128933013 0 0)
(-0.01878897025693631 0 0)
(-0.01896160824472429 0 0)
(-0.01912849358243655 0 0)
(-0.01928886370406158 0 0)
(-0.01943517555931308 0 0)
(-0.01957119889083967 0 0)
(-0.01969636218051654 0 0)
(-0.01979636410412628 0 0)
(-0.01988215649858018 0 0)
(-0.0199542356499686 0 0)
(-0.02001413230610514 0 0)
(-0.02006406212574154 0 0)
(-0.02010448332645836 0 0)
(-0.02013126209806547 0 0)
(-0.02015642987537997 0 0)
(-0.0201763010012477 0 0)
(-0.02019278092773295 0 0)
(-0.02020232452447588 0 0)
(-0.02021716133945037 0 0)
(-0.02023236472409409 0 0)
(-0.02024340044512227 0 0)
(-0.02025021691066127 0 0)
(-0.02025810531984326 0 0)
(-0.0202704393790987 0 0)
(-0.02028689716390189 0 0)
(-0.02031221059638308 0 0)
(-0.02035198453869467 0 0)
(-0.02040269492244691 0 0)
(-0.02046962069258102 0 0)
(-0.0205577557836087 0 0)
(-0.02065469821279753 0 0)
(-0.02077209841771959 0 0)
(-0.02090718862361196 0 0)
(-0.02105557262225912 0 0)
(-0.02121728930327457 0 0)
(-0.02139027743268352 0 0)
(-0.02156644374274248 0 0)
(-0.02175310091701873 0 0)
(-0.02194714244102562 0 0)
(-0.02214594876785343 0 0)
(-0.02234562077439381 0 0)
(-0.02255422304048807 0 0)
(-0.02276227343223084 0 0)
(-0.02297525561742407 0 0)
(-0.02317995361222538 0 0)
(-0.02338162546395163 0 0)
(-0.02357988391223649 0 0)
(-0.02377057795425571 0 0)
(-0.02395349641277784 0 0)
(-0.02413138415521836 0 0)
(-0.02429806727781688 0 0)
(-0.02445034727841401 0 0)
(-0.02459554466191388 0 0)
(-0.02471612711210975 0 0)
(-0.02482095881677909 0 0)
(-0.02491212339494623 0 0)
(-0.02498758507869776 0 0)
(-0.02505328556564749 0 0)
(-0.02510782376892025 0 0)
(-0.02515049063907061 0 0)
(-0.02518508086322769 0 0)
(-0.0252174177277749 0 0)
(-0.02524467170835459 0 0)
(-0.02526707728662061 0 0)
(-0.02529058447854333 0 0)
(-0.02531389588413751 0 0)
(-0.02534116010008647 0 0)
(-0.02535950887522438 0 0)
(-0.0253796609091035 0 0)
(-0.02540350743045815 0 0)
(-0.02543128180797671 0 0)
(-0.02546517262452869 0 0)
(-0.025511613178279 0 0)
(-0.02557092803584827 0 0)
(-0.0256406762563368 0 0)
(-0.02573160783636957 0 0)
(-0.02583208652102774 0 0)
(-0.0259462515769833 0 0)
(-0.02607750364396427 0 0)
(-0.02621963041967314 0 0)
(-0.02637368212462906 0 0)
(-0.02653496137056737 0 0)
(-0.02670181489454042 0 0)
(-0.02686924153317694 0 0)
(-0.02704420474622461 0 0)
(-0.02722226508038961 0 0)
(-0.0273981031471761 0 0)
(-0.02757815382428903 0 0)
(-0.02775114455791505 0 0)
(-0.02793643942134991 0 0)
(-0.02810810571369054 0 0)
(-0.02827721776989786 0 0)
(-0.02844219343221273 0 0)
(-0.02860141877745504 0 0)
(-0.02875241414367757 0 0)
(-0.02889738738901886 0 0)
(-0.02903666668593707 0 0)
(-0.02916162444246223 0 0)
(-0.02927869636566176 0 0)
(-0.02938192575078732 0 0)
(-0.0294638475432725 0 0)
(-0.02953287660331573 0 0)
(-0.02958755950146505 0 0)
(-0.02963229363592735 0 0)
(-0.02966677065837479 0 0)
(-0.02969344884385812 0 0)
(-0.02970722796652065 0 0)
(-0.02972100418284248 0 0)
(-0.02973231424030951 0 0)
(-0.02973979948903191 0 0)
(-0.02974647232159367 0 0)
(-0.0297502296464593 0 0)
(-0.02976370552079369 0 0)
(-0.02977070257647269 0 0)
(-0.02977596166088686 0 0)
(-0.02978433298800446 0 0)
(-0.02979655006809505 0 0)
(-0.02981250294185464 0 0)
(-0.02983716572871711 0 0)
(-0.02987650324943908 0 0)
(-0.0299258945569987 0 0)
(-0.02999225666909715 0 0)
(-0.03007621565341869 0 0)
(-0.03016915611958926 0 0)
(-0.03028248031717293 0 0)
(-0.03041005252450773 0 0)
(-0.03055116016419639 0 0)
(-0.03070323834190058 0 0)
(-0.03086467735966872 0 0)
(-0.03102816258123518 0 0)
(-0.03120025484497514 0 0)
(-0.03137891726555021 0 0)
(-0.03156023459676035 0 0)
(-0.03174177373487229 0 0)
(-0.03192688265093643 0 0)
(-0.03211100984847457 0 0)
(-0.03229784039130604 0 0)
(-0.03247502281308975 0 0)
(-0.03265031914396629 0 0)
(-0.03282064392554867 0 0)
(-0.03298294596166957 0 0)
(-0.03313785924851067 0 0)
(-0.033287246568702 0 0)
(-0.03342639025498559 0 0)
(-0.03355237771042888 0 0)
(-0.03367166700772999 0 0)
(-0.03376582830138238 0 0)
(-0.03384735876442435 0 0)
(-0.03391557399417855 0 0)
(-0.03397046362562416 0 0)
(-0.03401559029228352 0 0)
(-0.03405073503284647 0 0)
(-0.03407539490828158 0 0)
(-0.0340933801895366 0 0)
(-0.03410994112771886 0 0)
(-0.03412433027127897 0 0)
(-0.03413307583538901 0 0)
(-0.03414626396171824 0 0)
(-0.03415415236469618 0 0)
(-0.03416992067301963 0 0)
(-0.03417759210431972 0 0)
(-0.03418898436965979 0 0)
(-0.03420343992340108 0 0)
(-0.03422172757633152 0 0)
(-0.03424615006565476 0 0)
(-0.03428267224099705 0 0)
(-0.03433306659462981 0 0)
(-0.0343944997488544 0 0)
(-0.0344796494202279 0 0)
(-0.03457079551512709 0 0)
(-0.03468116031143516 0 0)
(-0.03481116239125679 0 0)
(-0.03495196268956063 0 0)
(-0.03510659851123657 0 0)
(-0.03527035301913919 0 0)
(-0.03544195811130099 0 0)
(-0.0356158353081418 0 0)
(-0.03579978200445113 0 0)
(-0.03598938470750201 0 0)
(-0.03617696487853085 0 0)
(-0.03637558520812349 0 0)
(-0.0365571634279463 0 0)
(-0.03675751813755887 0 0)
(-0.0369438751760203 0 0)
(-0.03712912255507342 0 0)
(-0.03730942292363542 0 0)
(-0.03748328787439676 0 0)
(-0.03764782697730772 0 0)
(-0.03780618623853765 0 0)
(-0.03795696813859676 0 0)
(-0.03809384762540793 0 0)
(-0.03822499989720791 0 0)
(-0.03833510722724116 0 0)
(-0.03842653765270866 0 0)
(-0.03850884879199006 0 0)
(-0.03857401287465732 0 0)
(-0.03862964797790722 0 0)
(-0.03867417525298214 0 0)
(-0.03871027836405342 0 0)
(-0.0387336741522543 0 0)
(-0.03875648273952305 0 0)
(-0.03877726985850665 0 0)
(-0.03879200110496828 0 0)
(-0.03881055036864727 0 0)
(-0.0388187464139405 0 0)
(-0.03883868550900921 0 0)
(-0.03885157246922355 0 0)
(-0.03886599613700706 0 0)
(-0.03888334697701028 0 0)
(-0.03890495396051501 0 0)
(-0.03893088846595612 0 0)
(-0.03896737290339065 0 0)
(-0.03901694924007108 0 0)
(-0.03907930001205415 0 0)
(-0.03916244445150736 0 0)
(-0.03925778354995527 0 0)
(-0.0393646306851585 0 0)
(-0.03949785524573781 0 0)
(-0.03964082757074358 0 0)
(-0.03979838783519191 0 0)
(-0.03996670724956144 0 0)
(-0.0401447733378401 0 0)
(-0.04032507412189043 0 0)
(-0.04051383036011236 0 0)
(-0.04070973625660047 0 0)
(-0.04090788105203728 0 0)
(-0.04110854458426733 0 0)
(-0.04130897753698939 0 0)
(-0.04150578659126394 0 0)
(-0.04170770456122289 0 0)
(-0.04190103281984276 0 0)
(-0.04209188280602103 0 0)
(-0.04227649306635104 0 0)
(-0.04245247820275706 0 0)
(-0.04262007486602004 0 0)
(-0.04278066657910543 0 0)
(-0.04293030003041813 0 0)
(-0.04306993912612683 0 0)
(-0.04319829299163727 0 0)
(-0.04329898360990957 0 0)
(-0.04339369023550119 0 0)
(-0.04347197903104007 0 0)
(-0.04353719118621208 0 0)
(-0.04359197115736763 0 0)
(-0.04363723904654857 0 0)
(-0.04367076273798125 0 0)
(-0.04369813168462722 0 0)
(-0.04372448749286956 0 0)
(-0.0437486406656209 0 0)
(-0.04376594632276121 0 0)
(-0.04379297824097569 0 0)
(-0.04380297849165423 0 0)
(-0.04382716664095032 0 0)
(-0.0438443706264928 0 0)
(-0.04386656822606277 0 0)
(-0.04389208191025449 0 0)
(-0.04392233411657357 0 0)
(-0.04395894008958867 0 0)
(-0.04400953304883171 0 0)
(-0.04407223950223157 0 0)
(-0.044151054506363 0 0)
(-0.04425227809933106 0 0)
(-0.04435579102046813 0 0)
(-0.04448264020204554 0 0)
(-0.0446272366992175 0 0)
(-0.04478109347643974 0 0)
(-0.04494695878493558 0 0)
(-0.04512160802953556 0 0)
(-0.04530022395952461 0 0)
(-0.04548269750981335 0 0)
(-0.04567128225463335 0 0)
(-0.04586767483312543 0 0)
(-0.04605667868382152 0 0)
(-0.04625932384750826 0 0)
(-0.04643374871728886 0 0)
(-0.04662984247605566 0 0)
(-0.04681381990446777 0 0)
(-0.04699531921892521 0 0)
(-0.04717130430778663 0 0)
(-0.04733962502617658 0 0)
(-0.04749801585958824 0 0)
(-0.0476505616439386 0 0)
(-0.04779288277799346 0 0)
(-0.04792456455481491 0 0)
(-0.04805116249581048 0 0)
(-0.04815202664577916 0 0)
(-0.04823889943642133 0 0)
(-0.04831899283460996 0 0)
(-0.04838074811009656 0 0)
(-0.04843287604430737 0 0)
(-0.04847509673024199 0 0)
(-0.04850725916677801 0 0)
(-0.04853045882479161 0 0)
(-0.04854998440737501 0 0)
(-0.04857230532997112 0 0)
(-0.04858678314149685 0 0)
(-0.04861378418476632 0 0)
(-0.04861232514594047 0 0)
(-0.04863285152501768 0 0)
(-0.04864995289275091 0 0)
(-0.04866840013794932 0 0)
(-0.04869071576729753 0 0)
(-0.04871659110606482 0 0)
(-0.04874754887656271 0 0)
(-0.04878837311428565 0 0)
(-0.04884284734184866 0 0)
(-0.04890881747797642 0 0)
(-0.04900059200229626 0 0)
(-0.04909636181516187 0 0)
(-0.04920666374310981 0 0)
(-0.04934772548013507 0 0)
(-0.04949380792759028 0 0)
(-0.04965403720452995 0 0)
(-0.04982461181086666 0 0)
(-0.0500036690088643 0 0)
(-0.05018507470060021 0 0)
(-0.05037288403850074 0 0)
(-0.05056954937205654 0 0)
(-0.05076666684296865 0 0)
(-0.05097670899594847 0 0)
(-0.05115301493110516 0 0)
(-0.05135047773492416 0 0)
(-0.05154397158940532 0 0)
(-0.0517325537854578 0 0)
(-0.05191704422510987 0 0)
(-0.05209432418003788 0 0)
(-0.05226271487453123 0 0)
(-0.05242120813810456 0 0)
(-0.05257378080418546 0 0)
(-0.05271136876850103 0 0)
(-0.05284819323179699 0 0)
(-0.05296123304779374 0 0)
(-0.05305218611025407 0 0)
(-0.05314674378296645 0 0)
(-0.05321766039604329 0 0)
(-0.05327766801892012 0 0)
(-0.05332695541470506 0 0)
(-0.05336850756340869 0 0)
(-0.05339595874379165 0 0)
(-0.05342129201104601 0 0)
(-0.05344410786934571 0 0)
(-0.05346731126491846 0 0)
(-0.05349354943575296 0 0)
(-0.05350672693856429 0 0)
(-0.05351775322642456 0 0)
(-0.05353995424353078 0 0)
(-0.05356045227653684 0 0)
(-0.05358519478663611 0 0)
(-0.05361368760330132 0 0)
(-0.05364610512440552 0 0)
(-0.05368564457208677 0 0)
(-0.05373819048809025 0 0)
(-0.05380200460274055 0 0)
(-0.05388725570589284 0 0)
(-0.05398796402972762 0 0)
(-0.05409360484125407 0 0)
(-0.05423031470555044 0 0)
(-0.05437728286111999 0 0)
(-0.05453700508113842 0 0)
(-0.05470769992055662 0 0)
(-0.0548888663441116 0 0)
(-0.05507210046693279 0 0)
(-0.05526270634275596 0 0)
(-0.05545768963878579 0 0)
(-0.05566163466658981 0 0)
(-0.05586724575606451 0 0)
(-0.05607064468271501 0 0)
(-0.05624902561592103 0 0)
(-0.05644956966659413 0 0)
(-0.0566415433791992 0 0)
(-0.05683015309890871 0 0)
(-0.05701366171716346 0 0)
(-0.05718743282897849 0 0)
(-0.05735256138005341 0 0)
(-0.05750803402211372 0 0)
(-0.05765438153525631 0 0)
(-0.05778741145707349 0 0)
(-0.05792090782104924 0 0)
(-0.05802011513374784 0 0)
(-0.05811041922914099 0 0)
(-0.05819385411371894 0 0)
(-0.05825996434984802 0 0)
(-0.05831527990239194 0 0)
(-0.05836136331322466 0 0)
(-0.05839740684185431 0 0)
(-0.05842404027475078 0 0)
(-0.05844982946547594 0 0)
(-0.05847445674818466 0 0)
(-0.05850167907606662 0 0)
(-0.05853273200689916 0 0)
(-0.05853028021932473 0 0)
(-0.05855656905528416 0 0)
(-0.05857882491842811 0 0)
(-0.05860496796156694 0 0)
(-0.05863596387862396 0 0)
(-0.05867014012034819 0 0)
(-0.05871044741747473 0 0)
(-0.05875961009632429 0 0)
(-0.05882123242447054 0 0)
(-0.05889445024415071 0 0)
(-0.05899883931143857 0 0)
(-0.05909940248240626 0 0)
(-0.05921772656420828 0 0)
(-0.05936890656792558 0 0)
(-0.05952157852869291 0 0)
(-0.05968659816782519 0 0)
(-0.05986044554180906 0 0)
(-0.06004219306651296 0 0)
(-0.06022173163359196 0 0)
(-0.06041105480275385 0 0)
(-0.06060343874321082 0 0)
(-0.0608045424839979 0 0)
(-0.06100452910747516 0 0)
(-0.06117653770175348 0 0)
(-0.06136053416908439 0 0)
(-0.06154259977826185 0 0)
(-0.0617238171224632 0 0)
(-0.06189810516625147 0 0)
(-0.06206609907325764 0 0)
(-0.06222433478940877 0 0)
(-0.0623740383694068 0 0)
(-0.06251372918322318 0 0)
(-0.06263945235711633 0 0)
(-0.06276196257807419 0 0)
(-0.06286234157850991 0 0)
(-0.06294798737998063 0 0)
(-0.06303461879039654 0 0)
(-0.06309692203375665 0 0)
(-0.06315041986070807 0 0)
(-0.06319285220635795 0 0)
(-0.06322998127526983 0 0)
(-0.06325199458890962 0 0)
(-0.06327523903581796 0 0)
(-0.06329283315369362 0 0)
(-0.06331991253133673 0 0)
(-0.0633422921122493 0 0)
(-0.06335443167967268 0 0)
(-0.06335894549794639 0 0)
(-0.0633739416310551 0 0)
(-0.06340088766694085 0 0)
(-0.06343156846618965 0 0)
(-0.06346464796672471 0 0)
(-0.06349611994587391 0 0)
(-0.06353863003056889 0 0)
(-0.06361602921376429 0 0)
(-0.06374893276619284 0 0)
(-0.06378630482852304 0 0)
(-0.06391014306543165 0 0)
)
;

boundaryField
{
    inlet
    {
        type            calculated;
        value           uniform (-2.643192555193451e-05 0 0);
    }
    outlet
    {
        type            calculated;
        value           uniform (-0.06391014306543165 0 0);
    }
    frontAndBack
    {
        type            empty;
    }
}


// ************************************************************************* //
