/*--------------------------------*- C++ -*----------------------------------*\
| =========                 |                                                 |
| \\      /  F ield         | OpenFOAM: The Open Source CFD Toolbox           |
|  \\    /   O peration     | Version:  v2012                                 |
|   \\  /    A nd           | Website:  www.openfoam.com                      |
|    \\/     M anipulation  |                                                 |
\*---------------------------------------------------------------------------*/
FoamFile
{
    version     2.0;
    format      ascii;
    class       volScalarField;
    location    "0.0075";
    object      p;
}
// * * * * * * * * * * * * * * * * * * * * * * * * * * * * * * * * * * * * * //

dimensions      [1 -1 -2 0 0 0 0];


internalField   nonuniform List<scalar> 
1000
(
101339.052702964
101336.4440681204
101343.140234127
101348.3942750813
101354.2213035385
101359.4936572932
101364.0659544021
101367.9686137724
101371.2512223832
101373.4371460338
101374.0539380793
101374.0326319433
101373.6724203983
101372.663812309
101370.7022348056
101367.7138100386
101363.8051671656
101359.1553351937
101353.9144021086
101348.182542811
101342.0396527158
101335.5749293964
101328.8967640231
101322.1304054346
101315.4124021014
101308.8809856426
101302.6572390794
101296.8168926722
101291.3694316406
101286.2977629906
101281.7549360342
101278.3958892785
101276.9763096006
101276.8200229672
101276.8887256912
101277.1630978362
101277.9190555475
101279.396040745
101281.7982779439
101285.2146796673
101289.5980976881
101294.7906062515
101300.5874279631
101306.7992350522
101313.2800901951
101319.9193045978
101326.6192758122
101333.2801950498
101339.8001762966
101346.0931713699
101352.1173380048
101357.8770529589
101363.3261948731
101368.106780983
101371.3391492988
101372.483281296
101372.5714614375
101372.532778769
101372.2842546233
101371.6625106911
101370.4426118017
101368.4297998058
101365.4819909179
101361.5485777913
101356.6843085603
101351.0368775502
101344.8097147779
101338.2146162492
101331.4352622696
101324.6147914804
101317.8610004548
101311.2501392446
101304.8209913633
101298.5760904803
101292.5239157519
101286.806780865
101281.9487937585
101278.9125379244
101277.9722243126
101277.9113617187
101277.9742545416
101278.1939079551
101278.7638502484
101279.8595535575
101281.6640629824
101284.3232187877
101287.9196948103
101292.4509484553
101297.8252843369
101303.8780017508
101310.4021180755
101317.184882942
101324.0416191469
101330.8386225502
101337.4998254149
101343.9996876981
101350.345950601
101356.5340141944
101362.4148807899
101367.4355660488
101370.5947114702
101371.5909263187
101371.6566296736
101371.6260989061
101371.4341529333
101370.9558713086
101370.0151351359
101368.444550822
101366.0935242713
101362.8546921948
101358.6846489159
101353.6188590119
101347.7731017219
101341.326879577
101334.4922627323
101327.4781493432
101320.4581791892
101313.5464077028
101306.7879925634
101300.1802559866
101293.74578953
101287.691024586
101282.6562929809
101279.6505859493
101278.7778613617
101278.7249355859
101278.7735560429
101278.9486649089
101279.4043662161
101280.2854437289
101281.7496400548
101283.9384540634
101286.9599937068
101290.869380033
101295.6552909648
101301.2355234732
101307.4635265562
101314.1480872777
101321.0855967684
101328.0964727764
101335.0524793033
101341.8861004663
101348.5769924319
101355.0969496135
101361.2654280444
101366.493622323
101369.7741458599
101370.8334916503
101370.9169375988
101370.8957946711
101370.7484981209
101370.3726547215
101369.619182655
101368.341752024
101366.3983805353
101363.6704564551
101360.0789803596
101355.6006953636
101350.2787246753
101344.2223248777
101337.5940210765
101330.5863607554
101323.3910905102
101316.1656280395
101309.0101179736
101301.9771763491
101295.1401427906
101288.7531430038
101283.4965225307
101280.3800535608
101279.4646704776
101279.4035322544
101279.4402293978
101279.5789427436
101279.9490969803
101280.6746710885
101281.8945799651
101283.7407727616
101286.3260037925
101289.7283315222
101293.978125351
101299.0489961779
101304.8547925715
101311.2566257614
101318.0825089384
101325.1556521881
101332.3222687318
101339.470239553
101346.5283346472
101353.4211164656
101359.9315654116
101365.4534069262
101368.9716997707
101370.1690855548
101370.2826947517
101370.2696962201
101370.1579262725
101369.8602062283
101369.2467500566
101368.1882710449
101366.5537373352
101364.2246647573
101361.1074400538
101357.147414937
101352.3408523086
101346.7404899976
101340.4527408756
101333.6264210678
101326.4321569567
101319.0339678817
101311.5644275285
101304.1260945996
101296.8490647501
101290.0438243833
101284.4424867818
101281.0933633239
101280.0733107976
101279.9938255006
101280.0215612027
101280.1306997206
101280.4330841596
101281.0372275632
101282.0675366488
101283.6460945745
101285.8836834986
101288.8676914907
101292.6513080032
101297.2440822921
101302.6054127784
101308.6449421731
101315.2330326389
101322.2193662509
101329.4542463971
101336.8072684526
101344.1729137761
101351.4349479789
101358.3396300765
101364.2566569592
101368.136389515
101369.5566970989
101369.722087532
101369.7158212024
101369.6307940647
101369.3948273095
101368.8921512806
101368.0070276985
101366.6184015265
101364.6116962079
101361.8881546256
101358.3763143594
101354.0427455966
101348.8992192981
101343.0048832832
101336.4626204313
101329.4072573041
101321.9852561178
101314.3346732056
101306.5851647163
101298.9072179209
101291.653655686
101285.5974320567
101281.8587059813
101280.63529803
101280.5197860679
101280.5397973986
101280.6238858951
101280.8710989733
101281.3776083527
101282.2555645061
101283.6173466432
101285.5693371498
101288.2023633992
101291.582676734
101295.743046598
101300.6753782014
101306.3282022322
101312.6115316099
101319.4079546572
101326.5871617872
101334.0210801883
101341.5902312603
101349.154353295
101356.4394772933
101362.8117214326
101367.1863722371
101368.9556152169
101369.212987003
101369.2130628968
101369.1504939792
101368.9645021784
101368.5517512291
101367.8077581794
101366.6208018044
101364.8815602314
101362.4903095703
101359.3664204297
101355.4575475607
101350.7466672381
101345.2563678126
101339.0495709052
101332.2238167753
101324.8980392678
101317.1987990258
101309.2619638523
101301.2752004762
101293.6052500346
101287.0326168602
101282.7526436618
101281.193382478
101281.0065855106
101281.0193832217
101281.0805540872
101281.2793066492
101281.7018249356
101282.4512946613
101283.6317240981
101285.3442165293
101287.679413684
101290.7102704878
101294.4842517916
101299.0162198682
101304.2846970142
101310.2332076662
101316.7760085062
101323.8071663718
101331.2117748883
101338.8712340583
101346.6388214047
101354.2425411937
101361.0760493046
101366.0473365986
101368.3133700626
101368.7334460304
101368.7425475028
101368.6999544366
101368.5571382232
101368.2212586022
101367.5968882311
101366.5800734331
101365.0670476489
101362.9596200421
101360.1728457177
101356.6425424656
101352.3316514274
101347.2354140743
101341.3844559062
101334.8428686245
101327.7003791909
101320.0642964471
101312.0631956713
101303.8826411276
101295.8751628758
101288.7858302118
101283.8475855714
101281.7911185632
101281.4685199437
101281.4731693065
101281.5139718129
101281.6704488281
101282.0191538044
101282.6565853941
101283.6800441126
101285.1858890373
101287.2633336261
101289.9885190814
101293.4179295387
101297.5822449494
101302.482327135
101308.0882971195
101314.3417052249
101321.160978074
101328.4492500521
101336.0975722552
101343.9647707208
101351.7980776947
101359.0475850857
101364.661908873
101367.5724962115
101368.2603605015
101368.2916909999
101368.266275609
101368.1611620979
101367.8929832245
101367.3731288397
101366.5040390908
101365.1868710542
101363.3259538412
101360.834830639
101357.642217423
101353.6975163411
101348.9761495027
101343.4836852337
101337.2561755413
101330.3563225631
101322.8699701239
101314.9110512249
101306.6503902936
101298.4068714882
101290.8547020375
101285.2021522877
101282.482931309
101281.9228335637
101281.9079673
101281.9330906024
101282.0525343006
101282.335994244
101282.8740843732
101283.7587910181
101285.0824335912
101286.9323886214
101289.3863805973
101292.5067125424
101296.3347764758
101300.8874481615
101306.1554502502
101312.1030435337
101318.6701778264
101325.7779357555
101333.3312877733
101341.2027326847
101349.1680773037
101356.7495446169
101362.9877210956
101366.6641300126
101367.7716813974
101367.864281624
101367.8467812164
101367.7741973597
101367.5634851686
101367.1346895292
101366.394978479
101365.2500520591
101363.6068492244
101361.3786220308
101358.4896893402
101354.8803517938
101350.5119364121
101345.3709537882
101339.4707707411
101332.850898004
101325.5765801573
101317.743670014
101309.5011583677
101301.1250941962
101293.2001497712
101286.8495851832
101283.3359352464
101282.3956600517
101282.3346065201
101282.34931635
101282.4353715013
101282.659708253
101283.1074939833
101283.8664183037
101285.0257400344
101286.6713165764
101288.8814571487
101291.7220204455
101295.241869406
101299.4695670304
101304.4110467416
101310.0481335117
101316.3393183794
101323.2231621115
101330.6193585904
101338.4158163293
101346.4202837262
101354.2340515023
101361.0240229154
101365.5250291453
101367.223364444
101367.4464931083
101367.4386575392
101367.3906275967
101367.2292430955
101366.880241419
101366.2551898039
101365.2638056382
101363.8155269368
101361.8238474302
101359.2104161736
101355.9094545944
101351.8721632838
101347.0705860424
101341.5003525079
101335.1821421898
101328.1627625536
101320.5193506378
101312.3772315913
101303.9683957784
101295.7815637599
101288.8061885164
101284.4128746229
101282.9123119532
101282.7481431045
101282.7557654832
101282.813830739
101282.9872089064
101283.3549064977
101284.0014417325
101285.0131974869
101286.4744279542
101288.4633395107
101291.0481376038
101294.2832259936
101298.2058347446
101302.833319693
101308.1615689476
101314.1650226379
101320.797870964
101327.9936939036
101335.6564723752
101343.6256147136
101351.5760125549
101358.8088984983
101364.1105843203
101366.5506434589
101367.0156833225
101367.0255097861
101366.9965771813
101366.8793027678
101366.6023292087
101366.082320664
101365.2315489535
101363.9614405727
101362.1860944542
101359.8255380357
101356.8095571234
101353.082121784
101348.6051649352
101343.3609506325
101337.3542108856
101330.6153210454
101323.2050353581
101315.2269564641
101306.8708124536
101298.5333128543
101291.0499425688
101285.7739902399
101283.531557605
101283.1592218377
101283.1528628656
101283.1921120611
101283.3209978939
101283.6185361723
101284.164067403
101285.0418843112
101286.3347668845
101288.1209126214
101290.4701058876
101293.4405516386
101297.0760840388
101301.4032252115
101306.4287875204
101312.1394629247
101318.5027636033
101325.4658756272
101332.9478026315
101340.81445678
101348.8053744548
101356.3579857335
101362.3903462084
101365.7026977738
101366.5766428229
101366.6315646448
101366.6177731511
101366.5337528152
101366.3177742131
101365.8881041746
101365.1610948041
101364.0501914099
101362.4703067271
101360.3407966766
101357.5888670636
101354.1531115164
101349.9869957797
101345.0620667577
101339.3707961116
101332.9293244284
101325.7816374157
101318.0105830168
101309.7710878962
101301.3816682739
101293.5245037364
101287.4409197215
101284.3224227705
101283.5954389639
101283.560983513
101283.5812776798
101283.6733287432
101283.9066156129
101284.3588802856
101285.1121271036
101286.2481676535
101287.8451475924
101289.9743515614
101292.6971307478
101296.0620193245
101300.1021761382
101304.833422168
101310.2530957194
101316.339518008
101323.0509713375
101330.3209199294
101338.0400324535
101346.0005341781
101353.7556034703
101360.3881044413
101364.6043177738
101366.0700789076
101366.2358403011
101366.2291610407
101366.1750429942
101366.0121188872
101365.664709384
101365.0511855194
101364.0869771296
101362.6877864045
101360.7725764661
101358.2666813867
101355.1050172016
101351.2351749162
101346.6204330043
101341.2429038477
101335.1067805164
101328.2422377018
101320.7139157827
101312.6457588495
101304.2900418703
101296.1903820858
101289.4192496816
101285.3467467919
101284.0726309518
101283.9546097368
101283.9655387765
101284.0267253702
101284.2053478156
101284.5752697164
101285.2166025799
101286.2099097439
101287.6330513236
101289.5580861485
101292.0487394318
101295.1576935871
101298.9237534578
101303.3697936499
101308.5018347468
101314.3081470101
101320.7572886046
101327.7942635014
101335.3288978336
101343.1962151541
101351.0471899513
101358.1346835076
101363.2124818069
101365.4419862832
101365.8340655298
101365.841353629
101365.8074790811
101365.6891373299
101365.4124751385
101364.90018015
101364.0694452723
101362.8372041268
101361.1224006371
101358.8488860562
101355.9483358592
101352.3632716928
101348.0501652743
101342.9825787912
101337.1543477792
101330.5834354885
101323.3191018348
101315.4602706923
101307.2059854765
101298.9825754137
101291.6764336497
101286.663876566
101284.6481893661
101284.3461730184
101284.3463204808
101284.3848379455
101284.5177455966
101284.8152168153
101285.3550696087
101286.2167044342
101287.4779184931
101289.2118572039
101291.4842392604
101294.3507528891
101297.8546743039
101302.0249123047
101306.8745269918
101312.3995163408
101318.577487772
101325.3649392758
101332.6883933967
101340.4157375597
101348.2759017916
101355.6793045702
101361.5179797499
101364.6342293734
101365.4157786794
101365.4600542365
101365.4423547871
101365.3600693305
101365.1456560424
101364.724123523
101364.0148064714
101362.9355230174
101361.4053288582
101359.347203525
101356.6907139169
101353.3747599152
101349.3505417849
101344.5846898687
101339.0623807931
101332.790911992
101325.8057775078
101318.1846702608
101310.0842947959
101301.8364553143
101294.1520607266
101288.2961466119
101285.3967454411
101284.7625624875
101284.7374889785
101284.7580809888
101284.8517270799
101285.0844679822
101285.5316109126
101286.2713681498
101287.3812471702
101288.9349654013
101290.9998756493
101293.6344270381
101296.885866189
101300.7883317267
101305.361233641
101310.6077473706
101316.5134122421
101323.0441093835
101330.1398425603
101337.6943621249
101345.4966627277
101353.0886762003
101359.539770323
101363.5744886432
101364.9338356248
101365.0788019595
101365.070722555
101365.017090158
101364.8557831774
101364.5149134843
101363.9158161917
101362.9776050752
101361.6197078842
101359.7645525247
101357.3400335176
101354.2820971735
101350.5375265453
101346.0669081383
101340.8477661874
101334.8781531868
101328.1818813278
101320.8190927557
101312.9130528476
101304.7213375942
101296.8015535567
101290.2410318748
101286.3774625557
101285.2150781498
101285.1152130012
101285.12588928
101285.1893680567
101285.3678029517
101285.7337580526
101286.3635661303
101287.3341118903
101288.7196981868
101290.5893108864
101293.0039263887
101296.0142284614
101299.6588956401
101303.9628873763
101308.9355067269
101314.5689984565
101320.8374890337
101327.6926971007
101335.0487178487
101342.7396710384
101350.4125875374
101357.3179372686
101362.2216122653
101364.3349551063
101364.6929473138
101364.6951384517
101364.6651980634
101364.5466149226
101364.2759136883
101363.7757826935
101362.9669562031
101361.7693817857
101360.1051098441
101357.9006614414
101355.0895109992
101351.6147492653
101347.4319125597
101342.5119648226
101336.8447144989
101330.4434760475
101323.3533524567
101315.6707481346
101307.5953431484
101299.559180416
101292.4566222648
101287.6478421261
101285.7640801797
101285.494887249
101285.4957336043
101285.5352708425
101285.6670750396
101285.960168322
101286.4894041774
101287.3311726086
101288.5600949921
101290.2462165848
101292.4524794168
101295.2325299334
101298.6287762745
101302.6706309413
101307.3729718384
101312.7348521997
101318.7379933908
101325.3433361671
101332.480978737
101340.0207773776
101347.6923491633
101354.907410394
101360.5685668902
101363.5555456472
101364.2889877915
101364.3283748778
101364.3113949242
101364.2296175834
101364.0194971811
101363.6078044252
101362.9167892698
101361.8671399342
101360.3807580176
101358.3830922043
101355.8055772666
101352.5882169593
101348.6822739081
101344.0531139328
101338.6834711005
101332.5776566522
101325.7682067384
101318.3302406924
101310.4190788447
101302.3674657
101294.8877620728
101289.2327182022
101286.4787049677
101285.8937202642
101285.8723770587
101285.893886736
101285.9866763268
101286.2164378733
101286.6552927791
101287.3787175416
101288.4611927651
101289.9734985218
101291.9802827781
101294.537941435
101297.6926399253
101301.4783416316
101305.9151140299
101311.0079287585
101316.745355458
101323.0967083662
101330.0048269808
101337.3658766548
101344.9718114885
101352.3690221083
101358.63744055
101362.5306923282
101363.8248129323
101363.9593631116
101363.9524837677
101363.8985976636
101363.740872093
101363.4077604355
101362.8236751115
101361.9103500508
101360.5899636585
101358.7874332102
101356.432703227
101353.4631572389
101349.8262231995
101345.4822013434
101340.4074137969
101334.5979803165
101328.0753265152
101320.8971361986
101313.1846876845
101305.1943959267
101297.4821650083
101291.1248843022
101287.4215782571
101286.3293670084
101286.2390368083
101286.2501665684
101286.31318918
101286.4891373754
101286.8478707568
101287.4633133654
101288.4098376692
101289.7590856292
101291.5773837421
101293.923623552
101296.8471873144
101300.3858544824
101304.564168385
101309.3924303715
101314.8654503238
101320.9599334907
101327.6292547376
101334.7899200733
101342.2807609821
101349.7545925709
101356.470652609
101361.2186124478
101363.2463430674
101363.5853009235
101363.5902510005
101363.5571201393
101363.4426970144
101363.1781936448
101362.6907024191
101361.9027201909
101360.7365869307
101359.1167268133
101356.9723237079
101354.2397783565
101350.8648278767
101346.8044486725
101342.0289700454
101336.5248798682
101330.2991595697
101323.389409937
101315.8848865357
101307.9826584133
101300.1116381446
101293.1462948039
101288.4588123766
101286.6446473881
101286.3037248488
101286.2324989022
101286.2815439906
101286.4570627592
101286.8157694814
101287.4183967903
101288.317714364
101289.554974345
101291.1733341923
101293.2323079828
101295.8106500288
101298.9952110337
101302.8626213534
101307.4617495047
101312.8014282888
101318.8424608734
101325.5045822921
101332.6770304153
101340.2017063804
101347.8187293002
101354.9343511905
101360.4081696539
101363.3307604497
101364.2546545821
101364.4103674323
101364.4210861282
101364.293435012
101363.9982420988
101363.481524408
101362.6769778285
101361.5168860948
101359.9498447072
101357.9392791544
101355.4478595793
101352.4233930183
101348.7900983152
101344.4401159911
101339.2432706362
101333.1079000286
101326.1099560345
101318.452086185
101310.7333670549
101301.8681999066
)
;

boundaryField
{
    inlet
    {
        type            uniformFixedValue;
        uniformValue    sine;
        uniformValueCoeffs
        {
            frequency       constant 3000;
            scale           constant 50;
            level           constant 101325;
        }
        value           uniform 101326.3578702043;
    }
    outlet
    {
        type            pressureOutletNSCBC;
        pInf            101325;
        gamma           1.4;
        etaAc           1;
        fieldInf        1;
        lInf            2.25;
        value           uniform 101298.1576333258;
    }
    frontAndBack
    {
        type            empty;
    }
}


// ************************************************************************* //
