/*--------------------------------*- C++ -*----------------------------------*\
| =========                 |                                                 |
| \\      /  F ield         | OpenFOAM: The Open Source CFD Toolbox           |
|  \\    /   O peration     | Version:  v2012                                 |
|   \\  /    A nd           | Website:  www.openfoam.com                      |
|    \\/     M anipulation  |                                                 |
\*---------------------------------------------------------------------------*/
FoamFile
{
    version     2.0;
    format      ascii;
    class       volScalarField;
    location    "0.0075";
    object      pMean;
}
// * * * * * * * * * * * * * * * * * * * * * * * * * * * * * * * * * * * * * //

dimensions      [1 -1 -2 0 0 0 0];


internalField   nonuniform List<scalar> 
1000
(
101325.6867047729
101325.6978164066
101325.681546525
101325.6680786586
101325.6421743127
101325.6127383247
101325.5762958789
101325.5380096046
101325.495132514
101325.4502509343
101325.4034273679
101325.3564063277
101325.3094764887
101325.2632122347
101325.2182771296
101325.1756367327
101325.1361929277
101325.100792708
101325.0700295433
101325.0445231909
101325.0246281631
101325.0107908198
101325.0032039151
101325.0020965069
101325.007432605
101325.0191670896
101325.037031925
101325.0607458739
101325.0898792379
101325.1241196519
101325.1630670041
101325.2060470399
101325.2515216819
101325.2977426456
101325.3439596624
101325.3900544653
101325.4356406444
101325.4802753143
101325.5230712818
101325.5632169611
101325.5996559726
101325.6316330532
101325.6583482694
101325.679402393
101325.6943425183
101325.7030573158
101325.7053234594
101325.7012245132
101325.6907350182
101325.6741375848
101325.6515578578
101325.6233481451
101325.5896495195
101325.5509685856
101325.5081524295
101325.463101427
101325.4174280479
101325.3718081458
101325.3262929905
101325.2811737722
101325.2368825277
101325.1940727767
101325.1535537564
101325.116251962
101325.0830795315
101325.0548778766
101325.0323086037
101325.0158546238
101325.0057930701
101325.002250898
101325.0052182445
101325.0146133074
101325.0302801618
101325.0520531656
101325.0797453332
101325.1131522604
101325.1517957557
101325.1945052167
101325.2392641763
101325.2844620538
101325.3296284142
101325.3747042603
101325.4193796838
101325.4633542328
101325.5059465846
101325.546526812
101325.5841373841
101325.6179867983
101325.6471075592
101325.6708616151
101325.688574622
101325.6999845354
101325.7048098108
101325.7031336211
101325.6949400756
101325.680474455
101325.6597826133
101325.6330995469
101325.6005077067
101325.5625794873
101325.5204170605
101325.4761510219
101325.4313528408
101325.3866091788
101325.3419352972
101325.2975790468
101325.2538484498
101325.2112778661
101325.1705053071
101325.1323450326
101325.097639853
101325.0672960498
101325.0420976552
101325.022754584
101325.0097279573
101325.0033425305
101325.0036635739
101325.0106933035
101325.0242752257
101325.0443059602
101325.0706053341
101325.1029886062
101325.1408670222
101325.1828958874
101325.2269057923
101325.2713281334
101325.3157183113
101325.3600455563
101325.4040425128
101325.4474883611
101325.4898060105
101325.5304917138
101325.5686978042
101325.6037160182
101325.6345864393
101325.6606091159
101325.6809732823
101325.6952378316
101325.7029416543
101325.704013683
101325.6983342099
101325.6860844638
101325.6672838043
101325.6421673728
101325.6108382305
101325.5739304654
101325.5326185463
101325.4891165391
101325.4450348289
101325.4010011382
101325.3570038772
101325.3132671742
101325.2700153129
101325.2277139292
101325.1868730855
101325.1482240742
101325.1125037348
101325.0805954323
101325.0532865858
101325.0313905026
101325.0155020814
101325.0061426111
101325.0035487962
101325.0078936872
101325.0191154015
101325.037185587
101325.0619132891
101325.0930977334
101325.1300408751
101325.1713147561
101325.2146340938
101325.258408581
101325.3021493447
101325.3458531979
101325.3892801833
101325.4322649639
101325.4743074752
101325.5149881977
101325.5535575839
101325.5893811398
101325.6215576725
101325.6493895603
101325.672016949
101325.6888961656
101325.6994152709
101325.7033441593
101325.7003995603
101325.6906460322
101325.6740147218
101325.6507179728
101325.6208628364
101325.5851222113
101325.5447144304
101325.5019190554
101325.4584575507
101325.4150296815
101325.3716147448
101325.3284160899
101325.2855971468
101325.243569592
101325.2027516332
101325.1637989997
101325.1273578664
101325.094262026
101325.06526354
101325.0412136358
101325.0227725886
101325.0106028322
101325.0050905426
101325.0065888776
101325.0151807677
101325.0309620602
101325.0537995261
101325.0835131627
101325.1193549097
101325.1598186154
101325.2024989654
101325.2457014917
101325.2888803058
101325.3320373947
101325.3749644424
101325.4175314308
101325.4593034916
101325.4999218816
101325.5387198987
101325.5751310793
101325.6083171839
101325.6376092907
101325.662143895
101325.6813238994
101325.6944426332
101325.7011392135
101325.7009851794
101325.6939011855
101325.6797034201
101325.6585197651
101325.6304184127
101325.5960527388
101325.5566514917
101325.5145568668
101325.4716560107
101325.4287632567
101325.3858683198
101325.3431510447
101325.3007334818
101325.2589791638
101325.2182370315
101325.1790992414
101325.1421312715
101325.1081138499
101325.0777496551
101325.0518902903
101325.031222415
101325.0164942582
101325.0082052698
101325.0068609806
101325.0126917565
101325.0259397875
101325.0465739068
101325.0744907164
101325.1089634454
101325.1484796009
101325.1905168117
101325.2332046347
101325.2758801096
101325.3185524522
101325.3610261678
101325.403214293
101325.4447169883
101325.48524326
101325.5241792495
101325.5610321524
101325.595013789
101325.6255026091
101325.6516459121
101325.6728303747
101325.688292606
101325.6975794697
101325.7001463008
101325.6957801646
101325.6841764113
101325.6653517049
101325.6392955752
101325.6065799845
101325.5683751086
101325.5270352802
101325.4846636548
101325.4422542071
101325.3998326002
101325.3575558983
101325.3155163984
101325.2740325963
101325.2334040266
101325.1941584815
101325.1568037099
101325.1220561774
101325.0905790092
101325.0631921167
101325.0405969538
101325.0235754389
101325.0127176972
101325.0086314199
101325.0116903819
101325.0222608031
101325.0404499525
101325.06625053
101325.0990496786
101325.1373982071
101325.178734468
101325.2209240425
101325.2631421009
101325.3053586405
101325.3474194605
101325.3892439662
101325.4304919413
101325.4708961952
101325.5099180832
101325.5470982497
101325.5817241215
101325.6131964889
101325.6407097329
101325.6636324764
101325.6811912825
101325.6928563367
101325.6980104685
101325.6963200042
101325.6873786732
101325.6710827248
101325.6473238375
101325.6165471853
101325.5797838337
101325.5393230079
101325.4974834488
101325.4555280365
101325.4135481244
101325.3716883562
101325.3300081438
101325.2887965308
101325.2483025312
101325.2090102373
101325.1713653904
101325.1360390285
101325.1036390041
101325.0749624365
101325.0506909073
101325.0316346857
101325.0184237215
101325.0117564016
101325.0120997431
101325.0199482668
101325.0355205551
101325.058947183
101325.0897532082
101325.1266722743
101325.1671737886
101325.2088675267
101325.2506466324
101325.292438184
101325.3340984258
101325.3755786731
101325.4165646693
101325.4568349
101325.495890135
101325.5333238029
101325.5684678843
101325.600767988
101325.6294485196
101325.6538909316
101325.6733144135
101325.687150182
101325.6947249107
101325.6956166653
101325.6893328208
101325.6756591418
101325.6543869304
101325.6258053261
101325.5907571696
101325.5513559679
101325.5100976313
101325.4685757925
101325.4270232161
101325.3855632543
101325.344237985
101325.3032993961
101325.262964497
101325.2236677986
101325.1858142917
101325.1500201487
101325.1168560772
101325.0870765611
101325.0613508971
101325.0404833326
101325.0251382436
101325.0160596729
101325.0137981992
101325.0189359852
101325.0318059513
101325.0526590871
101325.0811981177
101325.1163918347
101325.155873788
101325.197027697
101325.2383860932
101325.2797656014
101325.3210395665
101325.3621784477
101325.4028995365
101325.4430153016
101325.482065765
101325.5196878743
101325.5552543726
101325.5882537822
101325.6179387938
101325.6437152811
101325.6647993496
101325.680611035
101325.6904305908
101325.6937850512
101325.6900988568
101325.6790818926
101325.660413267
101325.6342467273
101325.601181368
101325.5630862548
101325.5224956604
101325.4814088703
101325.4402601224
101325.3991895953
101325.3582135594
101325.3175547735
101325.2773994244
101325.2381396216
101325.2001422099
101325.163975658
101325.1301735691
101325.0994496525
101325.0724535271
101325.0499745883
101325.032693559
101325.0213798013
101325.016643833
101325.0191330457
101325.029277675
101325.0474361277
101325.0734923299
101325.1066788707
101325.1449035601
101325.1854253434
101325.2263622434
101325.2673322733
101325.3082258833
101325.3490152241
101325.3894664464
101325.4294016951
101325.4684182049
101325.5061685422
101325.5420858437
101325.5756731013
101325.6062364297
101325.6331825748
101325.6557599174
101325.673361205
101325.6852653598
101325.6909378149
101325.6897697719
101325.6813809522
101325.6653826817
101325.6417729549
101325.6109399675
101325.5744136596
101325.5346540032
101325.4940125689
101325.4532623176
101325.4125702067
101325.3719452897
101325.3315731035
101325.291620024
101325.2524320474
101325.2143484671
101325.1778876424
101325.1435541846
101325.1120168852
101325.0839072499
101325.0599896528
101325.0409521758
101325.0275718447
101325.0205016291
101325.0204335808
101325.0278754557
101325.0432765286
101325.0666862859
101325.0976059402
101325.1342940597
101325.17404219
101325.2145449324
101325.2551195646
101325.2956389703
101325.3360804726
101325.3762535757
101325.4159901449
101325.4549390456
101325.4927680547
101325.5289649334
101325.5630478852
101325.5943729847
101325.6223528495
101325.6462697735
101325.6655005141
101325.6793309924
101325.6871826437
101325.6884248073
101325.6826045718
101325.669276312
101325.6483042538
101325.6198829401
101325.5851896878
101325.5464731767
101325.5063422641
101325.4659961225
101325.4256914619
101325.3854263388
101325.3453624026
101325.3056339788
101325.2665584517
101325.2284356521
101325.191752373
101325.1569723602
101325.124736184
101325.0956417341
101325.0704386698
101325.0498014437
101325.0345167996
101325.0252525776
101325.022740659
101325.0275388382
101325.040179592
101325.0608443413
101325.0892867378
101325.1241439555
101325.1629121526
101325.2029365661
101325.2431252115
101325.2832690564
101325.32336934
101325.3632451157
101325.4027721448
101325.4416128869
101325.4794832994
101325.5158890644
101325.5503954531
101325.5823745889
101325.6112774724
101325.6363919647
101325.6571155827
101325.6727198839
101325.6826221737
101325.6861542756
101325.6828335699
101325.6721464088
101325.6538696902
101325.6280064235
101325.595415181
101325.5579967106
101325.5184780107
101325.4785197814
101325.4385869558
101325.3986734048
101325.3589143569
101325.3194264032
101325.2804862809
101325.2423721042
101325.2055252835
101325.1703857696
101325.137550259
101325.1075977234
101325.0812446331
101325.0591600097
101325.0421184994
101325.0308056855
101325.0259701477
101325.0282150776
101325.0381320046
101325.0560190763
101325.0818436043
101325.1146098926
101325.1521399823
101325.1915839187
101325.2313762081
101325.2711378218
101325.3108766422
101325.350441952
101325.3897264355
101325.4284298841
101325.4662922967
101325.5028549467
101325.5377104936
101325.5702609801
101325.5999824584
101325.6261806104
101325.6482674222
101325.6655139029
101325.6773352657
101325.6830395948
101325.6821204472
101325.6740113085
101325.6584200627
101325.6351909201
101325.6049004011
101325.5690535991
101325.5303153957
101325.4907759956
101325.4512226235
101325.4116628683
101325.3722337149
101325.33299975
101325.2942365075
101325.2561643072
101325.2192185168
101325.1837814367
101325.150442256
101325.1197279161
101325.0923519855
101325.0689450562
101325.0502911996
101325.0370596728
101325.0300280235
101325.0298135749
101325.0370684368
101325.0521697666
101325.0752716963
101325.1057086328
101325.1417136005
101325.1804357512
101325.2198207913
101325.2592097799
101325.298592219
101325.3378403189
101325.3768694684
101325.4154098549
101325.4532256171
101325.4898943162
101325.5250301242
101325.558072636
101325.5885123419
101325.6156879132
101325.6390126972
101325.6577789412
101325.6713851243
101325.6791448294
101325.6805135669
101325.6749070778
101325.6619550275
101325.6414023024
101325.613564155
101325.5795729796
101325.5418324374
101325.502776099
101325.4635937872
101325.4244035398
101325.3853015026
101325.3463573639
101325.307789116
101325.2698173143
101325.2328167014
101325.1971654027
101325.1633944106
101325.1320265463
101325.1037259347
101325.0791249727
101325.0589746903
101325.0439590844
101325.0348450301
101325.0322841452
101325.0369513523
101325.0493063493
101325.0696336238
101325.0975625738
101325.1317457307
101325.1695359948
101325.2084710056
101325.2474929055
101325.286517015
101325.3254418786
101325.3641969005
101325.4025486485
101325.4402800287
101325.4770069747
101325.5123629712
101325.5458243547
101325.5768971304
101325.6049507473
101325.6294053325
101325.6495740344
101325.6648480545
101325.6745471763
101325.6781011375
101325.674912254
101325.6645503472
101325.6466797299
101325.6214035037
101325.5895091332
101325.5530293902
101325.5145567396
101325.4757451353
101325.436916077
101325.3981477019
101325.359496467
101325.3211467685
101325.2832989131
101325.2462890791
101325.2104747073
101325.1763461752
101325.1444089799
101325.1152888292
101325.0896093325
101325.0680910235
101325.0514235174
101325.040358752
101325.0355745973
101325.0377574454
101325.0474355668
101325.0649893287
101325.0902960635
101325.1223957237
101325.1589929169
101325.1973782685
101325.2360225717
101325.2746754194
101325.3132608282
101325.3517174477
101325.3898495834
101325.4274557228
101325.4641913334
101325.4997069507
101325.533516664
101325.5651413574
101325.5939822835
101325.6194678573
101325.6409322697
101325.6577642552
101325.6692900239
101325.6749223873
101325.6740512165
101325.6662036149
101325.650978707
101325.6283189734
101325.5987105858
101325.5637747261
101325.5260493569
101325.4876376065
101325.4491704041
101325.4107451571
101325.3724031076
101325.3342985061
101325.2966098654
101325.2596390137
101325.2237189039
101325.1893050042
101325.1568790545
101325.1270349965
101325.1003781339
101325.0776056144
101325.0593999951
101325.0465038702
101325.0396058872
101325.0394055942
101325.0464769724
101325.0612797967
101325.083881241
101325.1136714415
101325.1487822431
101325.186480025
101325.2247380803
101325.263031619
101325.3012779184
101325.3394304494
101325.3773234223
101325.4147769404
101325.4514788665
101325.4871037831
101325.5211959605
101325.553299243
101325.5828386249
101325.6092602536
101325.6319120826
101325.6501924079
101325.6634276576
101325.6710283711
101325.6723669346
101325.6669483407
101325.6543113551
101325.6342867826
101325.6071020871
101325.5739845991
101325.537225717
101325.4992749697
101325.4611661286
101325.4230920831
101325.3850701856
101325.3472345228
101325.3097364996
101325.2728496672
101325.2368777291
101325.2022462487
101325.1694086603
101325.1389311274
101325.1113956023
101325.0874779255
101325.0678472921
101325.0532367872
101325.0443377589
101325.0418597954
101325.0464099394
101325.0585107224
101325.0783768721
101325.1056908344
101325.1390273122
101325.1758288989
101325.2136578634
101325.2515915892
101325.2894947323
101325.3273318461
101325.3649681603
101325.4022411187
101325.4388744391
101325.474560114
101325.5088791278
101325.5413890537
101325.5715494284
101325.5988139172
101325.6225590411
101325.6421803877
101325.6570234254
101325.6664831957
101325.6699377635
101325.6668558353
101325.6567500504
101325.6393449838
101325.6146860845
101325.5836166953
101325.5480897525
101325.5106906671
101325.4729488175
101325.4352182151
101325.3975219811
101325.3599652888
101325.3226798311
101325.2859072533
101325.2499271459
101325.2151319832
101325.1819510137
101325.150919304
101325.1225983131
101325.097638573
101325.0766968776
101325.0604913314
101325.0497144302
101325.0450778692
101325.0472146216
101325.0566913029
101325.0738368379
101325.098565508
101325.1298677364
101325.1655133266
101325.2028228659
101325.2403887552
101325.2779395429
101325.3154467775
101325.3528021135
101325.389862999
101325.4263839377
101325.4620793209
101325.4965615366
101325.5294091204
101325.5601098191
101325.5881329496
101325.6128766651
101325.6337436582
101325.6500909382
101325.661309372
101325.6667758017
101325.6659385894
101325.6582829463
101325.6434600632
101325.6213669126
101325.5925331769
101325.5585114564
101325.5218301715
101325.4844762805
101325.4470935748
101325.4097314175
101325.372469689
101325.3354224214
101325.2987986077
101325.2628565695
101325.227954297
101325.1944986138
101325.1629915886
101325.1339744687
101325.1080702086
101325.0859218473
101325.0682300161
101325.0556851214
101325.0489975821
101325.048818945
101325.0557496153
101325.0702045512
101325.0922805244
101325.1213274543
101325.1555309076
101325.1921814464
101325.2293727672
101325.2665766683
101325.3037536899
101325.3408172754
101325.3776472314
101325.4140254045
101325.4496918765
101325.4842864852
101325.5174124102
101325.548581352
101325.5772831705
101325.6029336515
101325.6249488757
101325.6426946155
101325.6555655223
101325.6629353763
101325.6642420411
101325.6589457535
101325.6466466563
101325.6271249835
101325.6006619144
101325.5684084899
101325.5326640632
101325.4957515816
101325.4587196238
101325.4216965031
101325.3847435662
101325.3479574931
101325.3115150957
101325.2756546712
101325.2406979389
101325.2070310172
101325.1751198701
101325.1454887953
101325.1187304425
101325.0954798298
101325.0764167467
101325.0622336597
101325.0536293109
101325.0512684799
101325.0557469347
101325.0675632418
101325.0868845817
101325.1134271438
101325.1457805903
101325.1813500316
101325.2178061602
101325.2543409403
101325.2908665324
101325.3273152163
101325.3636237342
101325.3996380813
101325.4351267549
101325.4697099179
101325.5030145984
101325.5344699276
101325.5635518418
101325.5897034813
101325.6123477569
101325.6310280871
101325.6450292369
101325.6540150565
101325.6575575044
101325.6547343737
101325.6455775509
101325.6289249258
101325.6056301947
101325.5763046747
101325.5428929282
101325.5076510255
101325.4719129937
101325.4361320042
101325.4005413602
101325.3649090381
101325.3298524673
101325.2950329423
101325.2606797279
101325.2274370014
101325.1956808336
101325.1659644363
101325.1390699747
101325.1153974222
101325.0959012763
101325.0810515863
101325.0714030805
101325.0675341946
101325.0697488909
101325.0789085872
101325.0946779679
)
;

boundaryField
{
    inlet
    {
        type            calculated;
        value           uniform 101325.707311817;
    }
    outlet
    {
        type            calculated;
        value           uniform 101325.1085061257;
    }
    frontAndBack
    {
        type            empty;
    }
}


// ************************************************************************* //
