/*--------------------------------*- C++ -*----------------------------------*\
| =========                 |                                                 |
| \\      /  F ield         | OpenFOAM: The Open Source CFD Toolbox           |
|  \\    /   O peration     | Version:  v2012                                 |
|   \\  /    A nd           | Website:  www.openfoam.com                      |
|    \\/     M anipulation  |                                                 |
\*---------------------------------------------------------------------------*/
FoamFile
{
    version     2.0;
    format      ascii;
    class       volScalarField;
    location    "0.0075";
    object      rho;
}
// * * * * * * * * * * * * * * * * * * * * * * * * * * * * * * * * * * * * * //

dimensions      [1 -3 0 0 0 0 0];


internalField   nonuniform List<scalar> 
1000
(
1.176537079097195
1.176513593436624
1.176566161656949
1.176607853747559
1.176656724149346
1.176701246460662
1.176738826469668
1.176770076268427
1.176796144641694
1.176813438566462
1.176818117197891
1.176817649268836
1.176814456145112
1.176806094179989
1.176789875645365
1.176765162889302
1.17673288773662
1.176694514870834
1.176651245242129
1.176603881164496
1.176553072486418
1.176499554877757
1.17644422767824
1.176388132876579
1.176332408712424
1.176278209677828
1.176226549312847
1.17617806494627
1.176132843256622
1.176090747956247
1.176053050888727
1.176025184146216
1.176013414344674
1.176012126493079
1.176012711638306
1.176015008581378
1.176021293907317
1.176033553027741
1.176053481102889
1.176081815347952
1.176118164843772
1.176161220714139
1.176209285843394
1.176260791214797
1.17631452745159
1.176369577187847
1.176425131247611
1.176480361883241
1.176534423959847
1.1765866036224
1.17663655359916
1.176684309944261
1.176729490147813
1.176769126216593
1.176795925341744
1.176805410841872
1.176806141554903
1.176805820230977
1.176803759083419
1.176798603998281
1.176788489932314
1.176771802031856
1.176747362145911
1.176714750454173
1.176674420560887
1.176627596684421
1.17657596521744
1.176521282024553
1.17646506997173
1.176408515877155
1.176352513592972
1.176297695446326
1.176244383120135
1.176192597712047
1.176142409619041
1.176094999099756
1.176054712662443
1.176029533265629
1.17602173529138
1.176021230560363
1.176021752123754
1.176023573691318
1.176028300189373
1.176037386787712
1.176052351420992
1.176074403428993
1.176104228245751
1.176141804549249
1.176186371655619
1.176236563485828
1.176290663405106
1.176346907057748
1.17640376299522
1.176460122541747
1.176515355003949
1.176569248682282
1.176621867835867
1.176673174396856
1.176721933099112
1.17676355934938
1.176789751380603
1.176798010810133
1.176798555538954
1.17679830240794
1.176796711016123
1.176792745673484
1.176784946197664
1.176771924721072
1.176752432611727
1.17672557959277
1.176691005581951
1.176649004350855
1.176600535546687
1.176547087194197
1.176490417434858
1.176432258228599
1.176374049305502
1.176316736427018
1.176260694107174
1.176205900214478
1.17615254216464
1.176102331926875
1.176060579864829
1.176035653848193
1.176028416393594
1.176027977477759
1.176028380679319
1.176029832843998
1.176033611948631
1.176040918664521
1.176053061108444
1.176071212648847
1.176096269689089
1.176128689153657
1.176168376909585
1.176214650998731
1.176266295866258
1.176321725665561
1.17637925186334
1.176437385274792
1.176495062576348
1.176551723988066
1.17660720089223
1.176661259501148
1.176712403003636
1.176755749831166
1.176782948260426
1.176791731116946
1.176792422947607
1.176792247648842
1.176791026433702
1.176787910379987
1.176781663467216
1.176771072474058
1.176754960191671
1.176732343122679
1.176702566128144
1.176665436163779
1.176621310497743
1.176571094708135
1.176516136073469
1.176458030883034
1.176398368896982
1.176338455341444
1.176279120625791
1.176220801100392
1.176164105003489
1.176111139831774
1.176067547805367
1.176041703308236
1.176034112102305
1.176033605080687
1.176033909400741
1.17603505973395
1.176038129393542
1.176044146519484
1.176054263099539
1.176069573326123
1.176091012165755
1.176119226800275
1.176154468875931
1.176196519308429
1.176244663407326
1.176297749179238
1.176354350234359
1.176413000449261
1.176472424545883
1.176531692837801
1.176590214740389
1.176647364831958
1.176701343876002
1.17674712547711
1.176776295297431
1.176786222639076
1.17678716454821
1.176787056771357
1.176786130096012
1.176783661742701
1.176778575669375
1.176769799962787
1.176756248217639
1.176736938020547
1.176711093107397
1.176678260209929
1.176638408108716
1.176591973787029
1.176539839257063
1.176483238150795
1.176423585017793
1.176362239723585
1.176300301488971
1.176238620731992
1.176178276295378
1.176121843039471
1.176075392495372
1.176047618688473
1.176039159482112
1.176038500309226
1.176038730310628
1.176039635378385
1.176042143022134
1.176047153124805
1.176055697364125
1.176068788127097
1.176087344047069
1.176112089705903
1.176143466028103
1.176181551988754
1.176226010642183
1.176276092432619
1.176330722101354
1.176388652966567
1.176448643582082
1.176509612558224
1.176570684934111
1.176630896976124
1.176688144952031
1.176737203229059
1.176769369802922
1.176781145380572
1.176782516601292
1.176782464639055
1.176781759681873
1.176779803311306
1.176775635692973
1.176768297245586
1.176756784290211
1.17674014682932
1.176717565979116
1.176688449100698
1.176652518826543
1.176609872503519
1.17656100026088
1.176506754852837
1.176448253933503
1.176386711706046
1.17632327276043
1.176259012123846
1.1761953435097
1.17613519280516
1.176084970198313
1.176053965558081
1.176043819964532
1.17604286202774
1.176043027972496
1.176043725301515
1.17604577541085
1.176049975838733
1.176057256625847
1.176068549693774
1.176084737204838
1.176106572286254
1.176134604212243
1.17616910454822
1.176210005940649
1.17625688132225
1.176308984218808
1.176365340773185
1.176424870233876
1.176486510470667
1.176549270695423
1.176611987884752
1.176672390531386
1.17672522328031
1.176761493307928
1.176776161897376
1.176778295726429
1.176778296348215
1.176777777588933
1.176776235551674
1.176772813486021
1.176766645129203
1.176756804194347
1.176742384263131
1.176722558457281
1.176696658163142
1.17666424921699
1.176625190255091
1.176579668301442
1.17652820477347
1.176471608134545
1.176410864273415
1.176347022381738
1.176281208907997
1.176214979936895
1.176151376691743
1.17609687190305
1.176061378907722
1.176048448150152
1.176046899057616
1.176047005182174
1.176047512458344
1.176049160688072
1.176052664583578
1.176058879843811
1.176068668976921
1.176082870377751
1.17610223565205
1.1761273696899
1.176158665950088
1.176196247480922
1.176239935940196
1.176289262747279
1.176343516628285
1.176401818922161
1.176463216614755
1.176526726134061
1.176591130814313
1.176654175432656
1.176710832869123
1.176752049748872
1.176770837222731
1.176774320016584
1.176774395470408
1.176774042330719
1.176772858255661
1.176770073518043
1.176764896935259
1.176756466624762
1.176743922236369
1.176726449618167
1.176703344399443
1.176674074303803
1.176638331883198
1.176596077446804
1.176547564644908
1.176493324593415
1.176434100974634
1.176370783291764
1.176304437450565
1.176236602016806
1.176170200272277
1.176111410988853
1.176070459238449
1.17605340526109
1.176050729986117
1.176050768539094
1.176051106904284
1.176052404547202
1.176055296315354
1.176060582454236
1.176069069849588
1.17608155756176
1.176098785366047
1.176121384595337
1.176149823527226
1.176184356406349
1.17622499016438
1.176271476783419
1.176323331313281
1.176379877065713
1.17644031057967
1.176503728252744
1.176568959358435
1.176633908019511
1.176694014933323
1.176740563441256
1.176764694925976
1.176770397931982
1.176770657686349
1.176770446966701
1.176769575480081
1.176767352039623
1.176763041984506
1.176755836445779
1.176744915901764
1.176729487105507
1.176708833169121
1.176682362958438
1.176649656799044
1.176610510699649
1.17656497057238
1.176513335048507
1.176456123717408
1.176394048064461
1.176328052527612
1.17625955337381
1.176191194782095
1.176128567762924
1.176081692662865
1.176059142632763
1.176054497815575
1.176054374529349
1.176054582870843
1.176055573400814
1.176057924098342
1.176062386408874
1.176069723151404
1.17608069989248
1.176096041185062
1.176116391507864
1.176142267413509
1.176174012001501
1.176211765022966
1.176255449315506
1.176304768258505
1.176359223630341
1.176418160773486
1.176480791463481
1.176546058289156
1.176612102222564
1.176674961907114
1.176726683077797
1.176757164047397
1.176766346654571
1.176767114391441
1.176766969295833
1.176766367509399
1.176764620517554
1.176761065418531
1.176754932544101
1.176745440043234
1.176731816316607
1.176713342077207
1.176689389754078
1.176659464235204
1.176623244689564
1.176580619038357
1.176531697834348
1.176476808374101
1.176416491322588
1.17635154116228
1.176283193055333
1.176213735889012
1.176148018066069
1.176095354802393
1.176066216811813
1.176058419251281
1.176057912941609
1.176058034926973
1.176058748570213
1.176060608965467
1.176064322391513
1.176070616037624
1.176080230094432
1.176093876525834
1.176112204672657
1.176135760591104
1.176164949355184
1.176200007655097
1.176240984482825
1.176287728879211
1.176339896373208
1.176396977226668
1.176458305275347
1.176522950840268
1.176589319674577
1.176654105893166
1.176710402383058
1.17674772021543
1.176761800994258
1.176763650932253
1.176763585967755
1.176763187755872
1.176761849733863
1.176758956196457
1.176753773950546
1.176745554456649
1.176733546842579
1.176717033836971
1.176695365750095
1.176667997087586
1.176634523082107
1.176594711730073
1.176548526537116
1.17649613866981
1.176437935914894
1.176374557546286
1.176307042448348
1.176237314090204
1.176169425071808
1.176111580807461
1.176075148090927
1.176062704181189
1.176061342752992
1.176061405964073
1.176061887491173
1.176063325292749
1.176066374556996
1.176071736175069
1.176080126491802
1.176092244183073
1.176108737747695
1.176130172717695
1.176157000133587
1.176189528578294
1.176227901784004
1.176272085424785
1.176321867292636
1.176376867249159
1.176436534259298
1.176500071884636
1.176566148339428
1.176632067901463
1.176692037054331
1.17673599353487
1.176756223953433
1.176760079561586
1.176760161031989
1.176759921154733
1.176758948844402
1.176756652483323
1.176752341137804
1.176745287450129
1.176734757040552
1.176720037665232
1.176700466203633
1.176675460403529
1.176644555569631
1.176607435889254
1.176563954070238
1.176514149066094
1.176458272420154
1.176396827555724
1.176330673208647
1.176261382346649
1.176192244469705
1.17613018801316
1.176086435996106
1.176067839937588
1.176064752217514
1.176064699483852
1.17606502497226
1.176066093804427
1.176068561245816
1.176073085250912
1.176080364834381
1.176091086452545
1.176105898539658
1.17612537973398
1.176150012614245
1.176180160547229
1.176216043296124
1.176257717141093
1.176305071483039
1.176357836657276
1.176415574446249
1.176477612960202
1.176542840137614
1.176609096182844
1.176671716689211
1.176721731503593
1.176749194153814
1.176756439976554
1.17675689532948
1.176756780986072
1.17675608438185
1.176754293722951
1.176750731364173
1.176744703779476
1.176735493331749
1.176722394532394
1.176704738705205
1.176681922222949
1.176653435833152
1.176618893541771
1.176578059219024
1.176530870181121
1.176477459954799
1.176418192924393
1.176353755714827
1.176285432676409
1.176215864818485
1.17615070912267
1.176100259920614
1.176074398917007
1.176068370169886
1.176068084437098
1.176068252734318
1.176069016100655
1.176070950713166
1.176074701271126
1.176080947814483
1.176090368773519
1.176103612160223
1.176121269065181
1.176143848172005
1.176171751839709
1.176205254885144
1.176244488309922
1.176289429813135
1.176339899370611
1.176395550777543
1.176455832041408
1.176519836349406
1.176585840720531
1.176650140338687
1.176705131314128
1.176740088011196
1.176752240571375
1.17675361488854
1.17675355951213
1.176753110824917
1.176751760035115
1.176748879689788
1.17674379300353
1.176735798796641
1.176724198132508
1.176708319088306
1.17668754253201
1.176661328737273
1.176629243021766
1.176590980721323
1.176546393279565
1.176495515176095
1.176438596286915
1.176376172258117
1.176309270505497
1.17623998268351
1.176172816611159
1.176116666145774
1.176082893917543
1.17607232792513
1.176071349196647
1.176071439830265
1.176071947241995
1.176073428529751
1.176076496230435
1.17608181468892
1.176090051987775
1.176101853777423
1.176117817577997
1.176138471772744
1.17616425313589
1.176195483321318
1.176232351840388
1.176274908405151
1.176323055503967
1.176376532147036
1.176434882026702
1.17649735716428
1.176562589404301
1.17662768470501
1.176686448486612
1.17672854880401
1.176747033577111
1.176750284285747
1.176750344711849
1.17675006386159
1.17674908269973
1.176746788913274
1.176742541506814
1.17673565392117
1.176725437434951
1.176711219974807
1.176692370126823
1.176668321312687
1.17663859683806
1.176602835622986
1.176560818239111
1.176512493304901
1.176458009456041
1.176397774809464
1.176332609299379
1.176264163127672
1.176195971404389
1.176135384725245
1.1760938170647
1.176077101410294
1.176074596846239
1.176074598070062
1.176074917490136
1.176076019671563
1.176078486549069
1.176082963449294
1.176090108814304
1.176100567778142
1.176114946879865
1.176133791045123
1.176157561988138
1.176186618458072
1.176221200022009
1.176261414783218
1.176307229324942
1.17635845770534
1.176414738928325
1.176475463451019
1.176539535585564
1.176604707585726
1.176666091075067
1.176714500136234
1.17674033698025
1.176746816776302
1.17674718386348
1.176747037119553
1.17674635489725
1.176744577210708
1.176741082308294
1.17673520139062
1.176726253074158
1.176713566219496
1.176696502195746
1.176674476956174
1.176646983795048
1.176613617945254
1.176574102524931
1.176528314377324
1.176476313717429
1.176418394527301
1.176355200690314
1.176288031298118
1.17621963754487
1.176155914646407
1.176107353541243
1.176083309516378
1.176078050366861
1.176077842437857
1.176078013204719
1.176078789796079
1.176080719874741
1.176084427946826
1.176090562603492
1.176099766580587
1.176112651167693
1.176129774851504
1.176151622254031
1.176178585064386
1.176210946234518
1.176248866540324
1.176292372098025
1.176341342750527
1.176395495313536
1.176454332026524
1.176516971631418
1.176581664358501
1.176644612136368
1.176698099158023
1.176731551165854
1.176742821485237
1.176744023395874
1.176743956410858
1.176743511748793
1.176742174362185
1.176739348228819
1.176734381136407
1.17672660244715
1.176715344112412
1.176699962936917
1.176679861020622
1.176654507185135
1.176623460057882
1.176586392665962
1.176543118423628
1.17649362090872
1.176438097252967
1.176377045812511
1.176311488380717
1.176243560571769
1.176177886208387
1.176123482369832
1.176091442858357
1.176081803461825
1.176080975301002
1.176081063838253
1.17608159025687
1.176083069984347
1.176086104779017
1.17609132764746
1.176099376164647
1.176110866480937
1.176126370634172
1.176146394215574
1.176171357430928
1.176201580895112
1.176237271418908
1.176278505946457
1.176325219937009
1.176377198586562
1.176434041275772
1.176495035430917
1.17655880540556
1.176622424457905
1.176679678167174
1.176720334921768
1.176737856652583
1.176740824756483
1.176740842923881
1.176740594690573
1.176739611524027
1.17673736715211
1.176733220583224
1.17672651461783
1.176716585522199
1.176702786979084
1.176684509712125
1.176661202062585
1.176632392061619
1.176597710883327
1.176556917568298
1.176509927357744
1.176456850354698
1.176398060219915
1.176334356006207
1.17626739320139
1.176200754296858
1.176141855961722
1.17610197826256
1.176086356681027
1.176084124322214
1.176084131341581
1.176084459217093
1.176085552243982
1.17608798280794
1.176092371649503
1.1760993522441
1.176109543388524
1.176123525913342
1.17614182172025
1.176164875596026
1.176193039098121
1.176226555979951
1.176265549430292
1.176310011380394
1.176359790015151
1.176414561190257
1.176473745021985
1.176536262154849
1.17659987054157
1.176659692557513
1.17670662990629
1.176731395034666
1.17673747599441
1.176737802552305
1.176737661772894
1.176736983760842
1.176735241660534
1.176731828327978
1.176726099132364
1.176717396484859
1.176705072841227
1.17668851004369
1.176667139535455
1.1766404637688
1.176608078501889
1.17656969637902
1.176525174003777
1.17647454684469
1.176418084371698
1.176356409141255
1.176290808777638
1.176224042277891
1.176162016891298
1.17611512164492
1.17609228335063
1.17608743220672
1.176087255212725
1.176087433588696
1.17608820307437
1.176090108439367
1.176093747768528
1.176099746964069
1.176108723659582
1.176121264785799
1.17613790640034
1.176159116101881
1.176185276619304
1.176216669459412
1.1762534608606
1.176295691845967
1.17634326739964
1.176395932818104
1.176453213866669
1.176514249322041
1.176577313959076
1.176638646672226
1.176690619219591
1.176722898410183
1.176733627970624
1.176734743524495
1.17673468648856
1.176734239721138
1.176732932023309
1.176730170202419
1.176725327558258
1.176717755175328
1.176706807810094
1.176691862907355
1.176672339566123
1.176647718528694
1.176617563776472
1.176581545972528
1.176539468575807
1.176491299152457
1.17643721506011
1.176377694285316
1.176313742157803
1.176247484673349
1.176183531536077
1.176130813211013
1.176100102800858
1.176091045361454
1.176090296274018
1.176090388571194
1.176090911204769
1.176092370305522
1.176095345202127
1.176100448924363
1.176108298212532
1.176119487150394
1.176134565723157
1.17615402223549
1.176178266104781
1.176207610497044
1.176242258781579
1.1762822961921
1.176327679471278
1.176378215212005
1.176433516541506
1.176492890888375
1.176555001683082
1.176616970144184
1.176672654530088
1.176712020339549
1.176728832307535
1.176731642606421
1.176731683647835
1.176731408960993
1.176730460281561
1.176728267288668
1.176724225502819
1.176717692336579
1.1767080238907
1.176694593528993
1.176676814054102
1.176654158073287
1.176626175565381
1.176592509653757
1.176552914129086
1.176507276714442
1.176455655016745
1.176398360503647
1.176336132959722
1.17627060622591
1.176205336830608
1.176147576455146
1.176108704721432
1.176093660325072
1.176090833132763
1.17609024247144
1.176090649192117
1.176092104731723
1.176095079407218
1.176100076855258
1.176107534670857
1.176117794927463
1.176131215486547
1.176148289832859
1.176169670977891
1.176196079035859
1.176228149320293
1.176266286877902
1.176310564716766
1.176360657540479
1.1764158995059
1.176475371912857
1.176537763615203
1.176600919657704
1.176659917137818
1.176705301228784
1.176729532619473
1.176737192854069
1.176738484143853
1.176738573276914
1.176737514411569
1.176735063914811
1.176730773842995
1.176724099477338
1.176714492100566
1.17670153832721
1.176684924524356
1.176664285723281
1.176639109431113
1.17660874689901
1.17657242958855
1.176529336099798
1.176478978452353
1.176422107068956
1.1763597830382
1.176294801277553
1.176215804378477
)
;

boundaryField
{
    inlet
    {
        type            calculated;
        value           uniform 1.176427481426743;
    }
    outlet
    {
        type            calculated;
        value           uniform 1.176182281401982;
    }
    frontAndBack
    {
        type            empty;
    }
}


// ************************************************************************* //
