/*--------------------------------*- C++ -*----------------------------------*\
| =========                 |                                                 |
| \\      /  F ield         | OpenFOAM: The Open Source CFD Toolbox           |
|  \\    /   O peration     | Version:  v2012                                 |
|   \\  /    A nd           | Website:  www.openfoam.com                      |
|    \\/     M anipulation  |                                                 |
\*---------------------------------------------------------------------------*/
FoamFile
{
    version     2.0;
    format      ascii;
    class       volScalarField;
    location    "0.0075";
    object      T;
}
// * * * * * * * * * * * * * * * * * * * * * * * * * * * * * * * * * * * * * //

dimensions      [0 0 0 1 0 0 0];


internalField   nonuniform List<scalar> 
1000
(
300.0096366459766
300.0079025644176
300.014321607639
300.0192442699895
300.0240323871198
300.0282868987335
300.0322390335347
300.0358228639735
300.0388923477138
300.0409529175523
300.041585604656
300.0416418471066
300.0413898302452
300.0405365619368
300.0388658117212
300.0363214229785
300.0329813153712
300.0290018361848
300.0245209263471
300.0196304407589
300.0144010947488
300.0089092755274
300.003246482591
299.9975177826433
299.9918371936888
299.9863196163082
299.981065159953
299.9761356114307
299.9715370337962
299.9672536420505
299.9634143906248
299.9605736013543
299.9593712007492
299.9592368004667
299.959291032587
299.9595177915043
299.9601535972401
299.9614011945356
299.9634330249948
299.9663243015007
299.970034974363
299.9744310332786
299.9793387557872
299.9845975388938
299.9900835897438
299.9957030553235
300.0013732718394
300.0070098100917
300.012526556665
300.0178508394745
300.0229473966242
300.02782004867
300.0324298613882
300.0364740517098
300.0392085073501
300.0401764551645
300.0402511451195
300.0402185782485
300.040008514863
300.0394826349661
300.0384506810188
300.0367479022618
300.0342540764843
300.030926350008
300.0268109852358
300.0220328720372
300.0167640621415
300.0111837045707
300.0054471833992
299.99967560144
299.9939601749855
299.9883654400016
299.9829242354092
299.9776387252234
299.9725161065797
299.9676768632312
299.9635646825056
299.9609944806008
299.9601984889773
299.9601469675194
299.9602002086872
299.9603861518823
299.9608686188957
299.9617961430164
299.963323660167
299.9655745978346
299.968618895034
299.9724543394225
299.9770032448362
299.9821261344488
299.9876477613869
299.9933880243959
299.9991906110607
300.0049423719971
300.010578948968
300.0160787480843
300.0214483375949
300.0266838426047
300.0316592255657
300.0359067032633
300.0385792451691
300.0394220004843
300.0394775836613
300.0394517577066
300.0392893815967
300.0388847762628
300.038088949164
300.0367602816864
300.034771355026
300.0320313060714
300.0285033607716
300.0242174550633
300.0192714686264
300.0138172039187
300.0080340410613
300.0020987065649
299.9961581227736
299.9903088144588
299.9845890137896
299.978996472529
299.9735503297009
299.9684253391643
299.9641635738301
299.961619246899
299.9608804767464
299.9608356756377
299.9608768349102
299.9610250678407
299.9614108237884
299.9621566604467
299.963396099032
299.9652489000716
299.9678065443761
299.9711156434775
299.9751665521832
299.9798896208299
299.985160738439
299.9908180097289
299.9966890747974
300.0026219371427
300.0085080777015
300.0142903758586
300.0199516335803
300.0254680038116
300.0306867615811
300.0351098229357
300.0378850639115
300.0387812301135
300.0388518230591
300.0388339387138
300.0387093334705
300.0383913853521
300.0377539747976
300.0366733051733
300.0350292491508
300.03272143757
300.029682996648
300.0258941944077
300.0213914457356
300.0162671146215
300.0106586438455
300.0047288997491
299.9986400994476
299.9925254395533
299.986469671565
299.9805173368647
299.9747305256428
299.9693243652576
299.9648748066877
299.9622367346461
299.9614618580426
299.9614101055769
299.9614411718334
299.961558595771
299.9618719347
299.9624861356315
299.9635187843508
299.965081562364
299.9672698915521
299.9701498099072
299.9737469729359
299.9780389807689
299.9829528443263
299.9883709435709
299.9941476621951
300.0001333431109
300.0061978222926
300.0122462185641
300.01821826605
300.024050150409
300.0295582863583
300.0342298132385
300.0372062208577
300.0382191692832
300.0383152798395
300.0383042856704
300.0382097348889
300.0379578757684
300.0374389128066
300.0365434691279
300.035160684968
300.0331903057565
300.0305531039486
300.0272028008236
300.0231361748707
300.0183977751167
300.0130775625947
300.0073013858337
300.0012135677342
299.9949528657816
299.988631452097
299.9823361183921
299.9761769813243
299.9704168694502
299.9656755561675
299.9628405599721
299.9619770841739
299.961909801354
299.9619332819822
299.9620256706901
299.9622816416087
299.9627930501546
299.9636652022925
299.9650014311537
299.9668954947714
299.9694213364004
299.9726239371865
299.9765113254698
299.9810490708896
299.9861606275287
299.9917362106916
299.9976485492184
300.0037709190881
300.0099929445736
300.0162253286424
300.02236972587
300.0282114744426
300.0332173807735
300.0364995828204
300.0377011213798
300.037841037552
300.0378357387676
300.0377638113613
300.0375641928387
300.0371389453176
300.0363901545148
300.0352154033335
300.0335177476559
300.0312136153528
300.0282425117735
300.0245761037515
300.0202242869471
300.0152370334804
300.0097013202959
300.0037311630443
299.9974504411212
299.9909759427237
299.984417370124
299.9779190076518
299.9717795047471
299.9666531977746
299.9634884281535
299.9624528159158
299.9623550364609
299.9623719779938
299.9624431614473
299.9626524289667
299.9630811891205
299.9638243739757
299.9649771044974
299.9666294183183
299.9688581760085
299.9717194228426
299.9752408499569
299.9794155480216
299.984199888111
299.9895176406241
299.9952693730923
300.0013447520607
300.0076353557699
300.0140400552496
300.0204401576545
300.0266038718013
300.0319949631477
300.0356958904268
300.037192625344
300.0374103550091
300.0374104211094
300.0373574921508
300.0372001501448
300.0368509754005
300.0362215760671
300.0352174330039
300.0337460508134
300.0317230448153
300.0290801722754
300.0257731054131
300.0217873859136
300.0171420585469
300.0118902880064
300.0061145325641
299.9999153627413
299.9933998189241
299.9866828382918
299.9799232231156
299.9734313825419
299.9678680255047
299.96424512851
299.9629252226935
299.9627671003835
299.9627779350612
299.9628297180973
299.9629979629957
299.9633556236807
299.9639900442174
299.964989261203
299.9664388464875
299.9684155080952
299.9709809718895
299.9741753751602
299.97801124699
299.982470348104
299.9875048125816
299.9930420049774
299.9989922107969
300.0052581352476
300.0117393752732
300.0183117529197
300.0247451273792
300.03052654076
300.0347322614994
300.0366492794776
300.0370046528027
300.0370123537318
300.0369763228024
300.0368555054273
300.0365713606163
300.0360431578485
300.0351829504351
300.0339029451323
300.0321200582608
300.0297624019312
300.0267756411928
300.0231283746609
300.0188165159667
300.0138659069195
300.0083307014346
300.0022867473664
299.9958247795629
299.9890535452255
299.982130045852
299.975352638236
299.969352010168
299.9651719440711
299.9634311654194
299.9631580874706
299.9631620240776
299.9631965646484
299.9633290226184
299.9636241995728
299.9641637794069
299.9650301218285
299.9663047849846
299.9680632714551
299.9703700091935
299.9732727760604
299.9767974962797
299.9809448445136
299.9856894686461
299.9909818320814
299.9967528303923
300.0029204255977
300.0093923674505
300.0160491561351
300.0226768996056
300.0288103616361
300.0335601507152
300.0360224660362
300.0366043824911
300.0366308880367
300.0366093882317
300.0365204657017
300.0362935930919
300.0358538072936
300.0351185716119
300.0340042599636
300.0324299236422
300.0303224002869
300.027621352693
300.0242839318174
300.0202892894602
300.015642071548
300.0103727081748
300.0045341762054
299.9981990377582
299.991463635078
299.9844724766926
299.9774954182524
299.9711031355068
299.9663184919344
299.9640167145493
299.963542595677
299.9635300120103
299.963551279501
299.9636523883112
299.9638923348746
299.9643478219655
299.9650967117664
299.9662171446096
299.9677830709638
299.9698602630518
299.972501429378
299.9757415671555
299.9795949111818
299.9840535505824
299.9890871714621
299.9946448827557
300.0006598295063
300.0070515304319
300.0137120415587
300.0204516297432
300.0268660593246
300.0321437111197
300.0352539292448
300.0361908942996
300.0362692322702
300.0362544277676
300.036193023954
300.0360147660978
300.0356520130962
300.035026228633
300.0340576313208
300.0326674828071
300.030782378162
300.0283382651934
300.0252846007431
300.0215886177823
300.0172388434476
300.0122465170242
300.0066449919009
300.0004893948435
299.9938607587179
299.9868850998564
299.9797959984186
299.9730883135697
299.9677129077186
299.9647386853294
299.9639427516166
299.9638910705302
299.9639035226136
299.9639763677271
299.9641662663204
299.964545310802
299.9651877268838
299.9661690654975
299.9675619934529
299.9694327812578
299.971837151544
299.9748164304327
299.9783947504768
299.9825770799242
299.9873479737236
299.9926722332945
299.998497792414
300.0047566230003
300.0113538104392
300.0181266330454
300.0247377278018
300.0304823044404
300.0342901697365
300.0357269333213
300.0359156954847
300.0359090669102
300.0358684347134
300.0357319064735
300.0354366568487
300.0349078715967
300.0340691690351
300.0328439269454
300.0311589478957
300.0289479252388
300.0261551779383
300.0227393774803
300.0186768168773
300.0139637325757
300.0086175464565
300.0026777831885
299.9962096327525
299.9893190734816
299.9822023793688
299.9752731662032
299.9693689892653
299.9656501932469
299.9643799882077
299.9642410209912
299.9642474733103
299.964296624861
299.9644433870528
299.9647546372135
299.9653019169792
299.9661583438929
299.9673952295041
299.9690787600307
299.9712666482977
299.9740049150378
299.9773250339107
299.9812416460561
299.9857512130789
299.990832036897
299.9964452780382
300.0025346561092
300.0090188500196
300.0157619150466
300.0224887401449
300.0286081466026
300.0330934490899
300.0351577139896
300.0355511289664
300.0355594419464
300.0355349654206
300.0354357530746
300.0352014373793
300.0347615162939
300.0340417699889
300.0329672600511
300.0314653035533
300.0294682255172
300.0269165968799
300.0237629772058
300.0199751107457
300.0155379306582
300.0104553690141
300.0047530475267
299.9984822908832
299.9917306880769
299.9846587324959
299.9776021382849
299.9712680925643
299.966802231527
299.9649040573061
299.9645888797599
299.9645834968888
299.9646167206138
299.9647258202535
299.9649776810131
299.9654394619805
299.9661825122404
299.9672768969469
299.9687887971144
299.9707772652788
299.973291543759
299.9763687008047
299.9800311408096
299.9842845758356
299.9891176803481
299.9945028907939
300.0003954400702
300.0067267153495
300.0133831898607
300.0201444323921
300.0265344629844
300.0316380047653
300.0344402465344
300.0351795906026
300.0352260534173
300.0352143858535
300.0351433056058
300.0349605902539
300.0345970937457
300.0339820487299
300.0330422259325
300.0317056329577
300.0299040297438
300.0275758085431
300.0246689852048
300.0211441457488
300.0169771611648
300.0121615945125
300.006711025726
300.0006625903452
299.9940863101855
299.9871132165534
299.9800128236765
299.9733625196183
299.9682131124727
299.965573391147
299.9649580108673
299.9649288446851
299.9649460231353
299.9650239424315
299.9652214149909
299.9656042469857
299.9662418510561
299.96720347385
299.9685552544523
299.9703575180985
299.9726621738128
299.9755102723331
299.9789298400716
299.9829342183684
299.9875210960708
299.9926720599809
299.9983517340719
300.0045037405246
300.0110354951169
300.0177711351603
300.0243325858134
300.0299439569211
300.0335109047693
300.0347509230322
300.0348911545927
300.0348855038157
300.034839720295
300.0347018880011
300.0344079824495
300.0338889447181
300.0330732254154
300.0318895017248
300.0302692038426
300.0281491440189
300.0254742311671
300.0222000861047
300.0182955895264
300.0137455445556
300.0085534258784
300.0027446844826
299.996373933402
299.989545977861
299.9824742541177
299.9756188388251
299.9698875585543
299.9664403361532
299.9653618227889
299.9652619196705
299.9652711706639
299.9653229635547
299.9654741633583
299.9657872933881
299.966330164489
299.9671709676742
299.9683756019577
299.9700050502878
299.9721132343659
299.9747447200264
299.977932316894
299.9816953409124
299.9860388334038
299.9909528045252
299.9964105762814
300.0023655358837
300.0087413065602
300.0153982299981
300.0220409551771
300.0280373765023
300.032333289817
300.0342194406467
300.0345511348369
300.0345573002442
300.0345286423984
300.0344285260193
300.0341944715698
300.0337610722254
300.0330582709066
300.0320157879947
300.03056503965
300.0286415867433
300.026187600594
300.0231544178852
300.019505165572
300.0152174177318
300.0102858898325
300.0047257030757
299.9985784560328
299.9919277768167
299.9849420398109
299.9779820260248
299.9717980119347
299.9675551251473
299.9658488982204
299.9655932471661
299.9655933717494
299.965625975577
299.965738478516
299.9659902802425
299.9664472505298
299.9671765968225
299.9682441662521
299.9697118635863
299.971635300714
299.9740615912102
299.9770273334215
299.98055695496
299.9846614594207
299.9893374009031
299.9945657624228
300.0003096590033
300.0065068407988
300.0130454512667
300.0196960826907
300.0259598988139
300.0308996039843
300.0335359617529
300.0341971455946
300.0342346020603
300.0342196281771
300.0341500149223
300.0339686222164
300.0336120069358
300.0330119245207
300.0320988447864
300.0308042803013
300.0290630571192
300.0268155661959
300.0240100844111
300.0206052837192
300.0165728784801
300.0119002626578
300.0065935365113
300.0006826520593
299.9942332695753
299.9873779246828
299.9803973769248
299.9738933297104
299.9689366575064
299.9664824112388
299.9659455896426
299.9659243652611
299.9659417956251
299.9660210643528
299.9662180730767
299.966596566442
299.9672227467271
299.9681622169614
299.9694773678802
299.9712251970647
299.973455158218
299.9762072141201
299.9795102230825
299.9833805673151
299.9878208793983
299.9928188582523
299.9983455612726
300.0043501463624
300.0107426375663
300.0173444381309
300.0237679559557
300.0292258782299
300.0326393024259
300.0337893042869
300.033911944518
300.0339051091564
300.0338597360885
300.0337232707301
300.0334348954376
300.032928058402
300.0321343264708
300.030985528532
300.0294160262894
300.0273647990039
300.0247776287277
300.0216094549036
300.0178268834333
300.0134108386092
300.0083596026062
300.0026932454962
299.9964625759942
299.9897718263252
299.9828389197348
299.9761357726881
299.9705827871491
299.967312440561
299.9663285132704
299.9662439796626
299.966253016618
299.9663067493776
299.9664577892117
299.9667675589226
299.9673006702865
299.9681222001046
299.9692950361768
299.9708775605868
299.972921369104
299.9754693372866
299.9785541699957
299.9821969505327
299.9864055015774
299.9911732004138
299.9964780847205
300.0022792266961
300.008503863826
300.0150115738088
300.0215036684421
300.0273460155917
300.031494643758
300.0332825357127
300.0335853951589
300.0335872486584
300.0335619188906
300.0334615975347
300.0332325842083
300.0328094722141
300.0321252000505
300.0311120376795
300.0297040294521
300.0278389954797
300.0254606301608
300.022520753449
300.0189817033468
300.0148188585904
300.0100235305745
300.0046069102375
299.9986070816096
299.9921055432158
299.9852712099571
299.9784696990578
299.9724580294796
299.9683876553405
299.9667931117166
299.9665652469359
299.9665659631695
299.9665994300192
299.9667109980662
299.9669590920295
299.9674070718347
299.9681195962733
299.9691598240438
299.9705870358609
299.97245449386
299.9748075844957
299.9776821731166
299.9811031160577
299.9850829583827
299.9896208432648
299.9947012387423
300.000291022739
300.0063309738487
300.0127109034104
300.0192019856875
300.0253064804074
300.0300960282975
300.0326230407715
300.0332435313366
300.0332768525381
300.0332624873126
300.0331933034561
300.0330155411656
300.0326672476147
300.0320826441239
300.0311946283185
300.0299371203807
300.0282470356439
300.0260663461731
300.0233442642141
300.0200395165798
300.016122750457
300.0115792963347
300.0064127311968
300.0006505076505
299.9943561114006
299.9876609093472
299.9808464583472
299.9745156892378
299.9697290697185
299.9673979063423
299.9669027339643
299.9668846674111
299.9669028745051
299.9669814177051
299.9671759030108
299.9675473779332
299.9681597285849
299.9690759955776
299.9703560832797
299.9720547001249
299.974219562753
299.9768897202448
299.9800938846403
299.9838489972641
299.9881592140144
299.9930148017862
299.9983897267119
300.0042355495215
300.0104643404525
300.0169000085021
300.0231587333803
300.0284621341349
300.0317558986794
300.032850727828
300.032964557055
300.0329587369887
300.0329131490479
300.0327797125968
300.0324978984747
300.0320037578514
300.0312310738873
300.0301140024028
300.028589011319
300.0265968148586
300.0240844121753
300.0210072901165
300.0173318148027
300.0130378964278
300.008122185268
300.0026027356429
299.9965282796726
299.9900013713417
299.9832389536703
299.976711502109
299.9713305745434
299.968195905589
299.9672713852641
299.9671949234597
299.9672043443069
299.9672576906381
299.9674066244689
299.967710278917
299.9682312264292
299.9690324169641
299.9701744858712
299.9717135644144
299.9736994842977
299.9761740206077
299.979169118956
299.9827055127907
299.9867918726038
299.991423749877
299.9965813680941
300.0022252044152
300.0082845395394
300.0146229404173
300.0209466133105
300.0266288401882
300.0306457560512
300.0323612328733
300.0326479916874
300.0326521793637
300.0326241504013
300.0325273477671
300.0323035761994
300.0318911544134
300.0312245116867
300.0302379417394
300.0288674971872
300.027053251331
300.024741375253
300.0218859294535
300.0184504726971
300.0144098498488
300.009752566321
300.0044844580547
299.998637264023
299.992286435451
299.9855986785489
299.978936960472
299.9730414572065
299.9690737761956
299.9675381536721
299.967249573903
299.9671892835272
299.9672307984552
299.967379368859
299.9676830008861
299.9681931010126
299.968954333646
299.9700016116925
299.9713714576716
299.9731142346531
299.9752965847472
299.9779919936301
299.9812652842508
299.9851577686636
299.9896768616014
299.9947893206109
300.0004271470136
300.0064965420897
300.0128636683962
300.0193085959078
300.0253289654855
300.0299600266557
300.032432546298
300.0332140991515
300.033345760654
300.0333547611498
300.0332468996488
300.0329979470118
300.0325623264177
300.0318826628371
300.0308984156381
300.0295628136039
300.0278475394256
300.0257351193162
300.0232016862947
300.0201882737326
300.0165714723948
300.0121752457443
300.0068524939651
300.0006365074096
299.9938564752094
299.9875733391345
299.9814689862874
)
;

boundaryField
{
    inlet
    {
        type            fixedValue;
        value           uniform 300;
    }
    outlet
    {
        type            temperatureOutletNSCBC;
        pInf            101325;
        gamma           1.4;
        etaAc           1;
        fieldInf        1;
        lInf            2.25;
        value           uniform 299.979030636003;
    }
    frontAndBack
    {
        type            empty;
    }
}


// ************************************************************************* //
