/*--------------------------------*- C++ -*----------------------------------*\
| =========                 |                                                 |
| \\      /  F ield         | OpenFOAM: The Open Source CFD Toolbox           |
|  \\    /   O peration     | Version:  v2012                                 |
|   \\  /    A nd           | Website:  www.openfoam.com                      |
|    \\/     M anipulation  |                                                 |
\*---------------------------------------------------------------------------*/
FoamFile
{
    version     2.0;
    format      ascii;
    class       volVectorField;
    location    "0.0075";
    object      U;
}
// * * * * * * * * * * * * * * * * * * * * * * * * * * * * * * * * * * * * * //

dimensions      [0 1 -1 0 0 0 0];


internalField   nonuniform List<vector> 
1000
(
(0.002912432881710715 0 0)
(0.03442391033809383 0 0)
(0.04256675241822718 0 0)
(0.05763224239036352 0 0)
(0.07146084120435842 0 0)
(0.0844446012350545 0 0)
(0.09560813796532996 0 0)
(0.1051393790391277 0 0)
(0.1131803632421201 0 0)
(0.1185652625521145 0 0)
(0.120068775658733 0 0)
(0.1199546851356721 0 0)
(0.1191302608051464 0 0)
(0.1166423222859242 0 0)
(0.1118467804792842 0 0)
(0.1045352141333598 0 0)
(0.09497109784177069 0 0)
(0.08359120914905623 0 0)
(0.07076599829935665 0 0)
(0.05674162657907427 0 0)
(0.04170874771021527 0 0)
(0.0258825759392734 0 0)
(0.009534793552026407 0 0)
(-0.007021927548250487 0 0)
(-0.02346159362601996 0 0)
(-0.03945754143239711 0 0)
(-0.05470438297696743 0 0)
(-0.06899599224977113 0 0)
(-0.08231536448978224 0 0)
(-0.09473797865112941 0 0)
(-0.1058904176756768 0 0)
(-0.114118131506396 0 0)
(-0.1175596706999267 0 0)
(-0.1179236898170926 0 0)
(-0.1178187596781224 0 0)
(-0.1171052408042003 0 0)
(-0.1152671857426592 0 0)
(-0.1116483638070216 0 0)
(-0.1057651259594588 0 0)
(-0.09739936878337034 0 0)
(-0.08666826321155177 0 0)
(-0.07395538379182538 0 0)
(-0.05976030341145712 0 0)
(-0.0445511021533507 0 0)
(-0.02868921867184141 0 0)
(-0.01244013260724228 0 0)
(0.003964728044020748 0 0)
(0.02027452912506781 0 0)
(0.03622671519669271 0 0)
(0.05161690949276469 0 0)
(0.0663646906945748 0 0)
(0.08047822460125652 0 0)
(0.09381043320579303 0 0)
(0.1054799241432463 0 0)
(0.1133829062815543 0 0)
(0.1162150813178767 0 0)
(0.1164521981366934 0 0)
(0.1162975246707214 0 0)
(0.1157268861690732 0 0)
(0.1141942278497135 0 0)
(0.1112110696550545 0 0)
(0.1062868719292507 0 0)
(0.09907443853093992 0 0)
(0.08944791488110872 0 0)
(0.07754399407061131 0 0)
(0.06372623858873755 0 0)
(0.04848842906956825 0 0)
(0.03234434592390185 0 0)
(0.01574801959107343 0 0)
(-0.0009424630853502018 0 0)
(-0.01746802153018319 0 0)
(-0.03365525798158969 0 0)
(-0.04940583695636588 0 0)
(-0.06469198472953501 0 0)
(-0.07949147891095495 0 0)
(-0.09348822313729119 0 0)
(-0.1054091858256166 0 0)
(-0.1128554096234245 0 0)
(-0.1151291438858271 0 0)
(-0.1152515197949621 0 0)
(-0.1151539637181972 0 0)
(-0.1145840249663206 0 0)
(-0.11319774819462 0 0)
(-0.110513379849271 0 0)
(-0.1060940319076321 0 0)
(-0.09958233522787852 0 0)
(-0.09077753800590861 0 0)
(-0.07968353313289982 0 0)
(-0.06652317218000028 0 0)
(-0.05170330366725181 0 0)
(-0.03573424314926411 0 0)
(-0.01913273125048565 0 0)
(-0.002344943530527701 0 0)
(0.01429699292357482 0 0)
(0.03059653880125096 0 0)
(0.04649568214874875 0 0)
(0.06203074807420388 0 0)
(0.07718862283909367 0 0)
(0.09157778997085261 0 0)
(0.1038414089212262 0 0)
(0.1115663275795889 0 0)
(0.1140290378310912 0 0)
(0.1142060983888298 0 0)
(0.1140861706565902 0 0)
(0.1136444384127296 0 0)
(0.1124657752836487 0 0)
(0.1101651735204419 0 0)
(0.1063227800348756 0 0)
(0.1005705765875411 0 0)
(0.09264417356540977 0 0)
(0.08243933062840281 0 0)
(0.07004455172307879 0 0)
(0.05574007080064059 0 0)
(0.03996157493126661 0 0)
(0.02323138373046389 0 0)
(0.006066425637203527 0 0)
(-0.01111211217312849 0 0)
(-0.02803478842669202 0 0)
(-0.0445880721339268 0 0)
(-0.06076252659263788 0 0)
(-0.07650268475813628 0 0)
(-0.09132723152897798 0 0)
(-0.1036742089075047 0 0)
(-0.1110415668791072 0 0)
(-0.1131570658787499 0 0)
(-0.1132684275230508 0 0)
(-0.1131902578976371 0 0)
(-0.1127378080266883 0 0)
(-0.1116289536045133 0 0)
(-0.1094704600764976 0 0)
(-0.1058845387047385 0 0)
(-0.1005246622423965 0 0)
(-0.09312736347479271 0 0)
(-0.08355565839352221 0 0)
(-0.07183608291167441 0 0)
(-0.05817311310492198 0 0)
(-0.04292827373567288 0 0)
(-0.02656597656791416 0 0)
(-0.009580334788049158 0 0)
(0.007584182261757203 0 0)
(0.02460572308550521 0 0)
(0.04132416956892455 0 0)
(0.05770342248743172 0 0)
(0.07367052763481897 0 0)
(0.08876188161802928 0 0)
(0.1015375149698799 0 0)
(0.1095632686692476 0 0)
(0.1121755687115925 0 0)
(0.1123913041712719 0 0)
(0.1123019682402274 0 0)
(0.1119661203325104 0 0)
(0.1110388630675888 0 0)
(0.1091964269939713 0 0)
(0.106071144255732 0 0)
(0.1013163348516213 0 0)
(0.09464040336505339 0 0)
(0.08585159541462012 0 0)
(0.07489427315887219 0 0)
(0.06187145200422301 0 0)
(0.04704778910072341 0 0)
(0.03082374708903982 0 0)
(0.01367459027645462 0 0)
(-0.0039339869903181 0 0)
(-0.02162391405187549 0 0)
(-0.03914664765681276 0 0)
(-0.05636140026035628 0 0)
(-0.07309043225583148 0 0)
(-0.08873000341636417 0 0)
(-0.1016159626757991 0 0)
(-0.1092502383326071 0 0)
(-0.1114748104799641 0 0)
(-0.111612914301377 0 0)
(-0.1115543117372796 0 0)
(-0.1111954188445922 0 0)
(-0.1102949309856604 0 0)
(-0.1085172643178589 0 0)
(-0.1055296804066738 0 0)
(-0.1010089355416798 0 0)
(-0.09467970176234469 0 0)
(-0.08634917973822165 0 0)
(-0.07594244003666425 0 0)
(-0.06352683639309196 0 0)
(-0.04931496329323781 0 0)
(-0.03364355978065733 0 0)
(-0.01693108380018088 0 0)
(0.0003848376124830444 0 0)
(0.01792236043815459 0 0)
(0.03541282712087108 0 0)
(0.05269166494946302 0 0)
(0.06956809484667111 0 0)
(0.08549453007034778 0 0)
(0.09899287622111121 0 0)
(0.1076045234149031 0 0)
(0.1105503976109006 0 0)
(0.1108344954675358 0 0)
(0.1107721547540224 0 0)
(0.1105207212004958 0 0)
(0.1097849944091366 0 0)
(0.1082852012993402 0 0)
(0.1056955781458796 0 0)
(0.1016963444285035 0 0)
(0.09599649968937503 0 0)
(0.08836840945003388 0 0)
(0.07867925422677509 0 0)
(0.06691758834189131 0 0)
(0.05321042664794812 0 0)
(0.03782077094777322 0 0)
(0.02111574752614073 0 0)
(0.003509161050754895 0 0)
(-0.01460319680540512 0 0)
(-0.0328927821747167 0 0)
(-0.05109907683673486 0 0)
(-0.06890724642123003 0 0)
(-0.08557218573481598 0 0)
(-0.09929936487284595 0 0)
(-0.1075002788229249 0 0)
(-0.1099839652379647 0 0)
(-0.1101710485911061 0 0)
(-0.1101292122965758 0 0)
(-0.1098446488110692 0 0)
(-0.1091098316458369 0 0)
(-0.1076294391244116 0 0)
(-0.1051061689582218 0 0)
(-0.1012408887626327 0 0)
(-0.09576279886564577 0 0)
(-0.08845630429169314 0 0)
(-0.07919099133871932 0 0)
(-0.06794611058743982 0 0)
(-0.05482205010420528 0 0)
(-0.04003674254525668 0 0)
(-0.02390605967153472 0 0)
(-0.006803128847000395 0 0)
(0.01090177394924585 0 0)
(0.02889598476517935 0 0)
(0.04692852820590365 0 0)
(0.06470676416033266 0 0)
(0.08159656933491556 0 0)
(0.09606491476026718 0 0)
(0.105563708473225 0 0)
(0.10905224412122 0 0)
(0.1094605326503738 0 0)
(0.1094170177635827 0 0)
(0.1092312918082542 0 0)
(0.1086460974930333 0 0)
(0.107417653139974 0 0)
(0.1052520684109313 0 0)
(0.1018544277198247 0 0)
(0.09694352138708109 0 0)
(0.09027897403162827 0 0)
(0.08168645036960072 0 0)
(0.07108209606720993 0 0)
(0.0584933259306579 0 0)
(0.0440672905400402 0 0)
(0.02805769417458934 0 0)
(0.01079067854388997 0 0)
(-0.007379501595349058 0 0)
(-0.02611049760537395 0 0)
(-0.04507774556563491 0 0)
(-0.06386901608854828 0 0)
(-0.0816326716651239 0 0)
(-0.09647117756781595 0 0)
(-0.1056234284612024 0 0)
(-0.108607424761635 0 0)
(-0.108885641814056 0 0)
(-0.1088595600937366 0 0)
(-0.1086370271714239 0 0)
(-0.1080373285460672 0 0)
(-0.1067958840936907 0 0)
(-0.1046458243363503 0 0)
(-0.1013114428659044 0 0)
(-0.09653245467464329 0 0)
(-0.09008516871538562 0 0)
(-0.0818075722590456 0 0)
(-0.07162155255237576 0 0)
(-0.05954719255409256 0 0)
(-0.04570781635192665 0 0)
(-0.03032342637668992 0 0)
(-0.013685969018669 0 0)
(0.003883698998977204 0 0)
(0.02207807349057934 0 0)
(0.04060863141723872 0 0)
(0.05912367480396356 0 0)
(0.076944677759695 0 0)
(0.09253130525710547 0 0)
(0.1032422758795465 0 0)
(0.1075804438920743 0 0)
(0.1082117026772242 0 0)
(0.1081883807270192 0 0)
(0.1080559369860921 0 0)
(0.1075930494173825 0 0)
(0.1065848030432209 0 0)
(0.1047644825545375 0 0)
(0.1018601762043139 0 0)
(0.09760378997823212 0 0)
(0.09175256577989811 0 0)
(0.08410934250536975 0 0)
(0.07454403361464804 0 0)
(0.0630142635672965 0 0)
(0.04957779983328731 0 0)
(0.03438955370116929 0 0)
(0.01768405686474135 0 0)
(-0.0002503782560928807 0 0)
(-0.01909870727577648 0 0)
(-0.0385233574243645 0 0)
(-0.0580721386066585 0 0)
(-0.07685664515268517 0 0)
(-0.09295709232338834 0 0)
(-0.1034317601805404 0 0)
(-0.1072401058497057 0 0)
(-0.1076953442456474 0 0)
(-0.1076859122002914 0 0)
(-0.107518178261513 0 0)
(-0.1070379947675189 0 0)
(-0.1060018846904467 0 0)
(-0.1041666368283087 0 0)
(-0.1012763917035593 0 0)
(-0.0970836244024893 0 0)
(-0.09136544960201162 0 0)
(-0.08394376107731653 0 0)
(-0.07470390708836167 0 0)
(-0.06360916599422795 0 0)
(-0.05071013333715928 0 0)
(-0.03614576123685171 0 0)
(-0.02012959452733185 0 0)
(-0.002921124739200464 0 0)
(0.01520336997729387 0 0)
(0.03395452237329698 0 0)
(0.05296546514020757 0 0)
(0.07156716100028095 0 0)
(0.08828640104150615 0 0)
(0.1004577423837658 0 0)
(0.1060092861785442 0 0)
(0.1070324829056201 0 0)
(0.1070397911330903 0 0)
(0.106953631339919 0 0)
(0.1065960987055561 0 0)
(0.1057762144527765 0 0)
(0.1042484879876295 0 0)
(0.101760382545174 0 0)
(0.09805762316096475 0 0)
(0.09290109692447089 0 0)
(0.08608268405028877 0 0)
(0.07744353436379277 0 0)
(0.06689292750948149 0 0)
(0.05442154187502783 0 0)
(0.04010420929332808 0 0)
(0.02409369072766436 0 0)
(0.006608458844887834 0 0)
(-0.01208339038557841 0 0)
(-0.03166480189886963 0 0)
(-0.051689814240235 0 0)
(-0.07130103480643904 0 0)
(-0.0886632552459099 0 0)
(-0.1007481609425032 0 0)
(-0.1057764989561482 0 0)
(-0.1065655481111605 0 0)
(-0.1065757661746931 0 0)
(-0.1064560688453678 0 0)
(-0.1060804997586489 0 0)
(-0.1052247581908339 0 0)
(-0.1036641059414968 0 0)
(-0.10115818632955 0 0)
(-0.09747115540443116 0 0)
(-0.09238413370061023 0 0)
(-0.08571125364843726 0 0)
(-0.07731495186930601 0 0)
(-0.06711959872339868 0 0)
(-0.05512229205316616 0 0)
(-0.04139727861434914 0 0)
(-0.02608947898810277 0 0)
(-0.00939776754307493 0 0)
(0.008443100480622905 0 0)
(0.02716516953466061 0 0)
(0.04641865484165673 0 0)
(0.06558562672515678 0 0)
(0.08332652397407514 0 0)
(0.09706933457009896 0 0)
(0.1041923133257818 0 0)
(0.1058698941188658 0 0)
(0.1059433823498803 0 0)
(0.1058904367417354 0 0)
(0.1056275025676272 0 0)
(0.1049729653201384 0 0)
(0.1037009316269935 0 0)
(0.1015741971840435 0 0)
(0.09835083170521532 0 0)
(0.09379763736776235 0 0)
(0.08770247645090004 0 0)
(0.07988951451767304 0 0)
(0.07023546372448462 0 0)
(0.05868201000783176 0 0)
(0.0452417737022898 0 0)
(0.02999954691445476 0 0)
(0.01310918658946323 0 0)
(-0.00521448112656806 0 0)
(-0.02469286920368582 0 0)
(-0.04491564312425053 0 0)
(-0.0651037884531047 0 0)
(-0.08359580535518084 0 0)
(-0.09742848911425329 0 0)
(-0.1040816776879113 0 0)
(-0.1054605075046382 0 0)
(-0.1055080684495569 0 0)
(-0.1054289879196232 0 0)
(-0.1051454036712186 0 0)
(-0.1044487943504223 0 0)
(-0.1031315164505461 0 0)
(-0.1009655208743496 0 0)
(-0.09772459561104915 0 0)
(-0.09319430362358623 0 0)
(-0.08718546529371242 0 0)
(-0.0795463180754878 0 0)
(-0.07017412178022012 0 0)
(-0.05902653891599897 0 0)
(-0.0461286562195144 0 0)
(-0.03157032720338795 0 0)
(-0.0154958409939166 0 0)
(0.001905184889838857 0 0)
(0.0203961436817201 0 0)
(0.03965814102379839 0 0)
(0.05914663839024856 0 0)
(0.07770330691775251 0 0)
(0.09297684193734417 0 0)
(0.1019708624092785 0 0)
(0.1046707166350952 0 0)
(0.1048932141329997 0 0)
(0.1048698153089618 0 0)
(0.1046784603400728 0 0)
(0.1041672587812739 0 0)
(0.1031172716191227 0 0)
(0.1013072452121818 0 0)
(0.09850556909572526 0 0)
(0.09448504695810442 0 0)
(0.0890328321293449 0 0)
(0.08196311478909409 0 0)
(0.07313039722638787 0 0)
(0.06244074885445175 0 0)
(0.04985996240121382 0 0)
(0.03541903676699051 0 0)
(0.0192156861224029 0 0)
(0.001411797897851471 0 0)
(-0.01775979641497523 0 0)
(-0.03793875055824662 0 0)
(-0.05844802738338033 0 0)
(-0.07784977356109728 0 0)
(-0.09339398883382601 0 0)
(-0.1019972282734336 0 0)
(-0.104305445781505 0 0)
(-0.1044581555016298 0 0)
(-0.1044115572021312 0 0)
(-0.1042077140682989 0 0)
(-0.1036561714308429 0 0)
(-0.1025601134142458 0 0)
(-0.1007020313792745 0 0)
(-0.09786329604852884 0 0)
(-0.09383356678050349 0 0)
(-0.08842204452720348 0 0)
(-0.08146766530000668 0 0)
(-0.07284960564269859 0 0)
(-0.06249780363320043 0 0)
(-0.05039985554134459 0 0)
(-0.03660116322414222 0 0)
(-0.02120073476801546 0 0)
(-0.004347669385964566 0 0)
(0.01375714781117685 0 0)
(0.03283594258759383 0 0)
(0.05242356488197301 0 0)
(0.07155018709210156 0 0)
(0.0881703725508895 0 0)
(0.09917992105137266 0 0)
(0.1033292140788074 0 0)
(0.1038739675676973 0 0)
(0.1038703973729151 0 0)
(0.1037396922983396 0 0)
(0.1033495064386351 0 0)
(0.1024944820258872 0 0)
(0.1009652145394638 0 0)
(0.09853936051148045 0 0)
(0.09499555645959866 0 0)
(0.09012198785753998 0 0)
(0.08372684225463928 0 0)
(0.07564913659053137 0 0)
(0.0657693453932138 0 0)
(0.05401874297601818 0 0)
(0.04038633660611636 0 0)
(0.02492265036812965 0 0)
(0.007742087839390513 0 0)
(-0.01096708415824565 0 0)
(-0.03089860403467126 0 0)
(-0.05148445294357597 0 0)
(-0.07152780628796494 0 0)
(-0.08860624678384513 0 0)
(-0.09936372533104287 0 0)
(-0.1030384103455041 0 0)
(-0.103440495868057 0 0)
(-0.1034209243889422 0 0)
(-0.1032795007485958 0 0)
(-0.1028546561080616 0 0)
(-0.101954390589574 0 0)
(-0.1003713130094273 0 0)
(-0.09789389661450176 0 0)
(-0.09431591634375293 0 0)
(-0.08944607096491713 0 0)
(-0.08311733405281897 0 0)
(-0.0751963785366221 0 0)
(-0.06559230646773041 0 0)
(-0.05426314481729654 0 0)
(-0.04121902338568829 0 0)
(-0.02652218611152674 0 0)
(-0.01028513942730329 0 0)
(0.007328397327714032 0 0)
(0.02608316793635848 0 0)
(0.04558727829048734 0 0)
(0.06504523531698046 0 0)
(0.08274524909615615 0 0)
(0.0957169992235887 0 0)
(0.1016867962570563 0 0)
(0.1028258400790457 0 0)
(0.102852027796859 0 0)
(0.1027779283487254 0 0)
(0.1024927494556008 0 0)
(0.1018146049472219 0 0)
(0.10054198781361 0 0)
(0.09846031779491468 0 0)
(0.09535284841374313 0 0)
(0.09100847881156418 0 0)
(0.08523158929405611 0 0)
(0.07785153666957127 0 0)
(0.06873096829575458 0 0)
(0.05777464166570194 0 0)
(0.04493890301179777 0 0)
(0.03023800590972163 0 0)
(0.01374651313083641 0 0)
(-0.004391565911379283 0 0)
(-0.02392449383439383 0 0)
(-0.04438167087511555 0 0)
(-0.06478846317171885 0 0)
(-0.08310779018644208 0 0)
(-0.09603131945481017 0 0)
(-0.1015280446919468 0 0)
(-0.1024375968041676 0 0)
(-0.102439159329871 0 0)
(-0.1023578623950451 0 0)
(-0.1020360944615242 0 0)
(-0.1013091505931835 0 0)
(-0.09997325037821518 0 0)
(-0.09782361843257473 0 0)
(-0.09465771567275387 0 0)
(-0.09028466711427156 0 0)
(-0.08453297763963988 0 0)
(-0.07725944362688812 0 0)
(-0.06835781947102232 0 0)
(-0.05776458758794102 0 0)
(-0.04546194796961515 0 0)
(-0.03148058687517151 0 0)
(-0.01590194627399804 0 0)
(0.001140917252834357 0 0)
(0.0194514062843979 0 0)
(0.03870686641737482 0 0)
(0.05826797190937988 0 0)
(0.07674916050229377 0 0)
(0.09150371438106214 0 0)
(0.09960827676827565 0 0)
(0.1017545441668762 0 0)
(0.1018935773193831 0 0)
(0.1018455757994017 0 0)
(0.1016488969052758 0 0)
(0.1011178219293007 0 0)
(0.1000669717910164 0 0)
(0.09828797213709359 0 0)
(0.09556969442892321 0 0)
(0.0917037668284095 0 0)
(0.08649284766980862 0 0)
(0.07975877480788945 0 0)
(0.0713511344177899 0 0)
(0.06115583200619023 0 0)
(0.04910309400919968 0 0)
(0.03517437041445106 0 0)
(0.01940883401984617 0 0)
(0.001913677743128422 0 0)
(-0.01710854712770251 0 0)
(-0.03727860930791326 0 0)
(-0.05781699856804448 0 0)
(-0.07705393310329683 0 0)
(-0.09194971711156463 0 0)
(-0.09958560760161551 0 0)
(-0.1013654023061933 0 0)
(-0.1014495251788036 0 0)
(-0.1014004306769143 0 0)
(-0.1011746698580985 0 0)
(-0.1006035600594714 0 0)
(-0.09949612796888793 0 0)
(-0.09765171989007569 0 0)
(-0.09487004796828982 0 0)
(-0.09095981308616198 0 0)
(-0.08574645762115761 0 0)
(-0.07907982034233865 0 0)
(-0.07084126670937634 0 0)
(-0.06094978442131378 0 0)
(-0.04936667235806799 0 0)
(-0.03609857836953216 0 0)
(-0.02119900399598538 0 0)
(-0.00477046172059307 0 0)
(0.01302421352760256 0 0)
(0.03191745515767367 0 0)
(0.05140017618524515 0 0)
(0.07037832062968045 0 0)
(0.08660820518687549 0 0)
(0.09692541347154114 0 0)
(0.1005125020651463 0 0)
(0.1009182201624657 0 0)
(0.1009007311396866 0 0)
(0.1007692758287127 0 0)
(0.1003702445312531 0 0)
(0.09952022037420093 0 0)
(0.09801904106125092 0 0)
(0.09565971136047093 0 0)
(0.09223584282081937 0 0)
(0.08754931266606145 0 0)
(0.08141747842008734 0 0)
(0.07368066375040906 0 0)
(0.06421024414207667 0 0)
(0.05291665049778436 0 0)
(0.03975634310451524 0 0)
(0.02473865356553734 0 0)
(0.007936304652968261 0 0)
(-0.0104918716871923 0 0)
(-0.03024124271757442 0 0)
(-0.05069558520572237 0 0)
(-0.07052669405757467 0 0)
(-0.08710737825493881 0 0)
(-0.09707843861999456 0 0)
(-0.1001956791125993 0 0)
(-0.1004837064691086 0 0)
(-0.1004619750854037 0 0)
(-0.1003084406284269 0 0)
(-0.09987240625443308 0 0)
(-0.09896631712892677 0 0)
(-0.09739580168230361 0 0)
(-0.09496372809496902 0 0)
(-0.09147938815274272 0 0)
(-0.08676575850380103 0 0)
(-0.08066706256316747 0 0)
(-0.07305532337724424 0 0)
(-0.06383543916785339 0 0)
(-0.05295015198362855 0 0)
(-0.04038507055817703 0 0)
(-0.02617129578483677 0 0)
(-0.01038612482402512 0 0)
(0.00683886602719931 0 0)
(0.02528343921769531 0 0)
(0.04453872380588753 0 0)
(0.06374843042870411 0 0)
(0.08109086346397675 0 0)
(0.09352049553914668 0 0)
(0.09898020904519547 0 0)
(0.09993607401846262 0 0)
(0.09994562501796156 0 0)
(0.0998732231616766 0 0)
(0.09957902704778206 0 0)
(0.09890318994838822 0 0)
(0.09764945587005151 0 0)
(0.0956167318440679 0 0)
(0.09260146664389962 0 0)
(0.08840537804462331 0 0)
(0.08284206967510764 0 0)
(0.07574418944431688 0 0)
(0.06697096038717716 0 0)
(0.05641581908715255 0 0)
(0.04401388517013886 0 0)
(0.02974966155528133 0 0)
(0.01366678743623409 0 0)
(-0.004114210848681335 0 0)
(-0.02335136607092903 0 0)
(-0.04355805449285415 0 0)
(-0.063690959034925 0 0)
(-0.08157929939142421 0 0)
(-0.09385225696456025 0 0)
(-0.0987874951759159 0 0)
(-0.09952696503949049 0 0)
(-0.09952753760994174 0 0)
(-0.099432370227967 0 0)
(-0.09910727690933764 0 0)
(-0.09837879418137728 0 0)
(-0.09705691733283736 0 0)
(-0.09494718123800004 0 0)
(-0.09185907067400652 0 0)
(-0.08761344879002454 0 0)
(-0.08204954694330202 0 0)
(-0.07503120579222369 0 0)
(-0.06645245091177117 0 0)
(-0.05624245792418853 0 0)
(-0.04436959796983911 0 0)
(-0.03084419601276049 0 0)
(-0.01572108720203783 0 0)
(0.0008935456953625144 0 0)
(0.01881938121161649 0 0)
(0.03773192261660633 0 0)
(0.05696772462862516 0 0)
(0.07508534844156969 0 0)
(0.08937397652333619 0 0)
(0.09699958947449536 0 0)
(0.09891071689005386 0 0)
(0.09901808041118801 0 0)
(0.09897718764710765 0 0)
(0.09877440024084715 0 0)
(0.09825015659554286 0 0)
(0.09721866541215199 0 0)
(0.09548298857352532 0 0)
(0.09284198256478841 0 0)
(0.08909768667061235 0 0)
(0.08406149030247428 0 0)
(0.07756080094315342 0 0)
(0.06944613099715592 0 0)
(0.05959817559045462 0 0)
(0.04793491398578403 0 0)
(0.03441945022296854 0 0)
(0.01906960216651703 0 0)
(0.001972574747760501 0 0)
(-0.01668199360152687 0 0)
(-0.03651173721760458 0 0)
(-0.05670438885841501 0 0)
(-0.07551809003946505 0 0)
(-0.08985503783319036 0 0)
(-0.09695408665762105 0 0)
(-0.09850820757944853 0 0)
(-0.09857016762361319 0 0)
(-0.09851787848070098 0 0)
(-0.0982897410177154 0 0)
(-0.09771948806652454 0 0)
(-0.09662467617872837 0 0)
(-0.09481339089232114 0 0)
(-0.09209581354189152 0 0)
(-0.08829141518818667 0 0)
(-0.083235518154224 0 0)
(-0.07678514666599989 0 0)
(-0.06882444811343175 0 0)
(-0.05926985116330664 0 0)
(-0.04807438418229766 0 0)
(-0.03523068084045243 0 0)
(-0.02077380709010977 0 0)
(-0.004787117052166385 0 0)
(0.01258152088994213 0 0)
(0.03107107382975002 0 0)
(0.05016592565085087 0 0)
(0.06874624005312455 0 0)
(0.08453363226291 0 0)
(0.09440586131849835 0 0)
(0.09773090730056896 0 0)
(0.09808533532581762 0 0)
(0.09806829365059191 0 0)
(0.09793485079548854 0 0)
(0.09754091446039607 0 0)
(0.09670666477041805 0 0)
(0.09524073101388449 0 0)
(0.09294496330712555 0 0)
(0.08962223540642551 0 0)
(0.08508265833119395 0 0)
(0.07914970629897557 0 0)
(0.07166658521137753 0 0)
(0.06250297770980115 0 0)
(0.05156220891587573 0 0)
(0.03878900534991443 0 0)
(0.02417843843498473 0 0)
(0.007788627084369804 0 0)
(-0.01023362154369211 0 0)
(-0.02958706093504649 0 0)
(-0.04964125191302039 0 0)
(-0.06903081111222649 0 0)
(-0.08509339341443606 0 0)
(-0.09455345648736456 0 0)
(-0.0973999432521558 0 0)
(-0.09764460454442241 0 0)
(-0.09761783639783352 0 0)
(-0.09746292963478324 0 0)
(-0.09702571098472064 0 0)
(-0.09612972970296392 0 0)
(-0.09458777133701834 0 0)
(-0.09221125832714493 0 0)
(-0.088818378705059 0 0)
(-0.0842408005922991 0 0)
(-0.07832914562332005 0 0)
(-0.07095858204409265 0 0)
(-0.06203466317497187 0 0)
(-0.05149770357844753 0 0)
(-0.03932506289569881 0 0)
(-0.02553395193965987 0 0)
(-0.0101876735053251 0 0)
(0.00659232097633789 0 0)
(0.0245945399966709 0 0)
(0.04341724771189451 0 0)
(0.06219884360770928 0 0)
(0.0790991252979109 0 0)
(0.09109478042853704 0 0)
(0.09626173503853527 0 0)
(0.09713989592436159 0 0)
(0.09715456781311765 0 0)
(0.09707099184723797 0 0)
(0.09678508823859588 0 0)
(0.09612168653375981 0 0)
(0.09489805162304515 0 0)
(0.09291886562823203 0 0)
(0.08998847025714196 0 0)
(0.08591598082288167 0 0)
(0.08052154302114596 0 0)
(0.0736423958837487 0 0)
(0.06513917421711256 0 0)
(0.05490275806641112 0 0)
(0.0428618734458191 0 0)
(0.02899158913568419 0 0)
(0.01332430154435814 0 0)
(-0.004030227695719372 0 0)
(-0.0228364741372711 0 0)
(-0.04260539736275782 0 0)
(-0.06227912223402808 0 0)
(-0.07966847911554152 0 0)
(-0.09144305663669663 0 0)
(-0.09605592374225987 0 0)
(-0.0967151129256771 0 0)
(-0.09671186666901846 0 0)
(-0.09661613256402903 0 0)
(-0.0962929777840493 0 0)
(-0.09557543194827396 0 0)
(-0.09427956702393012 0 0)
(-0.09221844226855881 0 0)
(-0.08920938080890434 0 0)
(-0.08508096464331499 0 0)
(-0.07967907388507502 0 0)
(-0.07287235174933657 0 0)
(-0.06455715128311332 0 0)
(-0.05466172760751806 0 0)
(-0.0431497113704311 0 0)
(-0.03002339257611801 0 0)
(-0.01532786804567434 0 0)
(0.0008406494787160828 0 0)
(0.0183109561095714 0 0)
(0.03676488428074329 0 0)
(0.05554045150036144 0 0)
(0.07319709763135887 0 0)
(0.08704964134040141 0 0)
(0.09435854433970831 0 0)
(0.09615400526477016 0 0)
(0.09625097329615995 0 0)
(0.09620796717352359 0 0)
(0.09600872636053377 0 0)
(0.09549432628493926 0 0)
(0.09448696623045916 0 0)
(0.09279609350960076 0 0)
(0.09022765270015666 0 0)
(0.08659044423073087 0 0)
(0.0817020409825748 0 0)
(0.07539468896739522 0 0)
(0.06752141651646709 0 0)
(0.0579626619868379 0 0)
(0.04663356481802799 0 0)
(0.03349192831066185 0 0)
(0.01854799213538154 0 0)
(0.001880671319696982 0 0)
(-0.01632642912192141 0 0)
(-0.03569266223183837 0 0)
(-0.05540353478018745 0 0)
(-0.07371602787721247 0 0)
(-0.08756283830454969 0 0)
(-0.09430654084145006 0 0)
(-0.09573804711508302 0 0)
(-0.09578941990149781 0 0)
(-0.0957384397328752 0 0)
(-0.09551030221523467 0 0)
(-0.09494802091690625 0 0)
(-0.09387343632317716 0 0)
(-0.09210201830006574 0 0)
(-0.08945154361658759 0 0)
(-0.08574880451051853 0 0)
(-0.08083529405123147 0 0)
(-0.07457290191478819 0 0)
(-0.06684906021668338 0 0)
(-0.05758089768025185 0 0)
(-0.04671889906964982 0 0)
(-0.03425077306144749 0 0)
(-0.02020546912102127 0 0)
(-0.004658888038342511 0 0)
(0.01224986857061478 0 0)
(0.03026743525398871 0 0)
(0.04888306206677965 0 0)
(0.06698483614927971 0 0)
(0.08232306923049372 0 0)
(0.09185085124517246 0 0)
(0.09501913339228653 0 0)
(0.09534867841379992 0 0)
(0.09532826075045187 0 0)
(0.09519932105074463 0 0)
(0.09481236276690234 0 0)
(0.09399747595336659 0 0)
(0.09256820986062671 0 0)
(0.09033333517807797 0 0)
(0.08710234106640463 0 0)
(0.08269148778671527 0 0)
(0.07692930417972525 0 0)
(0.06966245257579463 0 0)
(0.06076213804466003 0 0)
(0.05013108649267828 0 0)
(0.03771119923492672 0 0)
(0.02349270065147635 0 0)
(0.007527696524578488 0 0)
(-0.01004284303892969 0 0)
(-0.02892220771703757 0 0)
(-0.04848298406803409 0 0)
(-0.0673644673864182 0 0)
(-0.0829297277796551 0 0)
(-0.09199723137696229 0 0)
(-0.09467139279277718 0 0)
(-0.09489250190734548 0 0)
(-0.09486557702398005 0 0)
(-0.09471097593948796 0 0)
(-0.09428034790217038 0 0)
(-0.09340191516541822 0 0)
(-0.09189486493730578 0 0)
(-0.08957734890342758 0 0)
(-0.08627390056909298 0 0)
(-0.08182176180249891 0 0)
(-0.07607689171779564 0 0)
(-0.0689190735576161 0 0)
(-0.06025583223331203 0 0)
(-0.05002625421326468 0 0)
(-0.03820528309541669 0 0)
(-0.0248073294729748 0 0)
(-0.009889905781815696 0 0)
(0.00643495070128796 0 0)
(0.02396352815798583 0 0)
(0.04229770854033323 0 0)
(0.06058563182534001 0 0)
(0.07701930070819778 0 0)
(0.08864071666419747 0 0)
(0.0936059980653768 0 0)
(0.09443435975827229 0 0)
(0.09443850958848658 0 0)
(0.09436563319743152 0 0)
(0.09408170226381754 0 0)
(0.09343428091783862 0 0)
(0.09224053855720465 0 0)
(0.09031306329620246 0 0)
(0.08746302474329996 0 0)
(0.08350591785557308 0 0)
(0.0782660742479185 0 0)
(0.07158193513145214 0 0)
(0.06331303828171442 0 0)
(0.05334868425672007 0 0)
(0.04161743753009008 0 0)
(0.02809747018552546 0 0)
(0.01282830918336175 0 0)
(-0.004070041522260705 0 0)
(-0.02235792539698835 0 0)
(-0.04154574107652922 0 0)
(-0.06058717666153102 0 0)
(-0.07735303595101263 0 0)
(-0.08851186629932664 0 0)
(-0.09265942354032634 0 0)
(-0.09325502287621532 0 0)
(-0.09320954063645352 0 0)
(-0.09305453870074701 0 0)
(-0.09278191096823461 0 0)
(-0.09223804166504522 0 0)
(-0.09119442702780244 0 0)
(-0.08938722394309122 0 0)
(-0.08655677119903363 0 0)
(-0.08248355728047473 0 0)
(-0.07701987145312009 0 0)
(-0.07010440276855881 0 0)
(-0.06174704224522051 0 0)
(-0.05199305382800928 0 0)
(-0.04088791687368932 0 0)
(-0.02845118502325655 0 0)
(-0.014672258431448 0 0)
(0.0004699939496781176 0 0)
(0.01693081764669518 0 0)
(0.03445186317312485 0 0)
(0.05240092041674828 0 0)
(0.06927101972727889 0 0)
(0.0822308580788798 0 0)
(0.08901081807732295 0 0)
(0.09097152214823895 0 0)
(0.09120438587435445 0 0)
(0.09102984368542007 0 0)
(0.0907597983256615 0 0)
(0.09023993530749126 0 0)
(0.08940528724636082 0 0)
(0.08807781303481838 0 0)
(0.0859776972578354 0 0)
(0.08278616616165944 0 0)
(0.07821367321503675 0 0)
(0.07203837283221945 0 0)
(0.06411948510321981 0 0)
(0.05441622046249666 0 0)
(0.04302376752458533 0 0)
(0.03017526121839383 0 0)
(0.01608977846528209 0 0)
(0.0007852855510377256 0 0)
(-0.01621952695350935 0 0)
(-0.03390514984410432 0 0)
(-0.05531118585586275 0 0)
)
;

boundaryField
{
    inlet
    {
        type            zeroGradient;
    }
    outlet
    {
        type            velocityOutletNSCBCx;
        pInf            101325;
        gamma           1.4;
        etaAc           1;
        fieldInf        (-1 0 0);
        lInf            2.25;
        value           uniform (-0.06276707764558154 0 0);
    }
    frontAndBack
    {
        type            empty;
    }
}


// ************************************************************************* //
