/*--------------------------------*- C++ -*----------------------------------*\
| =========                 |                                                 |
| \\      /  F ield         | OpenFOAM: The Open Source CFD Toolbox           |
|  \\    /   O peration     | Version:  v2012                                 |
|   \\  /    A nd           | Website:  www.openfoam.com                      |
|    \\/     M anipulation  |                                                 |
\*---------------------------------------------------------------------------*/
FoamFile
{
    version     2.0;
    format      ascii;
    class       volVectorField;
    location    "0.0075";
    object      UMean;
}
// * * * * * * * * * * * * * * * * * * * * * * * * * * * * * * * * * * * * * //

dimensions      [0 1 -1 0 0 0 0];


internalField   nonuniform List<vector> 
1000
(
(0.00174475784713036 0 0)
(0.001668826334807422 0 0)
(0.001667690569791826 0 0)
(0.001618035041660038 0 0)
(0.001563589858914107 0 0)
(0.001485218230156229 0 0)
(0.001400578679732193 0 0)
(0.001302723139369109 0 0)
(0.001200185861468744 0 0)
(0.001089286888706422 0 0)
(0.0009753504139687367 0 0)
(0.0008599738928446788 0 0)
(0.0007452530083353259 0 0)
(0.000631938589955889 0 0)
(0.0005220107335160907 0 0)
(0.0004176453210917511 0 0)
(0.0003211526244078153 0 0)
(0.0002344446759278494 0 0)
(0.0001592332707377615 0 0)
(9.672170724511916e-05 0 0)
(4.812176250832447e-05 0 0)
(1.417106160369648e-05 0 0)
(-4.317159904862974e-06 0 0)
(-7.104943188216927e-06 0 0)
(6.031438751154587e-06 0 0)
(3.470140693963485e-05 0 0)
(7.848829298794376e-05 0 0)
(0.0001364809321457292 0 0)
(0.0002078547048024908 0 0)
(0.0002916548083775531 0 0)
(0.0003870377164126784 0 0)
(0.0004922184955413408 0 0)
(0.0006035735196169613 0 0)
(0.0007167338752719842 0 0)
(0.0008299332943419877 0 0)
(0.0009426838912851641 0 0)
(0.001054421083872194 0 0)
(0.001163566457134755 0 0)
(0.001268471217157394 0 0)
(0.001366629774598042 0 0)
(0.00145597095885678 0 0)
(0.001534121732542244 0 0)
(0.001599657784570185 0 0)
(0.001651068212248011 0 0)
(0.001687774888948569 0 0)
(0.001708977039434846 0 0)
(0.001714654184432466 0 0)
(0.001704495458011027 0 0)
(0.001678958916755584 0 0)
(0.001638204328986244 0 0)
(0.001583062244366596 0 0)
(0.001513899923158081 0 0)
(0.001431565235563391 0 0)
(0.001336778471303433 0 0)
(0.001232104182249934 0 0)
(0.001121726796067375 0 0)
(0.00101009029786907 0 0)
(0.0008983607166371797 0 0)
(0.0007870102286720584 0 0)
(0.0006765843276796021 0 0)
(0.0005681958980590206 0 0)
(0.0004634275233909041 0 0)
(0.0003642736930168203 0 0)
(0.0002729773035677364 0 0)
(0.0001918012195827592 0 0)
(0.0001227721658381629 0 0)
(6.754699940836589e-05 0 0)
(2.726880547448361e-05 0 0)
(2.64986523570905e-06 0 0)
(-6.027011533793397e-06 0 0)
(1.247629689454653e-06 0 0)
(2.4243080881358e-05 0 0)
(6.260587595025101e-05 0 0)
(0.0001158882816936458 0 0)
(0.000183695267652055 0 0)
(0.0002654816932423206 0 0)
(0.0003601042170954781 0 0)
(0.0004646397375495533 0 0)
(0.0005742288027024806 0 0)
(0.0006848842194832561 0 0)
(0.0007955144722922415 0 0)
(0.0009057722345078455 0 0)
(0.001015274190706841 0 0)
(0.001122806957405426 0 0)
(0.001227213363494055 0 0)
(0.001326435160017502 0 0)
(0.001418643531993418 0 0)
(0.001501383096152338 0 0)
(0.001572803155659992 0 0)
(0.001630828591439036 0 0)
(0.001674320200810183 0 0)
(0.001702123044476684 0 0)
(0.001714061733842919 0 0)
(0.001709837528740024 0 0)
(0.001689913276713739 0 0)
(0.001654382863970499 0 0)
(0.001603858899674345 0 0)
(0.001538433643304144 0 0)
(0.001458804554689459 0 0)
(0.00136585965513103 0 0)
(0.00126278861482332 0 0)
(0.001154332870808009 0 0)
(0.001044836220708471 0 0)
(0.0009352392687210082 0 0)
(0.0008259721343741485 0 0)
(0.0007173834112882895 0 0)
(0.0006103956319086925 0 0)
(0.0005061875378208273 0 0)
(0.0004064347868662766 0 0)
(0.0003130166490528928 0 0)
(0.0002281139750090608 0 0)
(0.0001538166110828797 0 0)
(9.218465911471671e-05 0 0)
(4.480574542037333e-05 0 0)
(1.296401720770952e-05 0 0)
(-2.709158059756191e-06 0 0)
(-1.873044870696713e-06 0 0)
(1.529299097264146e-05 0 0)
(4.858676424336862e-05 0 0)
(9.75749357747977e-05 0 0)
(0.0001619985958871128 0 0)
(0.0002412533919683169 0 0)
(0.0003340203806927815 0 0)
(0.0004368753903258025 0 0)
(0.0005446525405798942 0 0)
(0.000653382390599034 0 0)
(0.0007621286633194399 0 0)
(0.0008705482843991046 0 0)
(0.0009783899521704105 0 0)
(0.001084625344827801 0 0)
(0.001188364779578416 0 0)
(0.001287837020539431 0 0)
(0.001381511847242916 0 0)
(0.001467106398269525 0 0)
(0.001542814938562585 0 0)
(0.001606392649422666 0 0)
(0.001656373596025705 0 0)
(0.001691167779905784 0 0)
(0.001710149388582065 0 0)
(0.001712656003874224 0 0)
(0.001698880724091837 0 0)
(0.0016687754744702 0 0)
(0.001622882103796715 0 0)
(0.001561287240094015 0 0)
(0.001484753107972164 0 0)
(0.001394293722281509 0 0)
(0.001293318539237893 0 0)
(0.001186721132507252 0 0)
(0.001078988251636032 0 0)
(0.0009711117669645574 0 0)
(0.0008635214371220718 0 0)
(0.0007564248609329947 0 0)
(0.0006506351054278207 0 0)
(0.0005470568129618568 0 0)
(0.0004471656317010938 0 0)
(0.000352524952176623 0 0)
(0.0002651620718729939 0 0)
(0.0001870151047635817 0 0)
(0.0001202377118062089 0 0)
(6.659253137932291e-05 0 0)
(2.776401709492982e-05 0 0)
(4.795288193181081e-06 0 0)
(-1.486427742150599e-06 0 0)
(9.088333007086228e-06 0 0)
(3.662474479895481e-05 0 0)
(8.07903921642668e-05 0 0)
(0.0001413949185399775 0 0)
(0.0002176805953487751 0 0)
(0.0003081898356032645 0 0)
(0.000409164506297506 0 0)
(0.0005152860113778646 0 0)
(0.0006223977186592342 0 0)
(0.0007295723068454491 0 0)
(0.0008364584380450996 0 0)
(0.0009429050300483485 0 0)
(0.001048014539908714 0 0)
(0.001151074324470191 0 0)
(0.001250542533685495 0 0)
(0.001345097505458148 0 0)
(0.001432671873785084 0 0)
(0.001511574311801331 0 0)
(0.001579581714032059 0 0)
(0.001635106082228311 0 0)
(0.001676295797721843 0 0)
(0.001702177569168876 0 0)
(0.001711666965340919 0 0)
(0.00170459637630822 0 0)
(0.001680588884864907 0 0)
(0.001640016211340384 0 0)
(0.001582867644987171 0 0)
(0.001509943088073143 0 0)
(0.001422336004629976 0 0)
(0.001323575546644258 0 0)
(0.00121871078942192 0 0)
(0.001112492744449843 0 0)
(0.001006092549221077 0 0)
(0.0008999393640778012 0 0)
(0.000794144624312596 0 0)
(0.000689429152854374 0 0)
(0.0005865068486755353 0 0)
(0.0004866844880841114 0 0)
(0.0003912883631644321 0 0)
(0.0003021745784327568 0 0)
(0.0002211080596252231 0 0)
(0.000150210818694703 0 0)
(9.127819966747465e-05 0 0)
(4.621901853761101e-05 0 0)
(1.635695776048186e-05 0 0)
(2.945572373187689e-06 0 0)
(6.539839890200924e-06 0 0)
(2.764901567444431e-05 0 0)
(6.620230229459267e-05 0 0)
(0.0001221892502635045 0 0)
(0.0001948623905068398 0 0)
(0.0002826836091428087 0 0)
(0.000381666917027467 0 0)
(0.0004862331312250826 0 0)
(0.0005919376749582765 0 0)
(0.0006977352032312054 0 0)
(0.0008032888972057817 0 0)
(0.0009085027917828468 0 0)
(0.001012598391682079 0 0)
(0.001114986977048039 0 0)
(0.001214310748279879 0 0)
(0.001309418679308084 0 0)
(0.001398437123724707 0 0)
(0.001479807312851177 0 0)
(0.001551393225222618 0 0)
(0.001611584605933336 0 0)
(0.001658407945904438 0 0)
(0.001690653598161467 0 0)
(0.001706918877660831 0 0)
(0.001706676055996918 0 0)
(0.00168920542698498 0 0)
(0.001654585736781487 0 0)
(0.001602613374785878 0 0)
(0.001533974441901168 0 0)
(0.00144973572308556 0 0)
(0.001353434464652841 0 0)
(0.001250291094532988 0 0)
(0.001145439590171518 0 0)
(0.001040348459063568 0 0)
(0.000935470684857153 0 0)
(0.0008308500167189064 0 0)
(0.0007271218490253551 0 0)
(0.0006248607009184993 0 0)
(0.0005252334862645381 0 0)
(0.0004293732024640208 0 0)
(0.0003389817564511558 0 0)
(0.0002556492350760161 0 0)
(0.0001814199403969711 0 0)
(0.000118049900139661 0 0)
(6.754919658862179e-05 0 0)
(3.141837692632486e-05 0 0)
(1.121810695785704e-05 0 0)
(7.845990261696758e-06 0 0)
(2.22043992684627e-05 0 0)
(5.454802967196233e-05 0 0)
(0.0001051510379170515 0 0)
(0.0001734124929543497 0 0)
(0.0002578927048612376 0 0)
(0.0003545446587264149 0 0)
(0.0004575506072379522 0 0)
(0.0005619799774697586 0 0)
(0.000666556753415177 0 0)
(0.0007709127862282801 0 0)
(0.0008750280961986853 0 0)
(0.0009781836081571805 0 0)
(0.00107992539280918 0 0)
(0.001179011148042262 0 0)
(0.001274468031559288 0 0)
(0.00136455869977997 0 0)
(0.00144788433264701 0 0)
(0.001522394763080598 0 0)
(0.001586527439068454 0 0)
(0.001638257714354205 0 0)
(0.001676239355861803 0 0)
(0.001698848104838564 0 0)
(0.001705260469764584 0 0)
(0.001694447685420072 0 0)
(0.001666171495478919 0 0)
(0.001619980077470713 0 0)
(0.001556334460647191 0 0)
(0.00147614413418923 0 0)
(0.001382761296774805 0 0)
(0.001281477206217136 0 0)
(0.001177907846807191 0 0)
(0.001074005866080728 0 0)
(0.0009702841068715991 0 0)
(0.0008667431767799983 0 0)
(0.0007639373371060153 0 0)
(0.0006623419412113144 0 0)
(0.0005629877189115653 0 0)
(0.0004668695105801146 0 0)
(0.0003755246700755275 0 0)
(0.0002904137080074504 0 0)
(0.0002134517076855367 0 0)
(0.0001463534198012811 0 0)
(9.112501489583197e-05 0 0)
(4.939379030345697e-05 0 0)
(2.289350432341758e-05 0 0)
(1.282298587723106e-05 0 0)
(2.038152556532853e-05 0 0)
(4.618679917239426e-05 0 0)
(9.078807594703013e-05 0 0)
(0.0001538846204947269 0 0)
(0.000234247412655489 0 0)
(0.0003280607292590971 0 0)
(0.0004293319140451483 0 0)
(0.0005325620751091256 0 0)
(0.000635992833773425 0 0)
(0.000739260039728553 0 0)
(0.0008423374072585064 0 0)
(0.0009446294837176306 0 0)
(0.00104572025039532 0 0)
(0.001144534607541962 0 0)
(0.001240174307353904 0 0)
(0.001331093417448242 0 0)
(0.001415970253321278 0 0)
(0.001492913736047811 0 0)
(0.00156037644866393 0 0)
(0.001616384988178901 0 0)
(0.001659478986726085 0 0)
(0.001687927744956373 0 0)
(0.00170065601568234 0 0)
(0.001696407612368826 0 0)
(0.001674636202095476 0 0)
(0.001634643365138085 0 0)
(0.001576609690722969 0 0)
(0.001501170549474407 0 0)
(0.001411312320958936 0 0)
(0.001312183377839215 0 0)
(0.001209911000646261 0 0)
(0.001107118668693031 0 0)
(0.001004484135708928 0 0)
(0.0009019556544797041 0 0)
(0.0008000366052348486 0 0)
(0.0006990992166821135 0 0)
(0.0006000826817221949 0 0)
(0.0005038407640486365 0 0)
(0.0004117961422489061 0 0)
(0.0003252580130463315 0 0)
(0.0002460491503736412 0 0)
(0.0001757825128260892 0 0)
(0.0001164640761828019 0 0)
(6.974088327112438e-05 0 0)
(3.749378226874384e-05 0 0)
(2.109205979910239e-05 0 0)
(2.201661128859262e-05 0 0)
(4.11463418617449e-05 0 0)
(7.935488342993896e-05 0 0)
(0.0001366240666935788 0 0)
(0.0002121199132210696 0 0)
(0.0003024208428397756 0 0)
(0.0004016630727738555 0 0)
(0.000503664840973672 0 0)
(0.0006060300062314135 0 0)
(0.0007082487779623064 0 0)
(0.0008103536800643645 0 0)
(0.0009117942352623771 0 0)
(0.001012251333254189 0 0)
(0.001110730431136537 0 0)
(0.001206457410416718 0 0)
(0.001297993049325792 0 0)
(0.001384141402434987 0 0)
(0.001463110053178555 0 0)
(0.001533430034066349 0 0)
(0.001593161946140859 0 0)
(0.001640816628815637 0 0)
(0.001674584719843482 0 0)
(0.001693230063698795 0 0)
(0.001695313075827755 0 0)
(0.001680034990200671 0 0)
(0.001646471700559156 0 0)
(0.001594507207180102 0 0)
(0.001524458032206695 0 0)
(0.001438780874041931 0 0)
(0.001342262623007642 0 0)
(0.00124138842473346 0 0)
(0.001139677873209443 0 0)
(0.001038076742073526 0 0)
(0.0009365338540070763 0 0)
(0.0008354764898583657 0 0)
(0.0007352141579097578 0 0)
(0.0006365792721360423 0 0)
(0.0005403344187885905 0 0)
(0.0004477707715163715 0 0)
(0.0003600968579934658 0 0)
(0.0002790089556750296 0 0)
(0.0002060523037054192 0 0)
(0.0001431661328481044 0 0)
(9.201944619127421e-05 0 0)
(5.453972079057483e-05 0 0)
(3.224444904490174e-05 0 0)
(2.678502348162885e-05 0 0)
(3.928791222553896e-05 0 0)
(7.087313663633079e-05 0 0)
(0.000121846935475476 0 0)
(0.0001917863937789581 0 0)
(0.0002778697978708828 0 0)
(0.0003746118563049062 0 0)
(0.0004752927445557016 0 0)
(0.0005766231767788137 0 0)
(0.0006778395883518652 0 0)
(0.0007789935761371677 0 0)
(0.0008796008112202788 0 0)
(0.0009794081382863916 0 0)
(0.001077508697924197 0 0)
(0.001173225149459178 0 0)
(0.00126521956236557 0 0)
(0.001352406013189257 0 0)
(0.001433081946040006 0 0)
(0.001505866724144431 0 0)
(0.001568857832297579 0 0)
(0.001620586277137037 0 0)
(0.001659182606917842 0 0)
(0.001683332147014354 0 0)
(0.001691432211219974 0 0)
(0.001682524858764061 0 0)
(0.00165545208500887 0 0)
(0.001609870821648615 0 0)
(0.001545716223996311 0 0)
(0.001464907288721964 0 0)
(0.001371572074725619 0 0)
(0.001272345811563548 0 0)
(0.001171681452897463 0 0)
(0.001071081531298441 0 0)
(0.0009704879351605017 0 0)
(0.0008702828940340569 0 0)
(0.0007707090318829751 0 0)
(0.0006725087192906155 0 0)
(0.0005763589271192939 0 0)
(0.0004834380232855386 0 0)
(0.0003948582288853565 0 0)
(0.0003122027120392622 0 0)
(0.0002369413917356745 0 0)
(0.0001709395881019447 0 0)
(0.000115856618193062 0 0)
(7.363030421249597e-05 0 0)
(4.587240526883237e-05 0 0)
(3.434839767511807e-05 0 0)
(4.037736798512346e-05 0 0)
(6.527986325591015e-05 0 0)
(0.0001096655620617422 0 0)
(0.000173517632595805 0 0)
(0.0002546987187938105 0 0)
(0.0003483494530673724 0 0)
(0.0004474912852681453 0 0)
(0.0005477773527494694 0 0)
(0.0006480116576432244 0 0)
(0.0007482085924134561 0 0)
(0.0008479865430918782 0 0)
(0.0009471060391204861 0 0)
(0.001044791274496536 0 0)
(0.001140397608011206 0 0)
(0.001232732904607448 0 0)
(0.001320751175428674 0 0)
(0.001402892982039733 0 0)
(0.001477801432840188 0 0)
(0.001543683157516167 0 0)
(0.001599040519282149 0 0)
(0.001642043901064062 0 0)
(0.0016712701334478 0 0)
(0.001685071283858229 0 0)
(0.001682301261415339 0 0)
(0.001661685472694353 0 0)
(0.001622613508521263 0 0)
(0.001564743334772514 0 0)
(0.001489372448326501 0 0)
(0.00139989879803513 0 0)
(0.001302679440997953 0 0)
(0.001203129513303661 0 0)
(0.001103486517792768 0 0)
(0.001003832867128711 0 0)
(0.000904473162288223 0 0)
(0.0008056139994673034 0 0)
(0.0007078950570747996 0 0)
(0.0006119340080412935 0 0)
(0.0005187895636194119 0 0)
(0.000429501624431433 0 0)
(0.0003455337191599055 0 0)
(0.0002682935368505013 0 0)
(0.0001995559313131196 0 0)
(0.0001409622164279147 0 0)
(9.442655633410257e-05 0 0)
(6.16208581936663e-05 0 0)
(4.437484286317814e-05 0 0)
(4.415226792412993e-05 0 0)
(6.242861534377063e-05 0 0)
(0.0001000726234565879 0 0)
(0.0001574397803501832 0 0)
(0.000233077163827839 0 0)
(0.0003229557303888385 0 0)
(0.0004202091300065405 0 0)
(0.0005194281044219742 0 0)
(0.0006187048083536092 0 0)
(0.0007179662062214586 0 0)
(0.0008169152134825471 0 0)
(0.0009153296963777199 0 0)
(0.00101255204335801 0 0)
(0.001107969246555998 0 0)
(0.001200520490393367 0 0)
(0.001289199572538891 0 0)
(0.001372578122481134 0 0)
(0.00144932891850299 0 0)
(0.001517764331624881 0 0)
(0.001576377860744697 0 0)
(0.001623392590674043 0 0)
(0.001657312992630925 0 0)
(0.001676470932371273 0 0)
(0.001679577198213278 0 0)
(0.001665268756157888 0 0)
(0.001632711866202619 0 0)
(0.00158131940074711 0 0)
(0.001511827197168669 0 0)
(0.00142685640076241 0 0)
(0.001332170783852028 0 0)
(0.001233892913085156 0 0)
(0.001135221656865574 0 0)
(0.001036520896070847 0 0)
(0.0009380432081732818 0 0)
(0.0008399342385374283 0 0)
(0.000742769700783926 0 0)
(0.0006470779868975996 0 0)
(0.0005538434641850143 0 0)
(0.0004640050208246532 0 0)
(0.00037895057596333 0 0)
(0.0002999931110922378 0 0)
(0.0002288520373232576 0 0)
(0.0001671066464507683 0 0)
(0.0001166616458434758 0 0)
(7.918835566299033e-05 0 0)
(5.657761008305834e-05 0 0)
(5.03697760427409e-05 0 0)
(6.217877040469243e-05 0 0)
(9.305942606243372e-05 0 0)
(0.0001437079757694922 0 0)
(0.0002132812549155426 0 0)
(0.0002986794042124732 0 0)
(0.0003935300154597764 0 0)
(0.0004915733977760439 0 0)
(0.0005899075120541388 0 0)
(0.0006882586536892536 0 0)
(0.0007863534934753715 0 0)
(0.0008840607048704132 0 0)
(0.0009807491600127346 0 0)
(0.001075920961808478 0 0)
(0.001168554867806753 0 0)
(0.001257763180627034 0 0)
(0.001342161098269615 0 0)
(0.001420529203043409 0 0)
(0.001491209192919698 0 0)
(0.001552769608854592 0 0)
(0.001603424367669383 0 0)
(0.001641700107164335 0 0)
(0.001665865526458147 0 0)
(0.001674590144965772 0 0)
(0.001666386779661105 0 0)
(0.001640303616643706 0 0)
(0.001595497672206203 0 0)
(0.001532278016817336 0 0)
(0.001452439902233967 0 0)
(0.001360936638754422 0 0)
(0.001264147492694644 0 0)
(0.001166436838095077 0 0)
(0.001068642120624474 0 0)
(0.0009710179522980536 0 0)
(0.0008736662910689718 0 0)
(0.0007770769920601227 0 0)
(0.0006817300820060939 0 0)
(0.0005885028866603433 0 0)
(0.0004982772299021337 0 0)
(0.0004123299399147276 0 0)
(0.000331918790441879 0 0)
(0.0002586655008018399 0 0)
(0.0001941163437644855 0 0)
(0.000140118538084228 0 0)
(9.835601929744686e-05 0 0)
(7.072251815499373e-05 0 0)
(5.883278645660405e-05 0 0)
(6.438553149299756e-05 0 0)
(8.860495923194487e-05 0 0)
(0.0001324511925878277 0 0)
(0.0001956127226754343 0 0)
(0.0002758899379756354 0 0)
(0.0003677090504920077 0 0)
(0.0004643392666351305 0 0)
(0.0005616950527509773 0 0)
(0.0006591065011629901 0 0)
(0.0007563272485400667 0 0)
(0.0008532620336038477 0 0)
(0.0009493666987585776 0 0)
(0.001044194375188844 0 0)
(0.001136814001066273 0 0)
(0.00122640260639446 0 0)
(0.001311657147079752 0 0)
(0.001391424399704094 0 0)
(0.001464106271414741 0 0)
(0.001528322575542574 0 0)
(0.001582310475867372 0 0)
(0.001624612760926706 0 0)
(0.00165346822563992 0 0)
(0.001667516765868421 0 0)
(0.001665183652308349 0 0)
(0.001645421613591303 0 0)
(0.001607176756138239 0 0)
(0.001550410919117355 0 0)
(0.001476192105577869 0 0)
(0.001388549677775674 0 0)
(0.001293659203074176 0 0)
(0.001196981914549145 0 0)
(0.001100097112413372 0 0)
(0.001003367786401511 0 0)
(0.0009067896700528582 0 0)
(0.0008108554745010012 0 0)
(0.0007159081629399495 0 0)
(0.0006228155605732502 0 0)
(0.0005323167448287527 0 0)
(0.0004456705967717333 0 0)
(0.0003639986737684344 0 0)
(0.0002889076989938739 0 0)
(0.0002218303938732836 0 0)
(0.0001646194321680087 0 0)
(0.0001188893469622228 0 0)
(8.657921647095882e-05 0 0)
(6.929717134748604e-05 0 0)
(6.884411915058373e-05 0 0)
(8.653404972051115e-05 0 0)
(0.000123570847147381 0 0)
(0.0001800597022782553 0 0)
(0.0002546379820325493 0 0)
(0.0003427189451094515 0 0)
(0.000437581966031151 0 0)
(0.0005339440579749259 0 0)
(0.0006304391829701409 0 0)
(0.0007267892371548205 0 0)
(0.000822944908092073 0 0)
(0.0009184279949532711 0 0)
(0.001012850350087268 0 0)
(0.001105363637063425 0 0)
(0.001195201827965785 0 0)
(0.001281153866961485 0 0)
(0.001362112485835481 0 0)
(0.001436567813501133 0 0)
(0.001503160581980483 0 0)
(0.001560196261471782 0 0)
(0.001606200493224252 0 0)
(0.001639445494610284 0 0)
(0.001658504389842238 0 0)
(0.001661791631673768 0 0)
(0.00164813289871851 0 0)
(0.001616371502787714 0 0)
(0.001566132590737875 0 0)
(0.001497935855346586 0 0)
(0.001414809561383016 0 0)
(0.00132238614034227 0 0)
(0.001226869236468574 0 0)
(0.001130914045161115 0 0)
(0.001035058800889966 0 0)
(0.0009393170394776805 0 0)
(0.0008440543518297133 0 0)
(0.0007496209013935783 0 0)
(0.0006567380914564303 0 0)
(0.0005661391882860786 0 0)
(0.0004789360793206888 0 0)
(0.00039623831671222 0 0)
(0.000319518754227252 0 0)
(0.000250205497903228 0 0)
(0.0001900474290074862 0 0)
(0.000140678006446295 0 0)
(0.0001039800776867803 0 0)
(8.161981904007893e-05 0 0)
(7.540634651673886e-05 0 0)
(8.677772739019567e-05 0 0)
(0.0001170770188338981 0 0)
(0.0001667841012535503 0 0)
(0.0002352114488598368 0 0)
(0.0003188419231888067 0 0)
(0.0004114148908546142 0 0)
(0.000506680676406564 0 0)
(0.0006022692785271395 0 0)
(0.0006977522751744656 0 0)
(0.0007931044499317204 0 0)
(0.000887928143327091 0 0)
(0.0009818767206450686 0 0)
(0.001074194607747936 0 0)
(0.001164163883963453 0 0)
(0.00125066649904886 0 0)
(0.001332638957190236 0 0)
(0.001408655545632779 0 0)
(0.001477386021636792 0 0)
(0.001537200435604727 0 0)
(0.001586624926043683 0 0)
(0.001623965634723896 0 0)
(0.001647757668112395 0 0)
(0.001656409875527632 0 0)
(0.001648652717104272 0 0)
(0.001623245616816113 0 0)
(0.001579552635582576 0 0)
(0.001517645468380462 0 0)
(0.001439632084383752 0 0)
(0.00135031154682845 0 0)
(0.001256200003808773 0 0)
(0.00116117361091392 0 0)
(0.001066187244767071 0 0)
(0.0009712716855081161 0 0)
(0.0008767164219730697 0 0)
(0.0007828273718786152 0 0)
(0.0006902369151559026 0 0)
(0.0005996270986334854 0 0)
(0.0005120118739076312 0 0)
(0.0004284530346237607 0 0)
(0.0003503251253666835 0 0)
(0.0002790221873857832 0 0)
(0.0002162074925210552 0 0)
(0.0001635078301714059 0 0)
(0.0001227485783094723 0 0)
(9.563225554863729e-05 0 0)
(8.395796291804322e-05 0 0)
(8.926672867756318e-05 0 0)
(0.0001129944718177997 0 0)
(0.0001559297522367451 0 0)
(0.0002179181297618638 0 0)
(0.000296465566708458 0 0)
(0.0003860993646623331 0 0)
(0.0004800369274870115 0 0)
(0.0005746826537142499 0 0)
(0.0006692736066085584 0 0)
(0.0007637786355542718 0 0)
(0.0008578864106303915 0 0)
(0.0009512827059978856 0 0)
(0.001043307719130604 0 0)
(0.001133284523759999 0 0)
(0.001220190840374003 0 0)
(0.001303003528259688 0 0)
(0.001380383241994609 0 0)
(0.001451029717922965 0 0)
(0.001513378996931602 0 0)
(0.001565965300701801 0 0)
(0.001607129513863464 0 0)
(0.001635383755320106 0 0)
(0.001649132166552737 0 0)
(0.001647039763966344 0 0)
(0.001627794401872571 0 0)
(0.001590568163413309 0 0)
(0.001535071786519921 0 0)
(0.001462645241961804 0 0)
(0.001377109555809092 0 0)
(0.001284818760679179 0 0)
(0.001190777515034935 0 0)
(0.001096670258584279 0 0)
(0.001002600557933102 0 0)
(0.0009087949218395138 0 0)
(0.0008155121996197092 0 0)
(0.0007233045331744571 0 0)
(0.000632796404828501 0 0)
(0.000544916002030612 0 0)
(0.0004606648780125909 0 0)
(0.0003813346136516168 0 0)
(0.0003082661727301313 0 0)
(0.0002430534947178064 0 0)
(0.0001872903634352791 0 0)
(0.0001427602657623889 0 0)
(0.0001111679895632029 0 0)
(9.431331823488593e-05 0 0)
(9.379516058854208e-05 0 0)
(0.0001111345605142883 0 0)
(0.000147341970898525 0 0)
(0.0002027005404646965 0 0)
(0.0002755999247528508 0 0)
(0.0003615872157599719 0 0)
(0.0004538470865517984 0 0)
(0.000547541369141864 0 0)
(0.0006412585848412513 0 0)
(0.000734926226916843 0 0)
(0.0008282960426368433 0 0)
(0.0009211003631886954 0 0)
(0.001012757041746946 0 0)
(0.001102646335542394 0 0)
(0.001189824111108917 0 0)
(0.001273325406139291 0 0)
(0.001351878556665209 0 0)
(0.001424233911906464 0 0)
(0.001488874763032559 0 0)
(0.001544369517099873 0 0)
(0.001589076761614988 0 0)
(0.001621518689333263 0 0)
(0.001640080716552324 0 0)
(0.001643403870592223 0 0)
(0.001630096233294188 0 0)
(0.001599210781597444 0 0)
(0.001550153555381236 0 0)
(0.001483670418497166 0 0)
(0.001402573364182359 0 0)
(0.001312657751979113 0 0)
(0.001219729413239656 0 0)
(0.001126513958478579 0 0)
(0.001033295232755917 0 0)
(0.0009402753231699635 0 0)
(0.0008476500284632215 0 0)
(0.0007559086250174505 0 0)
(0.0006656061218314325 0 0)
(0.000577598353224368 0 0)
(0.0004928152596256072 0 0)
(0.0004124766907718422 0 0)
(0.0003378590008139438 0 0)
(0.0002704945587986755 0 0)
(0.0002119304996720922 0 0)
(0.0001639107365897501 0 0)
(0.0001281247419029087 0 0)
(0.000106369462322902 0 0)
(0.0001002793492763745 0 0)
(0.0001114431622127096 0 0)
(0.0001410398741075877 0 0)
(0.0001896968281225713 0 0)
(0.0002565390724782198 0 0)
(0.0003381754912672767 0 0)
(0.0004282477220331195 0 0)
(0.0005208831565443813 0 0)
(0.0006137280979458292 0 0)
(0.0007065461473187171 0 0)
(0.0007991530476133558 0 0)
(0.0008913184878860138 0 0)
(0.0009825438956047499 0 0)
(0.001072253387454802 0 0)
(0.001159592312520526 0 0)
(0.001243635246710437 0 0)
(0.00132319826243031 0 0)
(0.001397059092184572 0 0)
(0.001463779026713045 0 0)
(0.001521933507652691 0 0)
(0.001569940706808256 0 0)
(0.001606301494666426 0 0)
(0.001629432386831266 0 0)
(0.001637915157384281 0 0)
(0.001630345884620492 0 0)
(0.001605637065335508 0 0)
(0.001563011517449387 0 0)
(0.001502686393470081 0 0)
(0.00142662100089258 0 0)
(0.001339699954508089 0 0)
(0.00124814570372186 0 0)
(0.001155805434763743 0 0)
(0.001063441113993118 0 0)
(0.0009712098751678559 0 0)
(0.0008792730928424324 0 0)
(0.0007880461207410522 0 0)
(0.000698028382706542 0 0)
(0.0006099952806942338 0 0)
(0.0005248165905378387 0 0)
(0.0004436325504140252 0 0)
(0.0003676636047849631 0 0)
(0.0002983718485112871 0 0)
(0.0002372625841473302 0 0)
(0.00018602882432263 0 0)
(0.0001463442986440448 0 0)
(0.0001199872655951301 0 0)
(0.0001086191363210774 0 0)
(0.0001138693387101682 0 0)
(0.0001370480758097053 0 0)
(0.0001790383354898763 0 0)
(0.0002395572766002808 0 0)
(0.0003162062846572972 0 0)
(0.0004034540734615916 0 0)
(0.0004948110376695057 0 0)
(0.0005867620491161699 0 0)
(0.0006787106202195895 0 0)
(0.0007705155611097384 0 0)
(0.0008619872694451967 0 0)
(0.0009526987483120959 0 0)
(0.001042127360461707 0 0)
(0.001129495564058242 0 0)
(0.001213932254527221 0 0)
(0.001294327562305647 0 0)
(0.001369505284380462 0 0)
(0.001438088614535515 0 0)
(0.001498681665912173 0 0)
(0.001549744222282328 0 0)
(0.001589781355280104 0 0)
(0.001617223448718832 0 0)
(0.001630624931925473 0 0)
(0.001628555396419732 0 0)
(0.001609837470552181 0 0)
(0.001573537567369004 0 0)
(0.001519485953078576 0 0)
(0.001448896096075202 0 0)
(0.001365652446100055 0 0)
(0.001275860252908855 0 0)
(0.001184464679865745 0 0)
(0.001092956262576784 0 0)
(0.001001535663521165 0 0)
(0.000910328340185101 0 0)
(0.0008196760446117295 0 0)
(0.0007300299939416463 0 0)
(0.0006420823688498417 0 0)
(0.0005566486120661358 0 0)
(0.0004747853457091708 0 0)
(0.0003976596433912937 0 0)
(0.000326658067664112 0 0)
(0.0002632429300300089 0 0)
(0.0002090506096591223 0 0)
(0.0001657335402718982 0 0)
(0.000135044477248514 0 0)
(0.000118660353259318 0 0)
(0.0001182389952878083 0 0)
(0.0001351887827363654 0 0)
(0.0001705891226503763 0 0)
(0.0002246155748599961 0 0)
(0.0002957404300532373 0 0)
(0.0003794589628273225 0 0)
(0.0004692012684825884 0 0)
(0.0005602354616270576 0 0)
(0.0006513332357215945 0 0)
(0.0007423314305440192 0 0)
(0.0008330866632177408 0 0)
(0.0009232342161583443 0 0)
(0.001012311755610735 0 0)
(0.001099610176315516 0 0)
(0.001184320966213102 0 0)
(0.001265398232984439 0 0)
(0.00134172196015249 0 0)
(0.001411967066545367 0 0)
(0.001474779882131821 0 0)
(0.001528653092487332 0 0)
(0.001572114160803513 0 0)
(0.001603601188657726 0 0)
(0.001621662302435831 0 0)
(0.001624839107114656 0 0)
(0.00161189688163375 0 0)
(0.001581773468895492 0 0)
(0.00153401596730421 0 0)
(0.001469224831406449 0 0)
(0.001390309201888771 0 0)
(0.00130280921589988 0 0)
(0.001212496289120705 0 0)
(0.001121843743359942 0 0)
(0.00103125037887948 0 0)
(0.0009408049031918005 0 0)
(0.0008507821259860548 0 0)
(0.0007615871203902773 0 0)
(0.0006738277632288149 0 0)
(0.0005882707972131269 0 0)
(0.0005058857072954132 0 0)
(0.0004277935631083713 0 0)
(0.0003552956463045013 0 0)
(0.0002898137868491121 0 0)
(0.0002329066555510146 0 0)
(0.0001862037465910838 0 0)
(0.0001514079961400179 0 0)
(0.0001302174472953232 0 0)
(0.000124311749405319 0 0)
(0.0001352090475997907 0 0)
(0.0001642218186407535 0 0)
(0.0002117890441128298 0 0)
(0.000277253656261292 0 0)
(0.0003571998079501087 0 0)
(0.0004452884263926012 0 0)
(0.0005358656748951881 0 0)
(0.0006269521633198453 0 0)
(0.0007180000532855834 0 0)
(0.0008088035898827776 0 0)
(0.0008990010152996893 0 0)
(0.0009881150904610817 0 0)
(0.001075555595497467 0 0)
(0.001160542538583896 0 0)
(0.00124236232648667 0 0)
(0.001319896841487777 0 0)
(0.001392079997485715 0 0)
(0.001457631180082834 0 0)
(0.001515016993681995 0 0)
(0.001562876362515989 0 0)
(0.001598964746608641 0 0)
(0.001621844532453511 0 0)
(0.001629884071196909 0 0)
(0.00162123381865523 0 0)
(0.001596474008790234 0 0)
(0.00155346868549162 0 0)
(0.001492718595853314 0 0)
(0.001416877107871426 0 0)
(0.001330326615258217 0 0)
(0.001239242486570328 0 0)
(0.00114675666415092 0 0)
(0.001054183349521468 0 0)
(0.0009620939231147522 0 0)
(0.000869833487032408 0 0)
(0.0007786802755846619 0 0)
(0.0006890881442693514 0 0)
(0.0006017384682085412 0 0)
(0.0005181242638333624 0 0)
(0.0004379319002082331 0 0)
(0.0003627385151382663 0 0)
(0.0002939257185319502 0 0)
(0.0002328905786691585 0 0)
(0.0001810815983451891 0 0)
(0.0001403658811995668 0 0)
(0.0001127233116074917 0 0)
(0.0001005294823954739 0 0)
(0.0001050485424950308 0 0)
(0.0001284149411908747 0 0)
(0.0001695087580508995 0 0)
)
;

boundaryField
{
    inlet
    {
        type            calculated;
        value           uniform (0.00174475784713036 0 0);
    }
    outlet
    {
        type            calculated;
        value           uniform (0.0001986007540949933 0 0);
    }
    frontAndBack
    {
        type            empty;
    }
}


// ************************************************************************* //
