/*--------------------------------*- C++ -*----------------------------------*\
| =========                 |                                                 |
| \\      /  F ield         | OpenFOAM: The Open Source CFD Toolbox           |
|  \\    /   O peration     | Version:  v2012                                 |
|   \\  /    A nd           | Website:  www.openfoam.com                      |
|    \\/     M anipulation  |                                                 |
\*---------------------------------------------------------------------------*/
FoamFile
{
    version     2.0;
    format      ascii;
    class       volScalarField;
    location    "0.012";
    object      p;
}
// * * * * * * * * * * * * * * * * * * * * * * * * * * * * * * * * * * * * * //

dimensions      [1 -1 -2 0 0 0 0];


internalField   nonuniform List<scalar> 
1000
(
101316.2140837587
101300.0541800845
101291.0606356134
101292.9320438721
101296.7792521203
101301.9856234987
101301.0479464287
101290.9952350176
101282.2184051352
101267.3988085707
101260.8525709141
101267.6958374992
101270.3596821124
101282.384518611
101288.2503571276
101285.9775743503
101284.0799041888
101281.0920316586
101286.7006298352
101300.8123669015
101310.4602305614
101325.8352865275
101332.5018719832
101333.6361960591
101328.2897422733
101325.7473659019
101333.6665899972
101350.6760806972
101358.4696955747
101375.8677291712
101383.2949934459
101378.4266923274
101374.4519787223
101367.4158565267
101365.5731925013
101371.1644321447
101373.9941203109
101380.1100081573
101381.9238175992
101373.6464076904
101363.2891662791
101351.2406005854
101344.1215708925
101340.3175303569
101340.1872835009
101333.1067468607
101315.6833037817
101299.4015958776
101293.5580358778
101293.4273385186
101302.1719476464
101313.8280448531
101320.8235569654
101312.3446099342
101286.5549149043
101258.2404609989
101243.2257833424
101241.7137439081
101255.1790786756
101275.0275992022
101296.8346824236
101300.8386260239
101294.3588733468
101287.1579339261
101284.6378549357
101287.3814625949
101296.6422768568
101307.6237516792
101323.2622284126
101331.1094095317
101333.2024090915
101338.0623146828
101346.2904238109
101355.706454321
101358.8172084248
101364.3162154884
101368.6881545854
101371.8063527558
101374.1149621436
101378.5524293069
101379.7630073592
101375.5694877775
101372.7154165148
101368.9861765002
101369.5408401726
101372.9872631212
101376.6679761505
101373.8367894426
101356.5821515229
101331.2276568303
101319.0422637516
101314.8170050203
101322.2839179929
101335.6168616527
101344.3310484677
101338.4458885415
101313.9951890546
101275.8665867135
101248.3621953791
101240.5206483843
101248.6200781608
101268.8119030177
101288.3501206511
101301.3697724635
101299.5534188898
101289.5079626794
101276.1372494513
101270.8701918229
101269.2763523166
101271.3929861672
101280.4878431228
101284.1280706353
101294.006663649
101309.1593540572
101322.2865309133
101327.7005840472
101339.6712093504
101348.9247241925
101354.7692476874
101352.4195917146
101348.8749302592
101347.0966239429
101353.6229754881
101366.6511936903
101379.510183644
101391.401301644
101394.1729421202
101389.3026160027
101380.7027791952
101373.2301405623
101369.7391507767
101369.3371463241
101366.8689448781
101361.5137101261
101354.7089116165
101352.726267623
101349.9666673758
101340.8945964398
101327.2236682483
101316.4114629654
101309.828486236
101305.4668789392
101302.3802398206
101297.5752121833
101288.3137032435
101276.9152367853
101269.1381736923
101267.6874264122
101272.4860684417
101277.8376790641
101277.3988379158
101271.9917641637
101261.2157328262
101254.5791534154
101258.4116188638
101274.5873758782
101299.6028211371
101317.7472522546
101323.4787854441
101317.7245083082
101307.5529948765
101302.2715527929
101306.9830207602
101318.6781057555
101331.67603478
101351.9738187208
101369.6560936917
101374.9770541525
101373.917694709
101377.0559099962
101381.9218639786
101384.083702216
101386.4315179301
101380.5093491898
101372.8810360951
101370.2742203049
101368.2116907691
101375.0159263997
101379.4912762096
101376.0646820349
101363.8561727272
101349.3596752537
101333.7145872571
101327.4851712281
101327.9414945423
101333.5467145646
101335.7876883269
101327.1098954726
101305.7755931568
101279.244326427
101261.6863490065
101259.0282867873
101269.0843918352
101282.4817671657
101291.0254412791
101288.6378066879
101274.0812024448
101260.4811812261
101253.0429410648
101258.0822901409
101275.5969723905
101290.6115158884
101300.4676875682
101299.1741036747
101289.736731716
101281.5134153511
101285.7486228433
101300.9161529757
101329.0530264778
101357.3365360501
101373.6297684828
101371.3569610866
101358.4695253262
101345.7566469571
101340.3962303109
101346.9950240331
101363.3350994928
101379.9172972547
101395.6408152035
101399.9503843212
101396.8373266961
101386.6134182366
101375.8010547284
101361.2764298382
101355.711209722
101357.7429722342
101363.621558588
101370.1920858292
101372.3116643588
101367.3878539231
101352.4769675727
101322.6037207486
101287.039837675
101272.2131426849
101277.5115513241
101291.9852210533
101307.049845234
101314.5814042739
101309.0370310147
101290.0626034916
101266.6989459056
101247.7463827186
101238.975465937
101244.9063298648
101262.0779814256
101277.2303997352
101287.1507842863
101286.9578676119
101281.8396780317
101278.0876425071
101282.4231456265
101290.2212096034
101308.5182404075
101322.2800249586
101333.0551499037
101331.0306453743
101327.891346637
101330.827776088
101343.0275851088
101357.6113826237
101376.4541918725
101391.4811590091
101395.7404652332
101394.0890560023
101384.0455646212
101373.917412022
101371.9103707434
101373.0113695847
101381.5595147925
101389.1463187156
101386.2789449731
101378.5625034406
101360.8479211346
101344.7067290016
101340.7081610282
101338.5706240115
101350.7554261637
101361.8353202057
101359.5614242962
101339.7643631441
101299.2253170767
101268.013037664
101241.5696177589
101238.570463286
101252.8315110311
101270.6000603812
101298.0788240192
101309.093420175
101303.1917227095
101287.0685003049
101258.6284435632
101231.7042207797
101222.8081530544
101233.9409681923
101259.3254559043
101295.5072680064
101324.7780720369
101342.5435146661
101344.4299849241
101327.4834787128
101296.9293588389
101279.0158389125
101277.6828731994
101294.9083366382
101335.2249992253
101390.533078586
101427.3862958882
101443.6044942594
101436.8558022991
101403.0631603497
101343.9599865689
101309.2816571512
101300.6039216615
101315.1236743222
101345.1212545231
101415.7056159772
101471.1461854778
101491.5691660522
101481.2197789483
101448.5100041075
101386.5537733172
101278.0753435077
101211.2725276129
101195.1309994982
101200.9602658113
101214.0069720308
101275.1652389545
101372.3856330065
101424.2077274763
101424.7516333921
101419.9862123974
101408.3521237394
101344.4982482458
101224.2954707946
101149.9325295807
101114.8998452624
101085.0260154988
101078.9809485398
101122.9514646981
101256.1914649775
101375.9032683118
101435.211586056
101466.6813178846
101483.7973567191
101481.4935116882
101385.8371808396
101222.3207734193
101116.9047622695
101077.4374412216
101069.3937572143
101085.0905203467
101099.4855832255
101203.9615402879
101391.1852979693
101519.6071063611
101578.8507987565
101625.606821769
101643.6769423692
101625.7736867949
101500.1346154169
101362.8063864047
101277.739445006
101211.4322331027
101191.5206238358
101224.9028048157
101327.7493351717
101425.8600652707
101489.6078909793
101504.3677017772
101475.4405328128
101417.0130478188
101359.8015335142
101332.4074269795
101339.9823231006
101368.0902998809
101388.8101965122
101373.7461674538
101287.2783027148
101193.0624249648
101109.321123529
101056.863626063
101050.2736474232
101126.1003499077
101242.3624336728
101350.0043460768
101424.5286762485
101445.0695138994
101404.095605194
101322.8091099926
101250.4496305369
101193.5696093115
101173.101850483
101187.7709734139
101225.3915389243
101259.2208714594
101299.1933388051
101312.2203616886
101311.6014228647
101289.3032319514
101302.7324900798
101357.9703743159
101448.2067489661
101498.6419331299
101541.5877925908
101554.4401366894
101530.9239390505
101433.1305199893
101346.5978749633
101291.3503868319
101262.7936921122
101275.5314008542
101331.673463926
101391.8527823112
101414.0076170564
101438.0258349374
101435.6429365561
101424.5916191626
101399.285318194
101386.393253554
101370.1154766873
101354.079549431
101338.1001506559
101321.9402395713
101268.7263541369
101199.1786991198
101162.4906370468
101150.2714457017
101142.3550124552
101173.7756968366
101244.1732320921
101296.3764900335
101308.2423463283
101325.7341620441
101306.0799653299
101278.7318099358
101272.235124402
101291.9850249407
101286.1103137511
101289.3508429589
101289.854805249
101303.530475797
101300.4906424415
101276.7285744551
101238.7975560734
101202.4076477561
101198.4126528152
101262.2271881333
101398.5959186664
101532.8981199749
101628.8918170582
101667.8799844756
101634.5417831832
101495.5692052047
101355.8606190027
101235.361144469
101163.2771126325
101156.6058747244
101247.5693930831
101358.6964251438
101458.4285038248
101515.2727086138
101515.0321407523
101471.7453084875
101411.5968027468
101365.9181983134
101332.5961356724
101329.7599008263
101347.2935325043
101361.4527712566
101342.3687708223
101253.8266117439
101161.965285425
101089.1113374714
101043.152316742
101049.2436426517
101168.6097697232
101306.6641231569
101410.9487365293
101467.9440506117
101449.9419936871
101348.676854126
101238.9313912926
101152.4926065511
101125.6584461186
101159.7350425488
101235.1291999147
101307.1074752634
101364.8514618698
101359.8521256035
101307.9309924757
101242.7752629488
101199.817865015
101208.590322615
101340.1689691957
101492.4417822516
101605.0093512848
101673.7213966541
101668.6375114581
101551.3767395417
101361.3585932396
101214.0109987827
101148.9358086212
101175.5923159831
101264.773305418
101416.6159403292
101521.3237512968
101543.2237735041
101515.6335781708
101459.3648226528
101400.7861179306
101346.6105488169
101332.0686273545
101315.1813952956
101297.2959373567
101287.9489349277
101260.8049067221
101206.9346503595
101150.8575375591
101133.2757432744
101135.8687766205
101147.1228536802
101212.892614993
101314.2790185604
101355.1626026116
101350.0312382349
101347.6213633135
101287.9524628095
101204.2911706422
101165.6399487886
101175.2285853847
101230.1606391482
101310.1827580327
101390.8928597653
101412.6586317769
101364.9423807729
101269.8791444432
101164.3329335319
101096.2053272883
101116.3585048302
101227.0775520219
101420.2776209774
101622.3034238033
101750.6313882003
101767.1978963574
101678.4165801777
101474.7717558999
101235.3182651052
101086.3404610447
101040.5625963736
101096.7776730839
101252.1605353455
101448.2756411997
101595.4133293794
101658.2917030197
101609.5465878006
101491.39200068
101358.2982993855
101246.5780279646
101192.7729287463
101208.1059227149
101277.9170259578
101341.161699821
101369.4789536963
101305.2683137185
101170.4477673766
101053.5347326501
100972.8269955172
100968.8336174719
101092.9766169181
101310.563180799
101478.1502901706
101532.4289331138
101484.2442295922
101397.7933265337
101212.7205278596
101098.3609334712
101082.8005271955
101154.7720291928
101208.2550924148
101278.4842629885
101290.1319925888
101240.7448318891
101222.5919069484
101190.3355515294
101222.5558871666
101339.0673877785
101482.5470014009
101661.2726574746
101741.1411489963
101718.8143800299
101603.99044753
101457.5098837568
101190.1770605462
101032.9743016374
100992.5606721934
101076.2078415417
101205.9771920453
101455.8704938891
101651.2171272868
101719.451210751
101662.0856889387
101519.2694413852
101345.8506720022
101157.2989255042
101087.0199645003
101127.1434764558
101227.5053257996
101317.3557132949
101372.3942571359
101326.1592778612
101217.0170829267
101062.6661068021
100965.7772860229
100965.816009852
101050.8885762258
101207.0440307978
101431.137173332
101542.0802270992
101544.4678494539
101449.220986128
101306.5206060866
101070.459935065
100934.792312191
100896.9693171644
100967.7765944456
101092.8162549877
101256.4693969664
101414.372052882
101501.6136921611
101502.6786075047
101437.0144248417
101372.0501136158
101313.4763794132
101326.3417644871
101400.1609687598
101467.5974230821
101519.1025235457
101508.1181733137
101390.1876423105
101216.1983015375
101146.4889663958
101150.8348879287
101164.3791072683
101312.2474365469
101515.4893759641
101622.5339809396
101648.801257142
101573.951017594
101426.6963357355
101244.900402395
101080.7611564951
100989.0115394705
101012.4138213101
101116.7371495755
101236.798375679
101324.5295071512
101339.6785693705
101266.1469093758
101160.315061403
101029.7518391405
100953.5077856048
100966.8096299023
101120.5340043954
101275.6598278759
101422.710026798
101492.4781983785
101489.6043591107
101349.2436301823
101175.3029077903
101011.6143453327
100907.9633054258
100891.9738060126
100986.6836850916
101120.4392625536
101296.8169370696
101399.5532058281
101487.4800677901
101517.0309374246
101492.5865436671
101472.4167541175
101426.9604618361
101374.2306167746
101330.4237286264
101329.8296668872
101272.1328061375
101203.0658583947
101163.7977908924
101191.1021480116
101165.8460443904
101216.0364595692
101356.3214449552
101503.1397777322
101610.5669724238
101638.9057796384
101548.2226026126
101368.5417893282
101165.5058142618
101002.6430565521
100929.646644691
100967.2916297288
101088.7514555838
101216.5197523052
101327.067311399
101344.2497549239
101278.9764839212
101171.232288879
101061.8232421073
100973.2612316156
100982.6570449619
101103.9875645136
101223.2054727365
101340.5978231316
101379.5854127573
101327.3170418062
101179.2878208417
101041.8755085785
100939.9123375926
100945.1848720257
101054.3556403446
101226.3623530694
101382.0420452304
101492.235494499
101485.400960966
101392.5105623024
101274.1105541927
101163.1406412893
101126.6166927053
101183.9506995946
101280.9964187182
101406.8396091067
101488.2729489944
101495.0206455175
101396.8761531509
101297.7016269086
101175.4573122742
101127.0860502575
101142.3787383871
101293.3484688144
101432.0796796684
101542.5078963268
101540.4588752118
101432.3108579443
101255.3661314572
101069.8057421705
100945.6040092112
100931.447152006
101030.9837262382
101174.7269274655
101315.3348243493
101368.5582585366
101316.1090159028
101188.7532113141
101022.4848352302
100889.8224325404
100852.9120347896
100944.4912528636
101094.1193209707
101286.5590469387
101403.3478938581
101442.3091666183
101360.8958642021
101214.7392747186
101047.7662720362
100930.6049771088
100890.5198004572
100950.5236854905
101074.4391490296
101217.0916506398
101337.4968563795
101417.1690750915
101435.1037051672
101389.1658832673
101378.3567665806
101332.0743471675
101289.1146567113
101256.4131753729
101290.0893959319
101255.8078710288
101235.2153947982
101226.1351411255
101242.696404102
101216.8432474695
101231.3008154759
101280.650328003
101373.2016804997
101426.773069768
101492.7114522949
101471.7583931039
101351.5400965165
101198.2203708176
101048.5148482063
100925.9743182628
100913.1611101248
100982.3488301585
101084.7639512654
101189.3693147274
101262.3005567357
101245.9461525128
101189.0046219853
101081.3912814234
101015.8599241622
100990.0885657005
101039.4596779552
101100.0971483688
101213.5919500605
101252.0239609391
101250.7016951209
101168.5880803156
101074.2205016277
100954.3658602519
100905.4545750079
100941.3241386221
101055.4238511336
101215.6450732862
101367.2946269041
101477.4965348048
101481.7882336518
101407.89824402
101320.9166242044
101204.46405225
101148.5163161239
101166.0959927444
101230.2208039621
101296.9820310015
101361.0471932022
101356.2034903704
101273.2689447309
101189.075765363
101095.0558567902
101067.1899350678
101127.0043224976
101279.0577203319
101417.9090648237
101532.9661615558
101538.4590302854
101423.4992980935
101223.091245316
101009.7560393279
100828.5902327333
100766.6403221984
100836.1716255137
100978.9571435769
101146.9102642531
101267.3154255758
101258.414070776
101182.1802453599
101062.1639014036
100966.7258016502
100931.456746769
100983.7750936332
101069.2631534641
101187.6349725495
101264.5332570653
101267.4199355714
101166.5477760964
101042.3931491199
100908.8814279245
100853.0909956883
100902.7444008501
101051.5259138843
101237.6064044275
101411.4621648867
101467.4367841816
101417.5921500613
101315.6062248196
101181.485679353
101081.7766017937
101080.1909094591
101135.7838397786
101206.2859536856
101293.4884865952
101332.9589168951
101306.2666154255
101251.3754629447
101187.2638499994
101140.5604127096
101148.2747167488
101219.7277454863
101288.0703557139
101355.4619895163
101365.1764605349
101301.5272784376
101188.022541617
101043.0083244525
100912.8333314656
100861.3513761916
100897.9802680264
101001.8041551223
101115.7837064073
101192.5374928061
101174.7826090733
101100.2515805199
100989.6910101892
100912.5754347427
100905.9832543897
100977.6185626417
101072.1089420876
101175.4203881058
101244.074852194
101234.070065202
101145.1033156765
100991.5623421046
100848.4996474787
100758.868718176
100779.0495873131
100909.5494017629
101102.4965171031
101340.6210499297
101534.8577258911
101554.2914946846
101479.5425145167
101360.6098963402
101180.2969937429
101033.1505110184
101023.2656527002
101068.5668585023
101163.2155164171
101231.1579820155
101270.8806162929
101243.7933490957
101191.4416039172
101102.1125374036
101055.565051524
101059.8733322387
101150.2462751623
101262.0862912597
101386.4990660536
101450.7720391497
101425.1394499869
101289.5450918797
101088.02375425
100853.8311300326
100680.4017093366
100646.1007944621
100710.0295428255
100829.5704947738
101017.6994517174
101185.8502247114
101226.8871159733
101203.8526760509
101183.1186508219
101121.3728945262
101030.4850583271
100981.9602395965
100979.8021777274
100983.7137540232
100987.6677903984
100980.3857296781
100964.6885811367
100933.2616818826
100915.8490883235
100945.466302357
101025.6311254434
101134.3413335727
101267.2899971586
101374.7942250542
101386.3477211689
101340.0347843447
101276.3764555828
101128.1866214445
101016.2206477866
100983.092975737
101010.5709184207
101022.2490781541
101107.061225129
101220.5944208597
101269.4551675478
101260.8892740379
101262.5681772954
101234.0467490765
101198.2251321356
101174.8172141517
101176.1135139241
101181.5457978362
101165.1961531206
101132.4430696745
101061.7459985532
100976.1538593304
100849.2795774383
100770.1979429835
100768.6932004033
100783.7077752321
100868.2247501719
101032.1437958811
101144.187354306
101161.6577412817
101169.6806713383
101125.3858066517
101000.6009784634
100872.9913531425
100834.5596024286
100830.6342254925
100853.6247995044
100896.9355453675
100966.1876278659
101068.8525903316
101176.1717487789
101207.0824374698
101204.3735249604
101167.0090745301
)
;

boundaryField
{
    inlet
    {
        type            uniformFixedValue;
        uniformValue    sine;
        uniformValueCoeffs
        {
            frequency       constant 3000;
            scale           constant 50;
            level           constant 101325;
        }
        value           uniform 101325;
    }
    outlet
    {
        type            waveTransmissive;
        gamma           1.4;
        fieldInf        101325;
        lInf            2.25;
        value           uniform 101158.295956637;
    }
    frontAndBack
    {
        type            empty;
    }
}


// ************************************************************************* //
