/*--------------------------------*- C++ -*----------------------------------*\
| =========                 |                                                 |
| \\      /  F ield         | OpenFOAM: The Open Source CFD Toolbox           |
|  \\    /   O peration     | Version:  v2012                                 |
|   \\  /    A nd           | Website:  www.openfoam.com                      |
|    \\/     M anipulation  |                                                 |
\*---------------------------------------------------------------------------*/
FoamFile
{
    version     2.0;
    format      ascii;
    class       volScalarField;
    location    "0.012";
    object      rho;
}
// * * * * * * * * * * * * * * * * * * * * * * * * * * * * * * * * * * * * * //

dimensions      [1 -3 0 0 0 0 0];


internalField   nonuniform List<scalar> 
1000
(
1.176331380929318
1.176207991072802
1.176139654539359
1.176155396793519
1.176185010956961
1.176225625749412
1.17621655361074
1.176132446453766
1.176059489647772
1.17593646943925
1.175881976159582
1.175938390402982
1.175960141101617
1.176059680342696
1.176108186480243
1.17608916888468
1.176073270067748
1.176048364048014
1.176094778883107
1.176211710024454
1.176291616404328
1.176419029994632
1.176474250101077
1.176483609771096
1.176439232066323
1.176418112827667
1.176483757440965
1.176624775722567
1.176689382013121
1.176833617465202
1.176895187434676
1.176854820342113
1.176821861702728
1.176763524257713
1.17674824591861
1.176794601573357
1.176818061251655
1.176868766160692
1.176883803812731
1.176815178670317
1.176729308750514
1.176629412941876
1.176570387534844
1.176538847267108
1.176537767358992
1.176479058074621
1.176334584957203
1.176199573002543
1.17615111533575
1.17615003162253
1.176222546325407
1.176319201729036
1.176377209139542
1.176306900896565
1.176093039693238
1.175858225450507
1.175733700172755
1.175721159961359
1.17583283777859
1.175997447241814
1.176178288820302
1.176211492511391
1.176157759690358
1.176098045025044
1.176077146828277
1.176099899581286
1.176176696570681
1.176267759202988
1.176397434854042
1.176462502858686
1.176479857435511
1.176520153682586
1.176588376747611
1.176666447008939
1.176692237507274
1.176737829025168
1.176774076064677
1.176799928089524
1.17681906758961
1.176855856977212
1.176865893313341
1.176831126373437
1.176807463757666
1.1767765452802
1.176781143972236
1.176809718011062
1.176840233974632
1.176816761514133
1.176673704528099
1.176463479453685
1.176362440619734
1.176327404982511
1.176389321185851
1.176499875816968
1.17657213058094
1.176523333787705
1.176320592880641
1.176004407506871
1.175776304259444
1.175711268772509
1.175778443719054
1.175945904040441
1.176107934213998
1.176215900754773
1.17620083923915
1.176117537904531
1.176006656986547
1.175962976706201
1.175949759074883
1.17596731356685
1.176042738561711
1.176072926430976
1.176154846455937
1.17628049967891
1.176389352325
1.176434245888635
1.17653350332413
1.176610229256059
1.176658688527455
1.176639207512559
1.176609818655106
1.17659507478443
1.176649186839584
1.176757205394919
1.176863817375118
1.176962401924063
1.176985380580988
1.176945004788922
1.176873709302692
1.176811757323882
1.176782815138758
1.176779482705342
1.176759020086019
1.1767146214563
1.176658203186966
1.176641765386988
1.176618885574081
1.176543665756382
1.176430311409173
1.176340657777299
1.176286071252949
1.176249904056228
1.176224308924487
1.17618446375049
1.176107661752229
1.176013135793348
1.175948639754976
1.175936608267042
1.175976404020585
1.176020785126211
1.176017145800399
1.175972304419627
1.175882935660814
1.175827895274669
1.175859678769769
1.175993827164341
1.176201272755078
1.176351729653175
1.176399254670385
1.176351539187422
1.176267193505321
1.176223396795342
1.176262464095934
1.176359439140254
1.176467213373762
1.176635508744809
1.176782112323232
1.176826226180402
1.17681744119004
1.176843457184426
1.17688379715299
1.176901717766426
1.176921179997433
1.17687208036738
1.176808835070902
1.176787221122354
1.176770119335275
1.176826529795254
1.176863631575596
1.176835221256482
1.176734000601677
1.176613806449387
1.176484084125432
1.176432430045744
1.176436212444902
1.17648268825874
1.176501268421793
1.176429313081248
1.176252405809617
1.176032389806795
1.175886777474828
1.175864732736462
1.175948130618024
1.176059234669683
1.176130084756533
1.176110284173963
1.175989566933541
1.175876777705217
1.175815087811188
1.175856880494261
1.176002132817959
1.176126645509389
1.17620837719808
1.176197649171855
1.176119388223567
1.176051192768668
1.176086313055658
1.176212090128452
1.176445402491597
1.176679912445729
1.176814997845635
1.176796154401515
1.176689305325404
1.176583898967668
1.176539452763491
1.176594165817323
1.176729644027851
1.176867122483918
1.176997474929986
1.177033201706121
1.177007394053175
1.176922633499518
1.176832990902797
1.17671256775222
1.176666425860551
1.176683270729866
1.176732008854183
1.17678648309837
1.176804055490268
1.17676323215082
1.176639604216525
1.176391905805404
1.176096995708965
1.175974039714945
1.176017979256113
1.176138006278831
1.176262928194449
1.176325380541458
1.176279404821898
1.176122060347252
1.175928305950395
1.175771121481601
1.175698376180462
1.175747564966436
1.175889979441578
1.176015640856394
1.176097907678539
1.176096306950265
1.176053862147988
1.176022746276156
1.176058699583489
1.176123366221227
1.176275093632383
1.176389207984161
1.1764785525656
1.176461764591743
1.176435733826447
1.17646008138554
1.176561236628154
1.176682154977916
1.176838378311085
1.176962960465616
1.176998271889815
1.176984581156144
1.176901316720319
1.176817348915926
1.176800709608798
1.176809837460197
1.176880707094451
1.176943605721311
1.176919834593101
1.176855861614247
1.176708992649172
1.176575163207061
1.176542010334119
1.176524286947268
1.176625315949389
1.176717181515256
1.176698327486164
1.176534182579861
1.176198030368266
1.175939192301697
1.175719885210301
1.175695011532364
1.175813288956737
1.175960650309973
1.176188529499404
1.176279867112147
1.176230928327593
1.176097225194283
1.175861368715085
1.17563806743623
1.175564281658085
1.175656617566451
1.175867148361963
1.176167203982877
1.176409923705154
1.176557227462081
1.176572868199445
1.176432352139691
1.176178994492459
1.176030441368432
1.176019385937608
1.176162231318703
1.176496539382025
1.176955099984308
1.177260612317543
1.177395051232506
1.177339109810253
1.177058975715291
1.176568973480868
1.176281428257082
1.176209470547088
1.176329872139063
1.176578600273561
1.177163791514543
1.177623348979455
1.177792621052822
1.177706843233362
1.17743572170837
1.176922111334284
1.176022655630821
1.175468615858327
1.175334729478563
1.175383082239239
1.175491294305158
1.175998512943084
1.176804667747329
1.177234293091775
1.177238804284396
1.177199300137529
1.177102849205081
1.176573428202831
1.175576643338079
1.174959810039624
1.174669167483349
1.174421295089487
1.174371133673847
1.174735942205951
1.175841194649341
1.176833884495228
1.177325557447677
1.177586414845917
1.177728283695234
1.177709186405462
1.1769162344834
1.175560358879873
1.174685908770211
1.174358449494948
1.174291708099536
1.17442195337514
1.174541384914029
1.175408066812484
1.176960707522497
1.178025212494586
1.178516148508882
1.178903531306339
1.17905322693236
1.17890488667213
1.177863820595586
1.176725487314068
1.176020119226953
1.175470164720054
1.175304994849836
1.17558187737911
1.176434797040756
1.177248209079844
1.177776595216826
1.177898927692952
1.177659177724216
1.17717486262787
1.176700545827592
1.176473406706351
1.176536215313745
1.176769263948112
1.1769410401097
1.176816135968111
1.176099181257896
1.175317786604884
1.174623071494868
1.174187782775337
1.174133093210799
1.174762265317798
1.175726702880096
1.176619333838068
1.177237158621532
1.177407433728163
1.177067781626039
1.176393851856577
1.175793795147414
1.175322008735356
1.175152225575282
1.175273907706106
1.175585952757274
1.175866515237584
1.176197986072485
1.176306008600911
1.176300876930469
1.17611596903554
1.176227326274349
1.17668532723679
1.177433437900852
1.177851481933976
1.17820737922322
1.17831386265526
1.17811896540456
1.177308453112731
1.176591083683612
1.176132964960818
1.175896132099976
1.176001760738207
1.176467304580789
1.176966283595749
1.177149960424936
1.177349059228136
1.177329306879388
1.177237700815014
1.177027915804283
1.176921027117922
1.17678606117406
1.176653102685908
1.17652061137874
1.176386615239261
1.175945331710738
1.175368518680858
1.175064205263822
1.174962852197215
1.174897166951136
1.175157806696199
1.175741717837704
1.17617467758086
1.176273080374882
1.176418105543577
1.176255122585052
1.176028333344268
1.175974464296694
1.176138253016237
1.176089539092621
1.176116414137465
1.176120593727404
1.176233998009296
1.176208787759047
1.176011734696066
1.175697158059204
1.175395320133957
1.175362172428967
1.175891438329642
1.177022183014767
1.17813537761708
1.178930763639187
1.179253738136162
1.178977534051338
1.177826008632968
1.176667928896244
1.175668665487499
1.175070700567087
1.175015362595159
1.175769908123721
1.176691439275151
1.177518194207912
1.177989287161664
1.177987291965433
1.177628546113995
1.177129966513119
1.176751264202584
1.176474978839828
1.176451471263263
1.176596866014824
1.176714256123288
1.17655601006786
1.175821793376836
1.175059859028948
1.174455418001872
1.174074029466308
1.174124566251491
1.175114959452006
1.176259999351203
1.177124637531428
1.177597073191846
1.177447857252151
1.176608370097971
1.175698295453867
1.174981285024775
1.174758665912153
1.175041362254717
1.175666742231949
1.176263651793673
1.176742422561531
1.176700969903076
1.17627047779097
1.17573014791243
1.175373834495452
1.175446589266437
1.176537809409018
1.177800147249617
1.178732958179781
1.179302186703977
1.179260068698647
1.178288518915917
1.176713502442901
1.175491613343248
1.174951814744359
1.175172964167492
1.175912672952709
1.177171706402108
1.178039586497234
1.178221063468125
1.177992401374294
1.177526033130683
1.17704046282877
1.176591307522074
1.176470720654823
1.176330682555817
1.176182369320196
1.176104865780007
1.175879758798979
1.175432951678274
1.174967784234691
1.174821948082838
1.174843473520614
1.174936821169412
1.175482363408071
1.176323189020158
1.176662216331835
1.17661968885
1.176599696960888
1.17610490907966
1.175411061411553
1.175090450669727
1.175169991572774
1.17562563727004
1.176289273783045
1.17695845757059
1.177138890823495
1.176743303857296
1.175955051414399
1.175079618093348
1.174514392477903
1.174681589943445
1.175600059318351
1.177202079064129
1.178876345486284
1.179939316738103
1.180076527762687
1.179341185086235
1.177653805539848
1.175668506602497
1.174432621342905
1.174052764443302
1.174519215916367
1.175808173804575
1.177434227258722
1.178653583801522
1.179174504073324
1.17877063346129
1.17779153448314
1.176688243033051
1.175761795542684
1.175315522961141
1.175442723810219
1.176021751568366
1.176546193408571
1.176780978040359
1.176248556493678
1.17513039964195
1.174160389143627
1.173490557087255
1.173457417791421
1.17448762457056
1.176292482185413
1.17768186601056
1.178131747631613
1.177732411968788
1.177015764246111
1.175481125546446
1.174532430826306
1.17440333720137
1.17500045302714
1.175444109314649
1.176026594673028
1.176123200115937
1.175713627086013
1.17556308372644
1.17529553125612
1.175562769479734
1.176528950236782
1.177718344835954
1.179199360230984
1.179860934346992
1.179675998837169
1.178724755838965
1.177510785780382
1.175294226755469
1.173989969391036
1.173654592640464
1.174348749594583
1.175425333387637
1.177497391432312
1.179116183132486
1.17968140122238
1.179206172691891
1.178022805585735
1.17658525352231
1.175021525818761
1.174438473800637
1.174771394685751
1.175603958341037
1.176349108933628
1.176805466560018
1.176422115268218
1.175516989030286
1.174236461647352
1.173432343134287
1.173432647570726
1.17413865873916
1.175434140927344
1.177292443365813
1.178211987098267
1.178231792925714
1.177442394953074
1.176259307157494
1.174301287186675
1.1731753318486
1.172861331184673
1.173449066329555
1.174486742672995
1.175844320282684
1.177153570717418
1.17787667552187
1.177885511055538
1.17734128316215
1.176802737860964
1.176317043784301
1.176423728521496
1.177035835230476
1.177594850721417
1.178021666179671
1.17793059547392
1.176952991579065
1.175510280466758
1.174932089611983
1.17496819105094
1.175080537805028
1.176306916235282
1.177991872634815
1.17887888627792
1.179096489098067
1.178476318123259
1.177255923862407
1.175748558046783
1.174386860838859
1.173625397491051
1.173819614122629
1.174685343909532
1.175681313982288
1.176408806317681
1.176534401927785
1.175924702042555
1.175046959429598
1.173963605636666
1.173330706308856
1.173441073629115
1.174716861922811
1.176003661768639
1.17722285159098
1.177801053408817
1.177777230578175
1.176613795222333
1.175171375924705
1.173813228818922
1.172952806285224
1.17282005108999
1.173606249914063
1.174716231323205
1.176179176968092
1.177030905740326
1.177759676383707
1.1780046023652
1.177802050605635
1.177634882255566
1.17725805753522
1.176820936756398
1.176457750752848
1.176452843288627
1.175974382443502
1.175401521580045
1.175075785398265
1.175302277534589
1.175092763882797
1.175509065978001
1.176672457802982
1.177889600655374
1.178779825279862
1.179014617242809
1.178263230745248
1.17677392327788
1.175090094348363
1.173738681930177
1.173132776700934
1.173445238147286
1.17445324787071
1.175513196528748
1.176429915215852
1.176572391257818
1.176031193106995
1.175137585933488
1.174229781724086
1.173494684178376
1.173572647153403
1.174579628765605
1.175568657290689
1.17654211662138
1.176865335297428
1.176431976085035
1.17520439646703
1.174064316354666
1.173217998548833
1.173261768927429
1.174167905948622
1.175594953117331
1.176885842360574
1.177799195181434
1.177742538440703
1.176972590964963
1.175990832880589
1.175070317549688
1.174767304763929
1.1752429744173
1.176047940588303
1.17709131666046
1.177766235949485
1.177822161237929
1.177008706550058
1.176186460189801
1.175172534185603
1.174771200737931
1.174898085284509
1.1761504075101
1.177300645478871
1.178215846458133
1.178198874574414
1.177302581987381
1.17583550797445
1.1742960975824
1.173265225718851
1.173147720197642
1.173973931773088
1.175166599480349
1.176332706791134
1.176773996778992
1.176339117579899
1.175282937456052
1.173903397075038
1.172802165113916
1.172495725887334
1.173256018641966
1.174497836314938
1.176094103864596
1.177062377548173
1.17738537100257
1.1767104774046
1.175498521776373
1.174113268919466
1.173140819569504
1.172808064000102
1.173306182549318
1.17433461425882
1.175518027059473
1.176516456926137
1.177176953576667
1.177325625936518
1.176944820313976
1.176855194454431
1.176471420766939
1.176115205154278
1.17584404088991
1.176123338549518
1.175839017204809
1.175668219629669
1.175592907775282
1.175730281141876
1.17551585724221
1.175635750672955
1.176045028332639
1.176812537153248
1.177256667287437
1.177803185386685
1.177629519326009
1.176633014814528
1.175361589702818
1.174119487213109
1.173102328490144
1.172995964784527
1.17357032661226
1.174420212605527
1.175287946878519
1.175892817902562
1.17575717287743
1.175284922633196
1.174392124244682
1.173848282595377
1.173634415871041
1.174044198419792
1.174547411604529
1.17548890446283
1.175807589568604
1.175796620888184
1.175115586537628
1.174332709013307
1.173338022712837
1.172931996578843
1.173229746957902
1.174176781609686
1.175506028307328
1.176763529541647
1.177677001176896
1.17771258870807
1.177100169003566
1.176378991694597
1.175413093818662
1.174949019253346
1.175094919513211
1.175626900015833
1.176180530591448
1.176711635056545
1.176671461232369
1.175983862492637
1.17528559288324
1.174505546394236
1.174274307122333
1.174770600336834
1.176031949367663
1.177183216211392
1.178136789516407
1.178182314595878
1.177229575671624
1.175567882989125
1.173797843085961
1.172293830743722
1.171779402589972
1.172356809407336
1.17354215172648
1.17493578529145
1.175934473046774
1.175860662279313
1.175228423533134
1.174232702152
1.173440591862897
1.173147840853439
1.173582138567315
1.174291637793063
1.17527367407689
1.175911409778468
1.175935345168936
1.17509872324067
1.174068627618169
1.172960462860785
1.172497292980992
1.172909517242783
1.174144411370084
1.175688128733678
1.177129696178156
1.177593707950574
1.177180548307317
1.176334967209009
1.175222540471846
1.174395323059277
1.174382171435104
1.174843455030303
1.175428275215998
1.176151427500578
1.176478777229573
1.176257514289363
1.17580235462739
1.17527054225691
1.174883029000641
1.174947025657407
1.175539818231746
1.176106628206656
1.176665412258703
1.176745972553215
1.176218263241067
1.175276949441321
1.174073771055472
1.172993242814079
1.172565832388866
1.172869960884541
1.173731768175797
1.174677532065109
1.175314252266218
1.175166966010586
1.174548671672438
1.17363119135316
1.172991048516128
1.172936340093434
1.173531036276098
1.174315237472937
1.175172326237416
1.175741731880997
1.175658729282092
1.174920779770807
1.173646740645801
1.172459090512985
1.171714767036984
1.171882381794739
1.172966041903715
1.174567382540914
1.176542353386159
1.17815235048751
1.178313417068058
1.177693974367065
1.176708036654686
1.175212573793096
1.17399167278382
1.173909665263557
1.174285640156332
1.175070926699507
1.175634468592077
1.17596391223396
1.175739279828621
1.175305091960636
1.174563999680573
1.174177711048161
1.174213448299987
1.174963320395868
1.175891019246338
1.176922626552845
1.177455427438296
1.177242960999898
1.176118811637209
1.174447177513812
1.172503258553286
1.171062903606489
1.170777970982225
1.171309037216364
1.172301778862614
1.173863365198731
1.175258506377779
1.175598922311338
1.175407867198288
1.17523585387498
1.174723570051932
1.173969424295614
1.173566736034287
1.173548844324566
1.17358129456921
1.173614090386216
1.173553632931159
1.173423332962355
1.173162462154544
1.173017911501128
1.17326377064114
1.173929156990954
1.174831194669552
1.175933934264275
1.176825328111582
1.176921127779185
1.176537162874298
1.176009261062114
1.174779930423964
1.17385091006265
1.173575988798154
1.173804045296373
1.173900938826499
1.174604649939437
1.17554650488231
1.175951782192762
1.175880760602106
1.175894657810391
1.175658065641511
1.175360940300417
1.17516676807527
1.175177511243184
1.175222553087332
1.175086921404098
1.174815248044234
1.174228702373332
1.173518372814216
1.172465109279675
1.171808459944435
1.171796038391157
1.171920897418038
1.172622895875007
1.173983727050524
1.174913761342306
1.175059116548403
1.175126120495107
1.174759111250416
1.173723987966706
1.172665048318041
1.172346739898524
1.172315133944081
1.172507952926859
1.172870143489609
1.173445194277316
1.17429200809898
1.175173717244546
1.175426064006161
1.175402518815537
1.175056243481777
)
;

boundaryField
{
    inlet
    {
        type            calculated;
        value           uniform 1.176411716172193;
    }
    outlet
    {
        type            calculated;
        value           uniform 1.174961781482287;
    }
    frontAndBack
    {
        type            empty;
    }
}


// ************************************************************************* //
