/*--------------------------------*- C++ -*----------------------------------*\
| =========                 |                                                 |
| \\      /  F ield         | OpenFOAM: The Open Source CFD Toolbox           |
|  \\    /   O peration     | Version:  v2012                                 |
|   \\  /    A nd           | Website:  www.openfoam.com                      |
|    \\/     M anipulation  |                                                 |
\*---------------------------------------------------------------------------*/
FoamFile
{
    version     2.0;
    format      ascii;
    class       volScalarField;
    location    "0.012";
    object      T;
}
// * * * * * * * * * * * * * * * * * * * * * * * * * * * * * * * * * * * * * //

dimensions      [0 0 0 1 0 0 0];


internalField   nonuniform List<scalar> 
1000
(
299.994473059204
299.9780898755814
299.9688853473841
299.9704124298279
299.9742526230923
299.9793118890798
299.9788489179154
299.9705300648812
299.9631447697341
299.9506301691416
299.9451399889697
299.9510199706089
299.9533621002139
299.9635881024973
299.9685886075023
299.9667081270708
299.9651430635837
299.9626465046299
299.9674186569099
299.9793866018076
299.9875767948789
300.0006079692903
300.0062640331675
300.0072355611299
300.0027232017404
300.0005815464551
300.0072878887703
300.0216841328759
300.0282810559885
300.0430020006839
300.0492864591955
300.0451699057337
300.0418090046007
300.03585731257
300.0342986915661
300.0390288904875
300.0414228232219
300.0465963650395
300.0481306327726
300.0411286236203
300.0323665089749
300.0221728203049
300.0161491691653
300.012930232421
300.0128200154928
300.0068287758998
299.9920843323163
299.9783043211982
299.9733582192958
299.9732475660458
299.980649005265
299.9905140302005
299.9964341426716
299.9892585791004
299.9674306992479
299.9434609691806
299.9307481882572
299.9294678117091
299.9408686053918
299.9576721830945
299.9761311957196
299.9795198364959
299.9740352160926
299.9679399506298
299.9658067075053
299.9681289326863
299.9759675060932
299.985261989453
299.9984967584899
300.0051370803134
300.0069081532782
300.0110205420596
300.017982642291
300.025949509692
300.0285816337711
300.0332341115666
300.0369327959165
300.039570784515
300.0415239086139
300.0452777482885
300.0463018157982
300.0427544160879
300.0403401092204
300.0371853328966
300.0376545464858
300.040569965995
300.0436835633125
300.0412885443912
300.0266911622664
300.0052381304459
299.9949261966055
299.991350305359
299.9976692693522
300.0089515780906
300.0163248371645
300.0113451879756
299.990654166365
299.9583817716843
299.935096192563
299.9284565147267
299.9353143700953
299.9524091731563
299.9689484016146
299.9799684319295
299.9784309737497
299.9699279401237
299.9586096537651
299.9541508998941
299.95280152766
299.9545931548814
299.9622919224201
299.9653733612463
299.9737351863995
299.9865598750329
299.9976690647853
300.0022503993937
300.0123795141072
300.0202088210945
300.0251535066287
300.0231654245669
300.020166115448
300.0186613222641
300.0241831092235
300.0352050967288
300.0460828195828
300.0561407946225
300.0584848936281
300.0543651961624
300.0470904695028
300.040768881425
300.0378154255047
300.0374752093862
300.035386930494
300.0308560324785
300.0250986553004
300.0234210303612
300.0210860002696
300.0134099092342
300.0018417179567
299.9926916749634
299.9871203224119
299.9834288002197
299.980816280827
299.9767492925577
299.9689100421761
299.9592613655114
299.952677759795
299.9514496340487
299.9555120290472
299.9600423516795
299.9596708703768
299.9550936471223
299.9459709609878
299.9403522616929
299.9435972470566
299.9572916837091
299.9784667046777
299.9938232963973
299.9986738618201
299.993804526045
299.9851967398693
299.9807270589727
299.9847151168498
299.9946133973328
300.0056134427385
300.0227889707744
300.037748783098
300.0422503239641
300.0413547135556
300.0440099470284
300.0481265487821
300.0499557739957
300.0519423118345
300.0469332937881
300.0404806738238
300.0382757725927
300.0365313592485
300.0422879659008
300.0460742308489
300.0431760242601
300.0328485414809
300.0205842551689
300.0073466832593
300.0020756812839
300.0024621747968
300.0072056319071
300.0091022024843
300.0017594521125
299.9837049255461
299.9612485521656
299.9463849967564
299.9441347250363
299.9526483284386
299.9639897919486
299.9712218680551
299.9692010307236
299.9568791312083
299.9453659221137
299.9390686568136
299.9433355188808
299.9581634239463
299.9708732135495
299.979215911001
299.9781213017469
299.9701335159947
299.963173016049
299.9667584603113
299.9795969994744
300.0034095394385
300.0273413339024
300.0411254787583
300.0392028250116
300.0283001056167
300.0175442755371
300.0130088203748
300.0185923316497
300.0324169837823
300.0464450746426
300.059745485651
300.0633906038133
300.0607575615304
300.0521100781508
300.0429644107803
300.0306773204856
300.0259689786996
300.0276881344677
300.0326619304731
300.0382208383639
300.0400140693184
300.0358489057079
300.0232341155828
299.9979570306909
299.9678578332419
299.9553067210247
299.9597921161416
299.9720438507795
299.9847946337769
299.9911689758945
299.9864768853303
299.9704170593208
299.9506394919702
299.9345940281392
299.9271677951945
299.9321898303966
299.9467282859916
299.959555853309
299.9679538072571
299.9677907442067
299.9634584493394
299.9602824636327
299.9639526533497
299.9705537073111
299.9860401738346
299.9976866109569
300.0068049247282
300.0050921504018
300.0024357537483
300.0049207545391
300.015243967746
300.0275831093125
300.0435239419611
300.0562347280037
300.0598372053173
300.0584404510649
300.0499451506834
300.0413774030812
300.0396793982414
300.0406108606716
300.0478419604826
300.05425932849
300.0518337799861
300.0453063819875
300.0303204851562
300.01666369322
300.013280103947
300.0114714118659
300.0217812642094
300.0311552533436
300.0292317569655
300.0124820843412
299.978175739869
299.9517549614794
299.9293660288608
299.9268262874145
299.9389012136488
299.9539441936801
299.9772037199849
299.986525961555
299.9815310803855
299.9678841883218
299.94380843728
299.9210110288681
299.9134777543198
299.922905464634
299.9443987960076
299.9750273478639
299.9998000240531
300.0148332378626
300.0164296385128
300.0020905370501
299.9762315895637
299.9610688074423
299.9599407366866
299.9745219300337
300.0086422448284
300.0554329492483
300.0866004121826
300.1003137659581
300.094607487739
300.0660312741116
300.016031392144
299.9866852115465
299.9793404915748
299.9916291637028
300.017014413609
300.0767205916674
300.1235960881955
300.1408592454662
300.1321114325705
300.1044592845529
300.0520666840294
299.960269157383
299.9037045517066
299.8900324622356
299.8949698439187
299.9060209875377
299.9578080213492
300.0400768982814
300.0839049634462
300.0843642872862
300.080334565078
300.0704972910732
300.0164889265137
299.9147307722437
299.8517371290405
299.8220503732456
299.7967311307796
299.7916073252832
299.8288807889735
299.9417357800987
300.043039104758
300.0931975524719
300.1198029863882
300.1342706313957
300.132323855991
300.0514442176886
299.9130344846178
299.8237222141574
299.7902673973422
299.7834476195129
299.7967543966379
299.8089583340224
299.8974889215039
300.0559335290719
300.1644990739723
300.2145528734418
300.2540448371755
300.2693054169479
300.254192644594
300.148045381892
300.0319118503675
299.959921253127
299.9037826126512
299.8869199731685
299.9151949079936
300.0022541882982
300.0852464543453
300.1391430641455
300.1516168851956
300.1271663248663
300.0777669204292
300.0293768689648
300.0061994875462
300.0126090055176
300.0363901528945
300.0539186833277
300.0411798150952
299.968006629707
299.8882252739758
299.8172738927406
299.7728118327489
299.7672255780762
299.8314986832532
299.9299755457384
300.0210832376457
300.0841241140757
300.1014916046646
300.06684153987
299.998068878157
299.9368180773269
299.8886510284566
299.871312945974
299.883739675675
299.9156032441549
299.9442505016878
299.9780923395839
299.9891182346674
299.988594243901
299.9697217692452
299.9810898421185
300.0278369011721
300.1041442923126
300.1467755163191
300.1830701661647
300.1939342275729
300.1740704221403
300.0914005434259
300.0182025562454
299.9714495926041
299.9472788540803
299.9580641189688
300.0055825730991
300.0564873005465
300.0752221544255
300.0955329190109
300.0935179821033
300.0841721348095
300.0627700783896
300.0518680449546
300.0381016640441
300.0245361758396
300.0110158434532
299.9973417552229
299.9523017682579
299.893406241517
299.8623219612095
299.8519654572598
299.8452603989007
299.8718860141882
299.9315096646831
299.9756953445785
299.9857366616729
300.0005443106135
299.9839133544544
299.9607652674059
299.9552635301417
299.9719803400482
299.9670068224097
299.9697492461607
299.970175726734
299.9817513237535
299.9791791777276
299.9590658840244
299.9269514747002
299.8961364899063
299.8927553742658
299.9467981145777
300.0621914657125
300.1757253405372
300.2568145480611
300.2897368769965
300.2615951083963
300.1441801914096
300.0260280058687
299.9240394118252
299.8629956772942
299.857342411752
299.934379239674
300.0284276376683
300.1127789908905
300.1608372723321
300.1606343513265
300.1240436089625
300.0731855127922
300.0345503128007
300.0063572796757
300.0039547814284
300.0187874883064
300.0307688031095
300.0146263533545
299.9396795741423
299.8618738377448
299.8001366096916
299.76117926416
299.7663470592842
299.8675079952021
299.9843994030755
300.0726263666121
300.120821521387
300.1056022732495
300.0199491192748
299.9270578149362
299.8538458028423
299.8311071364905
299.8599831413005
299.923842883464
299.9847807435958
300.0336471966031
300.0294184950098
299.9854784441426
299.9303197154437
299.893944020153
299.9013765092527
300.0127550742598
300.1415219016877
300.236629989855
300.2946529395005
300.2903622923758
300.1913355146234
300.0306822037251
299.9059515221951
299.850822827773
299.8734025042245
299.9489233437324
300.0773965023549
300.1659121450674
300.1844200662856
300.1611107668052
300.1135507075829
300.0640126160039
300.0181829984663
300.0058813873745
299.9915933989064
299.9764564320486
299.9685428861001
299.9455644100335
299.8999498736082
299.8524442160929
299.837540217441
299.8397342283311
299.849274796389
299.9049976036821
299.9908325055326
300.0254183730439
300.0210723221294
300.0190361075554
299.9685422903846
299.8977016620277
299.8649594687042
299.8730829740795
299.9196089184896
299.9873526128453
300.0556416959238
300.0740524400251
300.0336916071553
299.9532370236566
299.8638496424425
299.8061207070349
299.8232048194954
299.9169997632611
300.0804884039337
300.2512087796792
300.359535293284
300.3735088824512
300.2985896410462
300.1265574295538
299.9239529086944
299.7977382135596
299.7589257147321
299.8065867975533
299.9382184222182
300.1041468978833
300.2284913328637
300.2815925213359
300.2404408055551
300.14061220857
300.0280641241534
299.9335119157752
299.8879449240467
299.9009273593053
299.960030853498
300.0135561117696
300.0375136791499
299.9831844870909
299.869015818892
299.7699306673223
299.7014884109756
299.6980989603197
299.8033785002942
299.9876608392691
300.1293986273642
300.1752630969369
300.1345401828702
300.061452761713
299.9048035103046
299.8079087809099
299.794714917867
299.8557111825056
299.9010158846317
299.9604755684085
299.9703318566703
299.9285190509696
299.9131426574014
299.885822633208
299.9131161056769
300.0117529431619
300.1331055814664
300.2840679882494
300.351472983434
300.3326369934761
300.2357084138188
300.1119498967053
299.885685785602
299.7524458529683
299.7181648332607
299.7890966517745
299.8990564242376
300.1105143698196
300.2755467739827
300.3331418946112
300.2847346940869
300.1641139821234
300.0174772230218
299.8578239913787
299.7982594960519
299.8322614066328
299.9172724647376
299.9933323167085
300.0398987573251
300.0007804457916
299.9083846004847
299.7775961562651
299.6954310323622
299.6954682225244
299.7676288403721
299.8999705685565
300.0895839964435
300.1833519361867
300.1853641974731
300.1048616310359
299.9841509589308
299.7841645867468
299.6690938204871
299.6369976262924
299.6970944147648
299.8031280434444
299.9417617636845
300.0753801638662
300.1491434322976
300.150040983055
300.0945227922466
300.0395758805291
299.9900230763215
300.0009093441231
300.0633423972102
300.1203626850998
300.1639107769546
300.1546374984736
300.0549481845913
299.9076700766305
299.8486031586154
299.8522732536619
299.86375180977
299.9889669336604
300.1608191167369
300.25124285797
300.2734256224078
300.2102178781075
300.0857541673012
299.9319189368983
299.7928724469557
299.7150875210241
299.7349393492107
299.8233693958382
299.9250706519859
299.9993490274055
300.0121721622014
299.9499236338057
299.860274096301
299.749616541564
299.6849688397514
299.6962655449346
299.826582875212
299.9579596063114
300.0823902056824
300.1413986758155
300.138970706758
300.0202435941817
299.8729500073633
299.7341975415964
299.6462764848814
299.6327081850139
299.7130687048454
299.8264629115205
299.9758521296488
300.062800584569
300.1371618590853
300.1621335616806
300.1414649651585
300.1244147539562
300.0859917436357
300.0413896546937
300.0043188373976
300.003811459096
299.9549813549108
299.8965047159115
299.8632414602103
299.8863731357482
299.8649800601066
299.9075003844279
300.0262373298233
300.1503625761925
300.2411146633575
300.2650433347172
300.1884542950912
300.0365385308535
299.8646528083278
299.7266119493353
299.6646865350095
299.6966326310687
299.7996232701198
299.9078785734467
300.0014798218908
300.0160177080951
299.9607605086009
299.8695073429058
299.776801356605
299.7017232527531
299.7096995564256
299.8125467931225
299.9135386497406
300.012926352239
300.0459184700221
300.0016936619227
299.8763347977775
299.7598713148224
299.6733961654987
299.6778690495073
299.7704467592476
299.9161834432037
300.0479608068994
300.141154468566
300.1353805098877
300.0568259117436
299.9566431643058
299.8626888969759
299.8317433962235
299.8803106440174
299.9624713367417
300.068961607717
300.1378350848749
300.143538408279
300.0605378579772
299.9766144736006
299.8731120880053
299.8321406439898
299.8450963689381
299.9729181302529
300.0902817454113
300.1836329478402
300.1818995974102
300.0904720839345
299.9407415635895
299.7835490283646
299.6782304053594
299.6662151408624
299.7506348871354
299.8724616837874
299.9915314714836
300.0365685371436
299.9921889282323
299.8843466292744
299.7434285589302
299.6308884478586
299.5995507058838
299.6772786406823
299.8041606380137
299.9671715154605
300.066006616383
300.0989491360374
300.0300838237958
299.9063469001957
299.7648486975307
299.6654773939385
299.6314524810888
299.6823740608814
299.7874592261841
299.9083407151284
300.0102891700088
300.0776955708296
300.0928609325473
300.0540075760587
300.0448675678883
300.0057197896014
299.9693581295243
299.9416664934071
299.970170399358
299.9411549322523
299.9237213502329
299.9160320581723
299.9300521102241
299.9081582736226
299.9204068887772
299.9621891232923
300.0404858207091
300.0857916950915
300.1415451758699
300.123834282091
300.0221409734259
299.8923342450938
299.7654817915616
299.6615608324784
299.6506857994803
299.7093774202572
299.7962302311413
299.884894318658
299.9466635364496
299.9328192700069
299.8845851765415
299.7933976945885
299.7378444296952
299.7159808388842
299.757840733601
299.809233569516
299.9054009660341
299.9379628825579
299.9368439478683
299.8672836865126
299.7872970927309
299.6856473569402
299.6441428842454
299.6745866708821
299.7713495256309
299.9071156895125
300.0354971396451
300.1287048841426
300.1323284415332
300.0698374900339
299.9962551194786
299.8976954063461
299.8502926792876
299.8651708473425
299.9194650266589
299.9759957995661
300.0302365895594
300.0261422748886
299.9559283734459
299.8846249972662
299.8049699312036
299.7813530719905
299.8320515669138
299.960808215417
300.078288655745
300.1755667652805
300.180206631398
300.083011427122
299.913397747447
299.7326120845056
299.578884221513
299.5262591734938
299.5853153286569
299.7065064089857
299.8489089384062
299.9508924194531
299.9433536321599
299.8787763740693
299.7770662687483
299.6961397632532
299.6662128077398
299.7105939028093
299.7830781821951
299.8833962315232
299.9485345211675
299.9509795188868
299.8655393220071
299.760306248376
299.6470468720468
299.5996819090333
299.6418375370859
299.7680508057146
299.9257260276952
300.0728560378481
300.1201787931276
300.0780310395799
299.9917586214875
299.8782190100821
299.7937239219001
299.7923782563251
299.8394871332414
299.8992207824297
299.9730726377483
300.00646272697
299.9838560924995
299.9373772266738
299.8830954749774
299.8435482755074
299.8500852395863
299.9105919244586
299.968452967619
300.025489702179
300.0337040319703
299.9798323245537
299.8837091010284
299.7608180639071
299.6504078435874
299.6067068593326
299.6377951995356
299.7258879949951
299.8225361889624
299.8875714263779
299.8725331897187
299.8093698943939
299.7156244408808
299.6502025958607
299.6446032043152
299.7053722102529
299.7854943451271
299.8730557116601
299.9312146360273
299.9227492151028
299.8473817161261
299.7172072347171
299.5958040717983
299.5196798364099
299.5368212746785
299.6476051707661
299.8112511058692
300.0129347398684
300.17719427524
300.1936083634613
300.1304304412368
300.0298596800359
299.877239185396
299.7525337206884
299.7441448020655
299.7825440157075
299.862755390901
299.9203107885309
299.9539431502134
299.9310062122944
299.8866610146246
299.8109759279608
299.7715310942575
299.7751872388438
299.8517713563951
299.9464876665986
300.0517734256655
300.1061282065605
300.0844521472777
299.9697130321032
299.7990146821984
299.6003562497942
299.4530213512955
299.4238535303427
299.4781989833791
299.5797656043912
299.7394514331604
299.881977066284
299.9167256076204
299.8972172545145
299.8796615951
299.8273580785191
299.7503062728458
299.7091410776778
299.7073052764388
299.7106273935794
299.713987089999
299.7078143117584
299.6945006405034
299.66783682083
299.653060960086
299.6781932530437
299.7461863305147
299.8383395382347
299.9509545309113
300.0419381701038
300.0517076291625
300.0125226902
299.9586539223199
299.8331756818897
299.7382438666301
299.7101399712699
299.7334463701227
299.7433567318126
299.8152746531961
299.9114539116599
299.9528151240044
299.9455587734649
299.9469869248993
299.9228494388677
299.892514049328
299.8726862639666
299.8737869817118
299.8783939681222
299.8645446273748
299.8367815030518
299.7768477858122
299.7042589958759
299.5965830839239
299.5294064902093
299.5281088883241
299.5408215564041
299.612543294672
299.7515756835733
299.8464574668083
299.8611516948736
299.8678340933076
299.8301851155453
299.7243042873696
299.6159313714517
299.5830991453312
299.5795132418476
299.5985438078321
299.6346460252876
299.6933668766287
299.7817658702398
299.874927713186
299.9021451350213
299.900125301502
299.8777472118117
)
;

boundaryField
{
    inlet
    {
        type            fixedValue;
        value           uniform 300;
    }
    outlet
    {
        type            inletOutlet;
        inletValue      uniform 300;
        value           uniform 299.8760267538304;
    }
    frontAndBack
    {
        type            empty;
    }
}


// ************************************************************************* //
