/*--------------------------------*- C++ -*----------------------------------*\
| =========                 |                                                 |
| \\      /  F ield         | OpenFOAM: The Open Source CFD Toolbox           |
|  \\    /   O peration     | Version:  v2012                                 |
|   \\  /    A nd           | Website:  www.openfoam.com                      |
|    \\/     M anipulation  |                                                 |
\*---------------------------------------------------------------------------*/
FoamFile
{
    version     2.0;
    format      ascii;
    class       volVectorField;
    location    "0.012";
    object      U;
}
// * * * * * * * * * * * * * * * * * * * * * * * * * * * * * * * * * * * * * //

dimensions      [0 1 -1 0 0 0 0];


internalField   nonuniform List<vector> 
1000
(
(-0.0677464332918979 0 0)
(-0.04650695214267537 0 0)
(-0.01017932609267214 0 0)
(0.009037617905494335 0 0)
(-0.01236130680915401 0 0)
(-0.06667857692686764 0 0)
(-0.1280186649824088 0 0)
(-0.1677182461935543 0 0)
(-0.1745219049209091 0 0)
(-0.1415524864212111 0 0)
(-0.09776547639195787 0 0)
(-0.06484970926665928 0 0)
(-0.06588450019690352 0 0)
(-0.1003782242789595 0 0)
(-0.1396265642587192 0 0)
(-0.1636529804851283 0 0)
(-0.1462253065501189 0 0)
(-0.09485916157335371 0 0)
(-0.03980678155401129 0 0)
(0.0001424208894153943 0 0)
(0.005859646440222905 0 0)
(-0.02311200651400786 0 0)
(-0.05534454175095791 0 0)
(-0.0625241558861902 0 0)
(-0.03483111306398204 0 0)
(0.03202844949736241 0 0)
(0.1004824674191171 0 0)
(0.147328099248316 0 0)
(0.1482131226163608 0 0)
(0.1091193272145334 0 0)
(0.06920935281942769 0 0)
(0.04227860981170025 0 0)
(0.05783022548391344 0 0)
(0.1066911973231233 0 0)
(0.1588008745003771 0 0)
(0.1888308955696147 0 0)
(0.1751473949587761 0 0)
(0.1321458031737853 0 0)
(0.08641886996942924 0 0)
(0.05465109470662369 0 0)
(0.04426715032669169 0 0)
(0.06056752889997152 0 0)
(0.08607934983788433 0 0)
(0.09239170472819286 0 0)
(0.07144008930440864 0 0)
(0.02481895233283199 0 0)
(-0.03231959846624 0 0)
(-0.06482653231674351 0 0)
(-0.06462794752540039 0 0)
(-0.05141617887496424 0 0)
(-0.0511654355528351 0 0)
(-0.05707227907015865 0 0)
(-0.07180837153252874 0 0)
(-0.08693919469223513 0 0)
(-0.1149951668915259 0 0)
(-0.1466260421929486 0 0)
(-0.1642743013059857 0 0)
(-0.1568469464531235 0 0)
(-0.1588781053898375 0 0)
(-0.1274764104926096 0 0)
(-0.0794840710736882 0 0)
(-0.06205046097830844 0 0)
(-0.04893699564166728 0 0)
(-0.06555218723663533 0 0)
(-0.09249110649246134 0 0)
(-0.1161804740556673 0 0)
(-0.1119051582015498 0 0)
(-0.06831273636693336 0 0)
(-0.0004678329649700767 0 0)
(0.03819763783494673 0 0)
(0.04739766601581642 0 0)
(0.03847085595676916 0 0)
(0.02317740675750872 0 0)
(0.0220789007775348 0 0)
(0.05100630929433267 0 0)
(0.1098096599769448 0 0)
(0.1592427980432332 0 0)
(0.1816625376466737 0 0)
(0.1651238865443075 0 0)
(0.1245266445947084 0 0)
(0.08327063678921628 0 0)
(0.06171241765010362 0 0)
(0.07462506592649644 0 0)
(0.1075408951568929 0 0)
(0.1406442274286628 0 0)
(0.1536242937292685 0 0)
(0.1391686564301305 0 0)
(0.105068104450577 0 0)
(0.06208316985255952 0 0)
(0.02245368916949229 0 0)
(0.01380582557406601 0 0)
(0.01821029511238808 0 0)
(0.01650220819126124 0 0)
(0.004056577217580879 0 0)
(-0.01214961088189784 0 0)
(-0.03184252151058824 0 0)
(-0.05304811605023403 0 0)
(-0.09769362504402511 0 0)
(-0.1329178318828529 0 0)
(-0.1470200147161242 0 0)
(-0.1604408664730588 0 0)
(-0.1640307993938701 0 0)
(-0.1441373889460449 0 0)
(-0.10583402957755 0 0)
(-0.08262203266922793 0 0)
(-0.05723471651473855 0 0)
(-0.05779342115942713 0 0)
(-0.08775442443814553 0 0)
(-0.1279139046684585 0 0)
(-0.1661757916729296 0 0)
(-0.1740074747611511 0 0)
(-0.1397388598759793 0 0)
(-0.06888048320123069 0 0)
(0.005845177217864483 0 0)
(0.04689059339007546 0 0)
(0.04925857303804513 0 0)
(0.02438067159736456 0 0)
(0.003786053659732774 0 0)
(0.006120744513193496 0 0)
(0.02898840116143157 0 0)
(0.06967677391026306 0 0)
(0.1090121023178266 0 0)
(0.1356936214180306 0 0)
(0.1456425784057439 0 0)
(0.1407267698598847 0 0)
(0.1311789535628183 0 0)
(0.1244305598546638 0 0)
(0.1215475300885433 0 0)
(0.1155045466579858 0 0)
(0.1061373671322138 0 0)
(0.1000802436922475 0 0)
(0.101950628034487 0 0)
(0.1105154868946232 0 0)
(0.1226857125956128 0 0)
(0.1225472249897803 0 0)
(0.1054868542743283 0 0)
(0.06970671334343891 0 0)
(0.01981637458986997 0 0)
(-0.02867711372984328 0 0)
(-0.05323369166646848 0 0)
(-0.05915494622495443 0 0)
(-0.06094524859251579 0 0)
(-0.06439738834092873 0 0)
(-0.06937833090437139 0 0)
(-0.07359655146476972 0 0)
(-0.0803931023310317 0 0)
(-0.09079044683843918 0 0)
(-0.1050243812071298 0 0)
(-0.1288571151712094 0 0)
(-0.1534832486841787 0 0)
(-0.1699955427555881 0 0)
(-0.1702610136775984 0 0)
(-0.1538512896979629 0 0)
(-0.1320025211855596 0 0)
(-0.1080403390963881 0 0)
(-0.0945434873346172 0 0)
(-0.07291176973194734 0 0)
(-0.05444115473980453 0 0)
(-0.04514409949125417 0 0)
(-0.0362588508970059 0 0)
(-0.02968371745583129 0 0)
(-0.02737250818355147 0 0)
(-0.02717558049552283 0 0)
(-0.03229835457088761 0 0)
(-0.01043104635768323 0 0)
(0.05503861823529659 0 0)
(0.1278151570572862 0 0)
(0.1594003890407138 0 0)
(0.163666551203468 0 0)
(0.1433308412259008 0 0)
(0.1081506315900831 0 0)
(0.08481821819464068 0 0)
(0.08921823962077965 0 0)
(0.1135693512597223 0 0)
(0.1533617144964353 0 0)
(0.1777477747698644 0 0)
(0.1703859595199748 0 0)
(0.1413476830835493 0 0)
(0.1006741486925762 0 0)
(0.06090914824369495 0 0)
(0.04620396426375187 0 0)
(0.04693843786467986 0 0)
(0.0542902654325219 0 0)
(0.05601841165278716 0 0)
(0.04229471065135668 0 0)
(0.01396543704245502 0 0)
(-0.01532138795603927 0 0)
(-0.03475096266971851 0 0)
(-0.05430051376314242 0 0)
(-0.08403764961655241 0 0)
(-0.1111418021081454 0 0)
(-0.1209674438433503 0 0)
(-0.1420259808225642 0 0)
(-0.1536228744389681 0 0)
(-0.1456667557521186 0 0)
(-0.1399182651522109 0 0)
(-0.1111775198077242 0 0)
(-0.09221726030557886 0 0)
(-0.09630949135681212 0 0)
(-0.1031692698966652 0 0)
(-0.1307698494783998 0 0)
(-0.1508190748872853 0 0)
(-0.1447542842791449 0 0)
(-0.1251896145399392 0 0)
(-0.08295318523369685 0 0)
(-0.04887934566776152 0 0)
(-0.01667857659823358 0 0)
(-0.01251393026129316 0 0)
(0.001328833501032903 0 0)
(0.03067730188534712 0 0)
(0.06285251665068023 0 0)
(0.07464504395747289 0 0)
(0.0952920835554707 0 0)
(0.09866052637423466 0 0)
(0.08860831548945702 0 0)
(0.07545371527694701 0 0)
(0.07104476615398225 0 0)
(0.0902228011141344 0 0)
(0.1353204343534661 0 0)
(0.171407789791504 0 0)
(0.1986127635434437 0 0)
(0.1957930874351802 0 0)
(0.1587849269705492 0 0)
(0.1007029954726314 0 0)
(0.06626520247951823 0 0)
(0.04956894294440881 0 0)
(0.05577159368790372 0 0)
(0.0766826824052684 0 0)
(0.08677009319804589 0 0)
(0.09426177487566229 0 0)
(0.08998604015464179 0 0)
(0.04802586334731018 0 0)
(-0.02749496758241311 0 0)
(-0.07703761524830872 0 0)
(-0.1054681322158755 0 0)
(-0.1294018188826163 0 0)
(-0.1325241668555934 0 0)
(-0.1145074055451781 0 0)
(-0.09510944938643419 0 0)
(-0.06720385975806294 0 0)
(-0.05853186639219066 0 0)
(-0.07876660984172555 0 0)
(-0.1190357555438937 0 0)
(-0.1577961422751227 0 0)
(-0.1969900654440157 0 0)
(-0.2109042493079595 0 0)
(-0.1899942244745613 0 0)
(-0.1478357597393007 0 0)
(-0.09135362314440169 0 0)
(-0.04417813977015125 0 0)
(-0.02202645176077037 0 0)
(-0.02745284204469261 0 0)
(-0.05571645188688481 0 0)
(-0.07760591991987867 0 0)
(-0.07090538669976963 0 0)
(-0.03747552852573926 0 0)
(0.02367642110833474 0 0)
(0.08786770821782583 0 0)
(0.1300042863469849 0 0)
(0.1427631528449553 0 0)
(0.1184132182460047 0 0)
(0.08669209731778514 0 0)
(0.07794946035021402 0 0)
(0.09831240785805694 0 0)
(0.1480330149876927 0 0)
(0.1958361678628434 0 0)
(0.2157474503296922 0 0)
(0.1924899422422612 0 0)
(0.1376658934215875 0 0)
(0.08209708992255894 0 0)
(0.04556691833479763 0 0)
(0.04159449243239553 0 0)
(0.07379352461045123 0 0)
(0.1258136922857297 0 0)
(0.1548848917333327 0 0)
(0.1423307637727868 0 0)
(0.09449288870004473 0 0)
(0.03464425932803864 0 0)
(-0.03828379518294057 0 0)
(-0.08722662932198769 0 0)
(-0.1300205114221336 0 0)
(-0.1319440667907856 0 0)
(-0.1099239365077493 0 0)
(-0.07873808441679797 0 0)
(-0.06497226650175619 0 0)
(-0.07576119310682765 0 0)
(-0.1239428311216896 0 0)
(-0.1602990027011595 0 0)
(-0.1897735813733311 0 0)
(-0.1870907666391693 0 0)
(-0.158677600472121 0 0)
(-0.1171461170099808 0 0)
(-0.09401014534580933 0 0)
(-0.08449911794953072 0 0)
(-0.1091774809738937 0 0)
(-0.1490880619809109 0 0)
(-0.166197511264387 0 0)
(-0.1481936419184269 0 0)
(-0.1135639886795146 0 0)
(-0.04188095194046825 0 0)
(0.04983758139382737 0 0)
(0.1005356407710153 0 0)
(0.1284654957444283 0 0)
(0.1225635670723351 0 0)
(0.08171997479744045 0 0)
(0.01268425962027661 0 0)
(-0.01129852670956752 0 0)
(0.002597661216973042 0 0)
(0.006446696697470409 0 0)
(0.06303170443588761 0 0)
(0.1883491035664977 0 0)
(0.2741372578752322 0 0)
(0.3228725983124827 0 0)
(0.3439662065679748 0 0)
(0.3071532666146602 0 0)
(0.1661816816622392 0 0)
(0.03148556615470831 0 0)
(-0.06059059504062719 0 0)
(-0.1333333297733322 0 0)
(-0.1413274146978553 0 0)
(-0.08098404216409055 0 0)
(0.09140689297050768 0 0)
(0.2261359882207313 0 0)
(0.3115449382145665 0 0)
(0.3508835955675036 0 0)
(0.3038517528883837 0 0)
(0.09889043346478629 0 0)
(-0.2085349579578019 0 0)
(-0.4245089727356142 0 0)
(-0.5512705638429096 0 0)
(-0.5878899628796407 0 0)
(-0.5347906089059749 0 0)
(-0.313710471512363 0 0)
(0.04939176279607489 0 0)
(0.2695481031468883 0 0)
(0.3418679005129112 0 0)
(0.3172648493190863 0 0)
(0.2588690450378258 0 0)
(0.1097027461556606 0 0)
(-0.2106877526622594 0 0)
(-0.451965303805573 0 0)
(-0.5363323092130601 0 0)
(-0.5454478967058161 0 0)
(-0.4990424150475828 0 0)
(-0.4343595376506842 0 0)
(-0.1651767879652022 0 0)
(0.2363485238070343 0 0)
(0.5062874650103368 0 0)
(0.6407387097641442 0 0)
(0.7088114758482064 0 0)
(0.7496843780103822 0 0)
(0.7346880462982972 0 0)
(0.4705536426296473 0 0)
(-0.015374686230651 0 0)
(-0.3443239684873612 0 0)
(-0.4720446875947493 0 0)
(-0.4683990564651415 0 0)
(-0.3865380836136955 0 0)
(-0.2774819292779068 0 0)
(0.05821985586846353 0 0)
(0.3684342793179614 0 0)
(0.5012372677888489 0 0)
(0.4700068701338045 0 0)
(0.3789429673940373 0 0)
(0.2471858629564913 0 0)
(0.04177907057925936 0 0)
(-0.09070834425314354 0 0)
(-0.1105983879286703 0 0)
(-0.1278598797730648 0 0)
(-0.1243990241503217 0 0)
(-0.1624058545462563 0 0)
(-0.2367465813922708 0 0)
(-0.3055258724176764 0 0)
(-0.3383139184840167 0 0)
(-0.3356952955087767 0 0)
(-0.2496079392331994 0 0)
(-0.1496273603884354 0 0)
(0.07027330060435261 0 0)
(0.2260199334020534 0 0)
(0.2586510997268523 0 0)
(0.1653729188982481 0 0)
(0.07946147773135762 0 0)
(-0.1317901099563293 0 0)
(-0.3380564091450259 0 0)
(-0.40749698105965 0 0)
(-0.328141379425098 0 0)
(-0.2403634943508447 0 0)
(-0.1149605641223876 0 0)
(0.01029037057615282 0 0)
(0.06434429799323849 0 0)
(0.02772912494465353 0 0)
(-0.03184618179147802 0 0)
(-0.0759489011840906 0 0)
(-0.06357972114910675 0 0)
(0.05335215640573401 0 0)
(0.2705400164004915 0 0)
(0.4340992668820444 0 0)
(0.5454866863402331 0 0)
(0.5317857407629597 0 0)
(0.4054009117155893 0 0)
(0.1216650406372645 0 0)
(-0.2357604349973517 0 0)
(-0.4220560127317439 0 0)
(-0.4477417086498026 0 0)
(-0.3293020783792098 0 0)
(-0.1225635692141384 0 0)
(0.2637102153170122 0 0)
(0.5047714924556078 0 0)
(0.5638907807766861 0 0)
(0.4952974878665386 0 0)
(0.3664824717414751 0 0)
(0.1020564746476246 0 0)
(-0.1516234130804791 0 0)
(-0.2557210012562025 0 0)
(-0.2233837687842296 0 0)
(-0.1522528277659879 0 0)
(-0.05873248450396477 0 0)
(-0.03661769742498956 0 0)
(-0.1060002157516117 0 0)
(-0.2523271567629329 0 0)
(-0.3887398176227008 0 0)
(-0.4570122884430397 0 0)
(-0.4076350312570014 0 0)
(-0.1980621375184118 0 0)
(0.1053220419130798 0 0)
(0.3265282989907494 0 0)
(0.4161692094324153 0 0)
(0.3407826652042765 0 0)
(0.1329164350061627 0 0)
(-0.2195104517990013 0 0)
(-0.5085146109474522 0 0)
(-0.6372929828460138 0 0)
(-0.5701798271257943 0 0)
(-0.3843978754355933 0 0)
(-0.1110161587142999 0 0)
(0.1457610546218472 0 0)
(0.2720816216860458 0 0)
(0.2517797937923238 0 0)
(0.1641497606497407 0 0)
(0.07515204340148024 0 0)
(0.06588510908972664 0 0)
(0.1303388584710305 0 0)
(0.2521415757766874 0 0)
(0.34576003268623 0 0)
(0.3401252596751553 0 0)
(0.2971241406403239 0 0)
(0.1298869467672496 0 0)
(-0.1315402301780667 0 0)
(-0.2944609349999644 0 0)
(-0.2946254231134192 0 0)
(-0.1748526273481786 0 0)
(-0.0298588779032954 0 0)
(0.2541481947984658 0 0)
(0.4545709801002478 0 0)
(0.4780788853222575 0 0)
(0.3166875778239263 0 0)
(0.20985124625879 0 0)
(-0.0306448919681378 0 0)
(-0.1854833656269091 0 0)
(-0.1971908712224198 0 0)
(-0.05792605219839771 0 0)
(0.01217074662928278 0 0)
(0.1113109111007874 0 0)
(0.08872196161677955 0 0)
(-0.06225204244127228 0 0)
(-0.2955225394554604 0 0)
(-0.4624565142131454 0 0)
(-0.540017196667141 0 0)
(-0.4466884902566123 0 0)
(-0.2700713342740552 0 0)
(0.075321846244914 0 0)
(0.3084531588826616 0 0)
(0.3603814588797635 0 0)
(0.2425837984759911 0 0)
(0.1527945013424682 0 0)
(-0.1529888922516637 0 0)
(-0.3990585100332788 0 0)
(-0.4546471745924452 0 0)
(-0.3494737806972985 0 0)
(-0.2802494513246494 0 0)
(-0.1084056039785209 0 0)
(0.01155056263862959 0 0)
(0.01192715139440902 0 0)
(-0.008561175966439755 0 0)
(-0.04115014747402405 0 0)
(-0.04458149731416493 0 0)
(0.04806944232309969 0 0)
(0.2330289276951039 0 0)
(0.347361111276587 0 0)
(0.498024071500595 0 0)
(0.5216708205927295 0 0)
(0.4037197443166614 0 0)
(0.3059652359557884 0 0)
(-0.0243601576636891 0 0)
(-0.2938916809674024 0 0)
(-0.363000994365315 0 0)
(-0.2590850621865803 0 0)
(-0.2322892443990279 0 0)
(-0.01091403526535131 0 0)
(0.2915703437705448 0 0)
(0.4348403511697671 0 0)
(0.4284194503501034 0 0)
(0.4536493764558024 0 0)
(0.352317741376232 0 0)
(0.1331240643911384 0 0)
(-0.0165896604292198 0 0)
(-0.1034533588138089 0 0)
(-0.126827801761028 0 0)
(-0.06059125677786349 0 0)
(-0.006281476672961007 0 0)
(-0.04729836562619018 0 0)
(-0.1828921920492717 0 0)
(-0.4023076118568492 0 0)
(-0.5903038218393655 0 0)
(-0.66168248117442 0 0)
(-0.5355721438855841 0 0)
(-0.205190755547044 0 0)
(0.2310179431733691 0 0)
(0.5273122750502641 0 0)
(0.6262061115321668 0 0)
(0.5215438516654457 0 0)
(0.193854633646303 0 0)
(-0.2727193916504234 0 0)
(-0.5987854545227832 0 0)
(-0.7255469685886038 0 0)
(-0.6530881324810567 0 0)
(-0.40328200671652 0 0)
(-0.07568641572347176 0 0)
(0.1457772881162024 0 0)
(0.2743328793620357 0 0)
(0.2765755080016002 0 0)
(0.2443510102372513 0 0)
(0.2008016697831662 0 0)
(0.1775492589646737 0 0)
(0.2015601601481904 0 0)
(0.2523047559178355 0 0)
(0.3026016515495519 0 0)
(0.2744447194370456 0 0)
(0.2983785881700451 0 0)
(0.1699614825430377 0 0)
(-0.0498471535051021 0 0)
(-0.2173140258829188 0 0)
(-0.2075444989432152 0 0)
(-0.2191187163649967 0 0)
(-0.09979925133606053 0 0)
(0.1242156461387088 0 0)
(0.3546382658472831 0 0)
(0.4213889546097861 0 0)
(0.4220862576683502 0 0)
(0.3815847023765261 0 0)
(0.2094708645563499 0 0)
(-0.01286826450692049 0 0)
(-0.08497018784001993 0 0)
(-0.04818314173219301 0 0)
(-0.02120704297580626 0 0)
(0.02476323435170798 0 0)
(-0.02787516399553272 0 0)
(-0.1892907222099904 0 0)
(-0.3713117908279407 0 0)
(-0.4782267207170271 0 0)
(-0.5184823653080287 0 0)
(-0.4027966067658493 0 0)
(-0.2023452861915866 0 0)
(0.08207415687746078 0 0)
(0.3883419864487713 0 0)
(0.4913835838358246 0 0)
(0.3785104800321102 0 0)
(0.3415384077307828 0 0)
(0.07086631679231781 0 0)
(-0.3187618489927112 0 0)
(-0.5309192950829436 0 0)
(-0.6135625796048882 0 0)
(-0.6789708244385281 0 0)
(-0.5801971808998172 0 0)
(-0.1585524664383083 0 0)
(0.199296324814279 0 0)
(0.4660872097323724 0 0)
(0.6076567108796818 0 0)
(0.5873784972157845 0 0)
(0.4082440640477878 0 0)
(0.2073851919939042 0 0)
(0.05971682682135866 0 0)
(0.05434763397197888 0 0)
(0.1721190984767619 0 0)
(0.2915356964595441 0 0)
(0.3758865423423947 0 0)
(0.2901848998577082 0 0)
(0.01574310195446786 0 0)
(-0.194824808783138 0 0)
(-0.4511971837635845 0 0)
(-0.5398618174528189 0 0)
(-0.4327862143515705 0 0)
(0.05026870165405215 0 0)
(0.4644651275493631 0 0)
(0.7759076260222056 0 0)
(0.9446716162021476 0 0)
(0.9134076105630272 0 0)
(0.5639838088082104 0 0)
(0.1275562631229449 0 0)
(-0.1913857310105973 0 0)
(-0.4354782823131407 0 0)
(-0.4810121039184601 0 0)
(-0.4298829721572849 0 0)
(-0.309888690545108 0 0)
(-0.2103091862494033 0 0)
(-0.08775794357583135 0 0)
(-0.0528277552741711 0 0)
(-0.04003828475136342 0 0)
(-0.04733114272309119 0 0)
(-0.05607446444512812 0 0)
(0.01266866434362867 0 0)
(0.148691682978261 0 0)
(0.2395932102721355 0 0)
(0.3793625325391227 0 0)
(0.3812980238295549 0 0)
(0.2313357925735804 0 0)
(-0.1468122785393617 0 0)
(-0.4083228622928975 0 0)
(-0.6402759082581581 0 0)
(-0.6998866299241364 0 0)
(-0.5985104261945443 0 0)
(-0.2180560910620769 0 0)
(0.1248902893338826 0 0)
(0.401887813513608 0 0)
(0.5602838979350672 0 0)
(0.5581914192987968 0 0)
(0.5189256565522986 0 0)
(0.52613360589108 0 0)
(0.6221923122515471 0 0)
(0.5829744203587209 0 0)
(0.5833305977959371 0 0)
(0.4313071038660343 0 0)
(0.06693284999587507 0 0)
(-0.2718797489108679 0 0)
(-0.6247894870728888 0 0)
(-0.7432967999885505 0 0)
(-0.6239406953170917 0 0)
(-0.3808226906983495 0 0)
(0.1499923583714953 0 0)
(0.7724149147964388 0 0)
(1.095242657484436 0 0)
(1.216585101265464 0 0)
(1.152252867468835 0 0)
(0.7296853127804135 0 0)
(0.1612373266613509 0 0)
(-0.2112187561748235 0 0)
(-0.3750733171941675 0 0)
(-0.3939217840946798 0 0)
(-0.2741998452088841 0 0)
(-0.120234004031042 0 0)
(-0.09605564207614081 0 0)
(-0.2243265530543318 0 0)
(-0.261433945195529 0 0)
(-0.348123556473488 0 0)
(-0.2907191034608984 0 0)
(-0.02993771885640575 0 0)
(0.2552548249073747 0 0)
(0.6176746921893679 0 0)
(0.7965417948718531 0 0)
(0.7191872004855303 0 0)
(0.3823523999078842 0 0)
(0.07580456928995022 0 0)
(-0.4739491583281508 0 0)
(-0.7812569752311284 0 0)
(-0.8145210273434581 0 0)
(-0.5407444454782873 0 0)
(-0.1863608161828142 0 0)
(0.3997865634344828 0 0)
(0.7767284853846258 0 0)
(0.8611568380679504 0 0)
(0.6563152868873576 0 0)
(0.4041753168097236 0 0)
(0.03320724507717109 0 0)
(-0.1750995005419884 0 0)
(-0.1381020164983308 0 0)
(0.1115480727805467 0 0)
(0.5125681991451124 0 0)
(0.7678106928632463 0 0)
(0.891716136464637 0 0)
(0.7241161612294447 0 0)
(0.3060385511482199 0 0)
(-0.1650646525527561 0 0)
(-0.474464976896273 0 0)
(-0.5181165172677997 0 0)
(-0.2579209219710203 0 0)
(0.2479551048503514 0 0)
(0.7959915701268722 0 0)
(1.099378522227346 0 0)
(1.074381958043395 0 0)
(0.8313623065742429 0 0)
(0.3071352882340715 0 0)
(-0.1177554129329894 0 0)
(-0.2248103569274944 0 0)
(-0.2072994397150855 0 0)
(-0.06576917804693513 0 0)
(0.07529584205546995 0 0)
(0.1209056934050004 0 0)
(0.006306419058640238 0 0)
(-0.1882882727698729 0 0)
(-0.323466510092067 0 0)
(-0.4082144044272141 0 0)
(-0.270856006607454 0 0)
(0.09258009056167046 0 0)
(0.3883810023023017 0 0)
(0.7297814365114564 0 0)
(0.8460364746280712 0 0)
(0.7222188425696815 0 0)
(0.3245705263709878 0 0)
(-0.01309299724573455 0 0)
(-0.5026133078302253 0 0)
(-0.6870768975656559 0 0)
(-0.574164324535444 0 0)
(-0.2723595735539835 0 0)
(0.08595444639808955 0 0)
(0.4796300012578358 0 0)
(0.6210476138366036 0 0)
(0.5064314473458092 0 0)
(0.4895260792627842 0 0)
(0.3038905001387512 0 0)
(0.2542508256031099 0 0)
(0.3820800494304584 0 0)
(0.634051027528506 0 0)
(0.7289892410563306 0 0)
(0.8747654962099303 0 0)
(0.7770756640779204 0 0)
(0.4200051041007812 0 0)
(0.02642016882043647 0 0)
(-0.3749279385273061 0 0)
(-0.5713905643069805 0 0)
(-0.4747189516893528 0 0)
(-0.07926421877424895 0 0)
(0.3593590794446288 0 0)
(0.9125677482518443 0 0)
(1.181828664646137 0 0)
(1.169267163085054 0 0)
(0.8971522922493945 0 0)
(0.5988234839933549 0 0)
(0.06359666202669803 0 0)
(-0.2055151504107133 0 0)
(-0.1737447761750876 0 0)
(-0.1832110480768495 0 0)
(-0.00840875453868457 0 0)
(0.07346888802283552 0 0)
(0.02479283280829055 0 0)
(-0.1268087396921634 0 0)
(-0.1386931433616283 0 0)
(-0.2568788546816885 0 0)
(-0.1723549075954942 0 0)
(0.1049113962232828 0 0)
(0.3870382551967621 0 0)
(0.6565889212847631 0 0)
(0.8178165075304653 0 0)
(0.7435839189812787 0 0)
(0.4427131287389083 0 0)
(0.1398511496467514 0 0)
(-0.2414884991946948 0 0)
(-0.4967781683884002 0 0)
(-0.5102156076122214 0 0)
(-0.2554312335777013 0 0)
(0.07671253486431641 0 0)
(0.4735402267307444 0 0)
(0.7501230165196784 0 0)
(0.8027356211647237 0 0)
(0.6241836098565292 0 0)
(0.388795345534146 0 0)
(0.1304423437365128 0 0)
(0.001643031216484004 0 0)
(0.1031271033185035 0 0)
(0.4242361310571794 0 0)
(0.8308837075499871 0 0)
(1.058576776714252 0 0)
(1.131050293884092 0 0)
(0.8688312843357383 0 0)
(0.3275197286464664 0 0)
(-0.1920860893639445 0 0)
(-0.5205000767037836 0 0)
(-0.5429479883445804 0 0)
(-0.2592663230066253 0 0)
(0.2598840519457215 0 0)
(0.8265201262131892 0 0)
(1.184810579837651 0 0)
(1.239840475690725 0 0)
(1.011506937843879 0 0)
(0.5878736455871146 0 0)
(0.06911318693104866 0 0)
(-0.1679288274423903 0 0)
(-0.09707079819852583 0 0)
(-0.02648899238678396 0 0)
(0.1955705556712266 0 0)
(0.2857331042547694 0 0)
(0.1719612310306104 0 0)
(-0.1110373717796916 0 0)
(-0.2574018990462888 0 0)
(-0.4447000580229054 0 0)
(-0.3678014792969796 0 0)
(-0.006774597164153872 0 0)
(0.5086981099526753 0 0)
(0.9182761170391539 0 0)
(1.163039469143358 0 0)
(1.10021808589159 0 0)
(0.7051428750592296 0 0)
(0.1845926343314311 0 0)
(-0.3419194992511553 0 0)
(-0.612037141446223 0 0)
(-0.5897315498591428 0 0)
(-0.303846558667328 0 0)
(0.06010808113348972 0 0)
(0.5329248391654975 0 0)
(0.7534327940515655 0 0)
(0.7233682981119894 0 0)
(0.540322838378568 0 0)
(0.3563904374217163 0 0)
(0.1886222623605054 0 0)
(0.2404131558603056 0 0)
(0.5075530592507643 0 0)
(0.9109998012535147 0 0)
(1.11998078655945 0 0)
(1.253779154020695 0 0)
(1.066578651424732 0 0)
(0.5393735814107763 0 0)
(0.01529977761171327 0 0)
(-0.3854517118470056 0 0)
(-0.5159191969353278 0 0)
(-0.3703997402728231 0 0)
(0.08863805513044255 0 0)
(0.5338556885608481 0 0)
(1.055308870834778 0 0)
(1.244278330760684 0 0)
(1.148516527057992 0 0)
(0.8711481882748813 0 0)
(0.5002880065816177 0 0)
(0.08013849583234266 0 0)
(-0.09420482517343301 0 0)
(0.00295903500201146 0 0)
(0.04400842025276852 0 0)
(0.2605272399687946 0 0)
(0.3367539986187817 0 0)
(0.2380461306072973 0 0)
(0.04723021787725745 0 0)
(-0.06597919089793886 0 0)
(-0.161997812150873 0 0)
(-0.09466396529924415 0 0)
(0.1872457352107442 0 0)
(0.5775336262055681 0 0)
(0.787164767223788 0 0)
(0.982848905097785 0 0)
(0.9361526533824529 0 0)
(0.6328724259632302 0 0)
(0.2704574882923991 0 0)
(-0.09400076735192378 0 0)
(-0.276022248820422 0 0)
(-0.2276370723707752 0 0)
(0.0337452235110861 0 0)
(0.2277181495139393 0 0)
(0.5519363991767463 0 0)
(0.692360309664938 0 0)
(0.6516430776981024 0 0)
(0.5507362957374786 0 0)
(0.4627230574622271 0 0)
(0.4386590867920813 0 0)
(0.6113903737530103 0 0)
(0.8729485515216694 0 0)
(1.027578905817237 0 0)
(1.13627348118968 0 0)
(1.048053273944611 0 0)
(0.6439156806595233 0 0)
(0.1333558514771656 0 0)
(-0.1776126665754021 0 0)
(-0.3336817921863625 0 0)
(-0.1866542718870438 0 0)
(0.2830516834581152 0 0)
(0.7570520221165915 0 0)
(1.147049921214661 0 0)
(1.273921383643577 0 0)
(1.176709943573316 0 0)
(0.8115669393110273 0 0)
(0.4488466344034816 0 0)
(0.02329518209527807 0 0)
(-0.1209715831902946 0 0)
(-0.007980849435686308 0 0)
(0.173339847609923 0 0)
(0.4375143315114965 0 0)
(0.564357912997427 0 0)
(0.5142896059293364 0 0)
(0.3144695344522496 0 0)
(0.102717517061628 0 0)
(-0.05340787534434622 0 0)
(-0.03949842276377199 0 0)
(0.1889199811263909 0 0)
(0.5179786577972429 0 0)
(0.7475980427139898 0 0)
(0.9158517280893468 0 0)
(0.8640946042468327 0 0)
(0.5787754833760168 0 0)
(0.3275352206703465 0 0)
(0.003779316979226305 0 0)
(-0.1159003582203191 0 0)
(-0.03344014579289038 0 0)
(0.2323780448399851 0 0)
(0.4257519088713474 0 0)
(0.6667709847015827 0 0)
(0.7322076778811227 0 0)
(0.6203381594710484 0 0)
(0.4037357597852351 0 0)
(0.295473035998284 0 0)
(0.1615916631685983 0 0)
(0.3209187554051477 0 0)
(0.7506017980935674 0 0)
(1.202091432948931 0 0)
(1.323513555118071 0 0)
(1.467812745793351 0 0)
(1.330036950813322 0 0)
(0.8750536670881811 0 0)
(0.2987183045523593 0 0)
(0.01227318063863183 0 0)
(-0.1820905697204772 0 0)
(-0.14995361962516 0 0)
(0.1150439886832843 0 0)
(0.4997689799580787 0 0)
(0.8551404981144751 0 0)
(1.062677494527167 0 0)
(1.065271898591075 0 0)
(0.870271521282484 0 0)
(0.7108805116331764 0 0)
(0.4306411327344585 0 0)
(0.3119028059638782 0 0)
(0.3480012733916265 0 0)
(0.4855858068892025 0 0)
(0.5678373536948006 0 0)
(0.6698793469985935 0 0)
(0.5063687411123887 0 0)
(0.1155812026641207 0 0)
(-0.1974911877532903 0 0)
(-0.2425812658760998 0 0)
(-0.2758540506004857 0 0)
(-0.0808560936479293 0 0)
(0.4502217385606476 0 0)
(1.026194255703599 0 0)
(1.264180142274652 0 0)
(1.352997523657096 0 0)
(1.206561644056509 0 0)
(0.8123424256015496 0 0)
(0.2895673850595678 0 0)
(-0.03425219821110072 0 0)
(-0.1384856013745031 0 0)
(-0.04014504702359702 0 0)
(0.2229618495706952 0 0)
(0.5180185792134541 0 0)
(0.7563810872261374 0 0)
(0.8136505181196076 0 0)
(0.7542979466259584 0 0)
(0.6607104299573833 0 0)
(0.590475105849939 0 0)
(0.6653732877118407 0 0)
(0.8943820192971218 0 0)
(1.172052409137094 0 0)
(1.240123340927292 0 0)
(1.280694219183962 0 0)
(1.073096316773107 0 0)
(0.5447619494944438 0 0)
(0.06961425166038544 0 0)
(-0.1134887247579501 0 0)
(-0.1312212078177278 0 0)
(0.08000293646123115 0 0)
(0.5403814770772337 0 0)
(1.06635786301424 0 0)
(1.357076966436557 0 0)
(1.442984227982051 0 0)
(1.291934325780975 0 0)
(0.9518620746778638 0 0)
(0.5601459403657125 0 0)
(0.2950040583901171 0 0)
(0.213210677905015 0 0)
(0.3071466061412336 0 0)
(0.4547014462987725 0 0)
(0.5992244504456942 0 0)
(0.6054702636572979 0 0)
(0.4691621990418503 0 0)
(0.2069850563335545 0 0)
(0.02087198381305266 0 0)
(0.0113276635879631 0 0)
(0.09765906905257828 0 0)
(0.3682130265470491 0 0)
(0.8031249610822979 0 0)
(1.058479834476737 0 0)
(1.071921984795665 0 0)
(0.9993312139855409 0 0)
(0.8658593821205247 0 0)
(0.5833648638944248 0 0)
(0.310376035468373 0 0)
(0.2398534319999516 0 0)
(0.2526817337369101 0 0)
(0.2480885085423677 0 0)
(0.2854109709559312 0 0)
(0.3994802591859359 0 0)
(0.6283372409692154 0 0)
(0.937607411261994 0 0)
(1.105443332980094 0 0)
(1.201113025252637 0 0)
(1.208877993994696 0 0)
)
;

boundaryField
{
    inlet
    {
        type            zeroGradient;
    }
    outlet
    {
        type            pressureInletOutletVelocity;
        value           uniform (1.208877993994696 0 0);
    }
    frontAndBack
    {
        type            empty;
    }
}


// ************************************************************************* //
