/*--------------------------------*- C++ -*----------------------------------*\
| =========                 |                                                 |
| \\      /  F ield         | OpenFOAM: The Open Source CFD Toolbox           |
|  \\    /   O peration     | Version:  v2012                                 |
|   \\  /    A nd           | Website:  www.openfoam.com                      |
|    \\/     M anipulation  |                                                 |
\*---------------------------------------------------------------------------*/
FoamFile
{
    version     2.0;
    format      ascii;
    class       volVectorField;
    location    "0.012";
    object      UMean;
}
// * * * * * * * * * * * * * * * * * * * * * * * * * * * * * * * * * * * * * //

dimensions      [0 1 -1 0 0 0 0];


internalField   nonuniform List<vector> 
1000
(
(-6.105227666524796e-05 0 0)
(-4.73717439259048e-05 0 0)
(4.057535757584655e-05 0 0)
(6.523213327824313e-05 0 0)
(0.0001050160997923352 0 0)
(0.0001169329654964834 0 0)
(0.0001826948268956338 0 0)
(0.0002462653316389645 0 0)
(0.0002178224522033525 0 0)
(0.0003736962966796941 0 0)
(0.000446658328811204 0 0)
(0.0005142561337390983 0 0)
(0.0006012907192061661 0 0)
(0.0007070830167002661 0 0)
(0.0007450775208979076 0 0)
(0.0007247819441888204 0 0)
(0.0008980888163027486 0 0)
(0.0009178388137079039 0 0)
(0.000984995258676864 0 0)
(0.0009606957171817218 0 0)
(0.001152636549081977 0 0)
(0.00103976096255487 0 0)
(0.001044238432999566 0 0)
(0.001010873792844628 0 0)
(0.00110482669577033 0 0)
(0.001057654956143677 0 0)
(0.0009946373792486267 0 0)
(0.001021434321250454 0 0)
(0.001028894811545385 0 0)
(0.0009026769773772382 0 0)
(0.0008627822494341666 0 0)
(0.0007220595411139066 0 0)
(0.0006725668114777326 0 0)
(0.0006291923762904041 0 0)
(0.0006071032182476814 0 0)
(0.0004711944312133956 0 0)
(0.0004117500870689006 0 0)
(0.0003497029920662197 0 0)
(0.0003173176427023263 0 0)
(0.0001430998793894512 0 0)
(0.0001549626478289612 0 0)
(6.68436089229328e-05 0 0)
(6.597825164857636e-05 0 0)
(-3.004538449963087e-07 0 0)
(5.088098135929065e-05 0 0)
(-7.545480750885025e-05 0 0)
(2.320255026499485e-05 0 0)
(-4.722968979342943e-05 0 0)
(8.686692993443437e-05 0 0)
(4.47682670040452e-05 0 0)
(0.0001779723105527359 0 0)
(8.144502735702094e-05 0 0)
(0.0001988546033032029 0 0)
(0.0001631054043100005 0 0)
(0.0002131488782719657 0 0)
(0.0002148216711656036 0 0)
(0.000471966717641964 0 0)
(0.0004668511037069453 0 0)
(0.0006025739791052059 0 0)
(0.0006938923610528068 0 0)
(0.0008393265473893927 0 0)
(0.0007839783469571279 0 0)
(0.000817841220291292 0 0)
(0.0009194340122168491 0 0)
(0.0009919875851849365 0 0)
(0.0009779077143760328 0 0)
(0.001048133956731604 0 0)
(0.001131900688878017 0 0)
(0.001135660587443591 0 0)
(0.001071354480604144 0 0)
(0.001103689445135408 0 0)
(0.001093732176830955 0 0)
(0.001086352821433468 0 0)
(0.001003724100706758 0 0)
(0.000965217061323906 0 0)
(0.0009235822167795914 0 0)
(0.0008932111117168569 0 0)
(0.0008101219161154535 0 0)
(0.0006769776010127997 0 0)
(0.0006817307082388661 0 0)
(0.0006314839284519354 0 0)
(0.000442385593202332 0 0)
(0.0003963673222270575 0 0)
(0.0004406471812917055 0 0)
(0.0002765890141219127 0 0)
(0.0001895494978152614 0 0)
(0.0001671224473844011 0 0)
(0.0001126225420077291 0 0)
(-1.423064425217407e-05 0 0)
(-2.143215431194146e-05 0 0)
(4.667523411039036e-05 0 0)
(-6.020406784650348e-05 0 0)
(4.018710821632452e-05 0 0)
(1.378744323060792e-07 0 0)
(-2.773876793142803e-05 0 0)
(-5.909676037558405e-05 0 0)
(-2.426959663307786e-05 0 0)
(-4.700138002014639e-05 0 0)
(7.812895089465457e-05 0 0)
(0.0002508315688977418 0 0)
(0.0002654676914418416 0 0)
(0.0003983550840884619 0 0)
(0.0004423613284366222 0 0)
(0.0005768541210262873 0 0)
(0.0005269960943452909 0 0)
(0.0005964750235135996 0 0)
(0.0006335928806750308 0 0)
(0.0007647813994669262 0 0)
(0.000769798200805876 0 0)
(0.0009229537305576891 0 0)
(0.0009804630423991365 0 0)
(0.0009823577263787912 0 0)
(0.001072201665897781 0 0)
(0.0011768457172844 0 0)
(0.001182719666200971 0 0)
(0.001040260445342053 0 0)
(0.001148384462634258 0 0)
(0.001190868703502057 0 0)
(0.001024923222571268 0 0)
(0.0009247625134084175 0 0)
(0.001022520832002701 0 0)
(0.001043685042884449 0 0)
(0.000863852597643192 0 0)
(0.0007848561124261887 0 0)
(0.0008422906303680979 0 0)
(0.0007605471632123679 0 0)
(0.0005546814954913702 0 0)
(0.0004325652543671007 0 0)
(0.0004628301321659167 0 0)
(0.0003966126248284398 0 0)
(0.0002155213127039928 0 0)
(0.0001892043330370656 0 0)
(0.0001599923882115387 0 0)
(0.0001085547552481883 0 0)
(1.27408137611427e-05 0 0)
(-1.44489346450686e-05 0 0)
(-4.132275406448301e-05 0 0)
(-0.0001008147856853032 0 0)
(-9.376697825066508e-05 0 0)
(-0.0001138917601250198 0 0)
(-0.0001140046764124713 0 0)
(-6.477734954435476e-05 0 0)
(2.018098692611417e-05 0 0)
(-6.051597790021404e-05 0 0)
(7.208688191710168e-06 0 0)
(0.0001616751232949626 0 0)
(0.0002127722001138621 0 0)
(0.000177809310745478 0 0)
(0.0003366833787934027 0 0)
(0.0005057194857113418 0 0)
(0.0004300935649061719 0 0)
(0.0005105628239924109 0 0)
(0.0006343378399036392 0 0)
(0.000802788395118725 0 0)
(0.0008098066383172783 0 0)
(0.0009108005966364278 0 0)
(0.0009907011680402333 0 0)
(0.001057616175973788 0 0)
(0.0009747307053579538 0 0)
(0.001036119476565304 0 0)
(0.001079527071637436 0 0)
(0.001083594637005519 0 0)
(0.001063761735266946 0 0)
(0.001175553012536373 0 0)
(0.001147022311025138 0 0)
(0.001072612606782486 0 0)
(0.001105481622248444 0 0)
(0.0009815790632950057 0 0)
(0.0009492032351672183 0 0)
(0.0008295480940076306 0 0)
(0.0008021296399889444 0 0)
(0.0006717725960017995 0 0)
(0.0006166559802419404 0 0)
(0.0005040951907193991 0 0)
(0.0004196025836771093 0 0)
(0.0003990974436847589 0 0)
(0.0003420539244235379 0 0)
(0.0001929260126927865 0 0)
(0.0001427086843250099 0 0)
(9.455426682296702e-05 0 0)
(7.273864704966737e-05 0 0)
(-9.338058650775036e-05 0 0)
(-7.749506793371627e-05 0 0)
(-1.82202982878144e-05 0 0)
(-5.66498186424403e-05 0 0)
(-0.0001447408721292442 0 0)
(-9.248836461977562e-05 0 0)
(-4.910465765149341e-05 0 0)
(-9.938624455035695e-05 0 0)
(-0.0001360551721790002 0 0)
(4.215065348623996e-05 0 0)
(0.0001862214219712853 0 0)
(0.0001544929303692764 0 0)
(0.0002495763989270978 0 0)
(0.0003490675895141173 0 0)
(0.0004291820322608419 0 0)
(0.0003983757979613346 0 0)
(0.000521807494615634 0 0)
(0.0006397338144115276 0 0)
(0.0007732001074022176 0 0)
(0.0007681094062158366 0 0)
(0.0008678791451390658 0 0)
(0.0009749287799360448 0 0)
(0.000975833860259105 0 0)
(0.0009782135777899187 0 0)
(0.001062231047918952 0 0)
(0.001168770366152563 0 0)
(0.001155685334233421 0 0)
(0.001192059282218676 0 0)
(0.001156184834421539 0 0)
(0.001130138326968884 0 0)
(0.001024602014068191 0 0)
(0.0009777995494495465 0 0)
(0.0009181372765406564 0 0)
(0.0009549854207110771 0 0)
(0.0008728660384298152 0 0)
(0.0008076094818256862 0 0)
(0.0008003145514102935 0 0)
(0.0007044496008438375 0 0)
(0.0005315283510770667 0 0)
(0.0004792145498555311 0 0)
(0.0003729036860713525 0 0)
(0.0002908124323543953 0 0)
(0.0002092310399996135 0 0)
(0.0001430978039132715 0 0)
(0.0001267460247948919 0 0)
(9.531976385068195e-05 0 0)
(-7.077770020743191e-06 0 0)
(-0.0001246160203166939 0 0)
(-7.885625382738419e-05 0 0)
(-0.0001977292131222942 0 0)
(-0.0001966801020586709 0 0)
(-0.000215662333498109 0 0)
(-0.000103912371334964 0 0)
(-6.622060202792155e-05 0 0)
(2.612074727542406e-05 0 0)
(2.182514457306731e-05 0 0)
(3.445697852232135e-05 0 0)
(0.0001054957502325567 0 0)
(0.0001330950722474275 0 0)
(0.0001379573542058183 0 0)
(0.0003032345973204559 0 0)
(0.000411158015544582 0 0)
(0.0005254012680306693 0 0)
(0.0005865331541771801 0 0)
(0.0007465347380515556 0 0)
(0.0007561351853114873 0 0)
(0.0008340763179753162 0 0)
(0.0008944246291317393 0 0)
(0.0009672437264189468 0 0)
(0.001024544343257548 0 0)
(0.0010971098474434 0 0)
(0.001119593481030989 0 0)
(0.001112359312384252 0 0)
(0.001142665056598599 0 0)
(0.001147037201822629 0 0)
(0.001080863097154141 0 0)
(0.001100287009630191 0 0)
(0.001163549813818213 0 0)
(0.001047862310432758 0 0)
(0.0009929345858986634 0 0)
(0.0009122655386454424 0 0)
(0.0008562214440597666 0 0)
(0.0007016410394943377 0 0)
(0.00060205877763954 0 0)
(0.00057883464339155 0 0)
(0.0004989768358400006 0 0)
(0.0004163626843166675 0 0)
(0.0003146344297474198 0 0)
(0.0002628198053241817 0 0)
(0.0001358580540068137 0 0)
(4.96769268075506e-05 0 0)
(3.780803775499241e-05 0 0)
(-5.362698940259152e-05 0 0)
(-6.742713973476162e-05 0 0)
(-7.757933563015688e-05 0 0)
(-8.33282096239361e-05 0 0)
(-0.000172386899741854 0 0)
(-0.0002449016008420207 0 0)
(-0.0002520908913342704 0 0)
(-0.0002577275461775369 0 0)
(-0.000206283631222476 0 0)
(-0.0001100999216170336 0 0)
(3.99944503207169e-05 0 0)
(0.0002040294138096722 0 0)
(0.000214000593824425 0 0)
(0.000285037221394434 0 0)
(0.0003675154354506427 0 0)
(0.0003813801162621949 0 0)
(0.0003928546233037148 0 0)
(0.0004473180777190709 0 0)
(0.0006282402037187037 0 0)
(0.000773312442563849 0 0)
(0.0008816782062363528 0 0)
(0.00098678548903173 0 0)
(0.001096989197310556 0 0)
(0.001110961077501539 0 0)
(0.001090528354341124 0 0)
(0.00102430419879211 0 0)
(0.001057886934540836 0 0)
(0.001106096326281568 0 0)
(0.001123197075098844 0 0)
(0.001187948928924644 0 0)
(0.001267492184736548 0 0)
(0.001330603551504488 0 0)
(0.001212470842348051 0 0)
(0.001117017033577275 0 0)
(0.0008915103934592519 0 0)
(0.0008526404924731279 0 0)
(0.0006126254933465685 0 0)
(0.0005992007921545422 0 0)
(0.0005433913562222392 0 0)
(0.0006469017138243726 0 0)
(0.0006519284753309989 0 0)
(0.0006524202365408219 0 0)
(0.0005490014166791954 0 0)
(0.0003414924175249435 0 0)
(0.000178245813818914 0 0)
(-0.0001144361987472933 0 0)
(-0.0003329089063378494 0 0)
(-0.0004624308897432162 0 0)
(-0.0004421357480827517 0 0)
(-0.0003372297574321248 0 0)
(-0.0001133683873173041 0 0)
(3.323020589377639e-05 0 0)
(0.0002081747893592994 0 0)
(0.0003489260109862603 0 0)
(0.0003344990495647244 0 0)
(0.0001189430576862298 0 0)
(2.717403950864066e-05 0 0)
(-9.904580705564754e-05 0 0)
(-0.0002436727042936735 0 0)
(-0.0004017998970060921 0 0)
(-0.0002216605700382791 0 0)
(5.5528845103513e-05 0 0)
(0.0002542359684887226 0 0)
(0.0005603507315338041 0 0)
(0.0009800339499603339 0 0)
(0.001330487794676569 0 0)
(0.001437841896887411 0 0)
(0.00145766395588544 0 0)
(0.001329278479299904 0 0)
(0.001177305746585534 0 0)
(0.0009362740491397773 0 0)
(0.0006840272050009037 0 0)
(0.0005760229262209072 0 0)
(0.0006272971205608021 0 0)
(0.0008835216958473493 0 0)
(0.001187930923401102 0 0)
(0.001608865497514426 0 0)
(0.002028404652822371 0 0)
(0.002272072343137866 0 0)
(0.002614978372236573 0 0)
(0.002562619676525221 0 0)
(0.002339660839490752 0 0)
(0.002009240292838535 0 0)
(0.001590213859891059 0 0)
(0.00117070414320051 0 0)
(0.0007042538484061402 0 0)
(0.0004263311725547358 0 0)
(0.0001860639641477916 0 0)
(0.0002464589499917824 0 0)
(0.0004126773831403521 0 0)
(0.0005772116699331424 0 0)
(0.0007249695481301148 0 0)
(0.0007191245542008135 0 0)
(0.000736646740247693 0 0)
(0.0004494892814978453 0 0)
(0.0002557588998835179 0 0)
(7.999884448404208e-05 0 0)
(-0.0003060505385856876 0 0)
(-0.0002447849101179402 0 0)
(-0.0003579920387638588 0 0)
(-0.0003337009404201273 0 0)
(-0.0003949748330935793 0 0)
(-0.0004807896558954315 0 0)
(-0.0004920186745754078 0 0)
(-0.0005062100892575906 0 0)
(-0.0004416909766832876 0 0)
(-0.0001336884805636337 0 0)
(0.000248344592382086 0 0)
(0.0005354578518168864 0 0)
(0.001003112822976763 0 0)
(0.001167101827996303 0 0)
(0.001155805376512531 0 0)
(0.001050881214334539 0 0)
(0.0009516273162137722 0 0)
(0.0007902645438581043 0 0)
(0.0007844359011207662 0 0)
(0.0008526920510110474 0 0)
(0.0009035087152878112 0 0)
(0.001167284428449194 0 0)
(0.001372960324566018 0 0)
(0.0015471011000369 0 0)
(0.00162692986320286 0 0)
(0.001802989393843241 0 0)
(0.001813403300716042 0 0)
(0.001805523164895471 0 0)
(0.001915344167035153 0 0)
(0.001877708007087485 0 0)
(0.001847553651778123 0 0)
(0.00170542979080648 0 0)
(0.001548457947199081 0 0)
(0.001225183326402776 0 0)
(0.0008697790039553509 0 0)
(0.0006207815037329243 0 0)
(0.0003189529220680024 0 0)
(0.0003020550319370291 0 0)
(0.0003163422150578208 0 0)
(0.0003559181575427434 0 0)
(0.0004758028491735772 0 0)
(0.0004898377436733305 0 0)
(0.0004291526896154585 0 0)
(0.000175672244462025 0 0)
(0.0001447620399796754 0 0)
(7.161245994290155e-06 0 0)
(-0.0002113196752042391 0 0)
(-0.000338040621126155 0 0)
(-0.0005178794159075839 0 0)
(-0.0004794589298862451 0 0)
(-0.0005836016231496706 0 0)
(-0.0006100527524298818 0 0)
(-0.0005816540075567798 0 0)
(-0.00063390393890486 0 0)
(-0.0005098047442812637 0 0)
(-6.742272213312601e-05 0 0)
(6.32043329696811e-05 0 0)
(0.0003183814894993829 0 0)
(0.0005116336753626731 0 0)
(0.0007682461174813705 0 0)
(0.0007027901147900754 0 0)
(0.0006966944930275621 0 0)
(0.0008384859802576377 0 0)
(0.0008859642613580808 0 0)
(0.0009064936888296406 0 0)
(0.0009924833493752516 0 0)
(0.00104211621920917 0 0)
(0.001145487646805503 0 0)
(0.001097517517898797 0 0)
(0.001167149220980815 0 0)
(0.001273654491163183 0 0)
(0.001256079049833975 0 0)
(0.001380933524767247 0 0)
(0.001461837538335758 0 0)
(0.001685040920438732 0 0)
(0.001813329241915336 0 0)
(0.001819834458950365 0 0)
(0.001892399172895097 0 0)
(0.001641868927753879 0 0)
(0.001385170452079764 0 0)
(0.0008115968595241443 0 0)
(0.000387812463284263 0 0)
(-2.114839546994355e-05 0 0)
(-3.251123644584574e-05 0 0)
(-0.0001452012687829371 0 0)
(0.000122860877221293 0 0)
(0.0003673322273807422 0 0)
(0.0004998342547313212 0 0)
(0.0006416632150724264 0 0)
(0.0003806610596890686 0 0)
(0.0001351597418027444 0 0)
(-9.3898832003805e-05 0 0)
(-0.0002573604002826316 0 0)
(-0.0005133385234191252 0 0)
(-0.0006565928681587611 0 0)
(-0.0006424628144259999 0 0)
(-0.0006676513795054915 0 0)
(-0.0006629996798195866 0 0)
(-0.0007047901615872323 0 0)
(-0.000930151772789764 0 0)
(-0.0007254139998528852 0 0)
(-0.0004842367264955651 0 0)
(-0.0002473975082995374 0 0)
(0.000190760581296086 0 0)
(0.0005899957559081665 0 0)
(0.0007951608880012219 0 0)
(0.0009726400684673247 0 0)
(0.0008774682450587198 0 0)
(0.0008222187907885203 0 0)
(0.0005344784748342532 0 0)
(0.0004434182299984838 0 0)
(0.0005674580495985004 0 0)
(0.0005989629863740528 0 0)
(0.0009738100810233562 0 0)
(0.001252055278125183 0 0)
(0.001516512117720108 0 0)
(0.001546258911430126 0 0)
(0.001430098381935554 0 0)
(0.001424301468180172 0 0)
(0.001490978837557829 0 0)
(0.001605699836323375 0 0)
(0.0017673001490488 0 0)
(0.00167808086864411 0 0)
(0.001842321959651339 0 0)
(0.001808044667273287 0 0)
(0.001400815128580058 0 0)
(0.001056027213421499 0 0)
(0.0004039332707876146 0 0)
(5.917227030697565e-05 0 0)
(-0.0001856515939431258 0 0)
(-5.808271956322211e-05 0 0)
(8.007200404438611e-05 0 0)
(0.0003996939214159158 0 0)
(0.0005812913717446967 0 0)
(0.0005317942894119034 0 0)
(0.0002725801419090964 0 0)
(-9.153324797631137e-05 0 0)
(-0.0003165491804526609 0 0)
(-0.0005282457802707495 0 0)
(-0.0006273221249409677 0 0)
(-0.0009152635703822236 0 0)
(-0.0008767538332929312 0 0)
(-0.0008555696191179337 0 0)
(-0.0007406322425791221 0 0)
(-0.0007853732739744506 0 0)
(-0.000856177783389291 0 0)
(-0.0005122792822631469 0 0)
(-0.0003251691207470451 0 0)
(9.636866047169743e-06 0 0)
(0.0003225351091988514 0 0)
(0.0004824254624083979 0 0)
(0.0006777123977518266 0 0)
(0.0008257041948985463 0 0)
(0.0006739333817317338 0 0)
(0.000710609624731716 0 0)
(0.0006692080095814616 0 0)
(0.0007612250370895345 0 0)
(0.0007978314255763668 0 0)
(0.0009858473502442297 0 0)
(0.001285120216519097 0 0)
(0.001447423899098116 0 0)
(0.001621117124402805 0 0)
(0.001554300867932594 0 0)
(0.001312604537641751 0 0)
(0.001244789374036406 0 0)
(0.001335171725775474 0 0)
(0.001531988153839129 0 0)
(0.001710392979009096 0 0)
(0.002056936927002387 0 0)
(0.002224959164319402 0 0)
(0.002368238821229601 0 0)
(0.001990105189546968 0 0)
(0.001442019729020476 0 0)
(0.0008350025493212645 0 0)
(0.0002191437970468711 0 0)
(-0.0001218059340569431 0 0)
(-0.0002221538121259234 0 0)
(0.0001231115525673116 0 0)
(0.0005387213071960431 0 0)
(0.0009339747302615507 0 0)
(0.001097444374595915 0 0)
(0.001046776008598945 0 0)
(0.0006546544394241069 0 0)
(0.0002934863535072644 0 0)
(-8.308948868599631e-05 0 0)
(-0.0004826785819694899 0 0)
(-0.0006150574292570858 0 0)
(-0.0007474836289866676 0 0)
(-0.0004014516537322145 0 0)
(-0.0002805393715868234 0 0)
(-0.000172265740546587 0 0)
(-0.000199676526612857 0 0)
(-0.0002489789469678051 0 0)
(-0.0002089344643236341 0 0)
(4.127464249182911e-05 0 0)
(0.000279403273365669 0 0)
(0.0006704013919895696 0 0)
(0.001253242869316178 0 0)
(0.001702257616095191 0 0)
(0.001804168130274997 0 0)
(0.001656742858089161 0 0)
(0.001517072410656536 0 0)
(0.001162852732414482 0 0)
(0.001027852368738427 0 0)
(0.0009891065650472672 0 0)
(0.001288654649947607 0 0)
(0.001668262636135451 0 0)
(0.002075673194850075 0 0)
(0.002273729739005616 0 0)
(0.002294277409539257 0 0)
(0.002355576718982605 0 0)
(0.002411226755257266 0 0)
(0.002666842130509532 0 0)
(0.002696556853639524 0 0)
(0.002884848208711891 0 0)
(0.003028597673628923 0 0)
(0.002840498252600812 0 0)
(0.002582810154954981 0 0)
(0.001949646020695466 0 0)
(0.001337893361423235 0 0)
(0.0006736045453533631 0 0)
(0.0004674979501337394 0 0)
(0.0005967293903851616 0 0)
(0.0007685209474032465 0 0)
(0.00140926044530949 0 0)
(0.001891052796356263 0 0)
(0.002154882458783661 0 0)
(0.002000688597690873 0 0)
(0.001628105514739329 0 0)
(0.001138217125810827 0 0)
(0.0006064820313060365 0 0)
(0.0001932877358087953 0 0)
(-4.722415789262804e-05 0 0)
(0.0001548850289800881 0 0)
(0.0004061940188083241 0 0)
(0.0009398368950198838 0 0)
(0.0009143715107824732 0 0)
(0.001028114209403919 0 0)
(0.001115616511900914 0 0)
(0.0008972111970252563 0 0)
(0.001248529514274065 0 0)
(0.00139347687611423 0 0)
(0.001822351154402252 0 0)
(0.002345952353345735 0 0)
(0.002790668970768882 0 0)
(0.003249631909866844 0 0)
(0.003003800460646097 0 0)
(0.00285067463626979 0 0)
(0.002707081801238001 0 0)
(0.002240959942452016 0 0)
(0.002103410529569534 0 0)
(0.002399224409510428 0 0)
(0.002825986826013988 0 0)
(0.003558012824589584 0 0)
(0.004184313705787388 0 0)
(0.004616571133032343 0 0)
(0.004758302400437803 0 0)
(0.004734933533572699 0 0)
(0.004646964890598716 0 0)
(0.004298369744073677 0 0)
(0.004021701987940011 0 0)
(0.00398622094826738 0 0)
(0.003793713979470146 0 0)
(0.00391816838858338 0 0)
(0.003886163306677527 0 0)
(0.003618517739744303 0 0)
(0.003424927314966381 0 0)
(0.003114536246656984 0 0)
(0.002985072566231372 0 0)
(0.003001503691789557 0 0)
(0.00325142345057671 0 0)
(0.003552772768736072 0 0)
(0.00397315782212338 0 0)
(0.003967498162391386 0 0)
(0.003685580029625833 0 0)
(0.003281130369051079 0 0)
(0.002882042746853367 0 0)
(0.002513243058976613 0 0)
(0.002271242308242883 0 0)
(0.002144191641166232 0 0)
(0.002439968541495253 0 0)
(0.002774257424243566 0 0)
(0.003400821013994517 0 0)
(0.003647000178434214 0 0)
(0.003930966011304626 0 0)
(0.004059188729631405 0 0)
(0.003985701378975264 0 0)
(0.004084844035125274 0 0)
(0.004300893867211805 0 0)
(0.00456864309996051 0 0)
(0.005122771060995882 0 0)
(0.005500205978644966 0 0)
(0.006052413715681077 0 0)
(0.005975178586095854 0 0)
(0.006037758773599615 0 0)
(0.006024298567302442 0 0)
(0.005751985828753064 0 0)
(0.005550340496105396 0 0)
(0.005686202221356636 0 0)
(0.006093177633318889 0 0)
(0.006567424003491688 0 0)
(0.007222298350717456 0 0)
(0.00768635080684798 0 0)
(0.008113492828865422 0 0)
(0.008257585770401539 0 0)
(0.008288026905682056 0 0)
(0.008089745859230788 0 0)
(0.007874103723010947 0 0)
(0.00762197378385663 0 0)
(0.007460067086349944 0 0)
(0.006882641840888723 0 0)
(0.00721951362766471 0 0)
(0.006963471036801808 0 0)
(0.006987838095027963 0 0)
(0.006888408413709992 0 0)
(0.00722503541262475 0 0)
(0.007350355276485005 0 0)
(0.007689752681477858 0 0)
(0.007738254526638925 0 0)
(0.008200926597518128 0 0)
(0.008063046535557285 0 0)
(0.007905918159543042 0 0)
(0.007510750281854285 0 0)
(0.007050367419900476 0 0)
(0.006766971494635923 0 0)
(0.006413829701477013 0 0)
(0.006610472049782226 0 0)
(0.006970604090131869 0 0)
(0.007421628744980232 0 0)
(0.007975554701890739 0 0)
(0.008472386947861465 0 0)
(0.008722506859959615 0 0)
(0.008887616112412183 0 0)
(0.008493302559530513 0 0)
(0.009034192371657217 0 0)
(0.009027293871611467 0 0)
(0.009364007189809193 0 0)
(0.00970376179924941 0 0)
(0.01020037240454414 0 0)
(0.0106132721234312 0 0)
(0.01082750710654664 0 0)
(0.01077631493600871 0 0)
(0.01107142345008118 0 0)
(0.010761793076401 0 0)
(0.01100988634559105 0 0)
(0.01126542740454755 0 0)
(0.01177445770280034 0 0)
(0.01233528854589138 0 0)
(0.01284977429815044 0 0)
(0.01313351282966264 0 0)
(0.01327910634181264 0 0)
(0.01268101210661016 0 0)
(0.01286066515516418 0 0)
(0.01261459463364966 0 0)
(0.01258823998449186 0 0)
(0.01270631912724707 0 0)
(0.01278487709849439 0 0)
(0.01320602978507491 0 0)
(0.01330888437198225 0 0)
(0.01334885324760256 0 0)
(0.01305734633769196 0 0)
(0.01284077085894259 0 0)
(0.0127325064001456 0 0)
(0.01267834182128478 0 0)
(0.0128584276150879 0 0)
(0.013044227927293 0 0)
(0.01341559987258216 0 0)
(0.01351790662865872 0 0)
(0.01341657453222543 0 0)
(0.01308988346410256 0 0)
(0.01295017658658947 0 0)
(0.01256184788148202 0 0)
(0.01254063054748249 0 0)
(0.0128223385704514 0 0)
(0.01330723204196705 0 0)
(0.01387225193962831 0 0)
(0.01433961751798423 0 0)
(0.01479055075377408 0 0)
(0.01476627323720356 0 0)
(0.01476416653902282 0 0)
(0.01476466786100038 0 0)
(0.01487726432451762 0 0)
(0.01528486666797503 0 0)
(0.0158139921228209 0 0)
(0.01622451541617654 0 0)
(0.01706941207688056 0 0)
(0.01746332624493557 0 0)
(0.01764308081607674 0 0)
(0.01752180316325119 0 0)
(0.01761554727580971 0 0)
(0.01741423154741768 0 0)
(0.0175436931898411 0 0)
(0.01780451320393622 0 0)
(0.01822829644441848 0 0)
(0.01886414391183537 0 0)
(0.01940406410500312 0 0)
(0.01998055967578522 0 0)
(0.02019403640511572 0 0)
(0.02015593380634549 0 0)
(0.0201416428194434 0 0)
(0.02021824237359575 0 0)
(0.01987713742332991 0 0)
(0.02000083062920545 0 0)
(0.01937656371084899 0 0)
(0.01990154218318471 0 0)
(0.01979414531091622 0 0)
(0.0199235228487095 0 0)
(0.01987562796843047 0 0)
(0.02014498759864704 0 0)
(0.02032322403397313 0 0)
(0.02048974048340193 0 0)
(0.02059194734061271 0 0)
(0.02082682077447381 0 0)
(0.02069953105059741 0 0)
(0.020929152434724 0 0)
(0.02064412638081468 0 0)
(0.02038071973685875 0 0)
(0.02029661818428748 0 0)
(0.02006568008538237 0 0)
(0.02014665533954307 0 0)
(0.0205120925273193 0 0)
(0.02093807252594748 0 0)
(0.02148172194523775 0 0)
(0.0221359423113975 0 0)
(0.02255362124393777 0 0)
(0.02283669600195203 0 0)
(0.02284673799980668 0 0)
(0.02312172408328699 0 0)
(0.02334155897558156 0 0)
(0.02369092327204371 0 0)
(0.02390602646937786 0 0)
(0.0243975613377859 0 0)
(0.02478543973182181 0 0)
(0.02516311106800487 0 0)
(0.02541927012257223 0 0)
(0.02565910637926297 0 0)
(0.02547378366831241 0 0)
(0.02601261366262822 0 0)
(0.02624556076184387 0 0)
(0.02665155548820968 0 0)
(0.02726359479075256 0 0)
(0.02778741108673012 0 0)
(0.02830947370786929 0 0)
(0.0286328025700793 0 0)
(0.0287235218598608 0 0)
(0.0283849176538881 0 0)
(0.02838519044814695 0 0)
(0.02823625338896758 0 0)
(0.0279996311191997 0 0)
(0.02820076207189439 0 0)
(0.02822898793501271 0 0)
(0.02854988972435684 0 0)
(0.02871033606385716 0 0)
(0.02880377163913015 0 0)
(0.02889027783249565 0 0)
(0.02862296146260898 0 0)
(0.0289173865141476 0 0)
(0.02903982411875356 0 0)
(0.02930339572179239 0 0)
(0.02942347459023323 0 0)
(0.03007847420784 0 0)
(0.03008119270322188 0 0)
(0.0300382661455505 0 0)
(0.02984683841027198 0 0)
(0.02941062738659885 0 0)
(0.02933108618460178 0 0)
(0.02922378127443374 0 0)
(0.0296142340763369 0 0)
(0.03020046621792778 0 0)
(0.03093021307440879 0 0)
(0.03178098859559046 0 0)
(0.03234363581683136 0 0)
(0.03294335317545555 0 0)
(0.03276579541986167 0 0)
(0.03293262877348144 0 0)
(0.03316968168742339 0 0)
(0.03355549170694305 0 0)
(0.0338131594913472 0 0)
(0.03449440478674655 0 0)
(0.03503263756233807 0 0)
(0.03542725378609757 0 0)
(0.03566739179044286 0 0)
(0.03584981897213763 0 0)
(0.03593812741479317 0 0)
(0.03607259821154024 0 0)
(0.03654912822877286 0 0)
(0.03696111584895904 0 0)
(0.03771847316864547 0 0)
(0.03817933124610774 0 0)
(0.03879604150608679 0 0)
(0.03919580162877461 0 0)
(0.03911385049097234 0 0)
(0.03877213145392006 0 0)
(0.03879872377927027 0 0)
(0.03876010866636864 0 0)
(0.03868511210180962 0 0)
(0.03910197161081692 0 0)
(0.03915941533239054 0 0)
(0.03972728159497591 0 0)
(0.0400116819904019 0 0)
(0.04003527615861623 0 0)
(0.04001218591134347 0 0)
(0.04015411584137372 0 0)
(0.04024862117678778 0 0)
(0.04037222739779177 0 0)
(0.04042541884167707 0 0)
(0.04088313564075209 0 0)
(0.04101365715442705 0 0)
(0.04113991944985575 0 0)
(0.04111812765504527 0 0)
(0.04107062236850932 0 0)
(0.04096116679770931 0 0)
(0.04121354787540649 0 0)
(0.04151027726747963 0 0)
(0.04197586412324749 0 0)
(0.04264643178383339 0 0)
(0.04321783295641839 0 0)
(0.04391334990587686 0 0)
(0.0442108412075336 0 0)
(0.0444412674001535 0 0)
(0.04471440404294824 0 0)
(0.04490405997866309 0 0)
(0.045468939448502 0 0)
(0.04589656465829686 0 0)
(0.0465771694454917 0 0)
(0.04696915464438792 0 0)
(0.04761266969640865 0 0)
(0.04781911509583541 0 0)
(0.04789751725470936 0 0)
(0.04820656907674017 0 0)
(0.04829897256256851 0 0)
(0.04874962624043067 0 0)
(0.04937757640136511 0 0)
(0.04994728441037027 0 0)
(0.05093813829156078 0 0)
(0.05155535411158842 0 0)
(0.0520411801004794 0 0)
(0.05227967822823148 0 0)
(0.05217725693317652 0 0)
(0.05171772669774376 0 0)
(0.0515685351676004 0 0)
(0.05136119184608229 0 0)
(0.05144292027155069 0 0)
(0.0516754693435327 0 0)
(0.05201800558787892 0 0)
(0.05247452640305106 0 0)
(0.05287708647271992 0 0)
(0.05303805274061031 0 0)
(0.05306057946325501 0 0)
(0.05328386365047107 0 0)
(0.05351540738340268 0 0)
(0.05356284699922254 0 0)
(0.05408276970286399 0 0)
(0.05441161577358838 0 0)
(0.05476491216417496 0 0)
(0.05508927738440606 0 0)
(0.05485367036558363 0 0)
(0.05484532176843305 0 0)
(0.05459406597756295 0 0)
(0.05463677708665694 0 0)
(0.05476203089934137 0 0)
(0.0553755826448246 0 0)
(0.05596806406598152 0 0)
(0.05706289672261715 0 0)
(0.05800622332839941 0 0)
(0.05883119592991645 0 0)
(0.05951976741617565 0 0)
(0.0598155815594853 0 0)
(0.05994837918243474 0 0)
(0.06024167361580592 0 0)
(0.06034879335498342 0 0)
(0.06050799546583222 0 0)
(0.06095681826146 0 0)
(0.06138867109421058 0 0)
(0.06178757502849694 0 0)
(0.06244611460015274 0 0)
(0.06288670149850274 0 0)
(0.06341027463788543 0 0)
(0.06400705388261421 0 0)
(0.06453909225427706 0 0)
(0.065053970706989 0 0)
(0.06570957729433213 0 0)
(0.0661615930005178 0 0)
(0.06654149112919491 0 0)
(0.06677001220806519 0 0)
(0.06669192150167816 0 0)
(0.06667262605440231 0 0)
(0.06666706611476614 0 0)
(0.06664049003037664 0 0)
(0.06668588925256505 0 0)
(0.06714329886011959 0 0)
(0.06756204782250844 0 0)
(0.06813815731247301 0 0)
(0.06852589602565466 0 0)
(0.06896705684414597 0 0)
(0.06919041544232719 0 0)
(0.06936565661243144 0 0)
(0.06950676816104941 0 0)
(0.06939506748398563 0 0)
(0.06966389806602859 0 0)
(0.06975245664288435 0 0)
(0.07004785132888047 0 0)
(0.07014403961139257 0 0)
(0.07032482208317595 0 0)
(0.07061774664079344 0 0)
(0.07090626152412247 0 0)
(0.0712104290942365 0 0)
(0.07163801693136221 0 0)
(0.07234936955692209 0 0)
(0.07291752145437064 0 0)
(0.07379471681184226 0 0)
(0.074660957617618 0 0)
(0.07539044847924728 0 0)
(0.07599381973549695 0 0)
(0.0763184792877849 0 0)
(0.07656565011515717 0 0)
(0.07677054924522411 0 0)
(0.07709256374725643 0 0)
(0.07733862881438885 0 0)
(0.07794588892193996 0 0)
(0.07869928628753729 0 0)
(0.07929521635387447 0 0)
(0.08018076068946618 0 0)
(0.08072414493598302 0 0)
(0.08140251601006696 0 0)
(0.08181013502677685 0 0)
(0.08218052799106669 0 0)
(0.08223883773417545 0 0)
(0.0827536628947436 0 0)
(0.08291440695538717 0 0)
)
;

boundaryField
{
    inlet
    {
        type            calculated;
        value           uniform (-6.105227666524796e-05 0 0);
    }
    outlet
    {
        type            calculated;
        value           uniform (0.08291440695538717 0 0);
    }
    frontAndBack
    {
        type            empty;
    }
}


// ************************************************************************* //
