/*--------------------------------*- C++ -*----------------------------------*\
| =========                 |                                                 |
| \\      /  F ield         | OpenFOAM: The Open Source CFD Toolbox           |
|  \\    /   O peration     | Version:  v2012                                 |
|   \\  /    A nd           | Website:  www.openfoam.com                      |
|    \\/     M anipulation  |                                                 |
\*---------------------------------------------------------------------------*/
FoamFile
{
    version     2.0;
    format      ascii;
    class       volScalarField;
    location    "0.0195";
    object      p;
}
// * * * * * * * * * * * * * * * * * * * * * * * * * * * * * * * * * * * * * //

dimensions      [1 -1 -2 0 0 0 0];


internalField   nonuniform List<scalar> 
1000
(
101339.1810327259
101336.7300417126
101343.5768138335
101349.0366147548
101355.1494141969
101360.7049112589
101365.5366916421
101369.6997498781
101373.2298350839
101375.6175514035
101376.408260459
101376.4485224387
101376.0903957795
101375.0202378269
101372.9486157204
101369.799958475
101365.6904546732
101360.8084508149
101355.3137168252
101349.3161313361
101342.9044847201
101336.1769262756
101329.2499050877
101322.2494698457
101315.3004091483
101308.5236210982
101302.0340993151
101295.9215757479
101290.2217405917
101284.9473861536
101280.2749807916
101276.7634231495
101274.9983465362
101274.6648365159
101274.7513582067
101275.1337702058
101276.0617751685
101277.7595164419
101280.4088822919
101284.0863121372
101288.7345349606
101294.1870155232
101300.2320623425
101306.6749643514
101313.3671412195
101320.2002160848
101327.0835544973
101333.9256973833
101340.6316923131
101347.1199056673
101353.344156306
101359.2850542774
101364.878204601
101369.8349976948
101373.4480153158
101375.1285830351
101375.4770551323
101375.4977939097
101375.2249573772
101374.510422444
101373.1529806901
101370.9670540949
101367.8195573345
101363.6662617821
101358.5662871905
101352.6703413363
101346.1846828303
101339.3253852351
101332.2823958253
101325.2037533776
101318.1970041926
101311.33796981
101304.6758731159
101298.2344946397
101292.0371823998
101286.2086279667
101281.1866676064
101277.7742611245
101276.325270724
101276.0711657888
101276.1238286617
101276.4390375131
101277.1710164495
101278.4832820283
101280.5407748794
101283.4764851358
101287.3592674562
101292.1729898517
101297.8151079187
101304.114347208
101310.8623361849
101317.85000779
101324.8986228404
101331.8779419344
101338.7093035562
101345.3600530655
101351.830114087
101358.1048326009
101364.0560778355
101369.284696208
101372.9950324453
101374.6457842734
101375.0048921056
101375.0720377211
101374.8699899982
101374.3179413413
101373.2464836541
101371.4981141279
101368.9344445951
101365.4598187484
101361.040914176
101355.7201523849
101349.6165881635
101342.9108357185
101335.816783926
101328.5465523736
101321.2775045827
101314.1319000219
101307.1736647266
101300.4221831852
101293.9033610826
101287.775701487
101282.5304572874
101279.0026939331
101277.5247907035
101277.2397787709
101277.2399574294
101277.486892845
101278.0836324384
101279.1677063414
101280.880845669
101283.3521623426
101286.6748712544
101290.8884788342
101295.9677768869
101301.8203371177
101308.2946371798
101315.1996996773
101322.3342946331
101329.5191325747
101336.6209627539
101343.5628621754
101350.3184581258
101356.8625936964
101363.05727055
101368.502645188
101372.4262475054
101374.242529771
101374.6787809672
101374.7880595404
101374.6520978272
101374.2276240004
101373.3636865764
101371.9190262807
101369.7634432851
101366.7914961741
101362.9369238761
101358.1871347597
101352.5926689919
101346.2673196924
101339.3772388776
101332.11885708
101324.6884023602
101317.2528252113
101309.9325218784
101302.800522075
101295.9231898018
101289.4855634312
101283.9817922424
101280.2406898212
101278.6416737656
101278.2960639439
101278.2422940591
101278.4274346258
101278.9087194896
101279.8166996138
101281.2739687947
101283.400349804
101286.2940240248
101290.0166331459
101294.582530076
101299.952025397
101306.0302880142
101312.6742696045
101319.7094736695
101326.9553615231
101334.2515338484
101341.4758812214
101348.5515682868
101355.4154035372
101361.9075152627
101367.6268831707
101371.8389262892
101373.9029703189
101374.4374850965
101374.578993926
101374.5050210282
101374.1834089285
101373.4844647497
101372.2779419315
101370.4420057544
101367.870776711
101364.4838842265
101360.2392657821
101355.1440232684
101349.2596369318
101342.7000437471
101335.6210633141
101328.2001435141
101320.611820579
101313.0085114874
101305.5110474146
101298.2344630936
101291.4039121808
101285.5411509851
101281.4908172434
101279.6929769833
101279.2728845737
101279.1812862348
101279.3121886319
101279.6971018971
101280.4570633407
101281.7046552796
101283.5514670865
101286.0952644271
101289.407689957
101293.5247860341
101298.4400736458
101304.1004735818
101310.4069932401
101317.2227446188
101324.3894808342
101331.7484766762
101339.1578576817
101346.5045441367
101353.6902554961
101360.5332150737
101366.6138807026
101371.2014073808
101373.5967387997
101374.2639714763
101374.4238796849
101374.4088369295
101374.1723958085
101373.610040422
101372.6002164911
101371.0280880022
101368.7897038047
101365.7983528697
101361.9954470688
101357.3605754297
101351.9177854726
101345.737676565
101338.9339263419
101331.6516748589
101324.0498536094
101316.2860530212
101308.5075749546
101300.8654140712
101293.6148110155
101287.3067484612
101282.8257189963
101280.7206737994
101280.1930791817
101280.0752638697
101280.1556566521
101280.4593986038
101281.0941643149
101282.165326778
101283.7771717971
101286.025022207
101288.9855102247
101292.7079220663
101297.2076869576
101302.4616119673
101308.4057824808
101314.9383901259
101321.9297592237
101329.2377844521
101336.7215309105
101344.250972623
101351.7043000098
101358.8896658519
101365.3772205572
101370.4221813866
101373.2560561379
101374.1296011256
101374.2992563882
101374.341980771
101374.1727704163
101373.726044966
101372.883329698
101371.5361944432
101369.5825879096
101366.9326730804
101363.5182667161
101359.301238902
101354.2792479959
101348.4894426059
101342.0089487953
101334.9490626618
101327.4437188
101319.6394760819
101311.6902705242
101303.7641504301
101296.1246279461
101289.3305375354
101284.313350959
101281.7719796761
101281.0717537894
101280.9355629277
101280.9649395937
101281.1978418008
101281.7232269412
101282.6405677628
101284.0485454775
101286.0400225721
101288.6939014411
101292.0673085568
101296.1901291492
101301.0605818906
101306.6418903723
101312.8621240999
101319.6197020525
101326.7941556687
101334.2561976549
101341.8734852776
101349.5123658043
101356.9846964627
101363.8745864251
101369.4291067901
101372.8131262896
101373.9951225297
101374.2062245919
101374.2851050845
101374.1728689431
101373.825060987
101373.1268833509
101371.9748837988
101370.2697738749
101367.9201939573
101364.851720622
101361.014303687
101356.3869535549
101350.9814928908
101344.8449912431
101338.0581269531
101330.7282883972
101322.982943991
101314.9685745702
101306.8565786191
101298.9029989951
101291.6422136298
101286.0244834714
101282.9087424822
101281.9340871255
101281.7742787248
101281.756337458
101281.9277879615
101282.3575011555
101283.1382120672
101284.36433028
101286.1275753589
101288.5086175644
101291.5696989021
101295.3502749063
101299.8636730757
101305.0936172874
101310.9923887096
101317.4831738088
101324.4672688999
101331.8315762804
101339.4511570475
101347.1901583484
101354.8715727562
101362.1209566433
101368.2000555027
101372.2089837208
101373.8325073448
101374.1366335355
101374.2321972247
101374.1703486208
101373.9079198266
101373.3371498373
101372.3586319087
101370.8756741645
101368.7954526484
101366.0385795608
101362.5467919911
101358.2862768518
101353.2502649094
101347.4621639733
101340.9766468591
101333.876115553
101326.2666266065
101318.2804403629
101310.0828087737
101301.9103211715
101294.2415178853
101288.0002634465
101284.1985888806
101282.826482267
101282.5941158138
101282.5435443676
101282.6647976462
101283.0069429105
101283.664796581
101284.7271880495
101286.2841387195
101288.4177295376
101291.1941160907
101294.6599088911
101298.8397684713
101303.7331302048
101309.3115025918
101315.5187522742
101322.2757780757
101329.4865353323
101337.0386936538
101344.8008136417
101352.6071896669
101360.1407510439
101366.7186080015
101371.3900768675
101373.5926357805
101374.0817225425
101374.1825352656
101374.1631960296
101373.9722597288
101373.5121112241
101372.6876838819
101371.4049655102
101369.5694136561
101367.0967661113
101363.9221028427
101360.0022335586
101355.3167637116
101349.8710003497
101343.6985452708
101336.8603194202
101329.4420123562
101321.5577219048
101313.3590314445
101305.0603469082
101297.0707556579
101290.2385160226
101285.6858586394
101283.7676425579
101283.3856493944
101283.3144559644
101283.3917091288
101283.6579741287
101284.2057388136
101285.1194366609
101286.4872375604
101288.3933421187
101290.9078909688
101294.0828535958
101297.9510032698
101302.5237112072
101307.7878953268
101313.704714487
101320.2121598832
101327.2299241633
101334.6596303339
101342.3796682267
101350.2361807605
101357.9695386172
101364.9872513696
101370.3165361694
101373.2074011571
101374.0215750606
101374.1210387756
101374.1396061485
101374.0078634277
101373.6438138459
101372.9562000449
101371.8538274027
101370.2417585627
101368.0314717346
101365.1517482294
101361.5516372483
101357.2003863686
101352.0892990756
101346.2348576544
101339.6797993463
101332.491670778
101324.7661147695
101316.6379420899
101308.3003111687
101300.0912181256
101292.7402462809
101287.4160950234
101284.8137749041
101284.1542777491
101284.0693628758
101284.1094914306
101284.3133259761
101284.7650379762
101285.5460506268
101286.7420430081
101288.4386088852
101290.7096971454
101293.6121468685
101297.1855504288
101301.4511076604
101306.4084549712
101312.0332918993
101318.2781684016
101325.076350242
101332.3431227632
101339.9695682289
101347.8128373985
101355.656694444
101363.024635213
101368.9865166489
101372.6230932353
101373.9141288772
101374.0740153319
101374.107184704
101374.0190708583
101373.7353295494
101373.1648895792
101372.223053331
101370.8158700631
101368.8502982819
101366.248199994
101362.9513677216
101358.9205976587
101354.1360316905
101348.6002048861
101342.3405877187
101335.4092397694
101327.8846924902
101319.8832713293
101311.5766663359
101303.2447048288
101295.4849505374
101289.4176849527
101286.026474338
101284.9481843152
101284.8201792369
101284.8274507825
101284.9777734629
101285.3467675309
101286.0097771428
101287.0490917687
101288.5511838844
101290.594064049
101293.239518103
101296.5329395003
101300.5034348127
101305.1611158838
101310.4940587673
101316.467638241
101323.0273890962
101330.1012712456
101337.5933882597
101345.3734541753
101353.2563754898
101360.8745515455
101367.4035477181
101371.7914127343
101373.6966098172
101374.0260719341
101374.0556162176
101373.9983313404
101373.7819531214
101373.3142140431
101372.5158682485
101371.2951246375
101369.5561576198
101367.214787561
101364.2056473875
101360.4816638319
101356.0136357872
101350.7926397344
101344.8331120362
101338.173600204
101330.8775811849
101323.0437763561
101314.823053377
101306.4511752643
101298.4009328161
101291.6661797418
101287.4334870976
101285.7902909352
101285.5254304358
101285.5180947071
101285.6259765451
101285.9238967573
101286.4832573873
101287.381378577
101288.7042680583
101290.5337772459
101292.936761865
101295.9638316016
101299.6506564907
101304.0162383861
101309.0595312379
101314.7576284867
101321.0671651539
101327.9267064119
101335.2527096813
101342.9295109097
101350.7942983815
101358.5578965738
101365.5513076808
101370.6814416478
101373.3034409572
101373.9519690967
101373.968737022
101373.9420116952
101373.7733605632
101373.3892717293
101372.712592622
101371.657043603
101370.1263244467
101368.0302234785
101365.2954593352
101361.8670807817
101357.7075134434
101352.7979430876
101347.1413258329
101340.7642516096
101333.7175624309
101326.0835045597
101317.9922239226
101309.6466812784
101301.420956494
101294.1312433043
101289.0415238851
101286.7053879192
101286.1754587504
101286.1462804066
101286.2229476192
101286.4598250036
101286.9304321495
101287.7047271714
101288.8657295916
101290.4982985482
101292.674237481
101295.4489108209
101298.8634458152
101302.9443433762
101307.7001983322
101313.1189488282
101319.1677362244
101325.7951594318
101332.9301144888
101340.4710177499
101348.2707796554
101356.0945588285
101363.4346035579
101369.2587421201
101372.6346406868
101373.7418350423
101373.841755287
101373.808792076
101373.671601212
101373.354693979
101372.7808199779
101371.8693727666
101370.5250983498
101368.654014934
101366.1764861607
101363.0302157187
101359.1693835863
101354.5658750636
101349.2122214482
101343.1240733506
101336.3408566423
101328.9295832582
101321.0014059885
101312.7339663779
101304.4257135797
101296.7109259632
101290.7986699872
101287.6473968911
101286.6908978452
101286.6074582941
101286.6625909215
101286.84642211
101287.2395779556
101287.9038781599
101288.917104876
101290.365109264
101292.3243994282
101294.8553105595
101298.0041242056
101301.8039451717
101306.2718924381
101311.4058421401
101317.1832350632
101323.5626025696
101330.4836405001
101337.8574530615
101345.5530733969
101353.3752578723
101360.9369584844
101367.3647108176
101371.5337948737
101373.2714992514
101373.5411718429
101373.4969329147
101373.3915365491
101373.1275562454
101372.6397052196
101371.8560689486
101370.6869409478
101369.0368666619
101366.8210828733
101363.970764489
101360.433045028
101356.1722578284
101351.1725290076
101345.440227218
101339.0049812969
101331.921708306
101324.2843226118
101316.2476280866
101308.0602676698
101300.2194811431
101293.7631327101
101289.8752579836
101288.4341544245
101288.2223962147
101288.2671879314
101288.409673972
101288.7400951969
101289.3095299022
101290.187966095
101291.4581398274
101293.1988993677
101295.4740781839
101298.333220141
101301.8136324211
101305.9386066267
101310.714266997
101316.1277876022
101322.1476465226
101328.7242215242
101335.7843124042
101343.2169948772
101350.8535249383
101358.3934046412
101365.1754685732
101370.0674791725
101372.4823616034
101373.0509536659
101373.051834466
101372.9533741554
101372.725072624
101372.3075012249
101371.6329711673
101370.6211230882
101369.1778312685
101367.2139217901
101364.6543113411
101361.4385508488
101357.5218162999
101352.878076518
101347.5027289278
101341.4139239519
101334.6536963211
101327.2962610322
101319.4700858693
101311.3850030872
101303.4202095049
101296.384003483
101291.5530174383
101289.3995976271
101288.9146188002
101288.9226233332
101289.0342306803
101289.3083451931
101289.7981224884
101290.5634590178
101291.6829034259
101293.2382803354
101295.299072781
101297.9203078984
101301.144686569
101305.0015608599
101309.5040170098
101314.6469571716
101320.406890555
101326.7431535604
101333.5953133789
101340.8685341998
101348.414414
101355.992730067
101363.1052304423
101368.7348301618
101371.9177734475
101372.9834909977
101373.0718602448
101372.9752790511
101372.7810684023
101372.4090510843
101371.8094972584
101370.9137437058
101369.6321283383
101367.8730951649
101365.554938319
101362.608508409
101358.9797260396
101354.6336450569
101349.5571377391
101343.7598372171
101337.2742434101
101330.1596187555
101322.5219412309
101314.5422409118
101306.5245348664
101299.0944675183
101293.4383486098
101290.4993233686
101289.6002112657
101289.5208313337
101289.6237250821
101289.8484738683
101290.2804633383
101290.9591099348
101291.9535536586
101293.3451035696
101295.2085642843
101297.6059283527
101300.5871272819
101304.1884288858
101308.4290647893
101313.3095436231
101318.8119765016
101324.9017360238
101331.5275376592
101338.6114181825
101346.0296232965
101353.583504704
101360.8856578131
101367.1132087763
101371.1397294762
101372.8066611963
101373.0938597787
101373.0349264307
101372.8618065755
101372.5246361381
101371.9804390173
101371.1732903172
101370.0257915402
101368.4482501119
101366.3550151458
101363.669346895
101360.3257466868
101356.2760973564
101351.4963601315
101345.9890187171
101339.781215479
101332.9235599292
101325.5032041543
101317.6720677315
101309.6799627958
101302.0099824216
101295.6532502373
101291.8080998991
101290.3828416146
101290.1342689251
101290.1889562111
101290.3776986544
101290.7617721805
101291.3754046182
101292.2742665757
101293.5299800655
101295.2155645133
101297.3977798331
101300.1361495193
101303.4789966732
101307.4567560035
101312.0779059091
101317.3290347424
101323.1773752862
101329.5745365304
101336.4532729177
101343.7085894058
101351.1735515689
101358.5535122231
101365.218853807
101370.0752646902
101372.4367238765
101373.0875004983
101373.1151447572
101372.9690826782
101372.6784991935
101372.170584439
101371.4189810769
101370.365557342
101368.9344255435
101367.0433069649
101364.6084507124
101361.5503009128
101357.8036865061
101353.3282017368
101348.1137110286
101342.1810173887
101335.5789572264
101328.3856627295
101320.7304181397
101312.8257453367
101305.0462459925
101298.171205089
101293.4242466518
101291.319264627
101290.7951496948
101290.741016751
101290.8839002458
101291.2075099689
101291.7692279529
101292.6029447856
101293.7626162888
101295.3088129278
101297.3022361779
101299.8057910736
101302.8818396946
101306.5807135907
101310.9290166825
101315.9248450822
101321.539027427
101327.7202992864
101334.4006129078
101341.4847338763
101348.8280108021
101356.2011748617
101363.1260307271
101368.6572098499
101371.8543692555
101372.96153614
101373.1397508851
101373.0943340441
101372.8690215137
101372.4199576765
101371.7132389174
101370.7105448013
101369.3639219842
101367.6160214059
101365.3965992736
101362.6207593319
101359.19914375
101355.0584862096
101350.1609157499
101344.5121555043
101338.1592632128
101331.1829242005
101323.7044901884
101315.9125994939
101308.107108657
101300.8938243751
101295.3957893115
101292.4658083025
101291.5460000984
101291.4004802567
101291.4272201609
101291.648352062
101292.1153856929
101292.8756281028
101293.9733522821
101295.4462438792
101297.32499944
101299.6453540134
101302.4625805693
101305.8497621141
101309.8761835711
101314.579672441
101319.9502805289
101325.9314297668
101332.4371085406
101339.3645481523
101346.5803778069
101353.897573789
101360.9652200366
101367.0056463152
101371.0087318058
101372.7065764977
101373.0653043616
101373.1114193723
101373.0005426968
101372.6946288715
101372.1149781324
101371.1985811287
101369.8936709069
101368.1715800751
101366.0200734246
101363.417758714
101360.3120704365
101356.6114020001
101352.1896860434
101346.9224405807
101340.770433274
101333.8863603301
101326.4841346555
101319.050462954
101310.4945588756
)
;

boundaryField
{
    inlet
    {
        type            uniformFixedValue;
        uniformValue    sine;
        uniformValueCoeffs
        {
            frequency       constant 3000;
            scale           constant 50;
            level           constant 101325;
        }
        value           uniform 101326.3578702043;
    }
    outlet
    {
        type            pressureOutletNSCBC;
        pInf            101325;
        gamma           1.4;
        etaAc           1;
        fieldInf        1;
        lInf            2.25;
        value           uniform 101306.6416432591;
    }
    frontAndBack
    {
        type            empty;
    }
}


// ************************************************************************* //
