/*--------------------------------*- C++ -*----------------------------------*\
| =========                 |                                                 |
| \\      /  F ield         | OpenFOAM: The Open Source CFD Toolbox           |
|  \\    /   O peration     | Version:  v2012                                 |
|   \\  /    A nd           | Website:  www.openfoam.com                      |
|    \\/     M anipulation  |                                                 |
\*---------------------------------------------------------------------------*/
FoamFile
{
    version     2.0;
    format      ascii;
    class       volScalarField;
    location    "0.0195";
    object      pMean;
}
// * * * * * * * * * * * * * * * * * * * * * * * * * * * * * * * * * * * * * //

dimensions      [1 -1 -2 0 0 0 0];


internalField   nonuniform List<scalar> 
1000
(
101325.3025391828
101325.2707530967
101325.2662053004
101325.2629519988
101325.2543054212
101325.2445018634
101325.2306903641
101325.2175501595
101325.2022472728
101325.1866120404
101325.1700913603
101325.1532574339
101325.1366358867
101325.1200797306
101325.1040786771
101325.0888892601
101325.0749474138
101325.0625534043
101325.0519349655
101325.0433831226
101325.0369626113
101325.0330589453
101325.0312329038
101325.0321028014
101325.0353782937
101325.041196809
101325.0493712362
101325.0598385039
101325.0723412089
101325.0868136915
101325.1030141313
101325.1207258921
101325.1393371303
101325.1583066755
101325.1776699817
101325.1966811572
101325.2155524341
101325.234004867
101325.2517962751
101325.2685209651
101325.2838946772
101325.2975015134
101325.3091629346
101325.3185755224
101325.3259068076
101325.3303726693
101325.3327211801
101325.3324336382
101325.3298448897
101325.3248742991
101325.3176918819
101325.3082992102
101325.2968416621
101325.283447417
101325.2684411415
101325.2524614957
101325.2359207205
101325.2199510693
101325.2036678129
101325.1875694293
101325.1717778293
101325.1565624941
101325.1421787178
101325.1290871475
101325.1175158408
101325.1079229868
101325.1004339797
101325.0955247502
101325.0927115107
101325.0927166091
101325.0950010525
101325.0999758098
101325.1072808589
101325.1170254023
101325.1289727
101325.1430783446
101325.1591159472
101325.176680824
101325.1951549168
101325.2135557209
101325.2326861723
101325.2513663641
101325.2698633434
101325.2881323122
101325.3058472133
101325.3227671369
101325.3385781794
101325.3529254446
101325.3654829642
101325.3759655265
101325.3842483181
101325.3900098942
101325.3932309314
101325.393835749
101325.3921465269
101325.387961141
101325.3815206334
101325.3727916153
101325.3618277829
101325.3488478653
101325.3341268959
101325.3185148533
101325.3021392007
101325.2865291707
101325.2705720157
101325.2546880246
101325.2391454872
101325.2240060094
101325.2095679675
101325.1961300744
101325.1840179981
101325.1735870844
101325.1651488771
101325.1589715683
101325.1553879641
101325.1540454572
101325.1553527737
101325.1594268007
101325.1659047251
101325.1749547724
101325.1863769467
101325.200056797
101325.2157959905
101325.2331011362
101325.2513584187
101325.2695088295
101325.2882908136
101325.3068257538
101325.3250444823
101325.3431699357
101325.3607920475
101325.3778149087
101325.3938282232
101325.4086751366
101325.4218744929
101325.4332870033
101325.4424399606
101325.4496187155
101325.4536662593
101325.4554748102
101325.4547151391
101325.4514168483
101325.4456985443
101325.4376434988
101325.4272478743
101325.4147494807
101325.4004268568
101325.3850982414
101325.3691385644
101325.35339801
101325.3379017524
101325.3222277337
101325.3068513393
101325.2918326229
101325.2774
101325.2637619974
101325.2512987233
101325.2402640603
101325.2310510955
101325.2238356889
101325.2193170759
101325.2166386076
101325.217011109
101325.2199650341
101325.225581597
101325.2338148324
101325.2446138951
101325.2578322686
101325.2731887116
101325.2902480406
101325.3082278513
101325.3264398116
101325.3444752673
101325.3631354348
101325.3812024591
101325.3991535409
101325.4167170548
101325.4337723764
101325.4499504243
101325.4651154196
101325.47883079
101325.4909452585
101325.5009583647
101325.5091523132
101325.5142509012
101325.5173337637
101325.5175124818
101325.5152877085
101325.5103638806
101325.5030619921
101325.4933266795
101325.4813550151
101325.4674916419
101325.4524054279
101325.4369407619
101325.4209095516
101325.4058909568
101325.3904566462
101325.3751708814
101325.3602722591
101325.3458568118
101325.3321522253
101325.3193959062
101325.3079521639
101325.2980857695
101325.290099624
101325.2844797246
101325.2809881434
101325.280221419
101325.2819686348
101325.2866473634
101325.2939286631
101325.3039713262
101325.3166231577
101325.3315425203
101325.348336605
101325.3660731057
101325.3843089333
101325.4018857198
101325.420559301
101325.438546065
101325.4562997111
101325.4738099284
101325.4908732499
101325.5072145273
101325.5225826049
101325.5367398295
101325.5493947069
101325.5602343879
101325.569062804
101325.5757130611
101325.5795742213
101325.5808623576
101325.5797093235
101325.5757565409
101325.5692793582
101325.560290284
101325.5489447923
101325.5355731457
101325.520807007
101325.5056207775
101325.4897527589
101325.4748086835
101325.4596713397
101325.4444583666
101325.4296724171
101325.4152882484
101325.4015704636
101325.3886033384
101325.376852984
101325.366452227
101325.3578730787
101325.3511887037
101325.3472179606
101325.3450150233
101325.345819008
101325.3493963756
101325.3557558245
101325.3648812381
101325.3768190512
101325.3912441411
101325.4076803889
101325.4252419292
101325.443313359
101325.4610018466
101325.4790647664
101325.4972466429
101325.5148904008
101325.5323518988
101325.5494104629
101325.5658786121
101325.5814509979
101325.595936306
101325.6090658832
101325.6205835612
101325.6300828793
101325.6379031388
101325.6425232984
101325.6450787903
101325.6449301024
101325.6420913413
101325.6365161266
101325.6283570435
101325.617759585
101325.6049446171
101325.5906059272
101325.5755458812
101325.5602654445
101325.5447450773
101325.5301634083
101325.5151230894
101325.5004208994
101325.4860589957
101325.4723476165
101325.4592941282
101325.447249928
101325.4364686543
101325.427333689
101325.4199057616
101325.4151277685
101325.4118617313
101325.4118136941
101325.4142202014
101325.4196352566
101325.4277782218
101325.4388733231
101325.4526688461
101325.4686659621
101325.4860317151
101325.5038829376
101325.5218588039
101325.5391590688
101325.5576106247
101325.5752528225
101325.5926222421
101325.6096630564
101325.626230277
101325.6420145425
101325.6567398118
101325.6702905529
101325.6823354665
101325.6925806221
101325.7010531512
101325.7069294064
101325.7104784132
101325.7112908234
101325.7095749719
101325.7050228366
101325.697753599
101325.6879641077
101325.6758392879
101325.6619884619
101325.6471312043
101325.632284011
101325.6165424915
101325.6022790278
101325.5874713077
101325.5727799841
101325.5584727326
101325.5447420508
101325.5316605239
101325.5194022265
101325.5083064396
101325.4986737389
101325.4907405502
101325.4848800782
101325.4814008402
101325.4800114421
101325.4814035883
101325.4857947841
101325.4929818537
101325.5031081617
101325.5161114735
101325.5315988555
101325.548673625
101325.5663848927
101325.5843441465
101325.6015828907
101325.6197164467
101325.63754647
101325.6548024544
101325.6718878529
101325.6884660287
101325.7044685084
101325.7194438976
101325.7333227503
101325.7458281042
101325.7567861629
101325.7657161111
101325.7730383676
101325.7771322092
101325.7791114641
101325.7784309465
101325.7750008795
101325.7686932645
101325.7597680755
101325.7484338932
101325.7351598639
101325.7206594194
101325.7059200459
101325.690748967
101325.6758739433
101325.6616240039
101325.6470227176
101325.6328103664
101325.6190198617
101325.6059458023
101325.5935808847
101325.582184568
101325.5721585339
101325.5637617474
101325.5570998669
101325.5531348652
101325.5505361602
101325.5511748922
101325.5544732367
101325.5607175755
101325.5698748532
101325.5819643969
101325.5967937284
101325.6135073516
101325.6311024332
101325.6488663233
101325.6665505657
101325.6837414059
101325.7019836684
101325.7192980722
101325.7363811197
101325.7529826661
101325.7691433888
101325.784405024
101325.7985670557
101325.8114859798
101325.8229939036
101325.8325957827
101325.8406967468
101325.8457225677
101325.8488453788
101325.8490808288
101325.8467809465
101325.8415502238
101325.833545523
101325.8230379382
101325.8104613258
101325.7964325966
101325.7817999723
101325.7672288747
101325.7518402248
101325.738051798
101325.7236702921
101325.7094538182
101325.695678455
101325.6825316035
101325.6701410532
101325.6585460036
101325.6481606861
101325.6392990878
101325.6321631831
101325.6272061028
101325.6243478063
101325.6238681557
101325.6261134651
101325.6313938842
101325.6395840325
101325.6506996586
101325.6647047948
101325.6809559935
101325.6983992215
101325.7160091469
101325.7338676099
101325.750732267
101325.7689301139
101325.786447662
101325.8034462227
101325.820156707
101325.8363578202
101325.8519216665
101325.8663977819
101325.8796538672
101325.8916147681
101325.9019687886
101325.9104144269
101325.9170451276
101325.9206320304
101325.9219517799
101325.9207096069
101325.9165924504
101325.9096223145
101325.8999624198
101325.8881479407
101325.8746934645
101325.860313323
101325.8459549851
101325.8309871432
101325.816700985
101325.802843815
101325.7886782797
101325.774993844
101325.7617316864
101325.749329685
101325.7376280259
101325.7269390655
101325.7176392281
101325.7101003358
101325.7042742022
101325.7012137642
101325.6994257672
101325.7009321289
101325.7051852767
101325.7124191797
101325.722591001
101325.7356570471
101325.7512742174
101325.7684611449
101325.7860313718
101325.8037169336
101325.821091586
101325.8382521656
101325.8562816665
101325.873362205
101325.8901453293
101325.9064072137
101325.9221570277
101325.9369982976
101325.9505922763
101325.9629450483
101325.9738979044
101325.9829367304
101325.9905260368
101325.994806228
101325.9973284146
101325.9969966111
101325.9940177273
101325.9881591627
101325.9794444295
101325.968404175
101325.9556083644
101325.9416971924
101325.9273523453
101325.9131264548
101325.8981537363
101325.8848570965
101325.8708849909
101325.8571905187
101325.8439274834
101325.8313920445
101325.819697517
101325.8087861167
101325.7991401933
101325.7911211362
101325.7848339384
101325.780874687
101325.7787575745
101325.7792751092
101325.7824785626
101325.7887884942
101325.7979850861
101325.8101410217
101325.8249290807
101325.8417754383
101325.8592923287
101325.8767646626
101325.8945226471
101325.9111821581
101325.9293288889
101325.9466248933
101325.9633790301
101325.9798034557
101325.9956251637
101326.0108399786
101326.0247990754
101326.0375655621
101326.0489362846
101326.0587685285
101326.066680561
101326.0726274626
101326.075599224
101326.0763058574
101326.0744253147
101326.0696669355
101326.0620602057
101326.0517940959
101326.0397487469
101326.0262797574
101326.0121795242
101325.9983262896
101325.9836451054
101325.9699222881
101325.9564952686
101325.9428489396
101325.9296780988
101325.9170145318
101325.905263028
101325.8943110314
101325.8843090697
101325.8758991319
101325.8692230911
101325.8643796781
101325.8622040644
101325.8613839268
101325.8638644522
101325.8692078567
101325.8774678873
101325.8887291847
101325.9026436731
101325.918939736
101325.936288995
101325.9538011433
101325.9714161188
101325.9886198027
101326.0057080638
101326.0236144397
101326.0404841451
101326.0570431617
101326.0729892836
101326.0883934134
101326.1028991686
101326.1158548674
101326.127947397
101326.1382635845
101326.1467428027
101326.1537701808
101326.157358937
101326.1592625216
101326.1583147793
101326.1547138704
101326.148213874
101326.1389564886
101326.1274883055
101326.1148217592
101326.1009186911
101326.0871729273
101326.0733574431
101326.0588952815
101326.0461005555
101326.0326348791
101326.0194638902
101326.0068077361
101325.994868764
101325.9840033398
101325.9736075641
101325.9651806892
101325.9578380675
101325.9525280423
101325.9495533371
101325.9484201845
101325.9499149753
101325.9542565409
101325.9616415026
101325.9719436687
101325.9850957239
101326.0005253668
101326.0179214559
101326.0350721336
101326.0527260487
101326.0703689575
101326.0869641775
101326.1050210897
101326.1221572111
101326.1387432089
101326.1549254398
101326.1704513132
101326.1853759461
101326.1987967553
101326.2113329225
101326.2221901021
101326.2314327321
101326.2388247071
101326.2441344936
101326.2464440555
101326.2465661975
101326.2441099472
101326.2387280716
101326.2306214426
101326.2198494488
101326.2079269795
101326.1943841598
101326.180918578
101326.16754797
101326.1534737706
101326.1402140987
101326.1273643127
101326.1142827804
101326.1017431359
101326.0897215869
101326.0787336479
101326.0685566644
101326.0593540648
101326.0521551121
101326.0462715551
101326.0424766432
101326.0413928091
101326.0415602948
101326.0452649596
101326.0517696085
101326.0612204926
101326.0735727128
101326.0883518769
101326.1052382027
101326.1226176376
101326.1400534743
101326.1579228835
101326.1750970386
101326.1921728632
101326.2100509676
101326.2268677715
101326.2432770631
101326.2590838187
101326.2742271401
101326.2885641286
101326.3009078094
101326.313140072
101326.3227025876
101326.330826075
101326.3373488062
101326.3403939288
101326.3417890687
101326.3403447049
101326.3362619385
101326.3293147327
101326.3197085534
101326.308197731
101326.2957342648
101326.282265422
101326.2694474419
101326.2560832577
101326.2422987525
101326.2301666396
101326.2173551265
101326.2048695059
101326.1929666315
101326.1818083058
101326.1718705093
101326.1621427697
101326.1551116331
101326.1486404102
101326.1442993899
101326.1424428192
101326.142348979
101326.1449338137
101326.1503488361
101326.1588427128
101326.1700662217
101326.183990928
101326.1996901918
101326.2170021458
101326.233828075
101326.2512444799
101326.268433423
101326.284816291
101326.3023282782
101326.319129932
101326.3352306135
101326.3509566255
101326.3659054772
101326.3803440975
101326.3929268737
101326.4051944966
101326.4153721061
101326.4236477919
101326.4304616914
101326.4351741038
101326.4367226908
101326.4363242171
101326.433353483
101326.4275607415
101326.4191482363
101326.4083543726
101326.3966349923
101326.3838323651
101326.3710070596
101326.3585954174
101326.3452556382
101326.3326338886
101326.3206462298
101326.3083602129
101326.2966705187
101326.2855297111
101326.2755137091
101326.266163699
101326.2582380912
101326.2520144175
101326.2470550852
101326.2443291262
101326.2444963453
101326.2454821163
101326.2503555927
101326.2578019561
101326.268182022
101326.2812199043
101326.2963874084
101326.3130855839
101326.3301586256
101326.3471357013
101326.3648196643
101326.3814235225
101326.3979385761
101326.4154405614
101326.4316901064
101326.4475472684
101326.4627547353
101326.4772791398
101326.4909005616
101326.5025906856
101326.513969488
101326.5231095429
101326.5300703629
101326.5360941794
101326.5382889353
101326.5390565043
101326.5369116397
101326.5323637804
101326.5249482552
101326.515197136
101326.5037170009
101326.4915547921
101326.4789756931
101326.4666874945
101326.4541581888
101326.4408698282
101326.4294710994
101326.4173783481
101326.4055849042
101326.3944945142
101326.3841465751
101326.3750821854
101326.3662739691
101326.3601462554
101326.3551416285
101326.3511205394
101326.3506308266
101326.3518050708
101326.3553173801
101326.3618739835
101326.3714543314
101326.3836538835
101326.3983120578
101326.4143971493
101326.4314816491
101326.4486501878
101326.4656313815
101326.4832997807
101326.4992920821
101326.5164852674
101326.5333172423
101326.5492265856
101326.564745587
101326.5794345135
101326.5935354416
101326.6056812837
101326.6176465782
101326.627412348
101326.6350073467
101326.6411546221
101326.6456998731
101326.6462284253
101326.645417378
101326.6418280578
101326.6355970153
101326.626801035
101326.6160130834
101326.6041173361
101326.5920912608
101326.5796412133
101326.5679718544
101326.55509211
101326.5425599742
101326.5314137111
101326.5196748196
101326.5085788509
101326.4981592602
101326.4888271407
101326.4802830624
101326.4732231339
101326.4678038527
101326.4642640366
101326.4618631741
101326.4635902396
101326.465464658
101326.4716637348
101326.4800804696
101326.4916187144
101326.5055033401
101326.5213867121
101326.5379205805
101326.5551770868
101326.5722957583
101326.5894944918
101326.6067375527
101326.6223284279
101326.6401369768
101326.6563057024
101326.6718501802
101326.6869154331
101326.7010948146
101326.7143304297
101326.7256514801
101326.7364864973
101326.7455552102
101326.7512494828
101326.7567535303
101326.7592063134
101326.7587775819
101326.7561945569
101326.7510684077
101326.7432702868
101326.7333964117
101326.7219033609
101326.7100298254
101326.6982725829
101326.6859344006
101326.6749352281
101326.6615358916
101326.6501833233
101326.6391102561
101326.6278351596
101326.6174591761
101326.6078856865
101326.5994444899
101326.5916198356
101326.5863241706
101326.582294176
101326.5795791586
101326.579413667
101326.58280303
101326.5863859687
101326.5945607021
101326.6050318515
101326.6182585263
101326.6335694849
101326.650170819
101326.6667962514
101326.6841942927
101326.7012033749
101326.7186200269
101326.7353555456
101326.7507900811
101326.7684065171
101326.7842324208
101326.7994495756
101326.814097294
101326.8275680286
101326.8397011618
101326.8506240987
101326.8599989338
101326.8680304287
101326.8720871188
101326.8767417674
101326.8768467027
101326.8756822576
101326.871352161
101326.8646860144
101326.855580094
101326.8449887637
101326.8331246814
101326.8215783817
101326.8100040285
101326.7979870164
101326.7873625061
101326.7735424381
101326.7637027904
101326.752795096
101326.741869379
101326.7324160257
101326.7236355528
101326.7159646894
101326.7094811501
101326.7053616888
101326.7031022074
101326.7014258911
101326.7034532998
101326.7083891949
101326.7140517901
101326.7242705024
101326.736513478
101326.7512299482
101326.7674229632
101326.7844457277
101326.8010830647
101326.8184917238
101326.8355132636
101326.8527713867
101326.8696051949
101326.8842243949
101326.9017249279
101326.9172285241
101326.9321656377
101326.9463393267
101326.9586474147
101326.9700368948
101326.9801260422
101326.9883411995
101326.9950201287
101326.9976509504
101327.0008933922
101326.9990095931
101326.9971318161
101326.9910621891
101326.9829870773
101326.9728926737
101326.9618287634
101326.9501435967
101326.9387311127
101326.9274033721
101326.9156900722
101326.9055794485
101326.8917402282
101326.882824683
101326.8724977152
101326.8618384402
101326.8541067475
101326.8448691339
101326.8387839735
101326.8339333739
101326.8307398954
101326.8305237263
101326.8301808117
101326.8338523238
101326.8406013154
101326.8524256671
)
;

boundaryField
{
    inlet
    {
        type            calculated;
        value           uniform 101325.2720430063;
    }
    outlet
    {
        type            calculated;
        value           uniform 101326.8555573145;
    }
    frontAndBack
    {
        type            empty;
    }
}


// ************************************************************************* //
