/*--------------------------------*- C++ -*----------------------------------*\
| =========                 |                                                 |
| \\      /  F ield         | OpenFOAM: The Open Source CFD Toolbox           |
|  \\    /   O peration     | Version:  v2012                                 |
|   \\  /    A nd           | Website:  www.openfoam.com                      |
|    \\/     M anipulation  |                                                 |
\*---------------------------------------------------------------------------*/
FoamFile
{
    version     2.0;
    format      ascii;
    class       volScalarField;
    location    "0.0195";
    object      rho;
}
// * * * * * * * * * * * * * * * * * * * * * * * * * * * * * * * * * * * * * //

dimensions      [1 -3 0 0 0 0 0];


internalField   nonuniform List<scalar> 
1000
(
1.176546621042224
1.176523491669842
1.176576471240016
1.176619672618074
1.176670874291057
1.176717203573145
1.17675601547307
1.176788446524202
1.17681567400848
1.176833847766295
1.176839271605798
1.176838771863563
1.176834886067539
1.17682524785344
1.17680765988041
1.176781265302398
1.176747028396381
1.17670653588195
1.176661084909125
1.176611558560171
1.176558679750777
1.176503251006253
1.176446214533925
1.176388575972243
1.176331324450628
1.17627542755535
1.176221824038465
1.176171259766267
1.176124039434336
1.176080278238955
1.176041451776957
1.176012211558371
1.175997425810799
1.17599455234572
1.175995147868712
1.175998157156992
1.176005750960109
1.17601977171225
1.176041705880209
1.176072188826162
1.176110745693087
1.17615598987046
1.176206159576876
1.176259635039236
1.176315179659125
1.176371889877448
1.176429008880213
1.176485773866394
1.176541395327303
1.176595196770291
1.176646797501336
1.176696039954579
1.176742393868289
1.176783469825191
1.176813404915865
1.176827321582539
1.176830199912253
1.176830364270832
1.176828097016131
1.176822174041404
1.176810925556269
1.176792809053999
1.176766720643219
1.176732292948755
1.176690015036609
1.176641135516164
1.176587363912245
1.176530491454391
1.176472093100983
1.176413396674901
1.176355294490693
1.176298415860625
1.176243169442063
1.176189752779666
1.176138359729436
1.176090024498577
1.176048378137311
1.176020079744102
1.176008064099323
1.17600595743996
1.176006394979515
1.176009010092765
1.176015081023911
1.176025963876955
1.176043026614374
1.176067372028057
1.176099570959123
1.176139489432136
1.176186276843073
1.176238512638488
1.176294468694602
1.176352411218095
1.17641085800977
1.176468729124523
1.176525372354412
1.176580516995287
1.176634162474569
1.176686187358752
1.176735529398041
1.176778879409585
1.176809641081814
1.176823327016697
1.176826304238904
1.176826860880325
1.176825185703068
1.176820608767429
1.176811725562495
1.176797230215629
1.176775975284285
1.176747167540745
1.176710530482349
1.176666415535548
1.176615809478806
1.176560209528843
1.176501388886813
1.176441106211805
1.176380832108153
1.176321580371205
1.176263881159326
1.176207895310953
1.176153837751327
1.176103023017489
1.176059525186629
1.176030269751172
1.176018013532621
1.176015649919193
1.176015651385426
1.176017699198647
1.176022647938729
1.176031638119081
1.176045845064228
1.176066339405733
1.176093894022594
1.176128836329297
1.176170957020108
1.176219489329617
1.176273176473476
1.176330434562285
1.176389594800167
1.176449170446072
1.176508056613808
1.176565615543211
1.176621628648827
1.176675887441016
1.176727247877924
1.176772395071419
1.176804924944635
1.1768199832841
1.176823600103817
1.176824506083383
1.176823378842661
1.176819859627577
1.176812696937074
1.176800719589844
1.176782848061428
1.176758208040219
1.176726249985053
1.176686869257254
1.17664048459706
1.176588039172935
1.176530910315083
1.176470726495416
1.176409114628555
1.176347458991048
1.176286757936117
1.176227617115432
1.17617058695186
1.176117202042473
1.176071560495914
1.176040535969596
1.176027275404617
1.176024409251273
1.176023963317296
1.176025498657101
1.176029489911917
1.17603701972981
1.176049104736806
1.176066738549354
1.176090735265493
1.176121605904494
1.176159469270835
1.176203995968768
1.176254399322528
1.176309492846584
1.17636782935069
1.17642791164624
1.176488409652004
1.17654831087537
1.176606978286498
1.176663888028823
1.176717714708867
1.176765133689032
1.176800055035183
1.176817167521682
1.176821599014975
1.17682277220328
1.176822158887606
1.176819492459621
1.176813697677701
1.176803694672664
1.176788473290449
1.176767155616723
1.176739075169206
1.176703883009852
1.17666163776434
1.17661284887808
1.176558460727175
1.176499764997952
1.176438232796262
1.176375311198242
1.176312263984179
1.176250093120671
1.176189752590847
1.176133109635946
1.176084491301334
1.176050902485797
1.176035993128192
1.176032509298084
1.176031749653004
1.176032835189518
1.176036027221695
1.176042329509147
1.176052675658411
1.17606799101954
1.176089086266281
1.176116555385741
1.176150697082988
1.17619145739582
1.176238395893473
1.176290691408593
1.176347208570107
1.176406634968825
1.176467654325346
1.176529090184207
1.176590004934772
1.17664958374706
1.176706319587387
1.176756734240346
1.176794768746221
1.176814627881524
1.176820159703368
1.176821485435625
1.176821360691015
1.176819400386133
1.176814738022717
1.176806365803251
1.176793331610575
1.176774773539675
1.176749972570745
1.17671844278909
1.176680014746471
1.176634887554299
1.176583646268777
1.176527233132092
1.176466851307127
1.176403818395708
1.176339440984213
1.176274940453757
1.176211568913121
1.176151443052413
1.176099132249312
1.176061971907046
1.176044514986306
1.176040139655389
1.176039162595069
1.176039829256349
1.176042348132061
1.176047612168976
1.176056495191069
1.176069861989591
1.176088502997292
1.176113053603478
1.176143922371369
1.176181237047136
1.176224805057095
1.176274096122703
1.176328265746969
1.176386238395827
1.17644683554064
1.17650888844598
1.176571318921015
1.176633116989089
1.176692692072048
1.176746480455628
1.176788307603666
1.17681180264461
1.176819044959067
1.176820451501822
1.176820805691744
1.176819402783118
1.176815699076166
1.176808712318766
1.176797543510606
1.176781346513863
1.176759376415671
1.176731067779345
1.176696104281912
1.176654466268985
1.176606461466039
1.176552729048174
1.176494191528047
1.176431959181667
1.176367247044729
1.176301331423988
1.176235605760878
1.176172255262509
1.176115914348681
1.176074307969878
1.176053232729916
1.176047425803461
1.176046296363794
1.176046539955572
1.176048471359564
1.176052828304625
1.176060435689441
1.176072111833623
1.176088626779159
1.176110634760814
1.176138609383828
1.176172798300829
1.176213186520968
1.176259468824455
1.176311048470867
1.176367082869967
1.176426572862616
1.176488446235434
1.176551605523211
1.176614942489294
1.176676897209497
1.176734021640894
1.176780073657288
1.176808129899116
1.17681792951945
1.176819679687783
1.176820333642672
1.176819403096342
1.176816519488622
1.176810731060277
1.176801180089502
1.176787043356857
1.176767563345045
1.176742122905775
1.176710306914523
1.176671941134589
1.176627123332311
1.176576243483291
1.176519970221367
1.176459193674277
1.176394970524508
1.176328515185895
1.176261248798527
1.176195294544922
1.176135083940091
1.176088497664151
1.176062659372197
1.176054576663733
1.176053251370154
1.176053102563181
1.176054524357808
1.176058087897839
1.176064562218658
1.176074730219354
1.176089352473661
1.176109097892317
1.176134482522844
1.176165833405237
1.176203260864234
1.17624662969786
1.176295543945984
1.176349366387968
1.176407278314357
1.176468341711734
1.17653152045113
1.176595687993755
1.176659376677526
1.176719482025356
1.176769883493188
1.17680312082699
1.176816581067451
1.176819102479323
1.176819894754726
1.176819381963653
1.176817206215438
1.176812474096378
1.176804361431695
1.176792066539418
1.176774819777241
1.176751962858811
1.176723012593438
1.176687688451471
1.176645934076173
1.176597943274099
1.176544169057951
1.176485294359894
1.17642219828017
1.176355977258372
1.176288001394242
1.176220232469019
1.176156638851775
1.17610488220192
1.176073355741236
1.176061977066809
1.176060050066833
1.176059630668231
1.176060636186802
1.176063473533231
1.176068929007973
1.176077739239604
1.176090650726569
1.176108344090866
1.176131367851676
1.176160108403835
1.176194770074833
1.176235347970814
1.176281605585837
1.176333077186401
1.176389106595837
1.176448897174634
1.17651151729805
1.176575876969406
1.176640602173184
1.176703064041359
1.176757600955979
1.176796331433837
1.176814592355865
1.176818647235848
1.176819483034996
1.1768193226825
1.176817739661438
1.176813924678147
1.176807089547151
1.176796454811387
1.176781236593919
1.176760736213334
1.17673441530706
1.176701915623348
1.176663067860905
1.176617915768782
1.176566737662108
1.176510038357219
1.176448528054025
1.176383152548292
1.176315168538508
1.176246353776256
1.176180100583406
1.176123443496274
1.176085689503472
1.176069782093195
1.17606661427269
1.176066023864481
1.17606666449823
1.176068872576567
1.176073415091157
1.176080992221231
1.176092335117197
1.176108141989607
1.176128994419426
1.176155323259786
1.176187400133992
1.176225319146265
1.176268971587993
1.176318035125568
1.176371995310699
1.176430185979892
1.176491791176592
1.176555802361932
1.176620943708079
1.176685062530718
1.176743246604462
1.176787431119227
1.176811398690426
1.176818148796465
1.176818973415894
1.176819127341098
1.176818035080547
1.176815016829942
1.176809315990575
1.176800176472018
1.176786811133969
1.176768485994991
1.176744610490407
1.176714762048339
1.176678685512656
1.176636308547593
1.1765877675402
1.176533416541237
1.176473815304933
1.176409756573337
1.176342357920023
1.176273220841639
1.176205148043645
1.176144189785749
1.176100038263127
1.17607845779929
1.176072988702231
1.176072284509991
1.176072617279063
1.176074307631197
1.17607805359101
1.17608453037799
1.176094448492049
1.176108517705604
1.176127351193297
1.176151420206524
1.176181052935407
1.176216425007497
1.17625753319842
1.176304175761798
1.176355958975521
1.176412329215978
1.176472583792115
1.176535819373678
1.176600851358907
1.176665886786492
1.176726974976723
1.176776404510447
1.176806554710804
1.176817258378176
1.176818583949705
1.176818858939631
1.176818128398657
1.176815775962821
1.176811046583468
1.176803238040743
1.176791571383498
1.176775275172004
1.176753701491931
1.176726367626778
1.176692948371486
1.176653278869503
1.176607379885834
1.176555478898246
1.176498007247162
1.176435615774911
1.176369268742045
1.176300389572117
1.176231298530315
1.176166950956548
1.176116637352688
1.176088514927486
1.176079572888944
1.176078511362959
1.176078571656927
1.176079818242901
1.176082878230589
1.17608837643018
1.176096995237023
1.176109451718154
1.176126392741966
1.17614833059628
1.176175641594134
1.176208566947989
1.176247190317778
1.176291412601176
1.176340946429236
1.176395339911639
1.176453995440528
1.176516117629904
1.176580626009621
1.176645985775581
1.176709149088116
1.176763280810592
1.17679965993335
1.176815455496099
1.176818186980099
1.176818431918099
1.176817956975136
1.176816163028754
1.1768122851161
1.176805666221513
1.176795545306389
1.176781127860331
1.176761715894446
1.176736767351359
1.176705891800708
1.176668846942872
1.176625558555927
1.176576146060799
1.176520928767082
1.176460432682251
1.176395476073159
1.176327309660739
1.176257888248248
1.176191132377874
1.176135283944439
1.176100183509636
1.176086556869709
1.176084360435648
1.176084299597429
1.176085194230764
1.176087664812988
1.176092303465104
1.176099751376654
1.176110721766776
1.176125893364756
1.176145820514484
1.176170922800891
1.176201495881422
1.176237697153207
1.176279517732195
1.176326767433247
1.176379086412678
1.17643596499421
1.176496710210233
1.17656036280038
1.176625572662528
1.176689942118164
1.17674792462419
1.176790457961713
1.176812196419015
1.176817573207216
1.17681771222341
1.176817490643902
1.176816092391376
1.17681290800075
1.176807297815362
1.176798546497223
1.176785855610978
1.176768477171417
1.17674580352203
1.176717378935658
1.176682891709386
1.176642185635079
1.176595284963746
1.176542409868824
1.176483981593
1.176420681780452
1.176353589295635
1.176284386882912
1.176216176434532
1.176155726410806
1.176113519152168
1.176094146199478
1.176089751618635
1.176089509647208
1.176090145426687
1.176092109790243
1.176096012421068
1.176102433460241
1.176112061351832
1.176125599776116
1.176143644118894
1.176166653408997
1.176194968574357
1.176228809214755
1.176268246407834
1.176313179908049
1.176363336998023
1.176418291199281
1.176477452671369
1.17653997888023
1.176604650045781
1.17666951892628
1.176730375762231
1.176778663245076
1.176806652209257
1.176815831700294
1.176816660113391
1.17681638681981
1.176815249397263
1.176812621990606
1.176807864135261
1.176800307533177
1.176789162431034
1.17677364959838
1.176753108706327
1.176727023148879
1.176695012877979
1.176656844593148
1.176612456127316
1.176561976963975
1.17650573369292
1.176444281632597
1.176378542135027
1.176309987950401
1.176241093737714
1.176177119270593
1.176128091294012
1.176101958726063
1.176094026717804
1.176093334773358
1.176093791973789
1.176095316438377
1.176098576781091
1.176104085655327
1.176112488077364
1.176124495961368
1.176140743718373
1.176161731611944
1.176187843328556
1.176219353247733
1.176256403149091
1.176298975209483
1.176346882125125
1.176399779780117
1.176457167878391
1.176518309072625
1.176582117233544
1.176646973385038
1.176709668437868
1.176762960753872
1.176797526019848
1.176811932955023
1.176814168747067
1.176813801972357
1.176812928152659
1.176810739549434
1.176806694886448
1.17680019793187
1.176790504932202
1.176776824457548
1.17675845368838
1.176734821908263
1.176705490668779
1.176670164078564
1.176628710304358
1.17658118189051
1.176527824210734
1.176469092304387
1.176405764579046
1.1763391243879
1.176271233327651
1.176206214666697
1.1761526752242
1.176120434471884
1.176108483827156
1.176106727775339
1.176107099221015
1.176108280816634
1.176111020904284
1.176115743061019
1.176123027670173
1.176133560817698
1.176147996329237
1.176166863490847
1.176190573058315
1.176219434278811
1.176253640139259
1.176293241233824
1.176338130988384
1.176388047781027
1.176442579898123
1.176501120135527
1.176562748533256
1.176626065798061
1.176688580370181
1.176744810634793
1.176785369780442
1.176805391117635
1.176810105188984
1.176810112492343
1.176809296180238
1.176807403381537
1.176803941387508
1.176798349002996
1.176789959974222
1.176777993896962
1.176761711396505
1.17674048988789
1.176713828076964
1.176681354171523
1.17664285214558
1.176598283598408
1.176547798746869
1.176491745823013
1.176430739886895
1.176365845889085
1.176298803547733
1.176232757172301
1.176174409706329
1.176134348303165
1.176116490698869
1.176112468913251
1.176112535294334
1.176113460823434
1.176115733974467
1.176119795550472
1.176126142250135
1.176135425438681
1.176148323631023
1.176165412973617
1.176187149705864
1.176213887816986
1.176245870565281
1.176283206290983
1.176325852515616
1.176373614220749
1.176426153980024
1.176482970448457
1.176543277048675
1.176605843119118
1.176668676797603
1.176727647078788
1.176774321708986
1.176800710964405
1.176809546599584
1.176810279250695
1.176809478520413
1.176807868364222
1.176804784050501
1.176799813278887
1.176792386769529
1.176781761132301
1.176767177254141
1.176747957658165
1.176723528934267
1.176693442573178
1.17665740865311
1.176615318106684
1.176567250544435
1.176513475148319
1.176454482994939
1.17639115253471
1.17632498461488
1.176258500055914
1.176196887002173
1.176149983397337
1.176125611126378
1.176118155074397
1.176117496802409
1.176118350071135
1.176120213844963
1.17612379619867
1.17612942399688
1.176137670585119
1.176149210209049
1.17616466315452
1.176184543434513
1.176209265012431
1.176239128509684
1.176274293240428
1.176314763229248
1.176360389919544
1.176410885943149
1.176465825811343
1.176524562839604
1.176586070708634
1.176648702214153
1.176709245307044
1.176760877774708
1.176794261097958
1.176808081289584
1.176810462389309
1.176809973789047
1.176808538495135
1.176805743092872
1.176801231274984
1.176794539374726
1.176785025682142
1.176771946542368
1.176754591783989
1.176732325082782
1.17670460327196
1.176671027247941
1.17663139749575
1.176585734361878
1.176534262615781
1.176477401590377
1.176415873627314
1.176350938161504
1.176284666474728
1.176221064500348
1.176168351394988
1.176136465110461
1.176124645931283
1.17612258459896
1.1761230381067
1.176124603292826
1.176127788294373
1.176132876947444
1.176140330901828
1.176150744075923
1.176164721959208
1.176182818109799
1.176205526047344
1.176233246377002
1.17626623132812
1.176304551025371
1.176348094047515
1.176396588457189
1.17644963276093
1.176506669138957
1.176566826801227
1.176628721462018
1.176689910071004
1.176745172566531
1.176785436549598
1.176805014965443
1.176810410408791
1.176810639602418
1.17680942863796
1.176807019478015
1.176802808470006
1.176796577085869
1.176787843355614
1.176775978085301
1.17676029907353
1.176740111884061
1.176714756822839
1.176683693413486
1.17664658645968
1.176603351692478
1.17655416132709
1.176499419996822
1.176439775247939
1.176376298806039
1.176310752693473
1.176246243108933
1.176189232368931
1.176149867969888
1.176132412135381
1.176128065828057
1.176127616923295
1.176128801812905
1.176131485405174
1.176136143544926
1.176143057267354
1.17615267399346
1.176165495983594
1.176182026565413
1.176202787313986
1.176228295269073
1.176258967669522
1.176295024956738
1.176336451143833
1.176383004114914
1.176434258549899
1.176489649973085
1.176548388516199
1.176609274630966
1.176670407287998
1.176727821773058
1.176773680402557
1.176800187523155
1.176809366806753
1.176810844345147
1.176810467807238
1.176808599797186
1.176804876713113
1.176799017462032
1.176790704326526
1.176779539714506
1.176765048120653
1.176746647109548
1.176723632732679
1.176695264008417
1.17666093331747
1.176620326450965
1.176573490599701
1.176520815645301
1.176462970290587
1.176400960462846
1.176336350100972
1.176271625527632
1.176211810366828
1.176166217848301
1.176141920612413
1.176134292865948
1.176133086046074
1.176133307707566
1.176135141400224
1.176139014387916
1.176145318984362
1.176154422330898
1.17616663694607
1.17618221736329
1.176201459841392
1.17622482256699
1.176252911278212
1.176286300057325
1.176325302049573
1.176369834319915
1.176419427406536
1.176473367720106
1.17653080258927
1.176590625933577
1.17665128769747
1.176709879718046
1.176759956017907
1.176793143874575
1.176807223329658
1.176810205781849
1.176810601344675
1.176809709254945
1.17680721600338
1.176802458884195
1.176794915089279
1.176784160859534
1.176769968069476
1.176752231748974
1.176730732137962
1.176704953684996
1.176674081187791
1.176637131473192
1.176593287789568
1.176542509219668
1.176486157082071
1.176425203549537
1.176361580621695
1.17628476396059
)
;

boundaryField
{
    inlet
    {
        type            calculated;
        value           uniform 1.176427481426743;
    }
    outlet
    {
        type            calculated;
        value           uniform 1.176250237464078;
    }
    frontAndBack
    {
        type            empty;
    }
}


// ************************************************************************* //
