/*--------------------------------*- C++ -*----------------------------------*\
| =========                 |                                                 |
| \\      /  F ield         | OpenFOAM: The Open Source CFD Toolbox           |
|  \\    /   O peration     | Version:  v2012                                 |
|   \\  /    A nd           | Website:  www.openfoam.com                      |
|    \\/     M anipulation  |                                                 |
\*---------------------------------------------------------------------------*/
FoamFile
{
    version     2.0;
    format      ascii;
    class       volScalarField;
    location    "0.0195";
    object      T;
}
// * * * * * * * * * * * * * * * * * * * * * * * * * * * * * * * * * * * * * //

dimensions      [0 0 0 1 0 0 0];


internalField   nonuniform List<scalar> 
1000
(
300.0075834403993
300.0062251834926
300.0129852060581
300.0181321303493
300.023171742949
300.0278036173885
300.0322096702567
300.0362630094843
300.0397693798963
300.0422028305349
300.0431602471998
300.0434068231242
300.0433375883816
300.0426275692703
300.0409803223822
300.0383905603014
300.0349562096539
300.0308300652329
300.026154183147
300.0210285359488
300.0155315294011
300.0097489964444
300.0037853571505
299.9977573155538
299.9917820976412
299.9859709461455
299.9804250124391
299.9752198666377
299.970383576759
299.9659247327731
299.9619896962229
299.9590474673517
299.957591008509
299.9573361384111
299.9574405018101
299.9578055659989
299.9586172108221
299.96006933821
299.9623214607275
299.9654378194793
299.9693697828623
299.9739776597239
299.9790837383808
299.9845244168875
299.9901750195439
299.9959450208485
300.0017590381551
300.0075408034642
300.0132105468809
300.0186991383063
300.0239669938565
300.028996952296
300.0337336693309
300.0379321948256
300.0409936675829
300.0424195254633
300.0427170506904
300.0427365270023
300.0425070632993
300.0419023489897
300.0407525745199
300.0389017154963
300.0362372465576
300.0327218143927
300.0284055677867
300.0234160841031
300.0179278771913
300.0121237312479
300.0061642939413
300.0001747169617
299.9942458682783
299.9884417857252
299.9828040422445
299.9773527245977
299.9721075851593
299.9671741828354
299.962923192839
299.9600344406059
299.9588076271931
299.9585923579814
299.9586367331451
299.958903289938
299.9595227670954
299.9606335556714
299.9623752194001
299.9648602965356
299.9681470167301
299.9722216443354
299.9769972902191
299.9823288996068
299.9880400429377
299.9939537342855
299.9999186878769
300.0058246900865
300.011605193892
300.0172325935943
300.0227068521328
300.0280155970806
300.0330504536412
300.0374737844461
300.0406125753554
300.0420090224022
300.0423128149945
300.0423696269699
300.0421987221517
300.0417317366461
300.0408253510162
300.0393463174721
300.0371775432955
300.034238066827
300.0304996408982
300.0259980828003
300.0208340387082
300.0151602469855
300.0091576225815
300.0030056149218
299.9968542958503
299.990807132938
299.9849182444375
299.9792040597977
299.9736865306419
299.9684998491502
299.9640598965424
299.9610736486657
299.9598225853177
299.9595813202307
299.9595814753918
299.9597905161812
299.9602956690887
299.9612133515559
299.9626635298524
299.9647554756156
299.9675680582602
299.9711346671528
299.9754338991348
299.9803874473438
299.9858669929926
299.9917108418244
299.9977486498799
300.0038286715546
300.0098381478628
300.0157120027293
300.0214279424522
300.026964705381
300.0322055677806
300.0368123097414
300.040131532845
300.041668010881
300.0420370577488
300.0421295052849
300.0420144953338
300.0416554210645
300.0409245814431
300.0397024720343
300.0378789332355
300.0353647357153
300.032103778933
300.0280853494536
300.0233521322421
300.0180003246749
300.0121704340763
300.006028609189
299.9997408573715
299.9934484421821
299.9872532566674
299.9812171256018
299.9753962437194
299.9699472664695
299.9652885307364
299.9621217231839
299.9607681487247
299.9604755913798
299.9604300800005
299.9605868104539
299.9609942293253
299.9617628442768
299.9629964248904
299.9647963848338
299.9672458056461
299.9703968239945
299.9742615336034
299.9788062736664
299.9839507076368
299.9895736962134
299.995527502094
300.0016592999474
300.0078333352974
300.0139462798136
300.0199331326878
300.025740449166
300.0312330007692
300.0360715749354
300.0396348290746
300.0413809075424
300.041833081987
300.0419527955188
300.0418902258224
300.0416181688429
300.0410269064025
300.0400062529445
300.0384531303
300.0362779458512
300.0334126725785
300.0298216755771
300.0255108988243
300.0205322832705
300.0149821519764
300.0089922763029
300.0027127496061
299.9962912290491
299.9898566825198
299.98351137307
299.9773526793361
299.9715712071493
299.9666086613556
299.9631801271844
299.9616582597922
299.9613026558361
299.9612251234
299.9613359410703
299.9616617806695
299.9623050952194
299.9633611814951
299.9649244873484
299.9670777480725
299.969881573756
299.9733664263036
299.9775267632394
299.9823175910422
299.9876550554252
299.9934232382313
299.9994881627815
300.0057154712808
300.0119850907796
300.018201336749
300.0242810654023
300.0300705093167
300.0352147832489
300.0390957071339
300.0411220451491
300.0416864930042
300.0418217716574
300.0418090538521
300.0416090478626
300.0411333330636
300.0402790789797
300.0389491315892
300.0370555349771
300.0345249058715
300.0313076380671
300.0273864083193
300.0227814941845
300.0175525525742
300.0117956911361
300.0056336510128
299.9992008636846
299.9926306514444
299.9860476574405
299.9795796778324
299.9734427716061
299.968103373201
299.9643103027577
299.9625284002692
299.9620817988499
299.9619820746078
299.9620501350564
299.962307261592
299.9628445951198
299.9637513309505
299.9651157371603
299.9670184854586
299.9695244155919
299.9726752073291
299.9764838697267
299.9809307111464
299.9859615684668
299.9914902090459
299.9974068257687
300.003591109902
300.0099237651762
300.0162947500057
300.0226009978534
300.0286802091271
300.0341687677862
300.0384366978305
300.0408340303875
300.0415730061457
300.0417165304001
300.0417526793821
300.0416095454707
300.0412316475558
300.0405187593865
300.0393791490565
300.0377264721432
300.0354847068083
300.0325961370995
300.0290284577513
300.0247796275588
300.0198810060462
300.0143977732452
300.008424025457
300.0020730274114
299.9954687463668
299.9887414179371
299.9820332505246
299.9755672848957
299.9698165830736
299.9655697205657
299.9634184880051
299.9628257565779
299.9627104768168
299.9627353507931
299.962932510007
299.963377250834
299.9641537743249
299.965345606292
299.9670313391312
299.9692777390649
299.9721331285685
299.9756227597229
299.9797450701645
299.984468869964
299.9897332135237
299.9954520654117
300.0015234170351
300.0078378139777
300.0142832375264
300.0207465841459
300.0270686731347
300.0328976808826
300.037596725995
300.0404594677378
300.0414593759716
300.041637961712
300.0417046955248
300.0416097572253
300.0413155379337
300.0407249213834
300.039750388593
300.0383079357293
300.0363202576441
300.0337243656476
300.0304778773344
300.0265629822285
300.0219896184245
300.0167975376444
300.0110549266623
300.0048525785537
299.9982982911138
299.9915159717544
299.9846506430879
299.9779190021068
299.971773385384
299.9670182501914
299.9643808455882
299.9635558140527
299.9634205426661
299.9634053611275
299.9635504991227
299.9639142525427
299.9645751170181
299.9656130043518
299.9671055420907
299.9691209967812
299.9717120261507
299.9749119890171
299.9787321174355
299.9831585775181
299.9881509175818
299.9936440617883
299.9995544145467
300.0057862110338
300.01223368353
300.0187818513277
300.0252809390116
300.031414168988
300.0365570521462
300.0399484602698
300.0413218771536
300.0415791549311
300.0416600006247
300.0416076857022
300.0413856914836
300.040902854642
300.0400750796844
300.0388205620432
300.0370607617411
300.0347284956552
300.0317744398996
300.0281699419848
300.0239092165731
300.0190119996608
300.0135244746787
300.0075162879622
300.001077108909
299.9943187958955
299.9873811508018
299.9804643842943
299.9739735436178
299.9686907092257
299.9654727111541
299.9643112472584
299.9641145560094
299.9640717519902
299.9641743963099
299.9644640222705
299.965020886929
299.9659201792754
299.9672380915783
299.9690440876266
299.9713941421503
299.9743276755212
299.9778655179399
299.9820071386822
299.9867283627096
299.9919816169664
299.9976998922866
300.0038018480649
300.0101923752594
300.0167602140955
300.0233651363424
300.0297388847966
300.035303781015
300.0392557045262
300.0411189588485
300.0415327011758
300.0416179859249
300.0416016301713
300.0414401140359
300.0410508571332
300.0403534360882
300.0392683152794
300.0377155041701
300.0356237004889
300.0329379541049
300.0296216855995
300.0256575882845
300.0210500886324
300.0158275442899
300.0100414244303
300.0037641586198
299.9970922249699
299.9901538424353
299.9831304272072
299.9763682149357
299.9705852511751
299.9667316186584
299.9651078932278
299.9647845452482
299.9647242841365
299.9647896815828
299.965015074575
299.9654787489508
299.9662521728615
299.96740997296
299.9690234098392
299.9711518350194
299.9738392095434
299.9771132356241
299.9809834900977
299.9854388440081
299.9904463613532
299.9959534975114
300.0018922257517
300.0081792370643
300.0147115778668
300.0213590314771
300.0279019214426
300.0338390189631
300.0383474785104
300.0407930156176
300.0414817619275
300.0415659044073
300.0415816143536
300.0414701719615
300.0411622093492
300.0405805260266
300.0396479714676
300.0382842237615
300.0364143809859
300.0339781693693
300.0309324498197
300.0272511586071
300.022926879783
300.0179734900389
300.0124270738457
300.0063447063691
299.9998072420667
299.9929286939615
299.9858724790989
299.9789246390376
299.9727027302784
299.968196127255
299.9659933426722
299.9654350941208
299.9653632173067
299.9653971879494
299.9655697329588
299.9659520987351
299.9666132053937
299.9676255723702
299.9690616416873
299.9709839914979
299.9734407087013
299.9764652720744
299.9800755823039
299.984271279367
299.9890317365869
299.9943167313154
300.000069721466
300.0062189545254
300.0126722086249
300.0193085695329
300.0259450593429
300.0321785500603
300.0372222310933
300.0402986248884
300.0413907693036
300.0415260252167
300.0415540867334
300.0414795507453
300.0412395245915
300.0407569648362
300.0399602182503
300.0387697996746
300.0371069869287
300.0349056570438
300.0321165370705
300.0287064189451
300.0246584489608
300.0199747077871
300.0146783649503
300.0088133909885
300.0024461570325
299.995675024588
299.9886452282167
299.9815935572194
299.975025790223
299.9698902682995
299.9670197432125
299.9661070002295
299.9659986480592
299.966004805187
299.9661320526309
299.9664443986181
299.9670056174766
299.9678853601856
299.9691568142425
299.9708859984316
299.9731251903513
299.9759127832991
299.97927337499
299.9832154760739
299.9877289382202
299.9927843944665
299.9983356854616
300.0043217815671
300.0106614734811
300.0172444678471
300.0239141225588
300.0303594238685
300.0358829509024
300.0395949348527
300.0412066300049
300.0414853362392
300.0415103304671
300.0414618731411
300.0412788324205
300.040883152697
300.0402077933458
300.0391750978945
300.0377039916515
300.035723244365
300.0331775308682
300.030026990836
300.0262468715881
300.0218295639912
300.0167872128604
300.0111523569342
300.0049786269557
299.9983494818238
299.9913925237473
299.9843072315319
299.9774937475773
299.9717933493535
299.9682105892262
299.9668196780552
299.966595481466
299.9665892731287
299.9666805942546
299.9669327768668
299.967406258386
299.9681664839438
299.9692862490506
299.9708348258549
299.972868786419
299.9754309430705
299.9785514533114
299.9822463566634
299.9865147152942
299.9913370826673
299.9966766942511
300.0024814937509
300.0086807217019
300.0151764497069
300.0218308769996
300.0283993234735
300.034315834296
300.0386557982421
300.0408738811967
300.0414224980369
300.0414366833099
300.0414140769736
300.0412714102962
300.0409464944449
300.0403740600029
300.0394811141101
300.0381861827494
300.0364129360221
300.0340993577086
300.0311989278001
300.0276798150481
300.0235260473459
300.0187400602416
300.0133442771585
300.0073816376357
300.000921656037
299.9940743907258
299.9870115454235
299.980049692406
299.9738796894499
299.9695715623003
299.9675941167428
299.967145548838
299.9671208507582
299.9671857483546
299.967386259254
299.9677846131127
299.9684400236471
299.9694227579439
299.9708046358271
299.9726464199354
299.9749949506003
299.9778850085187
299.9813389848067
299.9853641054988
299.9899501055105
299.9950691135547
300.0006775644325
300.0067152220876
300.0130960669532
300.0196955916885
300.0263150718025
300.032524941402
300.0374520787311
300.0403079444156
300.041244568405
300.0413290951969
300.041301211261
300.0411851576994
300.0409170739038
300.0404316078819
300.0396605668661
300.0385233636437
300.0369404816397
300.0348445321129
300.0321827856857
300.0289164403514
300.0250216607839
300.0204920671124
300.0153408301713
300.0096012309767
300.0033298912838
299.9966207911326
299.9896241955807
299.9825926475407
299.9760629940995
299.9710587207451
299.9683913195981
299.9675816776702
299.9675110488484
299.967557717161
299.9677133249601
299.9680461179804
299.9686084214082
299.9694660699863
299.9706917249025
299.9723501334537
299.9744923465128
299.9771575112651
299.9803736126512
299.9841550956951
299.9885001100585
299.9933895034844
299.9987881171025
300.0046448526326
300.0108844226511
300.0173959540825
300.0240142128201
300.0304117289842
300.0358496020477
300.0393765063023
300.040846514303
300.0410746415931
300.0410372181389
300.0409480598256
300.0407247485902
300.0403120532611
300.039649134526
300.0386600994013
300.0372641877126
300.0353896769694
300.0329783190714
300.0299853561461
300.0263805697689
300.0221504749315
300.0173003945303
300.0118553240922
300.005861653137
299.9993987731623
299.9925976161368
299.9856685587671
299.979032431755
299.9735677538073
299.9702769157801
299.9690570904269
299.9688778460785
299.9689157602971
299.9690363690319
299.9693160565075
299.9697980557913
299.9705416043302
299.9716167272896
299.9730901544976
299.975015900642
299.9774358779798
299.9803816330705
299.9838728407545
299.9879146372116
299.9924961130031
299.9975905312716
300.0031558358538
300.0091300210777
300.0154191692893
300.0218804591614
300.0282596295904
300.0339973492631
300.0381358801723
300.0401787620001
300.0406597599647
300.0406605048564
300.0405772129098
300.0403840826999
300.0400308391872
300.0394602182132
300.0386042349799
300.0373832553734
300.035721828607
300.0335564163613
300.0308358510075
300.0275221726387
300.0235933087591
300.0190453053292
300.0138934500865
300.0081732342834
300.0019473788126
299.9953245224898
299.9884821829581
299.981741259135
299.9757859143322
299.9716968571036
299.9698741066779
299.9694635952548
299.9694703702572
299.9695648401583
299.969796864794
299.9702114360575
299.9708592499006
299.9718067880439
299.9731233012536
299.9748675884767
299.9770862060321
299.9798152692019
299.9830795861191
299.9868901890816
299.9912427124259
299.9961172183529
300.0014792330242
300.0072775537453
300.0134318723413
300.0198165710542
300.0262283716148
300.0322457429488
300.03700831813
300.0397009630708
300.0406025046278
300.0406772596296
300.0405955567003
300.0404312649405
300.0401165578123
300.0396093639756
300.0388515938176
300.037767390788
300.0362792913679
300.0343181580669
300.0318254670339
300.0287554329343
300.0250784457884
300.0207833433246
300.0158782104961
300.0103904729634
300.0043701989642
299.9979069918214
299.9911539844472
299.9843684297958
299.9780798586721
299.9732924713247
299.9708047759384
299.9700437254301
299.9699765339151
299.9700636276994
299.9702538655749
299.9706195211152
299.971193955496
299.9720356872149
299.9732135319383
299.9747907949454
299.9768199308373
299.9793431780959
299.9823912017781
299.9859802390205
299.9901106724719
299.9947673080115
299.9999207819316
300.0055276336395
300.0115218304223
300.0177986038969
300.0241898395936
300.030367765323
300.035636275459
300.0390425839872
300.0404527260792
300.0406956799255
300.0406458249304
300.0404993741454
300.040214145116
300.0397537805125
300.0390709673128
300.0381002246164
300.0367656673922
300.0349948238788
300.032722752965
300.029894013331
300.0264678569046
300.0224238945921
300.0177641659828
300.012511566124
300.0067088424983
300.0004296660349
299.9938025275797
299.9870387908833
299.9805473069625
299.9751670161641
299.9719123860332
299.9707059892855
299.9704955857796
299.970541874716
299.9707016333903
299.9710267284324
299.9715461297893
299.9723069554416
299.9733698226539
299.9747965275301
299.9766435624935
299.9789612879795
299.9817905760403
299.9851571491819
299.9890681382147
299.9935121405387
299.9984613683779
300.0038748107334
300.0096955037692
300.0158345489257
300.0221506569108
300.0283945167656
300.0340334850388
300.0381419002343
300.0401395887488
300.0406901109413
300.0407134960712
300.0405899349508
300.0403441163992
300.0399144457679
300.0392786231387
300.0383874671555
300.0371767727434
300.0355769235887
300.033517051168
300.0309298266201
300.027760079152
300.0239735773502
300.0195616878523
300.0145419443532
300.0089555949327
300.0028686771593
299.9963905226365
299.9897009260378
299.9831168957314
299.9772980298234
299.9732801487829
299.9714984226372
299.9710547905391
299.9710089696861
299.9711299111362
299.9714038258635
299.9718792830317
299.9725849656276
299.973566538362
299.9748752615851
299.976562502102
299.9786814859547
299.9812849719274
299.9844155269573
299.9880956257664
299.9923236069644
299.9970747265362
300.0023055418138
300.0079584098261
300.0139526894196
300.0201659401898
300.0264041542984
300.0322627691724
300.0369420841316
300.0396467576165
300.0405833634896
300.0407341230585
300.0406957022801
300.0405050990695
300.0401252135202
300.0395273624319
300.0386791241991
300.0375399258371
300.036061242506
300.034183635755
300.0318352638714
300.0289404999069
300.0254373170894
300.0212936203538
300.0165141863583
300.0111387582349
300.0052355328942
299.9989071268209
299.9923131164841
299.9857072375313
299.9796022284489
299.9749487246708
299.9724687444423
299.9716902146732
299.9715670601782
299.971589715089
299.9717769090084
299.9721722113438
299.9728156564057
299.9737447090213
299.9749912515358
299.9765812504461
299.9785449427434
299.9809291137377
299.9837956410598
299.9872032065466
299.9911838652729
299.9957291978359
300.0007912807758
300.0062973048849
300.0121603333542
300.0182674805025
300.0244602863772
300.030441512782
300.0355529201162
300.0389397066947
300.0403752446069
300.04067658743
300.0407122240319
300.0406115029328
300.0403417502423
300.0398389940596
300.0390500299201
300.0379296686425
300.0364512045329
300.0346051605849
300.0323842156465
300.0297641847634
300.0266817067308
300.0230142131844
300.0186013495227
300.0133372435656
300.0073266217138
300.0009547167845
299.9951697897031
299.9894260209085
)
;

boundaryField
{
    inlet
    {
        type            fixedValue;
        value           uniform 300;
    }
    outlet
    {
        type            temperatureOutletNSCBC;
        pInf            101325;
        gamma           1.4;
        etaAc           1;
        fieldInf        1;
        lInf            2.25;
        value           uniform 299.9868224542062;
    }
    frontAndBack
    {
        type            empty;
    }
}


// ************************************************************************* //
