/*--------------------------------*- C++ -*----------------------------------*\
| =========                 |                                                 |
| \\      /  F ield         | OpenFOAM: The Open Source CFD Toolbox           |
|  \\    /   O peration     | Version:  v2012                                 |
|   \\  /    A nd           | Website:  www.openfoam.com                      |
|    \\/     M anipulation  |                                                 |
\*---------------------------------------------------------------------------*/
FoamFile
{
    version     2.0;
    format      ascii;
    class       volVectorField;
    location    "0.0195";
    object      U;
}
// * * * * * * * * * * * * * * * * * * * * * * * * * * * * * * * * * * * * * //

dimensions      [0 1 -1 0 0 0 0];


internalField   nonuniform List<vector> 
1000
(
(-0.005994696787583632 0 0)
(0.02544489957345876 0 0)
(0.0332610498154721 0 0)
(0.04834727516372631 0 0)
(0.06229188195914268 0 0)
(0.0753564762861227 0 0)
(0.0865516184430985 0 0)
(0.09614992071443601 0 0)
(0.1042707714434004 0 0)
(0.1097026252930159 0 0)
(0.1113442916518245 0 0)
(0.1113098964765784 0 0)
(0.1104983512682257 0 0)
(0.1081058313855713 0 0)
(0.1033980885006263 0 0)
(0.09615503854416192 0 0)
(0.0866310921050306 0 0)
(0.07525772214801377 0 0)
(0.0624038673834529 0 0)
(0.04832410793943621 0 0)
(0.03322885424189983 0 0)
(0.01735803683026308 0 0)
(0.001001454407424715 0 0)
(-0.01552496741942429 0 0)
(-0.03190847618316842 0 0)
(-0.04784882968760043 0 0)
(-0.06306775181619191 0 0)
(-0.07735719286639832 0 0)
(-0.0906423865381146 0 0)
(-0.102922175674154 0 0)
(-0.1138317691897459 0 0)
(-0.1220026110440361 0 0)
(-0.1259907611756992 0 0)
(-0.1266881577217689 0 0)
(-0.1266035817311347 0 0)
(-0.1259500963495812 0 0)
(-0.1241370313170648 0 0)
(-0.1205513416037273 0 0)
(-0.1147143681934263 0 0)
(-0.1064001537681088 0 0)
(-0.09571497074990429 0 0)
(-0.08303854572067304 0 0)
(-0.0688689307230404 0 0)
(-0.05367200184467535 0 0)
(-0.03781128799501803 0 0)
(-0.02156218814431506 0 0)
(-0.005164370723943467 0 0)
(0.01113677426902264 0 0)
(0.0270879694024296 0 0)
(0.0424742296884966 0 0)
(0.05717529014626407 0 0)
(0.07114308049052236 0 0)
(0.08424028098504367 0 0)
(0.09579807605358309 0 0)
(0.1040660011833846 0 0)
(0.107672172835158 0 0)
(0.1082912111196108 0 0)
(0.107971372220338 0 0)
(0.1073097317318012 0 0)
(0.1057039539018448 0 0)
(0.1026831516134361 0 0)
(0.09776305151907261 0 0)
(0.09058215935770556 0 0)
(0.08099899894399745 0 0)
(0.06913031727863317 0 0)
(0.05532350752776201 0 0)
(0.04006915593378143 0 0)
(0.02388944390634736 0 0)
(0.007249628075810344 0 0)
(-0.009482190230230721 0 0)
(-0.02603410376355142 0 0)
(-0.04221234486917692 0 0)
(-0.05789335261824767 0 0)
(-0.07302249339972459 0 0)
(-0.08754826756781824 0 0)
(-0.1011887758225852 0 0)
(-0.1129283323683522 0 0)
(-0.1207979769681921 0 0)
(-0.1239355027336726 0 0)
(-0.1243750651621194 0 0)
(-0.1242056935849805 0 0)
(-0.123630528790083 0 0)
(-0.1222171142012679 0 0)
(-0.1195261175777724 0 0)
(-0.1151189554843739 0 0)
(-0.1086291156529626 0 0)
(-0.0998491783537636 0 0)
(-0.08878376271617072 0 0)
(-0.07565587588614145 0 0)
(-0.0608659792931306 0 0)
(-0.0449157510658013 0 0)
(-0.02831907114377183 0 0)
(-0.01152518314301139 0 0)
(0.005127903411000658 0 0)
(0.02142454417718858 0 0)
(0.03726262065682615 0 0)
(0.05262413267435458 0 0)
(0.06746343621275519 0 0)
(0.08147859596124017 0 0)
(0.09371129896662862 0 0)
(0.1022006518898614 0 0)
(0.1057225319195888 0 0)
(0.1062984999276112 0 0)
(0.105987012539422 0 0)
(0.105392459273634 0 0)
(0.1040784365625209 0 0)
(0.1016734920629317 0 0)
(0.09776624158611376 0 0)
(0.09198373411600981 0 0)
(0.08405553376238878 0 0)
(0.07386660031467726 0 0)
(0.06149226456319733 0 0)
(0.04720191384453291 0 0)
(0.0314233524834369 0 0)
(0.01467404686187731 0 0)
(-0.002525401741489328 0 0)
(-0.01973398732552404 0 0)
(-0.03664306991977551 0 0)
(-0.05308819283322872 0 0)
(-0.06901727140979595 0 0)
(-0.08436547048356438 0 0)
(-0.09876170674147858 0 0)
(-0.111037814550116 0 0)
(-0.1191375285365112 0 0)
(-0.1223016901263189 0 0)
(-0.1227958438863564 0 0)
(-0.1225566812482535 0 0)
(-0.122060924138835 0 0)
(-0.1208749824107814 0 0)
(-0.1186680951979973 0 0)
(-0.1150593172914091 0 0)
(-0.109691436151532 0 0)
(-0.1022948820427416 0 0)
(-0.09273382191287136 0 0)
(-0.08103538141387658 0 0)
(-0.06739829417124378 0 0)
(-0.05217536989569568 0 0)
(-0.03582702752392621 0 0)
(-0.0188502740939057 0 0)
(-0.0016988131263615 0 0)
(0.01527897542748223 0 0)
(0.03186970348017233 0 0)
(0.04798469079922152 0 0)
(0.06354489506130756 0 0)
(0.07821122534426696 0 0)
(0.09100462172487257 0 0)
(0.1000336587665902 0 0)
(0.1039629405193941 0 0)
(0.1046552582260334 0 0)
(0.1044031721189476 0 0)
(0.1038525300081288 0 0)
(0.1027398275278108 0 0)
(0.1007405697720991 0 0)
(0.09749498893324733 0 0)
(0.09265819355590989 0 0)
(0.08593620243441814 0 0)
(0.07712940328676698 0 0)
(0.06617240815784499 0 0)
(0.05315962454024716 0 0)
(0.03834733428832201 0 0)
(0.02212831387159243 0 0)
(0.004978023759948705 0 0)
(-0.01262098110170136 0 0)
(-0.03025230874823858 0 0)
(-0.04761108493299916 0 0)
(-0.06450817699267253 0 0)
(-0.08077448686034423 0 0)
(-0.09596616846138617 0 0)
(-0.1088825270017938 0 0)
(-0.1174846392062807 0 0)
(-0.1209417389528286 0 0)
(-0.1215313875520996 0 0)
(-0.1212828606361706 0 0)
(-0.120836897133742 0 0)
(-0.1198145724660786 0 0)
(-0.1179410243235005 0 0)
(-0.11488726668599 0 0)
(-0.1103239037748213 0 0)
(-0.1039699465905783 0 0)
(-0.09563264455459312 0 0)
(-0.08523641238079492 0 0)
(-0.07284283657681999 0 0)
(-0.05865687242047464 0 0)
(-0.04301212893754459 0 0)
(-0.02633061709843277 0 0)
(-0.009060498124968565 0 0)
(0.008388898015153053 0 0)
(0.02569390610557571 0 0)
(0.04263785333602549 0 0)
(0.05904123574082971 0 0)
(0.07449813282793351 0 0)
(0.08801240471012632 0 0)
(0.09779021349346383 0 0)
(0.1023384827436121 0 0)
(0.1032171021189694 0 0)
(0.1030572836321049 0 0)
(0.1025351882214721 0 0)
(0.1015672493023461 0 0)
(0.09985583091935307 0 0)
(0.0970893416054768 0 0)
(0.09295677954399992 0 0)
(0.08716748771895175 0 0)
(0.07948604992738123 0 0)
(0.06977101721290516 0 0)
(0.05800473779051821 0 0)
(0.04430808184823984 0 0)
(0.02893767028682706 0 0)
(0.01226114247475889 0 0)
(-0.00529215648217451 0 0)
(-0.0232918585072704 0 0)
(-0.0413556735202376 0 0)
(-0.05917531722253262 0 0)
(-0.07645882390237881 0 0)
(-0.09265408427404358 0 0)
(-0.1064762625287161 0 0)
(-0.1158546971315084 0 0)
(-0.1198012324642859 0 0)
(-0.1205108564498952 0 0)
(-0.1203112734454727 0 0)
(-0.1198802673861628 0 0)
(-0.1189773770202603 0 0)
(-0.1173535004406695 0 0)
(-0.1147174884316725 0 0)
(-0.1107704409531992 0 0)
(-0.1052369417150334 0 0)
(-0.09790034835854418 0 0)
(-0.0886294566954527 0 0)
(-0.07739887681385302 0 0)
(-0.06430271130106603 0 0)
(-0.04955636691668778 0 0)
(-0.03347940971108521 0 0)
(-0.01645592791950021 0 0)
(0.001117150961561344 0 0)
(0.01887350940342366 0 0)
(0.03650857667142426 0 0)
(0.05375149418716974 0 0)
(0.0701308775950029 0 0)
(0.08459517778675814 0 0)
(0.09535618524914641 0 0)
(0.1007448432219131 0 0)
(0.1019183592558931 0 0)
(0.1018662858284031 0 0)
(0.1013681907615484 0 0)
(0.1005207435864345 0 0)
(0.09902749722909147 0 0)
(0.09662517120193724 0 0)
(0.09303609336220953 0 0)
(0.08798538250478088 0 0)
(0.08122673858636076 0 0)
(0.07257757314074871 0 0)
(0.06194858695318124 0 0)
(0.04936232106024085 0 0)
(0.03496107736674065 0 0)
(0.01900049514837647 0 0)
(0.001822453706694856 0 0)
(-0.01618765911304761 0 0)
(-0.03463907434237507 0 0)
(-0.05316017415974139 0 0)
(-0.07136948505472929 0 0)
(-0.08863267133951405 0 0)
(-0.1035828807067968 0 0)
(-0.1140551092643486 0 0)
(-0.1187690727456661 0 0)
(-0.119698582386149 0 0)
(-0.1195734110551584 0 0)
(-0.119154918013085 0 0)
(-0.118343605937587 0 0)
(-0.1169070939515923 0 0)
(-0.1145910207196473 0 0)
(-0.1111272531512262 0 0)
(-0.1062536223914322 0 0)
(-0.09974543851117576 0 0)
(-0.09144060395714283 0 0)
(-0.08125798742135995 0 0)
(-0.06921249330679743 0 0)
(-0.05542449777394703 0 0)
(-0.04011659218668939 0 0)
(-0.02359146496920216 0 0)
(-0.006195496225990323 0 0)
(0.01171455077748177 0 0)
(0.02979804697546879 0 0)
(0.0477286119737208 0 0)
(0.06500267772247595 0 0)
(0.08053211969109622 0 0)
(0.09248647718255602 0 0)
(0.09899284075670288 0 0)
(0.1006635415501254 0 0)
(0.1007262115454536 0 0)
(0.1002799341799758 0 0)
(0.0995385205398303 0 0)
(0.09822482343972448 0 0)
(0.09611154684660066 0 0)
(0.09295409967995362 0 0)
(0.0885006209088031 0 0)
(0.08250770800876915 0 0)
(0.07477192531768923 0 0)
(0.06515876095369094 0 0)
(0.053621772361687 0 0)
(0.04021440217816351 0 0)
(0.02509387105615277 0 0)
(0.008509911645273403 0 0)
(-0.009221773768217697 0 0)
(-0.02774437906992875 0 0)
(-0.04667480691597372 0 0)
(-0.06559122462290028 0 0)
(-0.08383390507217515 0 0)
(-0.100012187168076 0 0)
(-0.1118473748443045 0 0)
(-0.1176563162687164 0 0)
(-0.1189772216614543 0 0)
(-0.1189605610035979 0 0)
(-0.1185697858365175 0 0)
(-0.1178511823950822 0 0)
(-0.1165725960590927 0 0)
(-0.1145151624398001 0 0)
(-0.1114397449172185 0 0)
(-0.1071028837736129 0 0)
(-0.1012833801200517 0 0)
(-0.09380505477183007 0 0)
(-0.08455245758566221 0 0)
(-0.07348491005899901 0 0)
(-0.06064915951531868 0 0)
(-0.04618464992610249 0 0)
(-0.0303142458406413 0 0)
(-0.01332016398688413 0 0)
(0.004480674285370083 0 0)
(0.02275174695097018 0 0)
(0.04114158564341441 0 0)
(0.05915360344448668 0 0)
(0.07573335062295304 0 0)
(0.08901542288442929 0 0)
(0.09692149952059503 0 0)
(0.09940195191115275 0 0)
(0.09960683566204707 0 0)
(0.09925759197558554 0 0)
(0.09860430638235812 0 0)
(0.09744868947606883 0 0)
(0.0955760968256238 0 0)
(0.09277177360254099 0 0)
(0.08880982918968722 0 0)
(0.08345699514429904 0 0)
(0.0765021148390396 0 0)
(0.06778428899018422 0 0)
(0.05721047473240795 0 0)
(0.04476780774676919 0 0)
(0.03053288892453411 0 0)
(0.01467145270830843 0 0)
(-0.002575934794437762 0 0)
(-0.02090871888346325 0 0)
(-0.03996929991342103 0 0)
(-0.059331403305556 0 0)
(-0.07835294949469826 0 0)
(-0.09570582925266191 0 0)
(-0.1090619953300094 0 0)
(-0.116300355983771 0 0)
(-0.118292745223481 0 0)
(-0.1184292690781102 0 0)
(-0.118076041502632 0 0)
(-0.1174659256239846 0 0)
(-0.1163320811681953 0 0)
(-0.1144985836601728 0 0)
(-0.1117520608938457 0 0)
(-0.1078670684081154 0 0)
(-0.1026295949316957 0 0)
(-0.09585898641250551 0 0)
(-0.08742159283351339 0 0)
(-0.07724137168095352 0 0)
(-0.0653118669207344 0 0)
(-0.05170587797534915 0 0)
(-0.03657518463900639 0 0)
(-0.02013638884818459 0 0)
(-0.00265402319038996 0 0)
(0.01556452868164648 0 0)
(0.03417063210069857 0 0)
(0.05270235659717465 0 0)
(0.07020935501642471 0 0)
(0.08484311508844868 0 0)
(0.09435224334936473 0 0)
(0.09799458412035512 0 0)
(0.0984558728945007 0 0)
(0.09822161681969728 0 0)
(0.09765924535111735 0 0)
(0.09666048397027416 0 0)
(0.0950079767478879 0 0)
(0.0925088857696785 0 0)
(0.08896125433949981 0 0)
(0.08414793004018205 0 0)
(0.07786068784845303 0 0)
(0.06992586296972261 0 0)
(0.06022040910669722 0 0)
(0.04868396290876685 0 0)
(0.03533036123072786 0 0)
(0.02025393746444631 0 0)
(0.00362459745430508 0 0)
(-0.0143192699724311 0 0)
(-0.03326421772575747 0 0)
(-0.05280609483261109 0 0)
(-0.07235486704649888 0 0)
(-0.09072528851421166 0 0)
(-0.1056417939646469 0 0)
(-0.1145850012028554 0 0)
(-0.1176044334804692 0 0)
(-0.1179530065950985 0 0)
(-0.1176874534266065 0 0)
(-0.1171748342096054 0 0)
(-0.1161911156355612 0 0)
(-0.1145648889701927 0 0)
(-0.1121076460465803 0 0)
(-0.1086121797808095 0 0)
(-0.103873649905081 0 0)
(-0.09771309572629838 0 0)
(-0.08998899682362572 0 0)
(-0.08060400023618565 0 0)
(-0.0695148456807988 0 0)
(-0.05674362398348463 0 0)
(-0.04238303035418154 0 0)
(-0.02659019899002982 0 0)
(-0.009575806298433827 0 0)
(0.00839596758503222 0 0)
(0.02700038706013367 0 0)
(0.04581447733724327 0 0)
(0.06403095334096005 0 0)
(0.07993107248511164 0 0)
(0.09114339359862228 0 0)
(0.09629030310682231 0 0)
(0.09722896246596269 0 0)
(0.09712576966006138 0 0)
(0.09666490137402763 0 0)
(0.09582676313304797 0 0)
(0.09438294283814022 0 0)
(0.09215868395291843 0 0)
(0.0889744731336671 0 0)
(0.08463038068179587 0 0)
(0.07892475732902522 0 0)
(0.07167900186820053 0 0)
(0.0627526122130742 0 0)
(0.05205359497164688 0 0)
(0.0395497304155252 0 0)
(0.02527843222089213 0 0)
(0.009348785386226709 0 0)
(-0.008060945931074969 0 0)
(-0.02669274354882243 0 0)
(-0.04618461504252438 0 0)
(-0.06600845390183673 0 0)
(-0.08515561485417499 0 0)
(-0.1015264961144703 0 0)
(-0.1123379627414684 0 0)
(-0.116752913671566 0 0)
(-0.1174777180702372 0 0)
(-0.1173262689642199 0 0)
(-0.116917243716165 0 0)
(-0.1160894662990835 0 0)
(-0.1146677764073785 0 0)
(-0.112479707786968 0 0)
(-0.1093350919750191 0 0)
(-0.1050381611720971 0 0)
(-0.0994135793330401 0 0)
(-0.09231806893503586 0 0)
(-0.08364355326425561 0 0)
(-0.07332363529879146 0 0)
(-0.06134411376591766 0 0)
(-0.04775128978146936 0 0)
(-0.03265194584700491 0 0)
(-0.01620663574280963 0 0)
(0.001368285601472562 0 0)
(0.01978515434566584 0 0)
(0.03866111317128142 0 0)
(0.05734024819902317 0 0)
(0.07433632389530852 0 0)
(0.08723001001753289 0 0)
(0.09414314629599699 0 0)
(0.09590306272627568 0 0)
(0.09595592499078882 0 0)
(0.09561068478516498 0 0)
(0.09493869700243925 0 0)
(0.09370139853147873 0 0)
(0.09173897625228575 0 0)
(0.08888741504282975 0 0)
(0.08496129593093717 0 0)
(0.07976807846708546 0 0)
(0.07313168188755829 0 0)
(0.06490448522018863 0 0)
(0.05497456758295675 0 0)
(0.04327641439518071 0 0)
(0.02980304432522252 0 0)
(0.01461277272604964 0 0)
(-0.002170118757910921 0 0)
(-0.02034295283818621 0 0)
(-0.0395939651629218 0 0)
(-0.05945861787146083 0 0)
(-0.0791093973365618 0 0)
(-0.09673589673501619 0 0)
(-0.1094596733987458 0 0)
(-0.115591178853191 0 0)
(-0.116986575139653 0 0)
(-0.1169677297450457 0 0)
(-0.1166622473640574 0 0)
(-0.1159915090752756 0 0)
(-0.1147719342655058 0 0)
(-0.1128403865461882 0 0)
(-0.1100213568819258 0 0)
(-0.1061280532535085 0 0)
(-0.1009882752081929 0 0)
(-0.09445868985165373 0 0)
(-0.08642618787935417 0 0)
(-0.07681063704385595 0 0)
(-0.06557336833161102 0 0)
(-0.05272644238465276 0 0)
(-0.0383362387126981 0 0)
(-0.02251979761951782 0 0)
(-0.005448144210557047 0 0)
(0.01263355422796755 0 0)
(0.03138489880534553 0 0)
(0.05027328825103164 0 0)
(0.06810702912340776 0 0)
(0.08257151220463665 0 0)
(0.09136129203793963 0 0)
(0.09439073127340587 0 0)
(0.09467594980299615 0 0)
(0.09445797391383257 0 0)
(0.0939459406827047 0 0)
(0.09291603626565 0 0)
(0.0912045536015979 0 0)
(0.08866069273948531 0 0)
(0.08511293878475797 0 0)
(0.08037906361877808 0 0)
(0.07428842813746524 0 0)
(0.06669151393674599 0 0)
(0.05746472236055929 0 0)
(0.04652012917681398 0 0)
(0.03381800236743437 0 0)
(0.01937604808738209 0 0)
(0.003273065589020113 0 0)
(-0.01433980924400233 0 0)
(-0.03320722285605646 0 0)
(-0.05292843461044754 0 0)
(-0.07282275986113228 0 0)
(-0.09141562594334035 0 0)
(-0.1059665796984218 0 0)
(-0.1140356815668908 0 0)
(-0.1164570803891064 0 0)
(-0.1166483331679179 0 0)
(-0.1164438054145473 0 0)
(-0.1159360394732681 0 0)
(-0.1149171395308671 0 0)
(-0.1132364761129135 0 0)
(-0.1107292598857948 0 0)
(-0.1072145485234104 0 0)
(-0.102521554260659 0 0)
(-0.09650762359791308 0 0)
(-0.08905851565634029 0 0)
(-0.0800869404914854 0 0)
(-0.06953843031500588 0 0)
(-0.05740047738458161 0 0)
(-0.04370834184084374 0 0)
(-0.02854459315922352 0 0)
(-0.0120409368882998 0 0)
(0.005603931845136224 0 0)
(0.02409734423345093 0 0)
(0.04299063330182503 0 0)
(0.06136669623421621 0 0)
(0.07719137932235645 0 0)
(0.08785744590704869 0 0)
(0.09247829560294082 0 0)
(0.09323523555122643 0 0)
(0.09313472326516979 0 0)
(0.09278397988739057 0 0)
(0.09196280645362925 0 0)
(0.0905038892891204 0 0)
(0.08826242974910185 0 0)
(0.08507774784056173 0 0)
(0.08077325735829161 0 0)
(0.07518252756921773 0 0)
(0.06815912289966747 0 0)
(0.05957650737517066 0 0)
(0.04933350771757974 0 0)
(0.03736662955773202 0 0)
(0.02366193935695534 0 0)
(0.008261496225542011 0 0)
(-0.008728514241674333 0 0)
(-0.02710806138119389 0 0)
(-0.04653721727039458 0 0)
(-0.06645070933724133 0 0)
(-0.08569969656437813 0 0)
(-0.101853118679897 0 0)
(-0.1119565184306899 0 0)
(-0.1157857685567299 0 0)
(-0.116357488302426 0 0)
(-0.1162319744438941 0 0)
(-0.1158786126325296 0 0)
(-0.1150621911983103 0 0)
(-0.1136311462986639 0 0)
(-0.1114293559739496 0 0)
(-0.1082798488194923 0 0)
(-0.1040112254758697 0 0)
(-0.09847979266539271 0 0)
(-0.09157063555849283 0 0)
(-0.08319286617666871 0 0)
(-0.07328256539838948 0 0)
(-0.06181099795107236 0 0)
(-0.04879136116299471 0 0)
(-0.03428000303760267 0 0)
(-0.01837549069544399 0 0)
(-0.001234554805538693 0 0)
(0.01689252984730312 0 0)
(0.03562308460760902 0 0)
(0.05426455882760289 0 0)
(0.07117886682698826 0 0)
(0.08364093167921907 0 0)
(0.09002407373413503 0 0)
(0.09161796104142447 0 0)
(0.09167147524245328 0 0)
(0.0914566044944225 0 0)
(0.09084743111541554 0 0)
(0.08963748790480765 0 0)
(0.08769088433607858 0 0)
(0.08485313685173858 0 0)
(0.08095227446458232 0 0)
(0.0758251962219734 0 0)
(0.06932996877906845 0 0)
(0.06134111068054576 0 0)
(0.05175017238047246 0 0)
(0.04047755562923469 0 0)
(0.02748611460073846 0 0)
(0.01278937400761501 0 0)
(-0.003543176461370533 0 0)
(-0.02136224451075497 0 0)
(-0.04038853139474831 0 0)
(-0.06015206098423232 0 0)
(-0.07975980300012477 0 0)
(-0.09720419835859834 0 0)
(-0.109362734751803 0 0)
(-0.1149081557835254 0 0)
(-0.1161288199337505 0 0)
(-0.1160983677854137 0 0)
(-0.1158838828568508 0 0)
(-0.1152620715647486 0 0)
(-0.1140715439483805 0 0)
(-0.1121638835278013 0 0)
(-0.1093671206908124 0 0)
(-0.1055069086308946 0 0)
(-0.1004354863959807 0 0)
(-0.09403640464755532 0 0)
(-0.08621724046106004 0 0)
(-0.07690876469102137 0 0)
(-0.06607144132407101 0 0)
(-0.05370226590226136 0 0)
(-0.03983706366595974 0 0)
(-0.02454938140379427 0 0)
(-0.007962139129847751 0 0)
(0.00971955281740128 0 0)
(0.02817615009557075 0 0)
(0.04686049612527047 0 0)
(0.06451370436628238 0 0)
(0.07858674443561985 0 0)
(0.08681748472077797 0 0)
(0.08959960207990016 0 0)
(0.08989270643275371 0 0)
(0.08980559340556005 0 0)
(0.08939124699816937 0 0)
(0.08842694887488405 0 0)
(0.08677030886028095 0 0)
(0.0842687894821965 0 0)
(0.08075448474857928 0 0)
(0.07606401961564789 0 0)
(0.07005693307130863 0 0)
(0.06261151192713298 0 0)
(0.05361932318647829 0 0)
(0.04299237090755377 0 0)
(0.0306768498823355 0 0)
(0.01666387955337803 0 0)
(0.0009947512871543904 0 0)
(-0.01622310318931308 0 0)
(-0.03476918818164726 0 0)
(-0.0542538778409913 0 0)
(-0.07397185093685388 0 0)
(-0.09236678659387049 0 0)
(-0.10649801832484 0 0)
(-0.1140240703444078 0 0)
(-0.1162465739588922 0 0)
(-0.1163901408266461 0 0)
(-0.1162952785443951 0 0)
(-0.1158512135153253 0 0)
(-0.1148939733012613 0 0)
(-0.113271768418874 0 0)
(-0.1108200622755502 0 0)
(-0.1073622827207076 0 0)
(-0.1027441159958705 0 0)
(-0.09684488166015577 0 0)
(-0.08956916828564136 0 0)
(-0.08084240652292016 0 0)
(-0.07061611349173587 0 0)
(-0.05887504971328383 0 0)
(-0.04564061633363372 0 0)
(-0.03097011017472345 0 0)
(-0.01496046284368679 0 0)
(0.00222569893871447 0 0)
(0.02031741967980074 0 0)
(0.03886243460920629 0 0)
(0.05692787712460848 0 0)
(0.07240642803484057 0 0)
(0.08253269537158402 0 0)
(0.08680251640018879 0 0)
(0.08751759687476582 0 0)
(0.0875868256065873 0 0)
(0.0873390576252556 0 0)
(0.08662658462455282 0 0)
(0.08526275419358245 0 0)
(0.08310740741487203 0 0)
(0.07999698396695809 0 0)
(0.07576595941645647 0 0)
(0.07027504479025569 0 0)
(0.06340895944603712 0 0)
(0.05506421807807009 0 0)
(0.04515070149661878 0 0)
(0.03360532179488946 0 0)
(0.02040493911980847 0 0)
(0.005572920227190126 0 0)
(-0.01081235608235822 0 0)
(-0.02858110590435214 0 0)
(-0.04740865748244837 0 0)
(-0.06671975930447159 0 0)
(-0.08532774192350513 0 0)
(-0.1007249623773874 0 0)
(-0.1099766802003321 0 0)
(-0.1133422182858124 0 0)
(-0.1138130973429775 0 0)
(-0.1138007643358331 0 0)
(-0.1135051517748954 0 0)
(-0.1127632506939776 0 0)
(-0.1114123105309701 0 0)
(-0.1092999674096455 0 0)
(-0.1062533026777403 0 0)
(-0.1021158155721096 0 0)
(-0.09676512690038931 0 0)
(-0.09010531779016209 0 0)
(-0.08205918681562269 0 0)
(-0.07257185491589413 0 0)
(-0.06161828254174857 0 0)
(-0.0492078913040252 0 0)
(-0.03538441812189554 0 0)
(-0.02022487415673007 0 0)
(-0.003857986313663323 0 0)
(0.0134912434161405 0 0)
(0.03145637382919008 0 0)
(0.04935472776913178 0 0)
(0.0655809933559533 0 0)
(0.0773316151330172 0 0)
(0.0831892340040687 0 0)
(0.08470357469614899 0 0)
(0.08487771937248594 0 0)
(0.08478123278571617 0 0)
(0.08430012713334889 0 0)
(0.08322893160957633 0 0)
(0.08141998998489877 0 0)
(0.0787132266345585 0 0)
(0.07494549101828785 0 0)
(0.06997547795431264 0 0)
(0.06368877607765182 0 0)
(0.05598500616704442 0 0)
(0.04677295128898131 0 0)
(0.03597969684868703 0 0)
(0.02356471127471321 0 0)
(0.009530203560146852 0 0)
(-0.006073371289652488 0 0)
(-0.02312252142829254 0 0)
(-0.0413572836051178 0 0)
(-0.06031695529569843 0 0)
(-0.07912714195872686 0 0)
(-0.09582225568888562 0 0)
(-0.1072647535357525 0 0)
(-0.1123336362383974 0 0)
(-0.1134833006639442 0 0)
(-0.1135217074531324 0 0)
(-0.1133871284390579 0 0)
(-0.1128540042618987 0 0)
(-0.1117614465327386 0 0)
(-0.1099615629140664 0 0)
(-0.107281261816834 0 0)
(-0.1035583960221697 0 0)
(-0.09866620925923859 0 0)
(-0.09250683115930104 0 0)
(-0.08499888798488033 0 0)
(-0.07607855830518682 0 0)
(-0.06570858060169611 0 0)
(-0.05388520153886757 0 0)
(-0.04064019734558878 0 0)
(-0.02603973826213546 0 0)
(-0.01019287744960968 0 0)
(0.006714703311253988 0 0)
(0.02437399195904198 0 0)
(0.04223799690659729 0 0)
(0.05910525061665345 0 0)
(0.07252848643210247 0 0)
(0.08019143161165723 0 0)
(0.08283999010826078 0 0)
(0.08313986182064791 0 0)
(0.08321914790935364 0 0)
(0.08293394245192717 0 0)
(0.08213003595363273 0 0)
(0.08063579811101172 0 0)
(0.07829077330441775 0 0)
(0.07492347019701624 0 0)
(0.07038648389721501 0 0)
(0.06456760351489876 0 0)
(0.05737377043733177 0 0)
(0.0487176286252653 0 0)
(0.03852136787795358 0 0)
(0.02673136281023359 0 0)
(0.01333215939352204 0 0)
(-0.001644933750802575 0 0)
(-0.01810657114676842 0 0)
(-0.03584816081468242 0 0)
(-0.05448476704561087 0 0)
(-0.07331458546913255 0 0)
(-0.09083101192531619 0 0)
(-0.1041928607707112 0 0)
(-0.1111204147231774 0 0)
(-0.1131800681067315 0 0)
(-0.113324245859636 0 0)
(-0.1133313237514199 0 0)
(-0.1129763208136488 0 0)
(-0.1121269168389437 0 0)
(-0.110619167959566 0 0)
(-0.1082809058608801 0 0)
(-0.1049407556734984 0 0)
(-0.1004661199144252 0 0)
(-0.09476160858103065 0 0)
(-0.08775020592546448 0 0)
(-0.07936653102573608 0 0)
(-0.06956358265998119 0 0)
(-0.05832180055890387 0 0)
(-0.04565546266415092 0 0)
(-0.03161536110833747 0 0)
(-0.01629214302001747 0 0)
(0.0001580766764809889 0 0)
(0.01746344169969799 0 0)
(0.03517126173921802 0 0)
(0.05239127719956681 0 0)
(0.06715688542431712 0 0)
(0.07669394006685167 0 0)
(0.08062987902112821 0 0)
(0.08138971598799156 0 0)
(0.08153497838383585 0 0)
(0.08140381847082774 0 0)
(0.08086308771551924 0 0)
(0.07969079709174022 0 0)
(0.07771507023113497 0 0)
(0.07475300016305096 0 0)
(0.0706458979879156 0 0)
(0.06527782427161441 0 0)
(0.05856282704613466 0 0)
(0.05042661454442966 0 0)
(0.0408003607707882 0 0)
(0.02962535759992703 0 0)
(0.01686623171644199 0 0)
(0.002528398744323966 0 0)
(-0.01332644586222286 0 0)
(-0.03054134933877108 0 0)
(-0.04878941044261965 0 0)
(-0.06749453429698478 0 0)
(-0.08552292851909093 0 0)
(-0.100489816178237 0 0)
(-0.1094495868517096 0 0)
(-0.1126546159341938 0 0)
(-0.1131796669209116 0 0)
(-0.1131926904589274 0 0)
(-0.1129904875389144 0 0)
(-0.1123725786906218 0 0)
(-0.1111635551804409 0 0)
(-0.1091782374965 0 0)
(-0.1062257924838921 0 0)
(-0.1021583118143101 0 0)
(-0.09687942328969877 0 0)
(-0.09032334973459158 0 0)
(-0.0824367548032367 0 0)
(-0.07317589042869049 0 0)
(-0.06251214813969164 0 0)
(-0.05044004863088148 0 0)
(-0.03698597704789612 0 0)
(-0.02221498785917539 0 0)
(-0.00625070567424324 0 0)
(0.0106761829358073 0 0)
(0.02817747374357511 0 0)
(0.04554635525151825 0 0)
(0.06124577641422196 0 0)
(0.07265119046785086 0 0)
(0.07817294346676845 0 0)
(0.07967312566172206 0 0)
(0.07971989321490115 0 0)
(0.07976311944190545 0 0)
(0.07942461515570341 0 0)
(0.07855871920977947 0 0)
(0.0769713315672968 0 0)
(0.07444922117921504 0 0)
(0.07079748974331462 0 0)
(0.06588003139201493 0 0)
(0.05961534347894568 0 0)
(0.05195022652644012 0 0)
(0.04283884658050624 0 0)
(0.03223649145179327 0 0)
(0.02010491715515911 0 0)
(0.006427114567558003 0 0)
(-0.008773471197347201 0 0)
(-0.02539944277520653 0 0)
(-0.04320199517943387 0 0)
(-0.06169872801905119 0 0)
(-0.07998661397970953 0 0)
(-0.096145146490428 0 0)
(-0.1072025705215001 0 0)
(-0.1119873207373888 0 0)
(-0.1130617397686128 0 0)
(-0.1130122176249606 0 0)
(-0.112909420953104 0 0)
(-0.1124572123318951 0 0)
(-0.1115225618333113 0 0)
(-0.109906697043324 0 0)
(-0.1073894281664436 0 0)
(-0.1037759889401993 0 0)
(-0.09893640676386115 0 0)
(-0.0928021439284146 0 0)
(-0.08534354335953498 0 0)
(-0.07654798924447334 0 0)
(-0.06640682281438552 0 0)
(-0.05491341363666227 0 0)
(-0.04207205476414923 0 0)
(-0.0279119744809187 0 0)
(-0.01250704419155879 0 0)
(0.00397227001062317 0 0)
(0.02119531487450092 0 0)
(0.03859059328377842 0 0)
(0.05497034830073039 0 0)
(0.06802312130681958 0 0)
(0.07543268142463394 0 0)
(0.0778190774742301 0 0)
(0.07811977766634716 0 0)
(0.07804250253377022 0 0)
(0.07779844314645791 0 0)
(0.07716831868032266 0 0)
(0.07595617398806441 0 0)
(0.07392178548805542 0 0)
(0.07081462129835492 0 0)
(0.06643065179941918 0 0)
(0.06064373200482031 0 0)
(0.05340310622286168 0 0)
(0.04470750789734913 0 0)
(0.03457007476280131 0 0)
(0.02299090778064298 0 0)
(0.009952311964710532 0 0)
(-0.004557768287376181 0 0)
(-0.0205063024389678 0 0)
(-0.03774157036281665 0 0)
(-0.05589477090138747 0 0)
(-0.07425669021740458 0 0)
(-0.0913115253832749 0 0)
(-0.1042835198264965 0 0)
(-0.1110505727293583 0 0)
(-0.1129403026933789 0 0)
(-0.1130871295148003 0 0)
(-0.1128696124248233 0 0)
(-0.1124503202950824 0 0)
(-0.1116591885145475 0 0)
(-0.1103458440502669 0 0)
(-0.1082909243169638 0 0)
(-0.1052420143996086 0 0)
(-0.1009755477774161 0 0)
(-0.09534190649993655 0 0)
(-0.08828526843982819 0 0)
(-0.07983520361804311 0 0)
(-0.07006642345133014 0 0)
(-0.05904419956653687 0 0)
(-0.04678944884823276 0 0)
(-0.03328920757199592 0 0)
(-0.01854051604206984 0 0)
(-0.002620765318162617 0 0)
(0.01421928383208942 0 0)
(0.03150378419951411 0 0)
(0.04831173828314317 0 0)
(0.06267358209020479 0 0)
(0.07208361461321888 0 0)
(0.07595120715941873 0 0)
(0.07666411433878029 0 0)
(0.07653737293160599 0 0)
(0.07625681520379203 0 0)
(0.07562289353501221 0 0)
(0.07453171517110363 0 0)
(0.07284381534442119 0 0)
(0.07033513807813288 0 0)
(0.06672024880687116 0 0)
(0.06171717554893066 0 0)
(0.05511223457662059 0 0)
(0.04680459204266588 0 0)
(0.03683399640658722 0 0)
(0.02538875434777966 0 0)
(0.01274231223586939 0 0)
(-0.0009611660125383478 0 0)
(-0.01583893668600781 0 0)
(-0.03240744997886379 0 0)
(-0.04960313076330265 0 0)
(-0.07029802130702889 0 0)
)
;

boundaryField
{
    inlet
    {
        type            zeroGradient;
    }
    outlet
    {
        type            velocityOutletNSCBCx;
        pInf            101325;
        gamma           1.4;
        etaAc           1;
        fieldInf        (-1 0 0);
        lInf            2.25;
        value           uniform (-0.07809973890955775 0 0);
    }
    frontAndBack
    {
        type            empty;
    }
}


// ************************************************************************* //
