/*--------------------------------*- C++ -*----------------------------------*\
| =========                 |                                                 |
| \\      /  F ield         | OpenFOAM: The Open Source CFD Toolbox           |
|  \\    /   O peration     | Version:  v2012                                 |
|   \\  /    A nd           | Website:  www.openfoam.com                      |
|    \\/     M anipulation  |                                                 |
\*---------------------------------------------------------------------------*/
FoamFile
{
    version     2.0;
    format      ascii;
    class       volVectorField;
    location    "0.0195";
    object      UMean;
}
// * * * * * * * * * * * * * * * * * * * * * * * * * * * * * * * * * * * * * //

dimensions      [0 1 -1 0 0 0 0];


internalField   nonuniform List<vector> 
1000
(
(-0.000125209719556028 0 0)
(-0.0001545061276843056 0 0)
(-0.0001557616836745585 0 0)
(-0.0001728830632747236 0 0)
(-0.0001930462220143749 0 0)
(-0.0002267858873452822 0 0)
(-0.0002603969485539789 0 0)
(-0.0003010642645609457 0 0)
(-0.0003414889601217996 0 0)
(-0.000385732116021234 0 0)
(-0.0004310923310101295 0 0)
(-0.0004776642127283736 0 0)
(-0.0005240629524144602 0 0)
(-0.0005698025064126113 0 0)
(-0.0006143160263959602 0 0)
(-0.0006564172370148383 0 0)
(-0.0006954431847404698 0 0)
(-0.000730339101291825 0 0)
(-0.0007607002629335328 0 0)
(-0.0007857753611542359 0 0)
(-0.0008053522899050328 0 0)
(-0.0008185882964901179 0 0)
(-0.0008266191584335615 0 0)
(-0.000828013795571191 0 0)
(-0.000822844300365748 0 0)
(-0.000811618342784041 0 0)
(-0.0007942305547772946 0 0)
(-0.0007711982103160458 0 0)
(-0.0007427708172794554 0 0)
(-0.0007093819450593728 0 0)
(-0.0006713802156426422 0 0)
(-0.0006295799136893209 0 0)
(-0.0005852510117879695 0 0)
(-0.0005400512827596679 0 0)
(-0.0004942888551909561 0 0)
(-0.0004488260557628794 0 0)
(-0.0004042474857288236 0 0)
(-0.0003606652519859557 0 0)
(-0.0003191394706411197 0 0)
(-0.0002803450868834018 0 0)
(-0.0002451518103300468 0 0)
(-0.000214470363474719 0 0)
(-0.0001887931168108302 0 0)
(-0.0001688266700593513 0 0)
(-0.0001540769073394663 0 0)
(-0.0001466699504588722 0 0)
(-0.000144917968790481 0 0)
(-0.0001491768302056834 0 0)
(-0.0001597477991620386 0 0)
(-0.000176160673252937 0 0)
(-0.0001983799876777264 0 0)
(-0.000226111484387878 0 0)
(-0.0002591205777424099 0 0)
(-0.0002969845341786893 0 0)
(-0.0003389912304597916 0 0)
(-0.0003834828632339757 0 0)
(-0.000429485673799959 0 0)
(-0.0004745518581018132 0 0)
(-0.0005198979685782128 0 0)
(-0.0005650613558967848 0 0)
(-0.0006092291267077522 0 0)
(-0.0006520731023473335 0 0)
(-0.0006925540867663918 0 0)
(-0.0007297460051478835 0 0)
(-0.0007628346641352592 0 0)
(-0.0007909161840057467 0 0)
(-0.0008135295769234196 0 0)
(-0.0008296228985971722 0 0)
(-0.0008403723106047187 0 0)
(-0.0008445512393351306 0 0)
(-0.0008419804851608229 0 0)
(-0.0008334106253103777 0 0)
(-0.0008185111478171805 0 0)
(-0.0007978011327676728 0 0)
(-0.0007712477134840074 0 0)
(-0.0007393173515973141 0 0)
(-0.000702236778107268 0 0)
(-0.0006613146170284774 0 0)
(-0.0006177956134301391 0 0)
(-0.0005743481128751518 0 0)
(-0.0005293035171336718 0 0)
(-0.0004853291656368215 0 0)
(-0.000441713987202393 0 0)
(-0.0003990234823524129 0 0)
(-0.000357841129810145 0 0)
(-0.0003189657674771499 0 0)
(-0.0002829425744217635 0 0)
(-0.0002508222112766322 0 0)
(-0.0002231916384262802 0 0)
(-0.0002009975251685152 0 0)
(-0.0001842092770058038 0 0)
(-0.0001739422817404623 0 0)
(-0.0001705017532500731 0 0)
(-0.0001728253588598566 0 0)
(-0.000181575483488243 0 0)
(-0.0001963478990895347 0 0)
(-0.0002170943821560154 0 0)
(-0.0002435463858382454 0 0)
(-0.0002756790560273553 0 0)
(-0.0003128634713144073 0 0)
(-0.0003544395285326217 0 0)
(-0.000398363247689587 0 0)
(-0.0004441952108785718 0 0)
(-0.0004884614728631088 0 0)
(-0.0005338409843409224 0 0)
(-0.000578506369273571 0 0)
(-0.0006226989363918447 0 0)
(-0.0006656902065054131 0 0)
(-0.0007069132537615453 0 0)
(-0.0007454261150693763 0 0)
(-0.0007803899034085062 0 0)
(-0.000810980385679127 0 0)
(-0.0008363891584281557 0 0)
(-0.0008560494762203908 0 0)
(-0.0008690716096781027 0 0)
(-0.0008768998771013296 0 0)
(-0.0008773010759804884 0 0)
(-0.0008713240016599346 0 0)
(-0.0008589060864459411 0 0)
(-0.0008403621824292891 0 0)
(-0.0008156407603183006 0 0)
(-0.0007853151024992701 0 0)
(-0.0007495479404912072 0 0)
(-0.0007097743672605033 0 0)
(-0.0006673167051122541 0 0)
(-0.000624929144874408 0 0)
(-0.0005809100912695735 0 0)
(-0.0005381822693933315 0 0)
(-0.0004950974445294009 0 0)
(-0.00045333420391302 0 0)
(-0.000412482400222639 0 0)
(-0.0003737913759534864 0 0)
(-0.0003374982824188326 0 0)
(-0.0003045356539600167 0 0)
(-0.0002756043011799786 0 0)
(-0.0002514851388740391 0 0)
(-0.0002329330599392089 0 0)
(-0.000219549899397268 0 0)
(-0.0002141348864235344 0 0)
(-0.0002143278132654833 0 0)
(-0.0002208962977103446 0 0)
(-0.0002339714771506694 0 0)
(-0.0002531669572186124 0 0)
(-0.0002784187021497357 0 0)
(-0.0003094661024081125 0 0)
(-0.0003458821431829428 0 0)
(-0.0003867508709119285 0 0)
(-0.0004303355715187867 0 0)
(-0.0004753952492761341 0 0)
(-0.0005202013389437408 0 0)
(-0.0005650634341284441 0 0)
(-0.000609325601300674 0 0)
(-0.0006536704820054576 0 0)
(-0.0006967325405948843 0 0)
(-0.0007384816532793945 0 0)
(-0.0007780307386786846 0 0)
(-0.0008144011512978712 0 0)
(-0.0008469979080678534 0 0)
(-0.0008747623177979744 0 0)
(-0.0008974780043561136 0 0)
(-0.0009132023817802123 0 0)
(-0.000924466108516476 0 0)
(-0.0009280949500742035 0 0)
(-0.0009249422398464666 0 0)
(-0.0009152547120701953 0 0)
(-0.0008990362062709391 0 0)
(-0.0008764192394206413 0 0)
(-0.0008477274654352276 0 0)
(-0.0008134980276092407 0 0)
(-0.0007748653679097841 0 0)
(-0.0007336477540167137 0 0)
(-0.000691636048811914 0 0)
(-0.0006498097412020597 0 0)
(-0.0006071033107892011 0 0)
(-0.0005648696754927523 0 0)
(-0.0005238040205071653 0 0)
(-0.0004833973003529722 0 0)
(-0.0004448729914149901 0 0)
(-0.000408534645906599 0 0)
(-0.0003750845071879634 0 0)
(-0.0003452199592422024 0 0)
(-0.0003196592221015778 0 0)
(-0.00029934993699685 0 0)
(-0.0002838128876152748 0 0)
(-0.0002759826646276006 0 0)
(-0.0002739382624168348 0 0)
(-0.0002781397797407933 0 0)
(-0.000289190694739495 0 0)
(-0.0003066143771463259 0 0)
(-0.0003304809375840335 0 0)
(-0.0003602369510941209 0 0)
(-0.0003957997366295554 0 0)
(-0.000435877918221143 0 0)
(-0.0004792115029549925 0 0)
(-0.0005234043475947265 0 0)
(-0.000569227173493588 0 0)
(-0.000612867359694696 0 0)
(-0.0006574271815008105 0 0)
(-0.0007016428460707364 0 0)
(-0.0007449873434183961 0 0)
(-0.0007870582845850284 0 0)
(-0.0008274106014154563 0 0)
(-0.0008650204670072326 0 0)
(-0.000899217774484847 0 0)
(-0.0009290583166127826 0 0)
(-0.0009541804944626504 0 0)
(-0.0009730378831785623 0 0)
(-0.0009866599922052236 0 0)
(-0.0009938664491600257 0 0)
(-0.0009937864558793616 0 0)
(-0.0009870236364336702 0 0)
(-0.0009734528778818332 0 0)
(-0.0009531867491285458 0 0)
(-0.0009264078357284368 0 0)
(-0.0008938269671991341 0 0)
(-0.0008564437984337237 0 0)
(-0.0008163772829830548 0 0)
(-0.0007749068209913522 0 0)
(-0.0007346599332417428 0 0)
(-0.000691946330981618 0 0)
(-0.0006510261868634437 0 0)
(-0.0006103010960343931 0 0)
(-0.0005705886991723306 0 0)
(-0.0005321825013104036 0 0)
(-0.0004958600516847395 0 0)
(-0.0004621941402880549 0 0)
(-0.0004316130573801054 0 0)
(-0.0004050111647701993 0 0)
(-0.0003830153547357294 0 0)
(-0.0003662778572971047 0 0)
(-0.0003549923108640966 0 0)
(-0.0003513809600033487 0 0)
(-0.0003533473471283862 0 0)
(-0.0003621713528202158 0 0)
(-0.0003775683986475852 0 0)
(-0.0003997297096158477 0 0)
(-0.0004281005281391847 0 0)
(-0.0004625245491723182 0 0)
(-0.0005018370027708623 0 0)
(-0.000544721128099161 0 0)
(-0.00058859869133821 0 0)
(-0.0006343022486740348 0 0)
(-0.0006777715195095545 0 0)
(-0.0007226631907855616 0 0)
(-0.0007664660980561006 0 0)
(-0.0008102436063546546 0 0)
(-0.0008525156297893085 0 0)
(-0.0008935165778745905 0 0)
(-0.0009321997073095624 0 0)
(-0.0009677851152081889 0 0)
(-0.0009994826580257232 0 0)
(-0.001026587095498243 0 0)
(-0.001048595343585812 0 0)
(-0.001063885111034926 0 0)
(-0.001074747455691029 0 0)
(-0.001077901185793185 0 0)
(-0.001074078777829398 0 0)
(-0.001063325269570104 0 0)
(-0.001045635737927454 0 0)
(-0.001021180509873186 0 0)
(-0.000990335302155786 0 0)
(-0.0009544686642606489 0 0)
(-0.00091539992207483 0 0)
(-0.0008749516967192146 0 0)
(-0.0008349323955666588 0 0)
(-0.0007940523477589098 0 0)
(-0.0007535055270981305 0 0)
(-0.0007130798209131758 0 0)
(-0.0006740574197816376 0 0)
(-0.0006358596751538904 0 0)
(-0.0005995734412007891 0 0)
(-0.000565770887223892 0 0)
(-0.0005347350229517121 0 0)
(-0.0005073131099630082 0 0)
(-0.0004839477903936896 0 0)
(-0.0004659557329957091 0 0)
(-0.0004521521628991215 0 0)
(-0.0004467196924283795 0 0)
(-0.000446561921160201 0 0)
(-0.0004529891755890879 0 0)
(-0.0004662388074588246 0 0)
(-0.0004864369540855682 0 0)
(-0.0005132192014212123 0 0)
(-0.0005462305323957491 0 0)
(-0.0005846508591226148 0 0)
(-0.0006268789606952986 0 0)
(-0.0006708380748326726 0 0)
(-0.0007154585586862627 0 0)
(-0.0007606281378354157 0 0)
(-0.000804391258866769 0 0)
(-0.0008482824887288055 0 0)
(-0.0008922194088315506 0 0)
(-0.0009348591417470285 0 0)
(-0.0009762887934203805 0 0)
(-0.00101581650369386 0 0)
(-0.001052728440811741 0 0)
(-0.001085990771296091 0 0)
(-0.001114987843021958 0 0)
(-0.001139379180933249 0 0)
(-0.001157103108084995 0 0)
(-0.00117084791709072 0 0)
(-0.001177161078365932 0 0)
(-0.001176208995900577 0 0)
(-0.001168440222056604 0 0)
(-0.001153466481340439 0 0)
(-0.001131539574335975 0 0)
(-0.001102769590816517 0 0)
(-0.001068570532749025 0 0)
(-0.001030594762718901 0 0)
(-0.0009912716379872452 0 0)
(-0.0009511942290037592 0 0)
(-0.0009126809257481601 0 0)
(-0.0008715411682120011 0 0)
(-0.0008321218674204124 0 0)
(-0.0007934223912525285 0 0)
(-0.0007557321702898833 0 0)
(-0.00071941007694408 0 0)
(-0.0006854838481732372 0 0)
(-0.0006542212885953943 0 0)
(-0.0006261083265972285 0 0)
(-0.0006017525066797357 0 0)
(-0.0005822279957203286 0 0)
(-0.0005671457620072754 0 0)
(-0.0005588826798250471 0 0)
(-0.0005571094119267213 0 0)
(-0.0005612358894341957 0 0)
(-0.0005723579816457187 0 0)
(-0.0005903438917874066 0 0)
(-0.0006153127041640963 0 0)
(-0.0006467934032459762 0 0)
(-0.0006839898251809405 0 0)
(-0.0007255038036972822 0 0)
(-0.0007693476379943685 0 0)
(-0.0008133335782453616 0 0)
(-0.0008593796441371718 0 0)
(-0.000902194135530296 0 0)
(-0.0009466980180196063 0 0)
(-0.0009904099154304554 0 0)
(-0.001033567341967056 0 0)
(-0.001075315901094175 0 0)
(-0.001115517682407248 0 0)
(-0.001153577366107878 0 0)
(-0.001188271350874222 0 0)
(-0.001219079598772102 0 0)
(-0.001245254136980535 0 0)
(-0.001266174082677249 0 0)
(-0.001280919594558187 0 0)
(-0.001290983629646936 0 0)
(-0.0012930922493311 0 0)
(-0.001288340736845117 0 0)
(-0.001276134946368326 0 0)
(-0.00125694722126218 0 0)
(-0.001230596241234871 0 0)
(-0.001198207559576004 0 0)
(-0.001161566193389051 0 0)
(-0.001123162818648033 0 0)
(-0.0010837655353274 0 0)
(-0.001045909546853575 0 0)
(-0.001005690982929584 0 0)
(-0.0009671127727207557 0 0)
(-0.0009284609456102715 0 0)
(-0.0008913526100810649 0 0)
(-0.0008551584095913956 0 0)
(-0.0008210843546102279 0 0)
(-0.000789581984700214 0 0)
(-0.0007610674298067551 0 0)
(-0.000735898425586382 0 0)
(-0.0007149342602224489 0 0)
(-0.0006991002154420859 0 0)
(-0.0006876424272890081 0 0)
(-0.0006845553705937132 0 0)
(-0.0006867340751254665 0 0)
(-0.0006955662759339844 0 0)
(-0.0007113429656882463 0 0)
(-0.0007342573035805437 0 0)
(-0.0007640257987219496 0 0)
(-0.0007997976186390712 0 0)
(-0.0008404173601953076 0 0)
(-0.0008838226213046733 0 0)
(-0.0009279657817114984 0 0)
(-0.0009729891827097805 0 0)
(-0.001017457441925195 0 0)
(-0.001061272363863764 0 0)
(-0.001104862742173882 0 0)
(-0.001148352271653225 0 0)
(-0.001190546265764179 0 0)
(-0.001231211893486934 0 0)
(-0.001270139384835148 0 0)
(-0.001306291763109195 0 0)
(-0.001338682525042412 0 0)
(-0.001366613541378031 0 0)
(-0.001390094544603823 0 0)
(-0.00140656168786923 0 0)
(-0.001419738354848386 0 0)
(-0.001424905951548366 0 0)
(-0.001422916626030416 0 0)
(-0.001413720593433617 0 0)
(-0.001397226062545926 0 0)
(-0.001373546892744675 0 0)
(-0.001343304794258823 0 0)
(-0.001308183161444517 0 0)
(-0.001270664749167225 0 0)
(-0.001232406974842611 0 0)
(-0.001194094186980424 0 0)
(-0.001156706621254193 0 0)
(-0.001117385930698939 0 0)
(-0.001079413317759648 0 0)
(-0.001042643018800326 0 0)
(-0.00100682921467861 0 0)
(-0.0009726085746687797 0 0)
(-0.0009408314518736195 0 0)
(-0.0009120622821234114 0 0)
(-0.0008862785419625626 0 0)
(-0.0008642310097741558 0 0)
(-0.0008471099417795151 0 0)
(-0.000834004245509278 0 0)
(-0.0008287678215918619 0 0)
(-0.0008292582834415535 0 0)
(-0.0008357549818446804 0 0)
(-0.0008494691482203733 0 0)
(-0.0008700707436501071 0 0)
(-0.0008979795511383744 0 0)
(-0.0009321835448368838 0 0)
(-0.0009716616669845647 0 0)
(-0.001014453025703045 0 0)
(-0.001058761579801583 0 0)
(-0.001102839681897457 0 0)
(-0.001148914989796335 0 0)
(-0.00119148022814834 0 0)
(-0.001235609736184659 0 0)
(-0.001279082846376203 0 0)
(-0.001321804217301809 0 0)
(-0.001362940592944497 0 0)
(-0.001402505094967502 0 0)
(-0.001439842815636582 0 0)
(-0.00147385893951079 0 0)
(-0.001503483277146246 0 0)
(-0.001528778719870502 0 0)
(-0.001548199093636493 0 0)
(-0.001562455188758284 0 0)
(-0.001571212408972937 0 0)
(-0.001572113931541461 0 0)
(-0.001565969889807983 0 0)
(-0.001552245778251352 0 0)
(-0.001531354720644799 0 0)
(-0.001503525886042543 0 0)
(-0.001470145737418792 0 0)
(-0.001433655983960225 0 0)
(-0.001396311367221786 0 0)
(-0.001358296127805943 0 0)
(-0.001322220358491988 0 0)
(-0.001283076639751394 0 0)
(-0.001246102279614434 0 0)
(-0.001209299333129617 0 0)
(-0.001173945460438786 0 0)
(-0.001139812130627514 0 0)
(-0.001107701496974966 0 0)
(-0.001078566325703101 0 0)
(-0.001052467245825941 0 0)
(-0.001029559730756628 0 0)
(-0.00101096114198202 0 0)
(-0.0009973297025045477 0 0)
(-0.0009884655443759931 0 0)
(-0.0009879655371460145 0 0)
(-0.0009925524172840312 0 0)
(-0.001004076670271462 0 0)
(-0.00102247093997583 0 0)
(-0.001048189767274401 0 0)
(-0.001080692154155491 0 0)
(-0.001118858432458018 0 0)
(-0.001160880081415612 0 0)
(-0.001204951757005808 0 0)
(-0.001249091098683514 0 0)
(-0.001294483535766765 0 0)
(-0.001338323529282026 0 0)
(-0.001382124929986235 0 0)
(-0.001425380412921858 0 0)
(-0.001468515828672807 0 0)
(-0.001510199453497385 0 0)
(-0.001550228220092463 0 0)
(-0.001588421703331441 0 0)
(-0.001623974424454464 0 0)
(-0.001655338199991956 0 0)
(-0.001682185166752714 0 0)
(-0.001704445639179189 0 0)
(-0.001719684821077705 0 0)
(-0.001731836506748466 0 0)
(-0.001735719915783925 0 0)
(-0.001732309427537697 0 0)
(-0.001721595868089946 0 0)
(-0.001703374470054136 0 0)
(-0.001678212987939927 0 0)
(-0.001646857046893521 0 0)
(-0.001611662024770192 0 0)
(-0.00157496148136963 0 0)
(-0.001538029835174882 0 0)
(-0.001501348021848429 0 0)
(-0.001465150020142779 0 0)
(-0.001427387471430908 0 0)
(-0.001391039332430329 0 0)
(-0.001356002873055351 0 0)
(-0.001322105001752644 0 0)
(-0.001289811734188126 0 0)
(-0.001260187959507201 0 0)
(-0.001233756876578308 0 0)
(-0.001210394389686346 0 0)
(-0.001190400402166185 0 0)
(-0.001175847874899555 0 0)
(-0.00116477706772347 0 0)
(-0.001162613687309532 0 0)
(-0.001165483285228432 0 0)
(-0.001174637507183364 0 0)
(-0.001190976675548654 0 0)
(-0.001214336174551172 0 0)
(-0.001244931890796725 0 0)
(-0.001281610464985752 0 0)
(-0.001322685199672182 0 0)
(-0.001366251524764773 0 0)
(-0.001410686576851532 0 0)
(-0.00145498420490094 0 0)
(-0.001500765895964321 0 0)
(-0.001543206888329867 0 0)
(-0.001586938044050991 0 0)
(-0.001630170837799443 0 0)
(-0.00167236239539719 0 0)
(-0.001712991972145764 0 0)
(-0.001751712327485017 0 0)
(-0.00178848146202673 0 0)
(-0.001821633177627704 0 0)
(-0.001849990498325674 0 0)
(-0.001874305563706266 0 0)
(-0.001892160131055503 0 0)
(-0.001905544866208794 0 0)
(-0.001912923731325328 0 0)
(-0.001912312115404114 0 0)
(-0.001904655612250212 0 0)
(-0.001889258096312736 0 0)
(-0.001866756459946518 0 0)
(-0.001837768406043176 0 0)
(-0.001804006948914194 0 0)
(-0.001768232250427998 0 0)
(-0.001732110329322497 0 0)
(-0.001695518454079959 0 0)
(-0.001660910334892597 0 0)
(-0.001623041302546773 0 0)
(-0.001587621558906166 0 0)
(-0.001552521793161919 0 0)
(-0.001518972351426584 0 0)
(-0.001486758683142744 0 0)
(-0.001456622904627909 0 0)
(-0.001429729849974212 0 0)
(-0.001406015164618234 0 0)
(-0.001385182650591899 0 0)
(-0.001369107324093073 0 0)
(-0.00135757739542336 0 0)
(-0.001351542220574133 0 0)
(-0.001353600014090486 0 0)
(-0.001360827670723708 0 0)
(-0.001374993699772417 0 0)
(-0.001396166123672179 0 0)
(-0.001424470026319755 0 0)
(-0.001459608130516033 0 0)
(-0.00149939193269742 0 0)
(-0.001542704476500826 0 0)
(-0.001586824918484109 0 0)
(-0.001631040099669957 0 0)
(-0.001676417825112742 0 0)
(-0.001719989541090652 0 0)
(-0.001763409008416293 0 0)
(-0.00180642969819248 0 0)
(-0.001849072853014874 0 0)
(-0.001890276562907303 0 0)
(-0.001929541775638668 0 0)
(-0.001966995930043048 0 0)
(-0.002001864107848086 0 0)
(-0.002031989674708576 0 0)
(-0.002057599416717265 0 0)
(-0.002078673368986643 0 0)
(-0.002092536035265559 0 0)
(-0.002103538962300922 0 0)
(-0.0021058152820249 0 0)
(-0.002100878771456842 0 0)
(-0.002088472998076519 0 0)
(-0.00206859044951514 0 0)
(-0.002042103233762361 0 0)
(-0.002010081521707031 0 0)
(-0.001975448331420762 0 0)
(-0.001939798191137368 0 0)
(-0.001904135767225739 0 0)
(-0.001868995386103298 0 0)
(-0.001834007938532364 0 0)
(-0.001797679892057687 0 0)
(-0.001762916878728205 0 0)
(-0.001729639332155632 0 0)
(-0.001697541900532313 0 0)
(-0.001667240277969829 0 0)
(-0.001639450463126386 0 0)
(-0.001615750638674679 0 0)
(-0.001593943369188542 0 0)
(-0.001576392126799313 0 0)
(-0.001564420687591313 0 0)
(-0.001555616754189125 0 0)
(-0.001556279565347612 0 0)
(-0.001561722634662513 0 0)
(-0.001573509229668779 0 0)
(-0.001592582419980191 0 0)
(-0.001618575875784693 0 0)
(-0.001651669602838573 0 0)
(-0.001690388922580745 0 0)
(-0.001732434920645152 0 0)
(-0.001776884326025922 0 0)
(-0.00182103765100344 0 0)
(-0.001865287747800979 0 0)
(-0.001910805485765825 0 0)
(-0.00195280060255972 0 0)
(-0.001996273909212313 0 0)
(-0.002039017662035873 0 0)
(-0.002080717277518844 0 0)
(-0.002120671412959511 0 0)
(-0.00215842235342621 0 0)
(-0.002194828639746531 0 0)
(-0.002226184945064163 0 0)
(-0.002253527204181657 0 0)
(-0.002276888572597919 0 0)
(-0.002293036064516328 0 0)
(-0.00230525693635051 0 0)
(-0.002311008797479881 0 0)
(-0.002308806224714496 0 0)
(-0.002299361098861035 0 0)
(-0.002282323134581496 0 0)
(-0.002258138587246488 0 0)
(-0.002228506164514761 0 0)
(-0.002194228356998658 0 0)
(-0.002160422432987292 0 0)
(-0.00212486529364753 0 0)
(-0.00208963942484948 0 0)
(-0.002056198132342573 0 0)
(-0.002019686071896058 0 0)
(-0.001985679403387704 0 0)
(-0.001952211407545471 0 0)
(-0.001920325058837912 0 0)
(-0.001890001883994732 0 0)
(-0.001861576295065789 0 0)
(-0.001837159335048156 0 0)
(-0.001815045117892399 0 0)
(-0.001796283359308179 0 0)
(-0.001782900976017106 0 0)
(-0.001773591924841153 0 0)
(-0.001770151523580704 0 0)
(-0.001774835711402546 0 0)
(-0.001784609214631174 0 0)
(-0.001801396928508118 0 0)
(-0.001825195999897201 0 0)
(-0.001855912399237612 0 0)
(-0.001893257244389651 0 0)
(-0.001933913047727581 0 0)
(-0.00197854589407524 0 0)
(-0.002022340757807758 0 0)
(-0.002066267603797566 0 0)
(-0.002111302246489487 0 0)
(-0.00215454340983081 0 0)
(-0.002197412388464159 0 0)
(-0.002239929568415261 0 0)
(-0.002281999739370906 0 0)
(-0.002322464459669431 0 0)
(-0.002360825413450608 0 0)
(-0.002397297850019115 0 0)
(-0.002431303992295004 0 0)
(-0.002459187705006154 0 0)
(-0.002484378023973383 0 0)
(-0.00250361618001389 0 0)
(-0.002516030928303619 0 0)
(-0.002525413622143025 0 0)
(-0.00252589845708825 0 0)
(-0.002519017666873861 0 0)
(-0.00250481486377844 0 0)
(-0.002483121616189172 0 0)
(-0.002455435303086461 0 0)
(-0.002422719485368656 0 0)
(-0.002389109199608176 0 0)
(-0.002354584438395511 0 0)
(-0.002319627461364606 0 0)
(-0.002285405546569477 0 0)
(-0.002251727024324396 0 0)
(-0.002216274705218131 0 0)
(-0.002183029264713822 0 0)
(-0.002151159606047109 0 0)
(-0.002120673602522822 0 0)
(-0.002092012879552203 0 0)
(-0.002065834534998077 0 0)
(-0.002044599571577397 0 0)
(-0.002023527023270844 0 0)
(-0.002009133459774028 0 0)
(-0.001998809167234713 0 0)
(-0.001992433370822032 0 0)
(-0.001995325173683331 0 0)
(-0.002003109574121511 0 0)
(-0.002017290608803041 0 0)
(-0.002038706027208256 0 0)
(-0.002067046992817203 0 0)
(-0.002102024741140912 0 0)
(-0.002141965297587439 0 0)
(-0.002184581834048936 0 0)
(-0.002229200170956198 0 0)
(-0.002272620387233213 0 0)
(-0.00231636148331498 0 0)
(-0.002361480520149366 0 0)
(-0.00240247727961823 0 0)
(-0.002445468741024944 0 0)
(-0.00248736593270983 0 0)
(-0.002528170298565244 0 0)
(-0.00256717393948959 0 0)
(-0.002603524981871471 0 0)
(-0.002639331613708958 0 0)
(-0.002668247267648182 0 0)
(-0.002694807187562235 0 0)
(-0.002716567270732571 0 0)
(-0.002731428090817382 0 0)
(-0.002741783918516875 0 0)
(-0.002746071866452502 0 0)
(-0.002742189742856172 0 0)
(-0.002731262248726034 0 0)
(-0.002712914235876651 0 0)
(-0.00268787254254656 0 0)
(-0.002658285351181698 0 0)
(-0.002625154816264487 0 0)
(-0.002593135233720268 0 0)
(-0.002559765602323378 0 0)
(-0.002526169817830057 0 0)
(-0.002494825312952594 0 0)
(-0.002460266390867298 0 0)
(-0.002428528746940072 0 0)
(-0.002397265360529718 0 0)
(-0.002367890941539096 0 0)
(-0.002340051673945132 0 0)
(-0.002314012515553069 0 0)
(-0.002292677628700097 0 0)
(-0.002272388319206202 0 0)
(-0.002256363316816457 0 0)
(-0.002246653427530627 0 0)
(-0.002239646266587271 0 0)
(-0.00223875856678541 0 0)
(-0.002246172546528172 0 0)
(-0.002258458040250064 0 0)
(-0.002277625366516723 0 0)
(-0.0023037452693332 0 0)
(-0.002336335773968492 0 0)
(-0.0023748223110505 0 0)
(-0.002415922817431607 0 0)
(-0.002460051354867291 0 0)
(-0.002503803369560594 0 0)
(-0.002546345353145981 0 0)
(-0.002590727286010886 0 0)
(-0.002633073519494928 0 0)
(-0.002674792357861337 0 0)
(-0.002716325296559083 0 0)
(-0.002757309265825215 0 0)
(-0.002796599128873465 0 0)
(-0.002833452787851105 0 0)
(-0.002868899745640815 0 0)
(-0.002900735123102913 0 0)
(-0.002927219818082253 0 0)
(-0.002951696558732149 0 0)
(-0.002968847751774281 0 0)
(-0.002979791733617837 0 0)
(-0.002987707727207212 0 0)
(-0.002986761199066662 0 0)
(-0.002978478647875781 0 0)
(-0.002963198423279872 0 0)
(-0.00294088245450868 0 0)
(-0.002913103796549184 0 0)
(-0.002881584473799597 0 0)
(-0.002849589070676592 0 0)
(-0.002817732646433325 0 0)
(-0.002784192533818815 0 0)
(-0.002752397739924616 0 0)
(-0.002721058480385424 0 0)
(-0.002687630413870563 0 0)
(-0.002657014971480346 0 0)
(-0.002627758810232388 0 0)
(-0.002599953218899493 0 0)
(-0.002574008481088732 0 0)
(-0.002550608381884774 0 0)
(-0.002532108165910096 0 0)
(-0.002514107800579525 0 0)
(-0.002502400999456733 0 0)
(-0.002495397415627408 0 0)
(-0.002491972034333659 0 0)
(-0.002497190392068895 0 0)
(-0.002508065816978755 0 0)
(-0.002524763686503432 0 0)
(-0.00254879592234943 0 0)
(-0.002579392168016949 0 0)
(-0.002615995706534057 0 0)
(-0.002656705528633346 0 0)
(-0.002699678027666108 0 0)
(-0.002743616112097458 0 0)
(-0.002787001362169002 0 0)
(-0.002829796811964058 0 0)
(-0.002874667410192047 0 0)
(-0.002914487810767037 0 0)
(-0.002956986557889404 0 0)
(-0.00299792155482994 0 0)
(-0.003037894293673331 0 0)
(-0.003075787643851543 0 0)
(-0.003110910618643589 0 0)
(-0.003145345142939785 0 0)
(-0.003173171947762313 0 0)
(-0.003197574719081156 0 0)
(-0.003219394641419689 0 0)
(-0.003231971257650866 0 0)
(-0.003240256960304564 0 0)
(-0.003243302144814024 0 0)
(-0.003237779990803582 0 0)
(-0.003225348858908591 0 0)
(-0.003205830933876002 0 0)
(-0.003180030481141022 0 0)
(-0.003150307442294298 0 0)
(-0.003118365330060974 0 0)
(-0.003086771645259484 0 0)
(-0.003055589399817835 0 0)
(-0.003022257891498014 0 0)
(-0.002992624056897159 0 0)
(-0.002959763348096495 0 0)
(-0.002929193735210065 0 0)
(-0.002899723546283113 0 0)
(-0.002872226256875417 0 0)
(-0.002846286056924284 0 0)
(-0.002822102654660083 0 0)
(-0.00280289691016869 0 0)
(-0.002784486922135311 0 0)
(-0.002770887949047391 0 0)
(-0.002763834043535611 0 0)
(-0.00275934055632392 0 0)
(-0.002760358358780138 0 0)
(-0.002770725618629452 0 0)
(-0.002785593764206237 0 0)
(-0.002807164392219904 0 0)
(-0.002835754656131379 0 0)
(-0.002870554156926914 0 0)
(-0.002910107073560805 0 0)
(-0.002952521407957643 0 0)
(-0.002995891043567981 0 0)
(-0.003040316725594109 0 0)
(-0.003082506172462588 0 0)
(-0.003126539819885121 0 0)
(-0.003169663189891529 0 0)
(-0.003209903253785681 0 0)
(-0.003251381711390304 0 0)
(-0.003291897542983922 0 0)
(-0.003330539875486802 0 0)
(-0.003366626096367956 0 0)
(-0.003400843875960026 0 0)
(-0.00343166527030269 0 0)
(-0.003457427196899886 0 0)
(-0.003479597219084075 0 0)
(-0.003496954506153722 0 0)
(-0.003505385181257931 0 0)
(-0.003511583460483725 0 0)
(-0.003509347933015208 0 0)
(-0.003499221197892322 0 0)
(-0.003482604831177561 0 0)
(-0.003459366714683947 0 0)
(-0.003430976831292575 0 0)
(-0.003400515459547783 0 0)
(-0.003368724245919739 0 0)
(-0.003337895557984515 0 0)
(-0.003306752857975843 0 0)
(-0.003274747643052615 0 0)
(-0.00324659781072792 0 0)
(-0.003212822847810669 0 0)
(-0.003184637651789938 0 0)
(-0.003156977028415093 0 0)
(-0.003131207369063268 0 0)
(-0.003107250132118219 0 0)
(-0.003085642603692082 0 0)
(-0.003069073055361761 0 0)
(-0.003054029900046217 0 0)
(-0.003043497903819443 0 0)
(-0.003040969875668078 0 0)
(-0.003039114545883812 0 0)
(-0.0030455328230941 0 0)
(-0.003059906008811252 0 0)
(-0.003079263054006424 0 0)
(-0.003105657399163524 0 0)
(-0.003138653311926894 0 0)
(-0.003176752862173106 0 0)
(-0.003218531771828852 0 0)
(-0.003261492840332472 0 0)
(-0.003305133132987961 0 0)
(-0.003349717301287697 0 0)
(-0.003390887874721852 0 0)
(-0.003436359908051463 0 0)
(-0.003476524255152351 0 0)
(-0.003517965188631189 0 0)
(-0.003558501298654092 0 0)
(-0.003598021521091278 0 0)
(-0.00363519597709292 0 0)
(-0.003669356867051701 0 0)
(-0.0037022000105145 0 0)
(-0.003729370365644728 0 0)
(-0.003752618736818211 0 0)
(-0.003772589557923314 0 0)
(-0.003784844193013209 0 0)
(-0.00378969475583422 0 0)
(-0.003792161195540326 0 0)
(-0.003785380128611831 0 0)
(-0.00377107543720826 0 0)
(-0.003750603694110935 0 0)
(-0.003724413696944712 0 0)
(-0.003694523579245932 0 0)
(-0.003664387824821329 0 0)
(-0.0036327941812362 0 0)
(-0.003602814772561127 0 0)
(-0.003571804906810656 0 0)
(-0.003541262012396444 0 0)
(-0.00351354628303069 0 0)
(-0.003481169714064866 0 0)
(-0.003454591810926678 0 0)
(-0.003428995752905103 0 0)
(-0.003405018313994754 0 0)
(-0.003383235273459594 0 0)
(-0.003364614423350421 0 0)
(-0.003349967301895572 0 0)
(-0.003338808870379291 0 0)
(-0.003331909138381102 0 0)
(-0.00333350817478535 0 0)
(-0.003334955578215937 0 0)
(-0.003347246353795848 0 0)
(-0.00336558745839894 0 0)
(-0.003389213728609113 0 0)
(-0.003420241761169899 0 0)
(-0.003457031998460437 0 0)
(-0.003497333420412601 0 0)
(-0.00354075710819043 0 0)
(-0.003583376082895322 0 0)
(-0.003627118580075646 0 0)
(-0.003671731809676786 0 0)
(-0.003712683868853995 0 0)
(-0.003759362762312782 0 0)
(-0.003795298494041565 0 0)
(-0.003838728869738438 0 0)
(-0.003878017274738908 0 0)
(-0.003916101249133679 0 0)
(-0.003951912369924811 0 0)
(-0.00398382833166518 0 0)
(-0.004014295574845765 0 0)
(-0.00403923479903718 0 0)
(-0.004059057009892814 0 0)
(-0.004076527688539684 0 0)
(-0.004083422455452051 0 0)
(-0.004084721281167794 0 0)
(-0.004082810965351031 0 0)
(-0.004071853338936528 0 0)
(-0.004053624345258587 0 0)
(-0.004029904060203779 0 0)
(-0.00400170392283148 0 0)
(-0.003971584500366534 0 0)
(-0.003942014522496918 0 0)
(-0.003910826153685308 0 0)
(-0.003881247911781864 0 0)
(-0.00385161536342066 0 0)
(-0.003821116637331139 0 0)
(-0.003794823829244292 0 0)
(-0.003763230483201627 0 0)
(-0.00373991223504945 0 0)
(-0.003715717925293 0 0)
(-0.003694331265527932 0 0)
(-0.003674114843890979 0 0)
(-0.003658882786961311 0 0)
(-0.003646585201353588 0 0)
(-0.003639417234764972 0 0)
(-0.003636163277798225 0 0)
(-0.003641685398689041 0 0)
(-0.003647198158686851 0 0)
(-0.003665254606663463 0 0)
(-0.003687667303586292 0 0)
(-0.003715492696236968 0 0)
(-0.003750804946944911 0 0)
(-0.003790169382430353 0 0)
(-0.00383224453063605 0 0)
(-0.003876219848837746 0 0)
(-0.003919022048504469 0 0)
(-0.003962045151006894 0 0)
(-0.004006677072667574 0 0)
(-0.004047833644366248 0 0)
(-0.00409432223149019 0 0)
(-0.004126051095365628 0 0)
(-0.00417351078706675 0 0)
(-0.004210547817997069 0 0)
(-0.004247767242244855 0 0)
(-0.00427883587145726 0 0)
(-0.004311405610443875 0 0)
(-0.004336952508102882 0 0)
(-0.004360628475278189 0 0)
(-0.004376818488979532 0 0)
(-0.004391197116461899 0 0)
(-0.004390423462795765 0 0)
(-0.004391283127782639 0 0)
(-0.004382137158008247 0 0)
)
;

boundaryField
{
    inlet
    {
        type            calculated;
        value           uniform (-0.000125209719556028 0 0);
    }
    outlet
    {
        type            calculated;
        value           uniform (-0.004375639558369453 0 0);
    }
    frontAndBack
    {
        type            empty;
    }
}


// ************************************************************************* //
