/*--------------------------------*- C++ -*----------------------------------*\
| =========                 |                                                 |
| \\      /  F ield         | OpenFOAM: The Open Source CFD Toolbox           |
|  \\    /   O peration     | Version:  v2012                                 |
|   \\  /    A nd           | Website:  www.openfoam.com                      |
|    \\/     M anipulation  |                                                 |
\*---------------------------------------------------------------------------*/
FoamFile
{
    version     2.0;
    format      ascii;
    class       volScalarField;
    location    "0.006";
    object      p;
}
// * * * * * * * * * * * * * * * * * * * * * * * * * * * * * * * * * * * * * //

dimensions      [1 -1 -2 0 0 0 0];


internalField   nonuniform List<scalar> 
100
(
100000
100000
100000
100000
100000
100000
100000
100000
100000
100000
100000
100000
100000
100000
100000
100000
100000
100000
100000
100000
100000
100000
100000
99999.2
99963.3
99570.9
98096.1
95339.7
91808.4
87980
84091.8
80243.8
76480
72822.4
69282.3
65865.2
62573.1
59405.7
56361.3
53437.1
50629.8
47936.2
45353.2
42878.1
40509.8
38249.4
36102.2
34088.9
32265.1
30811.8
30034.8
30009.4
30398.6
30343.3
30307.5
30296.6
30288.1
30282.6
30270.2
30264.1
30271.7
30277.2
30276.6
30276
30279.8
30291.4
30312.6
30334.5
30364
30345.5
30136.6
30253.1
30333.5
30363.2
30358.8
30328.8
30276.1
30247.6
30236.4
30223.3
30166.8
29772.1
27489.4
19748.8
11571
10032.6
10000.1
10000
10000
10000
10000
10000
10000
10000
10000
10000
10000
10000
10000
10000
)
;

boundaryField
{
    sides
    {
        type            zeroGradient;
    }
    empty
    {
        type            empty;
    }
}


// ************************************************************************* //
