/*--------------------------------*- C++ -*----------------------------------*\
| =========                 |                                                 |
| \\      /  F ield         | OpenFOAM: The Open Source CFD Toolbox           |
|  \\    /   O peration     | Version:  v2012                                 |
|   \\  /    A nd           | Website:  www.openfoam.com                      |
|    \\/     M anipulation  |                                                 |
\*---------------------------------------------------------------------------*/
FoamFile
{
    version     2.0;
    format      ascii;
    class       volScalarField;
    location    "0.006";
    object      rho;
}
// * * * * * * * * * * * * * * * * * * * * * * * * * * * * * * * * * * * * * //

dimensions      [1 -3 0 0 0 0 0];


internalField   nonuniform List<scalar> 
100
(
0.999645
0.999645
0.999645
0.999645
0.999645
0.999645
0.999645
0.999645
0.999645
0.999645
0.999645
0.999645
0.999645
0.999645
0.999645
0.999645
0.999645
0.999645
0.999645
0.999645
0.999645
0.999645
0.999645
0.99964
0.999384
0.996577
0.986004
0.966127
0.940428
0.912251
0.883274
0.854217
0.825408
0.797021
0.769156
0.741869
0.715195
0.68915
0.663739
0.63896
0.614804
0.591263
0.568331
0.546004
0.524293
0.50323
0.482888
0.4635
0.445638
0.43115
0.42357
0.423134
0.426942
0.426379
0.425997
0.425969
0.426039
0.426234
0.426305
0.426232
0.426117
0.425469
0.423598
0.419357
0.410784
0.395333
0.371341
0.340438
0.308726
0.283419
0.268042
0.264086
0.26382
0.26398
0.26405
0.264098
0.264075
0.26419
0.264389
0.264532
0.264385
0.262069
0.247628
0.196122
0.137249
0.125226
0.124956
0.124955
0.124955
0.124955
0.124955
0.124955
0.124955
0.124955
0.124955
0.124955
0.124955
0.124955
0.124955
0.124955
)
;

boundaryField
{
    sides
    {
        type            calculated;
        value           nonuniform List<scalar> 2(0.124955 0.999645);
    }
    empty
    {
        type            empty;
    }
}


// ************************************************************************* //
