/*--------------------------------*- C++ -*----------------------------------*\
| =========                 |                                                 |
| \\      /  F ield         | OpenFOAM: The Open Source CFD Toolbox           |
|  \\    /   O peration     | Version:  v2012                                 |
|   \\  /    A nd           | Website:  www.openfoam.com                      |
|    \\/     M anipulation  |                                                 |
\*---------------------------------------------------------------------------*/
FoamFile
{
    version     2.0;
    format      ascii;
    class       volScalarField;
    location    "0.006";
    object      T;
}
// * * * * * * * * * * * * * * * * * * * * * * * * * * * * * * * * * * * * * //

dimensions      [0 0 0 1 0 0 0];


internalField   nonuniform List<scalar> 
100
(
348.432
348.432
348.432
348.432
348.432
348.432
348.432
348.432
348.432
348.432
348.432
348.432
348.432
348.432
348.432
348.432
348.432
348.432
348.432
348.432
348.432
348.432
348.432
348.431
348.396
348.005
346.527
343.719
340.033
335.918
331.606
327.195
322.733
318.243
313.742
309.238
304.738
300.247
295.765
291.295
286.836
282.388
277.952
273.529
269.123
264.742
260.406
256.169
252.183
248.916
246.98
247.026
247.998
247.874
247.804
247.731
247.62
247.463
247.32
247.312
247.441
247.863
248.953
251.465
256.746
266.883
284.324
310.358
342.57
372.932
391.611
399.015
400.478
400.626
400.463
399.996
399.334
398.785
398.338
397.949
397.426
395.694
386.661
350.736
293.648
279.049
278.746
278.746
278.746
278.746
278.746
278.746
278.746
278.746
278.746
278.746
278.746
278.746
278.746
278.746
)
;

boundaryField
{
    sides
    {
        type            zeroGradient;
    }
    empty
    {
        type            empty;
    }
}


// ************************************************************************* //
