/*--------------------------------*- C++ -*----------------------------------*\
| =========                 |                                                 |
| \\      /  F ield         | OpenFOAM: The Open Source CFD Toolbox           |
|  \\    /   O peration     | Version:  v2012                                 |
|   \\  /    A nd           | Website:  www.openfoam.com                      |
|    \\/     M anipulation  |                                                 |
\*---------------------------------------------------------------------------*/
FoamFile
{
    version     2.0;
    format      ascii;
    class       volVectorField;
    location    "0.006";
    object      U;
}
// * * * * * * * * * * * * * * * * * * * * * * * * * * * * * * * * * * * * * //

dimensions      [0 1 -1 0 0 0 0];


internalField   nonuniform List<vector> 
100
(
(8.40482e-13 0 0)
(2.88621e-13 0 0)
(-3.05983e-14 0 0)
(9.83188e-14 0 0)
(6.12097e-14 0 0)
(1.77304e-13 0 0)
(-1.08326e-13 0 0)
(-2.41825e-13 0 0)
(-5.28684e-14 0 0)
(6.81628e-14 0 0)
(-4.04177e-13 0 0)
(-1.26343e-12 0 0)
(-1.14029e-13 0 0)
(9.41293e-13 0 0)
(4.28564e-13 0 0)
(-4.92231e-13 0 0)
(-1.25332e-12 0 0)
(1.01011e-14 0 0)
(9.79968e-13 0 0)
(3.37065e-13 0 0)
(3.01838e-14 0 0)
(2.93328e-09 0 0)
(7.22163e-06 0 0)
(0.00207014 0 0)
(0.097977 0 0)
(1.14881 0 0)
(5.12682 0 0)
(12.6985 0 0)
(22.6806 0 0)
(33.8853 0 0)
(45.704 0 0)
(57.8728 0 0)
(70.2695 0 0)
(82.8284 0 0)
(95.5098 0 0)
(108.289 0 0)
(121.15 0 0)
(134.083 0 0)
(147.084 0 0)
(160.15 0 0)
(173.284 0 0)
(186.487 0 0)
(199.759 0 0)
(213.099 0 0)
(226.497 0 0)
(239.928 0 0)
(253.328 0 0)
(266.545 0 0)
(279.081 0 0)
(289.61 0 0)
(295.261 0 0)
(295.528 0 0)
(292.657 0 0)
(293.074 0 0)
(293.363 0 0)
(293.426 0 0)
(293.473 0 0)
(293.531 0 0)
(293.609 0 0)
(293.644 0 0)
(293.574 0 0)
(293.523 0 0)
(293.52 0 0)
(293.524 0 0)
(293.527 0 0)
(293.56 0 0)
(293.657 0 0)
(293.78 0 0)
(294.03 0 0)
(293.917 0 0)
(292.045 0 0)
(292.965 0 0)
(293.764 0 0)
(293.99 0 0)
(293.936 0 0)
(293.63 0 0)
(293.125 0 0)
(292.818 0 0)
(292.707 0 0)
(292.563 0 0)
(292.002 0 0)
(288.264 0 0)
(266.138 0 0)
(176.087 0 0)
(35.809 0 0)
(0.777743 0 0)
(0.00124991 0 0)
(1.0762e-07 0 0)
(-1.2002e-13 0 0)
(-3.43605e-12 0 0)
(-3.00026e-12 0 0)
(-2.7186e-12 0 0)
(-3.11687e-12 0 0)
(-5.12916e-13 0 0)
(1.43655e-12 0 0)
(1.55032e-12 0 0)
(6.45325e-14 0 0)
(-1.86553e-12 0 0)
(4.04506e-13 0 0)
(2.1938e-12 0 0)
)
;

boundaryField
{
    sides
    {
        type            zeroGradient;
    }
    empty
    {
        type            empty;
    }
}


// ************************************************************************* //
