/*--------------------------------*- C++ -*----------------------------------*\
| =========                 |                                                 |
| \\      /  F ield         | OpenFOAM: The Open Source CFD Toolbox           |
|  \\    /   O peration     | Version:  v2012                                 |
|   \\  /    A nd           | Website:  www.openfoam.com                      |
|    \\/     M anipulation  |                                                 |
\*---------------------------------------------------------------------------*/
FoamFile
{
    version     2.0;
    format      ascii;
    class       volScalarField;
    location    "0.018";
    object      p;
}
// * * * * * * * * * * * * * * * * * * * * * * * * * * * * * * * * * * * * * //

dimensions      [1 -1 -2 0 0 0 0];


internalField   nonuniform List<scalar> 
1000
(
101126.1880323098
100673.4988364893
99179.39597693195
97112.25100802344
94845.53490864922
93668.84621732266
94675.43564249369
98098.21770933483
103756.9651124947
108628.2654891838
110957.4451279783
110187.1419589395
106833.895059121
102687.3743300955
98463.6039763407
96115.84358333638
95353.16772109702
95959.10727679596
97833.74175868114
99682.49566230299
102136.366700684
102823.7765281602
101889.9644886711
100837.4210428039
99941.65007741476
100168.4481703759
101944.9387599614
104011.7683493143
106881.7222497695
107755.8929250341
105786.4648519571
101236.178195271
97947.31984454846
95113.96272526126
94163.00845163332
95159.00358351973
98295.09347199441
102362.5820072553
107075.3594241568
109446.4790578033
108673.1194672299
105488.5988473242
102308.2708587924
98861.10296823116
97348.3295037066
97239.71803754644
98699.12459458529
100514.0460852807
103276.1661900691
104267.6826069007
102929.7321761335
99870.22988462172
97559.17843028704
95924.14640100766
96126.59700183205
98120.05832353029
101585.8696449364
105818.6929975817
108970.2517174614
109129.8099023109
106379.8602851479
102310.1410588513
98702.54809869528
96344.83360747753
95793.9447438073
96622.52603120822
98497.76907145442
99733.03057306122
101994.1356866229
103040.5276809737
102585.9423315118
101794.5350127663
101304.4212933041
101451.5737215917
103106.7325288092
104909.7653740635
106064.6517140768
105292.8802716722
102063.4249267938
97343.17726242932
94076.16129946875
92850.13657479775
94304.33633335438
97926.2958222934
102836.3348564615
107067.1961072427
109191.918232813
109155.4935187348
107091.5764581867
104290.3095033686
101340.1520711256
99448.47875248143
99082.84364320045
99566.05665210375
100661.2149634715
101060.9377805997
99962.41651269321
98105.27543511157
95982.87731250153
94791.14608023925
95601.84560615398
98392.81457676941
103361.2768439637
109039.2824949688
112549.5781848081
112324.4161769022
109341.3924927996
104544.5790008075
99415.69299884952
95793.13695675814
94280.32424152485
94351.49594391754
96092.19337287868
98961.13227833515
105053.7053900998
109272.109618612
109643.1681762158
107431.355329975
105815.2089399269
104252.9252111791
103777.8407870532
103556.4764249154
102926.4173989669
101023.0560115066
97318.63036954662
93853.34395999812
91379.53848608497
91658.08919560532
96201.29717541463
101478.1278649894
105729.6828614004
107486.7666910504
107565.6455788187
105807.6181699209
103081.0003137971
99574.2336900587
96537.60770841186
94970.16453620694
96331.17600850154
100867.4690675739
104425.7976452899
106490.2661657641
105451.4259023157
101907.1662926384
97584.05223591402
94068.59765776436
93013.13416164614
94985.65939477141
100014.4032451085
105433.1976253558
109331.7230612986
111295.2384831156
110986.4038953072
108151.0945243534
104208.9850454024
100146.0182126886
97580.87034873969
95889.23749473179
95558.00834373213
95747.30928280579
96452.99005054544
96974.19102142399
98083.74403994504
98507.23155460153
98007.12613697487
97572.55851201316
97773.47789897209
99124.53575424993
102202.3506895663
105048.4310082952
106884.6730727403
105770.9181266199
101330.6908094628
97014.46219724092
93823.47003399555
93126.49004560328
94970.02455016876
99111.49184349917
104611.6273768955
108721.5898082237
110344.9544098359
109452.6663647171
107148.182629308
105002.9690009762
103444.2208354633
101730.4416169405
100356.9842448377
98682.09290502523
96281.1910723803
94837.5389580472
93453.76023225737
92527.55509491924
92815.31517085723
95116.37981071322
99334.22941734984
106092.4799239055
110984.6480422345
114079.7470412035
113521.8884553947
109873.665826931
104514.2963399531
98867.45530085171
94554.50104887701
92543.79350306114
93077.92703523653
95959.55512740996
100055.9106449848
106028.3584330817
108607.8135597808
107325.3203557191
104541.7812033592
101686.2592399976
99573.2558014122
98880.23104056851
99149.9537163054
100030.225087133
99950.26119306222
100049.0250322884
98224.16281498801
95441.48807175581
94242.19113549298
93186.32927717069
93756.97173409701
96688.96699777756
101314.065592722
107806.6909354137
111483.1482078024
112396.3206535911
111629.3230710948
109284.7885661853
106974.5368657738
103412.1817023928
98931.34824502593
94137.78641189077
90670.69532062807
89025.11209979132
90579.4790848516
93781.36487809652
97901.45850395248
101404.5351919268
103354.4103242344
103887.2834596268
104385.6595114754
105099.1175478435
105559.1644588833
106350.569236952
105106.8548403973
100948.9124405278
97606.9910837964
95629.58533928524
95205.65711683236
96943.87290579021
99953.35200710157
103277.5225746134
105217.3480572477
104555.6129015012
102250.3122499326
99922.54957217281
97955.48032363174
97572.92452438689
98940.10170906677
101171.8499127532
104597.7979411952
106380.8310362738
104912.9035190723
100839.9187705018
98413.19122530232
95787.84292697607
94878.31768008952
95339.43728700827
97487.41054625261
101319.8566333018
105922.364925898
110289.2698513002
111945.8143540664
110508.6223831147
106706.482728464
101890.9217194219
97737.73272124089
95135.00794436315
94131.24818942323
94358.55677061659
95757.97870364331
97123.08429679563
98199.01671777398
98078.69291845793
97760.12710112202
97922.69930686195
99626.56961286493
102743.0251741826
107070.0657169605
110385.2717203772
110743.2711911297
107483.5809193912
101984.8257143678
97767.64248438204
94858.42701588443
94315.71497264475
95633.32735331396
98754.36332783499
101684.8954265188
105262.5468506904
106434.1908110923
105043.3058140282
101962.6022454441
99492.91979852364
98016.54570128526
98825.74014172537
100407.0579931391
102572.1578989146
103311.7538620578
101831.1973847328
99111.35251687422
96539.72809436588
94692.50696976244
94520.93374294166
96573.58004108563
100672.8721446225
106282.5255046361
110705.5857711163
112616.4613939825
111673.4540178201
107608.8720444252
102219.1157310855
97724.45924631193
95313.8835085287
94774.75469573363
95901.15943723846
97277.7419815983
99544.28119267833
100583.3281635289
99685.90673758915
98225.36705407668
96546.13618418676
95768.65482976827
96633.07800301327
99519.17198150601
103557.0906170823
108391.4601017286
111132.3819040294
110824.6425055062
107015.8005554674
101753.0751030813
97496.57364407973
94978.82270160406
94458.88913549623
95374.30313175531
97427.05396744814
99377.43297959256
101864.0566348776
103090.2594929327
102585.2373235672
102151.9879821247
102499.5435827905
103146.0922298375
104065.6496400364
103635.7529382379
100968.4172824136
98209.09170425734
95162.14298255484
93491.69756314052
93517.87143660439
95978.52088174639
100533.8133590651
106899.003977494
111230.441731642
113950.9934096972
113748.2255457184
110768.0346123877
106229.6807382781
101070.4154601582
96857.49762754174
94209.01382253019
93462.4331691097
94057.76201872676
94178.04393966956
96500.99410217621
99875.13650500009
101396.9637342582
102387.7122187759
101798.3580545671
101033.7709060352
100024.7615714398
99665.7679276819
100486.0059634271
100539.1620706449
102332.6807370254
102912.9014092952
101286.1429622531
99022.12441473399
98286.50726332792
97727.25888267436
98257.72490370495
99402.16853032151
101090.1677031333
101808.418259238
102848.06264113
102202.4327175814
100349.3730524813
99358.52533475375
98754.7579938462
99669.34023926298
101383.6603403732
102843.8678635004
102369.4850869638
100378.1147740082
99499.15098540697
97514.36683030301
96270.58034184038
95784.93823476236
96899.47155365603
99980.2437993192
104414.4732322678
109880.2132365203
112362.1766667612
111271.0987227814
106715.3069888469
101958.0935901893
97749.11634069867
95657.59627170254
95179.4490766847
95960.76669242939
96059.25714503571
97468.50976149186
98896.69060507514
99318.61304502418
99885.77373657265
98981.60163067831
98269.08850795672
98507.76395061136
100749.1255697157
103718.7022030726
109112.8649391302
111150.5641106835
109058.7301433244
104573.7040422969
102216.6389837182
100322.9260800897
99608.6471724291
98900.81459133794
97894.88507772038
96735.79308252917
95296.13661808149
95388.76491315821
98769.52640491998
104331.9705851498
107792.9807513012
109704.7862646974
108921.5903994652
105644.7735981711
101473.0596920531
97678.35662555041
94510.38768727836
92662.88344209436
92086.62480985222
92781.7706587406
95429.35570046319
99943.13650286302
107378.4259762785
112621.8894864865
113701.7001466578
111529.2103376465
106964.3338083709
101706.8354165101
98652.8147573225
96647.30479931219
95220.50250894345
93444.32781277531
91792.65205110799
90739.37564452387
91942.50223128428
97030.78215758674
101947.5169807059
104802.1606094164
105723.1059602054
104959.7802098453
103872.6283768876
102532.3921332171
101042.9425291038
97297.93422224425
94823.29696378908
93446.40788863046
94882.10255067021
97556.49514322866
101314.3842746475
102751.5290260738
103410.3603851727
103258.9759033312
102795.6740444503
102211.3507626502
101256.6874353249
99214.15031389828
95968.22943326783
93341.56014162985
92768.22353512392
95120.92132490101
97744.03991776524
100864.0691439404
101894.9568744422
102606.0735973931
102612.8404000952
102050.6062813017
100986.2065636532
99574.95429795739
98748.19568938372
99646.63476023589
100785.3902041777
103494.19920195
103342.1662171145
100491.8559692725
99065.44228048246
98561.58591745775
99557.27408713223
101322.2654428784
102800.5519225464
103670.8034058636
103993.9950265455
103680.432544987
102953.8022615328
100351.9530493751
96957.60008290398
92404.29841997942
91272.22897935312
94033.90260634539
97364.46772919717
99969.13758101733
100808.6661506512
101055.6123096298
100758.9458750453
100815.4182337828
101969.3102444209
102079.5227902119
103480.2059631526
101544.6459017912
96552.23004689702
93546.58470452164
91771.87624756739
91608.83632497203
93498.4648975278
97634.46941219142
102687.0128953043
108480.0554756799
112486.2624423671
112950.9316876362
109945.7389041789
104621.2869320304
97124.06996322831
92199.99570053699
89416.17230394381
89641.86683875624
92544.36157064476
97641.96325027494
103840.0913140776
108956.0081309297
111548.7961580933
111213.8771042559
106728.4053159555
99811.20955247647
94235.46981034904
90940.22358766088
89646.0055431729
90885.61209187194
94793.00239789857
100043.46123224
106326.175745226
110021.1710380203
110147.6090074118
105937.6424549441
99725.20313943669
95400.02489922984
92458.27687213216
91776.2618696328
92881.25097269219
96220.07526389215
100180.1801009836
106428.154837417
109167.0377551278
107163.2727184086
101848.8864833726
98178.57678294489
95189.5086709053
94248.23755543357
94438.86026014082
96049.14057142733
99058.19852575508
103596.7864476866
106937.2430546153
106191.4794838786
102173.3940308031
100203.557635904
97410.08358102599
96290.9616459323
95978.86019049631
96448.43913097536
97883.68851881936
99550.13136240476
102528.482612646
103561.2236438683
102037.9632707308
101889.1542676922
101165.2221564958
101203.1622471237
100918.8825342675
100017.8804570497
99146.58034997736
96231.4745799611
94523.69651682391
94454.1606883093
97578.60568708272
100749.8330110152
104117.3304899736
105719.5090208748
106255.0488148947
104706.6303236595
101785.9383205386
98088.0881578535
94751.2150848732
92796.33776562181
92644.49329660869
92895.30108937185
95828.4675359594
100082.2379825586
101791.2728550037
103247.4783199818
102982.1702716222
103225.1875316488
103147.2459125372
102471.1302015726
99553.42395679245
95096.1072274802
90616.97478770374
88229.24620128691
89728.86502137774
94742.67243354623
100304.7943453821
104764.4381008513
107056.2295538431
107139.7328041712
104446.3357159572
100026.0410260744
94621.67484414909
91087.34124212115
89516.05458778566
90915.0552681346
94450.99323305147
99001.78081494238
102795.0503996656
104429.00691029
102900.3687977093
99352.65261728229
94987.45405599316
93540.54730392477
94806.94772725408
98004.75201103545
100974.6974054688
103328.0948004766
103211.6999502997
101262.6197455546
97813.56911875115
95093.49458275831
94001.21406637384
95509.41333396429
98371.60057469655
100766.0841264902
100592.0491813618
98471.15106197319
95668.78570007079
93419.69169164728
93106.90887932059
95125.37941380209
98727.55421067207
102214.325797824
104359.1534861946
104073.1605206344
100363.6636983887
94821.21708612448
90686.77165162342
89959.0594947995
92732.04656832482
97593.89631849564
102922.3540590317
105976.9067687824
106879.1137748252
105831.1731898799
102432.6523905892
97191.9250699767
91553.76290467114
88183.55030276129
88784.38114050189
92947.18638240329
98695.33905497442
104205.6208928845
107605.7339028757
108235.2338638399
106156.8491759635
101982.6711007195
95956.79672086956
90733.00743366794
87729.0101725756
87612.04488022752
90910.71326749156
96360.69720723057
103012.78523882
108102.4258638763
109253.1194673306
105999.3711748596
100701.4411340829
95375.72360240163
92823.71868223202
91616.75241460835
91772.9258152597
92694.57537121208
94718.63614359363
97446.90266244407
101524.4359040265
103747.4210928691
101305.7728766445
96059.42281329268
93797.06893273891
92028.40502113942
91953.67881609795
92806.19659614481
94686.30176893
98418.21571660548
101621.2849720898
105069.3942363074
105362.6349118686
100856.562584643
94175.91251627258
90642.22924640299
89228.64584943828
90772.42174550195
94309.69701040891
99202.23587226623
103660.1408337941
106792.400798029
107211.0347564272
104448.9385547742
99645.69587210688
93593.1681782439
89515.18963417898
89599.42785900969
92392.22923936989
97063.34597148727
101586.3145960357
104850.0824287746
105360.5950584911
103940.4895964638
100127.0658010427
95759.7266503377
91360.43302859066
90691.80607476132
93094.56091914579
97066.19581821161
100829.5199281481
103272.3051847715
103840.2662186074
102734.26696201
100200.852373387
96957.08835511489
93748.05797980065
91940.74289340497
92562.45761978252
94223.87494146446
96047.54122782928
96393.9911937985
95951.71742215561
95414.78412770745
95920.83238910865
98006.18261909911
100150.6727741157
102649.6011545709
102879.7650883086
99873.40150863283
94957.89573478913
91965.15616198015
90118.01081885424
90024.98040370754
91718.43623641085
95528.075876082
100684.6534610973
105212.7755442428
107737.7786756279
107956.8830837827
104473.7379947417
98948.92069057441
93649.4466983333
90722.4961171098
89623.6646996382
91424.27213384792
95627.33249939221
100228.2144262487
104324.9614125913
105275.5877930287
102035.6141412152
97200.88422097084
94039.93792081617
92209.67937670703
92327.17083114937
93458.89700499266
95857.91356626077
98328.89670698476
101095.0976758722
101931.4440156158
99200.74233839019
94558.52386819273
92716.66880102009
91245.71638340002
91516.37082361789
93153.84699963259
96388.18718973504
100814.5708321043
104385.6933601481
106393.367576163
105720.6225968619
101390.3638538764
94820.84403698427
90890.78567032634
89905.8281443064
91396.10925991763
94528.49346071077
98484.24908965701
102176.2768923628
104854.2480367916
104892.738115611
103143.5597559987
100126.0933091111
95745.63364818557
92576.5628970081
92726.21042842526
94558.18661653645
96986.85067838119
99389.99621779879
101555.5004071328
102032.9037176691
101567.9426161995
100015.3860946607
98509.21886638431
96985.82506119995
96585.14977742096
97427.82361124309
98260.99628396374
99270.98812370612
99631.66572472113
99046.92806043579
97602.34994598813
96072.27718403911
95065.55489100028
95632.00030029859
97321.90738096631
99395.78199985575
100837.0131777221
101188.4908837913
99718.29899697028
97271.35340490636
94685.87608978902
93177.90966816788
93129.84467984072
94802.29036732337
97511.03429602792
100463.4336931701
101266.7459034235
99701.05118098353
97693.41940317524
95597.45137612677
94800.45206283167
95125.26901109864
96365.26550833661
97781.73290507359
98932.89053967809
98911.03299926041
97360.64985457167
95589.87774682106
94804.99095515712
95450.4765171506
97645.44786768249
99886.58157554521
101169.4708580163
100944.9643662601
98827.40162455745
96394.66215901749
94074.18948927632
93393.23948902878
94251.5420382648
95146.31860901535
97638.76692977858
99009.95555396294
98637.23493758103
98434.63896238414
97408.62523871896
96346.64639623526
95641.59182025195
94473.15157174863
93865.90157443059
93935.76368127452
94914.86125791501
96202.64304930108
98197.40704584673
98923.40313980762
99337.18811133498
99290.96648296477
98316.76237107784
96270.15324079654
93884.91092108027
92284.09574114988
92426.46523649356
93725.62702089046
95010.04998056474
96053.29268226349
97258.62126287186
98413.65910294127
99479.85517329509
99634.08816128483
100674.6262354128
99520.42980257585
96024.94754588844
93236.06926519774
92149.59136708277
91380.16376703791
91525.08782107249
92582.15876147313
94830.26334266226
98656.15822825782
101708.3426725116
104206.4633208091
105063.8985929982
102669.1743953622
97812.81746581523
94076.12298393263
92530.3600566628
92106.14482840484
92910.96054471419
95088.58922839069
98570.92318413449
100640.7823618538
102756.1450804075
103102.9698143594
100835.6857220866
97170.11682632998
95398.09560721737
94020.63474417363
93799.38930560811
94445.00169480008
95699.48123909473
96503.53787503639
98002.64243425109
98882.74536491331
98707.31009162942
97650.13876324079
96464.71123867318
94858.34134993181
93949.14619028296
93860.82490650879
94871.49974081658
96459.6513135782
98363.65826701772
99190.50905333295
97918.68401396241
94763.99752660509
91964.30150793672
90356.26178483578
90259.34903209006
91704.23964700746
94354.38713897202
97784.29586437638
101065.1443254302
102657.9197039674
102444.0136402921
100295.3971361948
96686.14181954305
92028.02353195635
90024.47453114273
90903.87261018422
93197.77366295697
96018.88975445461
98820.56568327345
101681.9288158044
102369.8478228104
101832.8276854819
99600.74990355883
96650.02617794354
92644.91499793895
91260.97618624933
92039.65096321728
94363.79753776638
97449.07250097285
100428.5738992761
101935.1852819748
101599.7261270855
99304.43739403671
95869.31514530527
92378.2987244143
90850.50640033017
91479.21641333586
93661.26054381521
96175.98508944812
97802.97798603705
98384.25739039773
96717.08373250623
92512.44853353573
)
;

boundaryField
{
    inlet
    {
        type            uniformFixedValue;
        uniformValue    sine;
        uniformValueCoeffs
        {
            frequency       constant 3000;
            scale           constant 50;
            level           constant 101325;
        }
        value           uniform 101325;
    }
    outlet
    {
        type            waveTransmissive;
        gamma           1.4;
        fieldInf        101325;
        lInf            2.25;
        value           uniform 92294.6795958007;
    }
    frontAndBack
    {
        type            empty;
    }
}


// ************************************************************************* //
