/*--------------------------------*- C++ -*----------------------------------*\
| =========                 |                                                 |
| \\      /  F ield         | OpenFOAM: The Open Source CFD Toolbox           |
|  \\    /   O peration     | Version:  v2012                                 |
|   \\  /    A nd           | Website:  www.openfoam.com                      |
|    \\/     M anipulation  |                                                 |
\*---------------------------------------------------------------------------*/
FoamFile
{
    version     2.0;
    format      ascii;
    class       volVectorField;
    location    "0.018";
    object      U;
}
// * * * * * * * * * * * * * * * * * * * * * * * * * * * * * * * * * * * * * //

dimensions      [0 1 -1 0 0 0 0];


internalField   nonuniform List<vector> 
1000
(
(-0.6638373536101472 0 0)
(-1.100655249823465 0 0)
(0.0626029380043774 0 0)
(1.069652447528883 0 0)
(2.520185058602843 0 0)
(3.875875863858665 0 0)
(5.096190133749743 0 0)
(2.636597349833189 0 0)
(-1.853310888962869 0 0)
(-4.581816433647442 0 0)
(-3.610073766939168 0 0)
(-4.63651060334074 0 0)
(-4.640849864794051 0 0)
(-4.83941147833796 0 0)
(-3.45629854170407 0 0)
(-0.9072422037910274 0 0)
(3.02274442836559 0 0)
(6.936077448389073 0 0)
(9.117929479389213 0 0)
(8.098517482885049 0 0)
(3.936975101746814 0 0)
(0.6592113521853968 0 0)
(-1.21048999281314 0 0)
(0.1045445366482125 0 0)
(3.715799432298984 0 0)
(8.167563361749696 0 0)
(9.847857055307113 0 0)
(9.192216716998459 0 0)
(6.302415816207139 0 0)
(1.167533100686638 0 0)
(-3.170802086736075 0 0)
(-8.924608715770663 0 0)
(-10.67572391329133 0 0)
(-7.941345321798326 0 0)
(-2.544106301394192 0 0)
(2.744416784547146 0 0)
(4.551190405542469 0 0)
(3.28389482197914 0 0)
(0.5363112749531657 0 0)
(-0.433230065375272 0 0)
(-3.154332765237125 0 0)
(-3.974179870014897 0 0)
(-3.948754673740306 0 0)
(-1.476947605711268 0 0)
(2.340609206064614 0 0)
(7.774787883694824 0 0)
(10.81459370595552 0 0)
(10.87904564588748 0 0)
(6.963414158979175 0 0)
(1.336066831418535 0 0)
(-3.776970679488795 0 0)
(-7.239406040448466 0 0)
(-6.859770874884793 0 0)
(-3.451478087284492 0 0)
(2.578282150508174 0 0)
(5.997362559102819 0 0)
(6.708433838580512 0 0)
(3.941145372755825 0 0)
(1.183052405101875 0 0)
(-4.798689574023647 0 0)
(-7.345025275475922 0 0)
(-9.884663007837917 0 0)
(-8.788548360537879 0 0)
(-4.564712499176321 0 0)
(2.178524282990718 0 0)
(8.17839141186213 0 0)
(12.67714326882182 0 0)
(13.00920484036334 0 0)
(8.440418184043299 0 0)
(3.335623716622689 0 0)
(-1.250769306189085 0 0)
(-2.927387480827405 0 0)
(-2.049928554875996 0 0)
(0.4893015042124076 0 0)
(2.522354157803072 0 0)
(3.406523918740564 0 0)
(3.440894865702718 0 0)
(2.955810200680283 0 0)
(0.8541309422497448 0 0)
(-2.268233367094074 0 0)
(-3.188774726804236 0 0)
(-2.213297460886924 0 0)
(-1.763664188711971 0 0)
(-3.795677997824339 0 0)
(-5.83080372321705 0 0)
(-5.253519318580999 0 0)
(-1.13808695966519 0 0)
(0.3786503972083442 0 0)
(4.309748321170841 0 0)
(7.2722918323714 0 0)
(8.361174240251618 0 0)
(7.846121870389053 0 0)
(8.134533197409384 0 0)
(6.548186223318542 0 0)
(2.282936800547534 0 0)
(-2.067601129161746 0 0)
(-5.102507447459434 0 0)
(-6.062816151394547 0 0)
(-3.89456563129366 0 0)
(0.06259984475573439 0 0)
(4.366201070411363 0 0)
(4.191759814842142 0 0)
(0.03951609832949566 0 0)
(-5.25866278774605 0 0)
(-5.388152370074012 0 0)
(-8.949480515626487 0 0)
(-8.690612487281255 0 0)
(-9.642257321808442 0 0)
(-8.005299464436026 0 0)
(-3.423717575935277 0 0)
(2.781021889506273 0 0)
(10.40262842596556 0 0)
(14.10430156109848 0 0)
(13.17203202370652 0 0)
(3.725125227957198 0 0)
(-5.645984569046906 0 0)
(-12.43973821171994 0 0)
(-15.58096405947616 0 0)
(-15.55325191992351 0 0)
(-12.22902492565306 0 0)
(-6.500537781750637 0 0)
(0.3847282168746822 0 0)
(7.575282017200315 0 0)
(13.16745487342479 0 0)
(14.94565044784181 0 0)
(12.99640552014954 0 0)
(7.274638250205111 0 0)
(4.584767990649595 0 0)
(-5.768272620880712 0 0)
(-12.79769160979605 0 0)
(-12.84422956256126 0 0)
(-6.633332936798675 0 0)
(0.3245641455970644 0 0)
(10.02480653867796 0 0)
(17.5727575013529 0 0)
(20.47073242425665 0 0)
(17.91274677310791 0 0)
(11.5948417495036 0 0)
(4.43160958512709 0 0)
(-5.916367161931653 0 0)
(-9.782854062105491 0 0)
(-7.200164991463942 0 0)
(-5.342573698956278 0 0)
(-1.692949022280472 0 0)
(1.510766893428229 0 0)
(2.880517537626187 0 0)
(3.953437929780254 0 0)
(2.768383537261875 0 0)
(-3.126257629335661 0 0)
(-9.063814362969241 0 0)
(-9.322292825807967 0 0)
(-4.597264179012672 0 0)
(-1.93032572229539 0 0)
(0.7282115797906366 0 0)
(-1.641724850008716 0 0)
(-4.710207625623775 0 0)
(-5.279683900102007 0 0)
(-2.007543010052509 0 0)
(5.16341156838716 0 0)
(12.72256260829764 0 0)
(18.73962210484288 0 0)
(20.65088299724436 0 0)
(16.38843543640342 0 0)
(9.22443564858127 0 0)
(2.340920277293636 0 0)
(-0.4693495762034236 0 0)
(0.7124729200660475 0 0)
(3.376519131769051 0 0)
(5.509559776984491 0 0)
(5.087531688987043 0 0)
(3.559608705957296 0 0)
(0.8813441728014648 0 0)
(-3.221599428734636 0 0)
(-5.823469835336422 0 0)
(-4.757707356944792 0 0)
(-0.8476057013897413 0 0)
(0.8828158760516895 0 0)
(0.2968579769391229 0 0)
(-2.253054220378664 0 0)
(-3.313186500607781 0 0)
(-1.398125666326763 0 0)
(-0.1609969390010763 0 0)
(1.955796715543917 0 0)
(3.573756286128183 0 0)
(4.710750396874782 0 0)
(4.941149380744521 0 0)
(3.208408458199796 0 0)
(-0.8312687429762065 0 0)
(-6.629204603615418 0 0)
(-8.401683176183591 0 0)
(-5.926496939936247 0 0)
(-0.7096083149043109 0 0)
(5.946660436279054 0 0)
(7.991258079183615 0 0)
(5.072810841834198 0 0)
(-1.893571791438452 0 0)
(-5.927950055506636 0 0)
(-2.775281599683138 0 0)
(-2.241592965754062 0 0)
(0.9157984393415936 0 0)
(0.2026102648189418 0 0)
(-1.459590590412644 0 0)
(-1.211401436366148 0 0)
(2.47486194461562 0 0)
(8.97136919430805 0 0)
(11.3380424370071 0 0)
(8.28683758319103 0 0)
(0.2307247538067337 0 0)
(-5.001026254580567 0 0)
(-10.1392986644306 0 0)
(-11.45906452737712 0 0)
(-10.07812416833576 0 0)
(-5.240938457674186 0 0)
(2.196193610493332 0 0)
(10.11872235216109 0 0)
(16.28815937285183 0 0)
(18.84650385088426 0 0)
(13.99473564133213 0 0)
(4.67728764790384 0 0)
(-4.855795167565243 0 0)
(-6.953295908312176 0 0)
(-3.864426811280462 0 0)
(1.094005122312426 0 0)
(3.867931535246131 0 0)
(2.805171386240113 0 0)
(-2.36194433800889 0 0)
(-5.070407106478351 0 0)
(-4.907968017656004 0 0)
(-3.597389635643116 0 0)
(0.7450584615028381 0 0)
(3.483340652685383 0 0)
(4.025810221713156 0 0)
(2.257219891061611 0 0)
(-0.525396969525269 0 0)
(-1.889381552959513 0 0)
(-1.400708763867713 0 0)
(-0.750070597627534 0 0)
(-2.0191335850625 0 0)
(-3.996165318294704 0 0)
(-4.461957052990913 0 0)
(-0.8270637576999192 0 0)
(4.727025478926765 0 0)
(10.95694460956185 0 0)
(16.38224701273965 0 0)
(18.31390835153746 0 0)
(14.7826528573616 0 0)
(7.990384541860587 0 0)
(-1.894661390578235 0 0)
(-6.25836186549362 0 0)
(-4.866948925483751 0 0)
(0.7089298504746487 0 0)
(4.803749067239306 0 0)
(6.465242820111025 0 0)
(3.838659456026243 0 0)
(-0.2092919932074946 0 0)
(-5.412976205231216 0 0)
(-7.210434075165042 0 0)
(-5.888226038335234 0 0)
(-1.154698988825857 0 0)
(5.77851978197712 0 0)
(10.76004292715558 0 0)
(11.58622600558109 0 0)
(6.783590158836601 0 0)
(-1.105670162939672 0 0)
(-9.699704342415775 0 0)
(-16.37759343905083 0 0)
(-16.49416675064798 0 0)
(-11.07050814378116 0 0)
(-3.223005955041548 0 0)
(5.537028977654621 0 0)
(10.80729666287938 0 0)
(12.37779421598174 0 0)
(9.602743611608615 0 0)
(5.99222903653264 0 0)
(4.856514424528632 0 0)
(3.834511415147215 0 0)
(3.602481330113773 0 0)
(2.003346445603247 0 0)
(0.2833340965082679 0 0)
(-1.335326931335072 0 0)
(-3.045181974090343 0 0)
(-4.003024462617081 0 0)
(-7.227336521409589 0 0)
(-8.906661851868533 0 0)
(-7.213583831585868 0 0)
(-3.344865293094223 0 0)
(2.229220372386228 0 0)
(8.220580064317161 0 0)
(10.97006279752803 0 0)
(10.69207857673122 0 0)
(7.227036741246664 0 0)
(4.246796647086486 0 0)
(-1.87456600182763 0 0)
(-4.514830371244685 0 0)
(-8.608606528123913 0 0)
(-9.342744901043007 0 0)
(-6.282696977812583 0 0)
(1.410964947518093 0 0)
(7.770108516158603 0 0)
(12.40267279328803 0 0)
(12.51164294680047 0 0)
(8.693105925537425 0 0)
(4.467888264746269 0 0)
(0.9067432285383669 0 0)
(-1.1952826230558 0 0)
(-1.192674035642905 0 0)
(0.8868589975617084 0 0)
(4.053943705035727 0 0)
(4.525334692709109 0 0)
(1.761788313931856 0 0)
(-3.590225286087983 0 0)
(-8.055051732799221 0 0)
(-10.54378117736796 0 0)
(-8.694485169333648 0 0)
(-3.70100226167483 0 0)
(3.280778659046787 0 0)
(6.380853191815567 0 0)
(6.01433546447231 0 0)
(2.477734667205849 0 0)
(0.001917096485447775 0 0)
(0.6767108107951897 0 0)
(0.156178242860412 0 0)
(-0.4729846470211549 0 0)
(-2.55699269816554 0 0)
(-2.554869811882639 0 0)
(-0.1399860402349443 0 0)
(5.229045591748031 0 0)
(9.664767041930736 0 0)
(10.6285456994291 0 0)
(5.96897098839638 0 0)
(-0.7401811591467508 0 0)
(-6.794206864383479 0 0)
(-8.481593266164532 0 0)
(-5.527651806546845 0 0)
(0.2537832811378005 0 0)
(5.811482588404944 0 0)
(7.428050087676501 0 0)
(5.796218851778806 0 0)
(2.8875762945596 0 0)
(2.169098667648646 0 0)
(-1.896059480778307 0 0)
(-4.294984530608334 0 0)
(-7.596982086166377 0 0)
(-7.19794672441478 0 0)
(-3.776360699544576 0 0)
(2.835529893524952 0 0)
(8.778093825929927 0 0)
(13.8921919010309 0 0)
(15.12101171589488 0 0)
(11.40441715536844 0 0)
(6.538420032682716 0 0)
(1.602011500973844 0 0)
(-0.272616799815431 0 0)
(0.01265234589571607 0 0)
(-0.3767084239348488 0 0)
(-2.465069508564945 0 0)
(-6.093048299188776 0 0)
(-9.742717787400885 0 0)
(-10.91250051718535 0 0)
(-7.566841668093518 0 0)
(-2.543289949967697 0 0)
(3.595318315844852 0 0)
(4.651137517224294 0 0)
(1.806138534998643 0 0)
(-3.549013224067444 0 0)
(-5.90565826228672 0 0)
(-2.246867237139517 0 0)
(-1.477925831473305 0 0)
(1.798084338162388 0 0)
(0.9074562092579731 0 0)
(-0.9817362390216388 0 0)
(-0.7283971919984885 0 0)
(2.906194986515238 0 0)
(8.473283664240116 0 0)
(12.54799635506668 0 0)
(11.79410190307804 0 0)
(3.720934083679717 0 0)
(-8.492028657460338 0 0)
(-15.76427378504836 0 0)
(-15.60870171076902 0 0)
(-10.39536169591559 0 0)
(-1.609221134356555 0 0)
(8.075326284081859 0 0)
(17.01960910115343 0 0)
(23.71834939335244 0 0)
(24.8634669058886 0 0)
(17.67064229278078 0 0)
(4.226107098131781 0 0)
(-8.217579882210115 0 0)
(-15.18136502795221 0 0)
(-13.19163999505187 0 0)
(-5.611804739073194 0 0)
(3.246304252550199 0 0)
(10.47802349998277 0 0)
(14.768481325426 0 0)
(14.41064149514943 0 0)
(10.35942001231621 0 0)
(5.261031239041065 0 0)
(1.448158265531681 0 0)
(1.636496057086398 0 0)
(3.966391635361767 0 0)
(5.213210629967258 0 0)
(2.472100897809599 0 0)
(-3.717037608456556 0 0)
(-11.54409978400822 0 0)
(-16.67203525273736 0 0)
(-16.29771111202615 0 0)
(-10.33784163217768 0 0)
(-2.480484448461399 0 0)
(6.345236333851266 0 0)
(13.26187247271893 0 0)
(14.87922597050653 0 0)
(11.62661159772796 0 0)
(6.028946720447669 0 0)
(3.140326800719722 0 0)
(-1.405060383507337 0 0)
(-5.710641428481845 0 0)
(-8.317127976189445 0 0)
(-5.673814108450964 0 0)
(-0.5675122866354049 0 0)
(5.279046456668423 0 0)
(9.321270559498606 0 0)
(8.910890467664316 0 0)
(3.251703245332593 0 0)
(-4.404158492677817 0 0)
(-8.965779078041207 0 0)
(-7.082748061359728 0 0)
(-1.398207653672928 0 0)
(6.389876567232101 0 0)
(14.19738423476601 0 0)
(17.51025855994589 0 0)
(14.69814881540337 0 0)
(3.917252868112889 0 0)
(-5.266801704319994 0 0)
(-13.65140698922985 0 0)
(-20.08655877160374 0 0)
(-20.74971087266076 0 0)
(-15.8393588220115 0 0)
(-6.9669047111363 0 0)
(3.596218915037044 0 0)
(13.39684444374692 0 0)
(19.71083626228786 0 0)
(20.29885545676083 0 0)
(16.32184201059229 0 0)
(4.047282254605365 0 0)
(-8.802641414475737 0 0)
(-12.27495676581677 0 0)
(-9.129064161352879 0 0)
(-7.246832982135095 0 0)
(-6.342860268701866 0 0)
(-9.155201558486326 0 0)
(-10.95655228273485 0 0)
(-8.932240060666311 0 0)
(-2.392832888440105 0 0)
(6.701964704395036 0 0)
(15.08755611946536 0 0)
(17.78798211200349 0 0)
(14.59769738671535 0 0)
(6.383592235330318 0 0)
(2.549910872402661 0 0)
(1.371744834518142 0 0)
(1.814683758922348 0 0)
(-1.723508915235353 0 0)
(-7.140049835228674 0 0)
(-8.854685790495578 0 0)
(-5.740996416189247 0 0)
(0.9074365084764824 0 0)
(7.919279894761001 0 0)
(11.3351100330159 0 0)
(10.61590672226022 0 0)
(8.044568905545283 0 0)
(-2.354143524921133 0 0)
(-10.87018826959397 0 0)
(-12.2906366934485 0 0)
(-8.321869925747571 0 0)
(-1.578799663718933 0 0)
(7.792722461802694 0 0)
(18.69692386833161 0 0)
(26.24520582455159 0 0)
(28.32208791919404 0 0)
(20.71072586686644 0 0)
(4.177686514970868 0 0)
(-13.2091886661709 0 0)
(-23.10282906670114 0 0)
(-22.15274987106706 0 0)
(-14.87010591648595 0 0)
(-6.1825953459009 0 0)
(1.596387534994777 0 0)
(9.093268760024149 0 0)
(16.89588088161453 0 0)
(25.36080713366128 0 0)
(31.70476690054185 0 0)
(30.10216815372722 0 0)
(16.23692592601784 0 0)
(-3.210565882794475 0 0)
(-23.42802922015807 0 0)
(-30.54222328215298 0 0)
(-27.25557645714773 0 0)
(-19.6617965749912 0 0)
(-10.97548380520067 0 0)
(-3.737519928567619 0 0)
(2.743685383985699 0 0)
(9.475913761493915 0 0)
(17.50918566659562 0 0)
(25.24961657246712 0 0)
(30.41090200842591 0 0)
(27.38470809386909 0 0)
(12.55356828275969 0 0)
(-9.275616747297034 0 0)
(-25.76472444761527 0 0)
(-30.601617805935 0 0)
(-26.06583428770121 0 0)
(-18.4846428412985 0 0)
(-10.4601896972733 0 0)
(-3.49773178159688 0 0)
(3.180074908117692 0 0)
(11.18568757610739 0 0)
(19.57683127476079 0 0)
(27.74965809292017 0 0)
(32.72068025843119 0 0)
(28.52814517175243 0 0)
(11.52224588893644 0 0)
(-3.258673712269395 0 0)
(-17.77675916179085 0 0)
(-21.55799839677369 0 0)
(-15.47949379093962 0 0)
(-5.460135552898721 0 0)
(4.624174592119213 0 0)
(14.48182998957568 0 0)
(22.87051102112286 0 0)
(28.56123467428958 0 0)
(29.41178059242117 0 0)
(21.95841255264112 0 0)
(8.836277054956843 0 0)
(-7.071917130616222 0 0)
(-12.41595213706836 0 0)
(-9.08098087070066 0 0)
(-0.6632214830403014 0 0)
(5.797564177362126 0 0)
(8.431820427153625 0 0)
(6.715972797690831 0 0)
(3.326455059359831 0 0)
(4.047159908008779 0 0)
(4.149036126171064 0 0)
(7.538637204744441 0 0)
(4.299606682622168 0 0)
(-2.523577876341535 0 0)
(-5.132154394866828 0 0)
(-2.413288892113552 0 0)
(5.716174960858548 0 0)
(9.624223414658653 0 0)
(9.642888514277704 0 0)
(6.840715826287223 0 0)
(5.762074582710992 0 0)
(8.428981458125678 0 0)
(7.828575164172348 0 0)
(7.586881304794616 0 0)
(1.016930138625883 0 0)
(-3.702881215809544 0 0)
(-2.816156102454038 0 0)
(4.118945404895889 0 0)
(11.66163637824765 0 0)
(14.81224618694341 0 0)
(13.38502459365044 0 0)
(9.958751344973681 0 0)
(9.104785473453916 0 0)
(2.871588592422669 0 0)
(0.07087939162234953 0 0)
(-5.114139591813467 0 0)
(-6.300257274412123 0 0)
(-2.88792188128894 0 0)
(6.207682281553353 0 0)
(14.69629152203285 0 0)
(19.74028735638503 0 0)
(18.26255513024934 0 0)
(10.43986033246553 0 0)
(2.696562552848239 0 0)
(-5.430527687283954 0 0)
(-10.78188107302913 0 0)
(-11.46213350312463 0 0)
(-6.631408905777168 0 0)
(2.342852221054057 0 0)
(12.94859571617951 0 0)
(20.48512671715444 0 0)
(22.52182723012959 0 0)
(16.30139523076888 0 0)
(6.503103065835925 0 0)
(-6.282298725489301 0 0)
(-14.11297276160073 0 0)
(-14.97624370616105 0 0)
(-8.96315350758487 0 0)
(0.7024783302725243 0 0)
(12.27041717981035 0 0)
(22.66492501122422 0 0)
(27.77611822479192 0 0)
(23.9738906847151 0 0)
(10.1371311887778 0 0)
(-6.667603524590095 0 0)
(-18.25217616471144 0 0)
(-20.17786586397497 0 0)
(-14.72186183003321 0 0)
(-4.501593103719575 0 0)
(6.982974110612013 0 0)
(18.58331469782583 0 0)
(25.83269445797302 0 0)
(27.31318964956434 0 0)
(20.20255054620026 0 0)
(8.903355267638057 0 0)
(-7.298910506016319 0 0)
(-14.6482938816445 0 0)
(-13.14694473591981 0 0)
(-6.314736927842164 0 0)
(-1.03590369859628 0 0)
(4.822564943992354 0 0)
(8.300301887081508 0 0)
(10.79229438808606 0 0)
(13.52022471347355 0 0)
(16.87385569963459 0 0)
(19.6861758144336 0 0)
(17.62187716876369 0 0)
(6.861725643857085 0 0)
(-7.56087337301713 0 0)
(-14.53860226931828 0 0)
(-13.21506975420756 0 0)
(-7.641006179617546 0 0)
(0.5529797149288923 0 0)
(8.523649664291518 0 0)
(14.34786997726952 0 0)
(17.19115602059883 0 0)
(16.49874696321371 0 0)
(13.66339652759588 0 0)
(9.63019616384614 0 0)
(6.396463877407684 0 0)
(0.3245157881157295 0 0)
(-2.686124642893495 0 0)
(-0.6580144490166319 0 0)
(5.874887549011297 0 0)
(9.523801613206031 0 0)
(15.40851672392986 0 0)
(13.36660226390905 0 0)
(7.736296290846598 0 0)
(4.651124879571372 0 0)
(6.39775828434449 0 0)
(9.00260875639799 0 0)
(10.75762485206228 0 0)
(12.65527801602065 0 0)
(14.86187187278624 0 0)
(16.84688644988467 0 0)
(18.50028350707708 0 0)
(15.76284541590805 0 0)
(7.548987294805236 0 0)
(1.482389301748174 0 0)
(-3.457877247837929 0 0)
(-4.710413298531405 0 0)
(-0.894616729964999 0 0)
(6.637728382896139 0 0)
(11.09560147574196 0 0)
(16.66013367951875 0 0)
(17.68694306511389 0 0)
(14.4534583750655 0 0)
(10.35001641615595 0 0)
(5.702505592579131 0 0)
(2.417792715293472 0 0)
(3.48827182471727 0 0)
(2.763722707606913 0 0)
(4.739259654174162 0 0)
(4.891467590279619 0 0)
(4.245775055230809 0 0)
(6.586210482533456 0 0)
(6.05147910126684 0 0)
(6.402153381872816 0 0)
(8.155292823468407 0 0)
(11.31602596809871 0 0)
(11.84690383380172 0 0)
(13.35165451715224 0 0)
(10.11821535994 0 0)
(5.498876412350713 0 0)
(4.069734990173398 0 0)
(-1.221230129873976 0 0)
(-5.69076633816013 0 0)
(-5.471557888011661 0 0)
(0.8152794150260804 0 0)
(7.741620404124426 0 0)
(14.57976058028361 0 0)
(18.67452592006527 0 0)
(17.39405055049827 0 0)
(12.30695542793188 0 0)
(6.402425402719214 0 0)
(5.305178285978644 0 0)
(-0.03095151146848475 0 0)
(-3.448156618379258 0 0)
(-3.442027729367577 0 0)
(2.449940991378609 0 0)
(7.575838976983538 0 0)
(13.88103347906318 0 0)
(13.6192097827777 0 0)
(9.147758289370014 0 0)
(5.854278536610066 0 0)
(5.634839971942281 0 0)
(11.50994290628368 0 0)
(12.4093632499283 0 0)
(10.96108464336266 0 0)
(7.874896483013324 0 0)
(7.650596482982364 0 0)
(5.959258914712911 0 0)
(6.42352991467924 0 0)
(0.1922827058567176 0 0)
(-6.113009623601958 0 0)
(-6.908103168100298 0 0)
(-1.314126122734446 0 0)
(8.481711949667464 0 0)
(19.40626729540902 0 0)
(28.50576257599383 0 0)
(30.8888523869653 0 0)
(24.45167170431201 0 0)
(11.79576579665202 0 0)
(-1.815174810417512 0 0)
(-12.85542335287673 0 0)
(-13.02158781171937 0 0)
(-6.959841051687492 0 0)
(2.907235537029234 0 0)
(12.71737280555562 0 0)
(21.01503887013184 0 0)
(25.94239455354944 0 0)
(25.43602924348093 0 0)
(23.21972552727496 0 0)
(16.02039322262399 0 0)
(10.01800336592061 0 0)
(0.5576762726878275 0 0)
(-2.742920226798169 0 0)
(-0.09828333678064093 0 0)
(3.004796548645239 0 0)
(4.95450460403331 0 0)
(7.21124128152381 0 0)
(10.14380613501127 0 0)
(14.22836741802444 0 0)
(17.26960740213003 0 0)
(23.2916642067549 0 0)
(21.81234443125497 0 0)
(13.53268181664791 0 0)
(4.736482284211601 0 0)
(3.776972006300229 0 0)
(-0.5913477557991413 0 0)
(-1.000697934089513 0 0)
(2.421389902336261 0 0)
(9.731864589077073 0 0)
(15.97798981674747 0 0)
(23.0927939087463 0 0)
(24.68336963809011 0 0)
(20.13419812341652 0 0)
(10.74014366133476 0 0)
(6.53132413327895 0 0)
(-0.05302258795619364 0 0)
(-2.296981501444949 0 0)
(0.7994674638083314 0 0)
(8.206059396311339 0 0)
(14.29727029012555 0 0)
(20.91139972319021 0 0)
(24.28884156029153 0 0)
(22.61333237051343 0 0)
(15.25173303807533 0 0)
(5.96245172842756 0 0)
(-0.8817639306220809 0 0)
(-4.782649248857097 0 0)
(-4.209440340721712 0 0)
(-0.406927366705909 0 0)
(4.914651409043035 0 0)
(10.53153531712944 0 0)
(15.68018869567838 0 0)
(17.90842641995007 0 0)
(16.85519574426906 0 0)
(13.99346632588666 0 0)
(7.58427442504991 0 0)
(2.549320262841473 0 0)
(-3.26809656522257 0 0)
(-4.071327890631811 0 0)
(-1.204298150830694 0 0)
(5.62170705905876 0 0)
(9.71411649177648 0 0)
(11.63618681091597 0 0)
(12.2277900448656 0 0)
(13.11946303441912 0 0)
(15.84127486669135 0 0)
(14.89009596620144 0 0)
(16.31517666479511 0 0)
(10.82067836532727 0 0)
(5.745699314646954 0 0)
(5.505341154595246 0 0)
(10.37168675658336 0 0)
(14.28979520970827 0 0)
(15.73768603300046 0 0)
(14.18183442241521 0 0)
(11.58324813848981 0 0)
(4.607196563150977 0 0)
(-0.1044162822174711 0 0)
(-5.116944392623783 0 0)
(-5.554371609793986 0 0)
(-1.496593704279345 0 0)
(6.713844934323634 0 0)
(15.7001257227515 0 0)
(23.81204565837597 0 0)
(25.96909351150466 0 0)
(22.16396436883394 0 0)
(11.83523351761328 0 0)
(0.9866792076327729 0 0)
(-9.022844836860729 0 0)
(-9.317481550409495 0 0)
(-4.544855223444021 0 0)
(2.859979555030244 0 0)
(9.721948172883351 0 0)
(14.81876187197038 0 0)
(18.22415509729383 0 0)
(19.41867972260286 0 0)
(20.40866207215984 0 0)
(19.48532087546046 0 0)
(15.47284935649445 0 0)
(5.405984204375456 0 0)
(-0.3668312113558931 0 0)
(-0.1693904408275416 0 0)
(-0.3215949649549761 0 0)
(0.2520909760733284 0 0)
(3.604474677700497 0 0)
(9.768384499382007 0 0)
(17.54945763926514 0 0)
(21.21415705539684 0 0)
(26.51310501905431 0 0)
(24.96836235419198 0 0)
(15.41294508291164 0 0)
(3.443708534596056 0 0)
(-2.261910714257296 0 0)
(-5.316618391864526 0 0)
(-2.903326830883237 0 0)
(4.264205778933068 0 0)
(14.79688220342425 0 0)
(21.85377043622072 0 0)
(27.13029037262712 0 0)
(26.46291837430717 0 0)
(17.82246526918548 0 0)
(4.931789828498577 0 0)
(-3.715349598602571 0 0)
(-6.523735765429573 0 0)
(-3.006254283798343 0 0)
(5.100831299670501 0 0)
(13.12578989830953 0 0)
(21.04185555309996 0 0)
(24.54931117495965 0 0)
(21.88533962012665 0 0)
(14.14597318405188 0 0)
(6.087672416343597 0 0)
(-0.6473167082832212 0 0)
(-1.58928887803548 0 0)
(1.873999708061826 0 0)
(4.792425991590429 0 0)
(9.193839268899508 0 0)
(12.3098128464597 0 0)
(13.64447280837912 0 0)
(13.40807932190284 0 0)
(15.65592077711551 0 0)
(15.23610148651269 0 0)
(13.02906136034347 0 0)
(9.138426505999442 0 0)
(5.443841985414569 0 0)
(2.921160141785955 0 0)
(2.14090671723481 0 0)
(4.112187217819306 0 0)
(7.99318345219737 0 0)
(13.03618634010797 0 0)
(17.83355804381931 0 0)
(19.69934093450262 0 0)
(18.20460144876835 0 0)
(13.94432257506843 0 0)
(9.18129617215865 0 0)
(6.40628718760013 0 0)
(6.706056118693351 0 0)
(7.753397333972783 0 0)
(9.478625020556445 0 0)
(10.79029570161572 0 0)
(11.31257479706949 0 0)
(10.34489114153637 0 0)
(10.13853749754897 0 0)
(10.60118314212254 0 0)
(12.44453969853465 0 0)
(14.6750710259291 0 0)
(16.59685778013877 0 0)
(16.05842118647847 0 0)
(10.35740369803487 0 0)
(5.671118186135852 0 0)
(2.461140287468115 0 0)
(3.453941720342514 0 0)
(7.993286093109776 0 0)
(13.68606993068491 0 0)
(18.84210326801447 0 0)
(20.83998495939541 0 0)
(17.2916684408865 0 0)
(10.74861289912716 0 0)
(2.264952910733548 0 0)
(-2.410676212284316 0 0)
(-0.8952301623072014 0 0)
(5.500257402201441 0 0)
(13.2323067272811 0 0)
(20.21316750581189 0 0)
(24.88747063599197 0 0)
(23.51617831218397 0 0)
(15.01643965182525 0 0)
(3.77297304255723 0 0)
(-3.920698849095861 0 0)
(-6.50751771220155 0 0)
(-3.253420977494735 0 0)
(3.572328183457125 0 0)
(12.72622309510009 0 0)
(20.62405901075854 0 0)
(26.04087900081039 0 0)
(26.97191541703359 0 0)
(21.76289246679982 0 0)
(11.81590304113066 0 0)
(-0.6892250843781393 0 0)
(-7.298507813830228 0 0)
(-6.017348635313552 0 0)
(-1.279369634175616 0 0)
(5.133479205138309 0 0)
(11.47598365723534 0 0)
(17.37390642733653 0 0)
(22.33317482798469 0 0)
(23.53525847485205 0 0)
(22.6641445347117 0 0)
(18.70981087055101 0 0)
(14.99639742690928 0 0)
(6.470889942919547 0 0)
(1.205886119116317 0 0)
(1.254529355936899 0 0)
(5.441763366015814 0 0)
(11.32937208257207 0 0)
(18.25109650525228 0 0)
(24.06825677386542 0 0)
(24.39023040269796 0 0)
(22.00394348307319 0 0)
(15.65139155415325 0 0)
(9.724446027406366 0 0)
(3.672775682535034 0 0)
(3.02176525879571 0 0)
(6.079955297075507 0 0)
(12.13336916130853 0 0)
(17.35746223072274 0 0)
(20.36674560773019 0 0)
(19.58498742116126 0 0)
(14.83492479909629 0 0)
(9.755056166628991 0 0)
(5.720782946029106 0 0)
(4.546384931623253 0 0)
(4.971699469687552 0 0)
(7.011487255902392 0 0)
(8.979486916281484 0 0)
(11.58957809106082 0 0)
(12.43625102748355 0 0)
(12.19232342526624 0 0)
(11.15814627853766 0 0)
(8.792136563451191 0 0)
(6.664295463322981 0 0)
(3.154982983250417 0 0)
(0.9084584843132328 0 0)
(0.4983763221773176 0 0)
(2.837217482744259 0 0)
(2.893721799251817 0 0)
(3.826698543814699 0 0)
(7.366565594494063 0 0)
(13.56291862557862 0 0)
(19.49583549857184 0 0)
(22.89262153554143 0 0)
(24.8920085159345 0 0)
(21.49216596569667 0 0)
(12.06554175691467 0 0)
(4.83923888526281 0 0)
(0.3619666355720345 0 0)
(-2.363127210974344 0 0)
(-0.3675018369253418 0 0)
(5.925259401853118 0 0)
(16.19442406008027 0 0)
(23.02061185578551 0 0)
(28.69712097301555 0 0)
(30.09456855721335 0 0)
(26.19767957770611 0 0)
(16.21718698748561 0 0)
(9.588467280264274 0 0)
(5.176885562016184 0 0)
(3.497509398587992 0 0)
(5.009206838592321 0 0)
(9.480843719522204 0 0)
(14.79321278442064 0 0)
(18.085927083466 0 0)
(19.90303382937575 0 0)
(17.6497740340769 0 0)
(13.84073107214646 0 0)
(11.56095609419259 0 0)
(11.03556233892996 0 0)
(11.31373724687591 0 0)
(12.4382845953407 0 0)
(13.0936718652956 0 0)
(9.93305778574212 0 0)
(5.076574394754951 0 0)
(-0.4577739881538802 0 0)
)
;

boundaryField
{
    inlet
    {
        type            zeroGradient;
    }
    outlet
    {
        type            pressureInletOutletVelocity;
        value           uniform (-0.4577739881538802 0 0);
    }
    frontAndBack
    {
        type            empty;
    }
}


// ************************************************************************* //
