/*--------------------------------*- C++ -*----------------------------------*\
| =========                 |                                                 |
| \\      /  F ield         | OpenFOAM: The Open Source CFD Toolbox           |
|  \\    /   O peration     | Version:  v2012                                 |
|   \\  /    A nd           | Website:  www.openfoam.com                      |
|    \\/     M anipulation  |                                                 |
\*---------------------------------------------------------------------------*/
FoamFile
{
    version     2.0;
    format      ascii;
    class       volVectorField;
    location    "0.018";
    object      UMean;
}
// * * * * * * * * * * * * * * * * * * * * * * * * * * * * * * * * * * * * * //

dimensions      [0 1 -1 0 0 0 0];


internalField   nonuniform List<vector> 
1000
(
(0.03376740350957669 0 0)
(0.04085900368252945 0 0)
(0.02947793852506535 0 0)
(0.04184794879797427 0 0)
(0.04335452336693851 0 0)
(0.05340329628314006 0 0)
(0.05769219239439349 0 0)
(0.06533727885656518 0 0)
(0.06322171362809742 0 0)
(0.05934667771323193 0 0)
(0.053554348105164 0 0)
(0.04100607850718069 0 0)
(0.03538984829198442 0 0)
(0.0303666603618824 0 0)
(0.03351152602273549 0 0)
(0.04022308081618842 0 0)
(0.04118013107498818 0 0)
(0.04679195352973557 0 0)
(0.05273050618427712 0 0)
(0.05709527294142985 0 0)
(0.05359816976092884 0 0)
(0.05445024699238519 0 0)
(0.05091756528711034 0 0)
(0.05385550816224163 0 0)
(0.05522936574520557 0 0)
(0.05508665031434298 0 0)
(0.05465554895743258 0 0)
(0.05223880726710257 0 0)
(0.04922286487767277 0 0)
(0.04444645859632753 0 0)
(0.03747571802637302 0 0)
(0.03344280815527201 0 0)
(0.0362974542212365 0 0)
(0.04340684700833956 0 0)
(0.05042975943620402 0 0)
(0.05395052476057313 0 0)
(0.05835142183875958 0 0)
(0.06139494368879145 0 0)
(0.05978548139754165 0 0)
(0.05062823656961128 0 0)
(0.04266827081255315 0 0)
(0.0370862252859553 0 0)
(0.03562888541611389 0 0)
(0.03692680452863637 0 0)
(0.04015793544756018 0 0)
(0.04095972484413002 0 0)
(0.04658847988270256 0 0)
(0.05038688281458679 0 0)
(0.05209328132489724 0 0)
(0.0416591912733051 0 0)
(0.04196066444243059 0 0)
(0.04121377960292857 0 0)
(0.04730801040012138 0 0)
(0.04871784307743106 0 0)
(0.05442755072830534 0 0)
(0.05715468631094308 0 0)
(0.06176722607493672 0 0)
(0.05916148426922486 0 0)
(0.05074274135818161 0 0)
(0.04365771639067537 0 0)
(0.03611189374545784 0 0)
(0.03513441494229492 0 0)
(0.03943995822074843 0 0)
(0.03895056103508711 0 0)
(0.0444873764986056 0 0)
(0.05014407032795801 0 0)
(0.05546271517003785 0 0)
(0.05801396121109223 0 0)
(0.05408908984220389 0 0)
(0.05469039214477277 0 0)
(0.0554881923030438 0 0)
(0.05414179239532963 0 0)
(0.05213226216406922 0 0)
(0.05065654045852069 0 0)
(0.05111584652915464 0 0)
(0.0494484935106446 0 0)
(0.04442459117043483 0 0)
(0.04149266506236031 0 0)
(0.03440240503487917 0 0)
(0.03987803397016659 0 0)
(0.04518040975713345 0 0)
(0.05355417314492611 0 0)
(0.05947208889637458 0 0)
(0.06288418268311455 0 0)
(0.06579661883180411 0 0)
(0.06493224334852467 0 0)
(0.05716599671485505 0 0)
(0.04738839848045199 0 0)
(0.0421409234263325 0 0)
(0.03796425152244359 0 0)
(0.04075692246567148 0 0)
(0.03430777228402025 0 0)
(0.03866453780896939 0 0)
(0.04317735523115459 0 0)
(0.04299316905477241 0 0)
(0.0453441518374722 0 0)
(0.04062405699927085 0 0)
(0.04233166010198472 0 0)
(0.05109122323604669 0 0)
(0.05635977569384752 0 0)
(0.06219276957921194 0 0)
(0.06406758510532627 0 0)
(0.06596768401222064 0 0)
(0.06284093675637967 0 0)
(0.053880635377578 0 0)
(0.04068818042774096 0 0)
(0.029637364417567 0 0)
(0.02743849637936997 0 0)
(0.02814777600494177 0 0)
(0.03275044321864096 0 0)
(0.03598080893246158 0 0)
(0.04303038089687566 0 0)
(0.05092091826063794 0 0)
(0.05750834708774689 0 0)
(0.05340672659515489 0 0)
(0.04570827358455064 0 0)
(0.03967745163453263 0 0)
(0.03516444465043436 0 0)
(0.02992003296349769 0 0)
(0.02250217500460447 0 0)
(0.02019715012078177 0 0)
(0.0191731014751535 0 0)
(0.01861558938788691 0 0)
(0.02216938304665846 0 0)
(0.01622948250701045 0 0)
(0.02620418420013254 0 0)
(0.03403012749973004 0 0)
(0.04659371591233633 0 0)
(0.0510087998677891 0 0)
(0.05226990694701677 0 0)
(0.0501255403123592 0 0)
(0.04798975928347091 0 0)
(0.04193801901404196 0 0)
(0.0366636953326194 0 0)
(0.03215517520124442 0 0)
(0.03179937779745669 0 0)
(0.03751134862338169 0 0)
(0.04278970084436817 0 0)
(0.04628431321441435 0 0)
(0.04851313381361012 0 0)
(0.04824915313737275 0 0)
(0.04738165498732518 0 0)
(0.0386225225495727 0 0)
(0.035061051475132 0 0)
(0.03637312596260343 0 0)
(0.04594048117097494 0 0)
(0.0547411760964287 0 0)
(0.05497232992856958 0 0)
(0.06538987337029689 0 0)
(0.06170102175882112 0 0)
(0.05574242549843376 0 0)
(0.05035038867477483 0 0)
(0.03328000929039563 0 0)
(0.02821577668139154 0 0)
(0.02651758892617682 0 0)
(0.02794433170639511 0 0)
(0.02599777504933818 0 0)
(0.02823724704319663 0 0)
(0.03441760192423909 0 0)
(0.04231378876658155 0 0)
(0.05201319845143641 0 0)
(0.05260752560543859 0 0)
(0.05344277449256323 0 0)
(0.05961249544161395 0 0)
(0.06310804234422773 0 0)
(0.06715595707844454 0 0)
(0.06751185097875634 0 0)
(0.0687912625970319 0 0)
(0.07274499883175559 0 0)
(0.07113417897014851 0 0)
(0.05910904806446596 0 0)
(0.06150815035434897 0 0)
(0.05703513750213725 0 0)
(0.05924735445584769 0 0)
(0.06841392373910708 0 0)
(0.06914325397781838 0 0)
(0.07819339797566861 0 0)
(0.0850715438505919 0 0)
(0.08521398468995234 0 0)
(0.0792087777012061 0 0)
(0.0689292111571379 0 0)
(0.05914953526365151 0 0)
(0.05475690829319921 0 0)
(0.05631791932554018 0 0)
(0.04696706628528446 0 0)
(0.04360012740401355 0 0)
(0.04621309302937974 0 0)
(0.05010725605702171 0 0)
(0.05384180986322549 0 0)
(0.05512555876474979 0 0)
(0.06285648163385846 0 0)
(0.07203015830639324 0 0)
(0.08225921990148186 0 0)
(0.08980404504280315 0 0)
(0.09146694128761129 0 0)
(0.09250672812711758 0 0)
(0.08520503721634748 0 0)
(0.07469705720222747 0 0)
(0.06367571565061776 0 0)
(0.05006855703972821 0 0)
(0.04463542829582004 0 0)
(0.04799985759066141 0 0)
(0.05535573515790722 0 0)
(0.05677262170581832 0 0)
(0.06452615967306793 0 0)
(0.07456864891578133 0 0)
(0.0799918693031435 0 0)
(0.07829494631678464 0 0)
(0.0661549686292795 0 0)
(0.06085100449386196 0 0)
(0.06226137482978076 0 0)
(0.05645140037343856 0 0)
(0.05634405070948963 0 0)
(0.05804085371641347 0 0)
(0.0597677097095332 0 0)
(0.0656798314973458 0 0)
(0.06790954096487348 0 0)
(0.06423188300078438 0 0)
(0.06680408587230389 0 0)
(0.07072402505001905 0 0)
(0.07892992433710873 0 0)
(0.08617154966777756 0 0)
(0.09266181950620721 0 0)
(0.09766476621943519 0 0)
(0.1036520748297484 0 0)
(0.0989479841280916 0 0)
(0.09208832810432976 0 0)
(0.07750693090244345 0 0)
(0.06736113157994134 0 0)
(0.06369237872450437 0 0)
(0.05885620677681275 0 0)
(0.04646464322660797 0 0)
(0.04999705795483263 0 0)
(0.05691833196199306 0 0)
(0.06520667970734444 0 0)
(0.0777513864121788 0 0)
(0.08407177017940122 0 0)
(0.09487195534890354 0 0)
(0.1029076830186172 0 0)
(0.1079849632352083 0 0)
(0.1036696600155024 0 0)
(0.09721896231843222 0 0)
(0.0958252201493849 0 0)
(0.09541623782519125 0 0)
(0.09447677878562877 0 0)
(0.08377918979948076 0 0)
(0.08020738264350383 0 0)
(0.07769341107406914 0 0)
(0.08254127222400265 0 0)
(0.08969942651691869 0 0)
(0.09002595277661223 0 0)
(0.09532371089122457 0 0)
(0.09676465331970029 0 0)
(0.1029846156810588 0 0)
(0.09692169799618838 0 0)
(0.08900741566430416 0 0)
(0.08860349122805919 0 0)
(0.09034158787215328 0 0)
(0.09192737122774954 0 0)
(0.09707168286879404 0 0)
(0.0966796890650419 0 0)
(0.09703217121597636 0 0)
(0.1006659843802716 0 0)
(0.09447137145255134 0 0)
(0.08913319127712212 0 0)
(0.08224086720645316 0 0)
(0.08918624754312282 0 0)
(0.09314665108423856 0 0)
(0.1043778167215302 0 0)
(0.1006160739891028 0 0)
(0.1072913118941859 0 0)
(0.1136376189618714 0 0)
(0.113748357499858 0 0)
(0.1018699222199298 0 0)
(0.09134668623930649 0 0)
(0.08320709469151749 0 0)
(0.07885277251975217 0 0)
(0.0760596158606013 0 0)
(0.07342589574721267 0 0)
(0.0754662683953677 0 0)
(0.08911797530640556 0 0)
(0.09232632779333214 0 0)
(0.1004889897494472 0 0)
(0.1031175248441173 0 0)
(0.1047692175325391 0 0)
(0.1122705879134373 0 0)
(0.1157370477448833 0 0)
(0.1204463051223084 0 0)
(0.1170766860584973 0 0)
(0.1211315713395189 0 0)
(0.1145861231758578 0 0)
(0.1144590148300658 0 0)
(0.09773290716300635 0 0)
(0.08879053165456366 0 0)
(0.0887550609949895 0 0)
(0.09293963654828843 0 0)
(0.09388944048649951 0 0)
(0.1017338341270881 0 0)
(0.1063132345787431 0 0)
(0.1112719287030089 0 0)
(0.1166647391635716 0 0)
(0.1130797920387846 0 0)
(0.1008504771483538 0 0)
(0.1029780523037644 0 0)
(0.09979870965213444 0 0)
(0.1009263323430574 0 0)
(0.1030200644429885 0 0)
(0.1012371327188507 0 0)
(0.1060083920808938 0 0)
(0.1097772561283204 0 0)
(0.106304647690206 0 0)
(0.1000440232060502 0 0)
(0.1022059858984359 0 0)
(0.1058163717985269 0 0)
(0.1139375430995232 0 0)
(0.1217073871071344 0 0)
(0.120504405837866 0 0)
(0.1276798318894559 0 0)
(0.1282658312609301 0 0)
(0.1185378877454213 0 0)
(0.1084381473572711 0 0)
(0.0969461520922575 0 0)
(0.08743622989318067 0 0)
(0.08680198191061235 0 0)
(0.09351471878879432 0 0)
(0.08588642325415292 0 0)
(0.09812355965484497 0 0)
(0.1063329494121177 0 0)
(0.1095250759764288 0 0)
(0.1119101487171809 0 0)
(0.1104500303519813 0 0)
(0.1103852262448674 0 0)
(0.1147087974873422 0 0)
(0.1236263277638212 0 0)
(0.1243986830592319 0 0)
(0.1260410174903595 0 0)
(0.1316242682885521 0 0)
(0.1330015143880632 0 0)
(0.1296287042681358 0 0)
(0.1162321331441422 0 0)
(0.1089426311011222 0 0)
(0.1036246129183086 0 0)
(0.09763413106956857 0 0)
(0.1005010506289523 0 0)
(0.1054687700013827 0 0)
(0.1081970713129163 0 0)
(0.1200187728663336 0 0)
(0.1295856230352289 0 0)
(0.1253155053285669 0 0)
(0.1209870274381624 0 0)
(0.1285225342008206 0 0)
(0.1249134298868859 0 0)
(0.1224106897609441 0 0)
(0.1191668249310025 0 0)
(0.1176130654007388 0 0)
(0.1157435228761575 0 0)
(0.1148489482539167 0 0)
(0.1166143091038961 0 0)
(0.1077189849471328 0 0)
(0.1175797558710218 0 0)
(0.1261912394446245 0 0)
(0.1375983059626601 0 0)
(0.1379829804280573 0 0)
(0.1419785152604514 0 0)
(0.1398556899843661 0 0)
(0.1363759873482262 0 0)
(0.1238296980237307 0 0)
(0.1090473503209114 0 0)
(0.1006935247396172 0 0)
(0.09211658070934405 0 0)
(0.09310750947771287 0 0)
(0.09375111848737482 0 0)
(0.09596738564274755 0 0)
(0.1070238373149722 0 0)
(0.1153701192206466 0 0)
(0.122683506824551 0 0)
(0.1263844204355923 0 0)
(0.1269983570846084 0 0)
(0.1281490282517067 0 0)
(0.1285895557258381 0 0)
(0.1377482021481312 0 0)
(0.1205743399159406 0 0)
(0.1317988284499064 0 0)
(0.1287481337250848 0 0)
(0.1386482986345747 0 0)
(0.1288272188597958 0 0)
(0.1356766725006742 0 0)
(0.1282723162113513 0 0)
(0.1312846539755773 0 0)
(0.131347344596104 0 0)
(0.1346362152987961 0 0)
(0.1357556706293761 0 0)
(0.1380727414112346 0 0)
(0.1462209882967847 0 0)
(0.145873841247926 0 0)
(0.1426397104291255 0 0)
(0.1412695997295822 0 0)
(0.1412323664690113 0 0)
(0.1417520295519945 0 0)
(0.1399027538193054 0 0)
(0.1467128862012919 0 0)
(0.1431305633229747 0 0)
(0.1450490688366448 0 0)
(0.1516436886471693 0 0)
(0.1422277065823135 0 0)
(0.143164266600719 0 0)
(0.142292355284187 0 0)
(0.1505947179675123 0 0)
(0.1515841619103177 0 0)
(0.1577297727084356 0 0)
(0.1621863511720574 0 0)
(0.1656008427709708 0 0)
(0.1665334701405757 0 0)
(0.1596762734636432 0 0)
(0.1508686509043154 0 0)
(0.1367903294893992 0 0)
(0.13242032083021 0 0)
(0.129891915118664 0 0)
(0.1298612990806122 0 0)
(0.1342976800848497 0 0)
(0.1425835417525655 0 0)
(0.1429316936092677 0 0)
(0.1563796556771758 0 0)
(0.1535646988952626 0 0)
(0.1567677836652494 0 0)
(0.1571631136196306 0 0)
(0.1639142782875597 0 0)
(0.1658880962649222 0 0)
(0.1650117097716932 0 0)
(0.167221091122728 0 0)
(0.1719671823871773 0 0)
(0.1701658569521778 0 0)
(0.1641475622510093 0 0)
(0.1568605523528104 0 0)
(0.1462548333636027 0 0)
(0.1411237132356421 0 0)
(0.1420832127432727 0 0)
(0.1406318943578018 0 0)
(0.1380517557861717 0 0)
(0.1442648921274664 0 0)
(0.1478784687084768 0 0)
(0.1527094988995516 0 0)
(0.1556312049794797 0 0)
(0.1605382909790573 0 0)
(0.1654174218325995 0 0)
(0.1671408237080965 0 0)
(0.1621374022909696 0 0)
(0.1535755222970714 0 0)
(0.1410607973949706 0 0)
(0.1401173893358655 0 0)
(0.1374827545348011 0 0)
(0.1422788940485621 0 0)
(0.1417506563893801 0 0)
(0.152266100927321 0 0)
(0.1616132316416565 0 0)
(0.1693264779802944 0 0)
(0.1797462668663234 0 0)
(0.1819306069614204 0 0)
(0.1785740339669147 0 0)
(0.1718906564728297 0 0)
(0.1605516557764523 0 0)
(0.1484443821961146 0 0)
(0.1383654321247152 0 0)
(0.1393447601553004 0 0)
(0.1392275944084859 0 0)
(0.14271099457034 0 0)
(0.146133989229372 0 0)
(0.1567566311476634 0 0)
(0.1626007228496026 0 0)
(0.1750055106484509 0 0)
(0.1839154387766622 0 0)
(0.190118542998303 0 0)
(0.189398897831517 0 0)
(0.1913277163285707 0 0)
(0.186227195150524 0 0)
(0.1813706152435815 0 0)
(0.1793986644686776 0 0)
(0.17656152471687 0 0)
(0.1750368798132947 0 0)
(0.1818358322720109 0 0)
(0.1862751642580979 0 0)
(0.1915519869679925 0 0)
(0.1973647900551461 0 0)
(0.2031626656237217 0 0)
(0.2027686925216814 0 0)
(0.2016574322088264 0 0)
(0.2036712471550234 0 0)
(0.2020232035323246 0 0)
(0.2016472370855609 0 0)
(0.1983293472648525 0 0)
(0.1964713658090382 0 0)
(0.1980528048335497 0 0)
(0.2052137031513663 0 0)
(0.2106203687740519 0 0)
(0.2210970276483839 0 0)
(0.2229887486564839 0 0)
(0.2288701083176232 0 0)
(0.2260586278872584 0 0)
(0.2333606137552837 0 0)
(0.2345656500689876 0 0)
(0.2310338772740411 0 0)
(0.2277790341261576 0 0)
(0.2284104846355856 0 0)
(0.2258720851775974 0 0)
(0.2330442288277704 0 0)
(0.2368536513309798 0 0)
(0.2361179894737684 0 0)
(0.2334432361474817 0 0)
(0.2318674141644015 0 0)
(0.22832148931022 0 0)
(0.2310063985434994 0 0)
(0.2340953583610428 0 0)
(0.2393165072117469 0 0)
(0.2387225178080087 0 0)
(0.2378092904315233 0 0)
(0.2355110736841226 0 0)
(0.2315468445910637 0 0)
(0.2317505539009832 0 0)
(0.2328076161645508 0 0)
(0.2293681289979532 0 0)
(0.2351763199108308 0 0)
(0.23582428938133 0 0)
(0.2498002062460987 0 0)
(0.2553574725027731 0 0)
(0.2626249173912877 0 0)
(0.2659521339939337 0 0)
(0.2661382871897189 0 0)
(0.2663185949340847 0 0)
(0.2655005181598836 0 0)
(0.2695319421878827 0 0)
(0.2681425641638575 0 0)
(0.2688801877094689 0 0)
(0.265572432479825 0 0)
(0.2658619406450785 0 0)
(0.2654777022315457 0 0)
(0.2746617598298874 0 0)
(0.2800647282394041 0 0)
(0.2905345171043511 0 0)
(0.3009811470239461 0 0)
(0.3055141846621888 0 0)
(0.3084470365153273 0 0)
(0.3017951832970905 0 0)
(0.2935230139043811 0 0)
(0.2861628879806393 0 0)
(0.2709533170590264 0 0)
(0.2686048609718814 0 0)
(0.2663416635553668 0 0)
(0.2758228324699384 0 0)
(0.2863256347236297 0 0)
(0.297838352827448 0 0)
(0.3069110350941635 0 0)
(0.3137095672232422 0 0)
(0.3149541119923484 0 0)
(0.3096140930077131 0 0)
(0.3038478065712742 0 0)
(0.2891706222518632 0 0)
(0.283670231286052 0 0)
(0.2819620783576859 0 0)
(0.2860190842442795 0 0)
(0.2951452799806461 0 0)
(0.3053897466635418 0 0)
(0.3177481593047091 0 0)
(0.3241695232201953 0 0)
(0.3349725759795908 0 0)
(0.3268411096991785 0 0)
(0.3187683555289856 0 0)
(0.3132712738238602 0 0)
(0.3062815716869148 0 0)
(0.3066281436966756 0 0)
(0.3066291238613553 0 0)
(0.3139287041841898 0 0)
(0.3220647625119846 0 0)
(0.3348909630544621 0 0)
(0.3425200126211709 0 0)
(0.3439234709835219 0 0)
(0.3426205773681082 0 0)
(0.3327067803630492 0 0)
(0.3284910985295932 0 0)
(0.3254563878664579 0 0)
(0.3241464153520499 0 0)
(0.3304869392611954 0 0)
(0.3371763262012988 0 0)
(0.3429479004297977 0 0)
(0.352622010171823 0 0)
(0.3537341496236172 0 0)
(0.3532721747063608 0 0)
(0.3468625896088279 0 0)
(0.3434355634576771 0 0)
(0.3396209131368296 0 0)
(0.3433499193814942 0 0)
(0.3448763209911586 0 0)
(0.3459201179996853 0 0)
(0.3505095316332166 0 0)
(0.3588152784925119 0 0)
(0.3652703158729624 0 0)
(0.3671692701208111 0 0)
(0.3627520529642307 0 0)
(0.3615572295703905 0 0)
(0.3618046553019455 0 0)
(0.3590807742714313 0 0)
(0.3603042172243127 0 0)
(0.3635286204669435 0 0)
(0.3606466956381724 0 0)
(0.3616410849472437 0 0)
(0.3638739859425569 0 0)
(0.3688505184549035 0 0)
(0.3776407311199801 0 0)
(0.3798489116710405 0 0)
(0.3855418094366078 0 0)
(0.3829702262195848 0 0)
(0.3890035025821915 0 0)
(0.3832197630095715 0 0)
(0.3796316424851549 0 0)
(0.3698973144195094 0 0)
(0.3715675035430019 0 0)
(0.3725821030278114 0 0)
(0.3801217270975429 0 0)
(0.3862116121582318 0 0)
(0.3934600835670632 0 0)
(0.3997061734594748 0 0)
(0.4054871995991874 0 0)
(0.4145845778414653 0 0)
(0.4114669885208584 0 0)
(0.4085797944465782 0 0)
(0.4058283364655719 0 0)
(0.4053483103475585 0 0)
(0.4038236220141476 0 0)
(0.4042877988820121 0 0)
(0.4044988553746915 0 0)
(0.404835957838206 0 0)
(0.4139225566780541 0 0)
(0.4262586831199486 0 0)
(0.439807391117904 0 0)
(0.4502911240401932 0 0)
(0.4523261097374774 0 0)
(0.4485331213849794 0 0)
(0.4483469552145313 0 0)
(0.4397473479524535 0 0)
(0.4384693032442119 0 0)
(0.4380584591746248 0 0)
(0.4342227914473625 0 0)
(0.4470742824204488 0 0)
(0.457553145856693 0 0)
(0.4696800509722324 0 0)
(0.4790193580045489 0 0)
(0.4801588515418382 0 0)
(0.4822447525092846 0 0)
(0.4785788814034682 0 0)
(0.4741765534591068 0 0)
(0.4811249070406368 0 0)
(0.4801193632513872 0 0)
(0.4874296269440972 0 0)
(0.4923668397168929 0 0)
(0.4970536749477292 0 0)
(0.5020709135349503 0 0)
(0.499717827849967 0 0)
(0.4953525460368747 0 0)
(0.494991179976658 0 0)
(0.4945165517549495 0 0)
(0.5088693097742708 0 0)
(0.5086209353188627 0 0)
(0.5137892935136675 0 0)
(0.5216960846861783 0 0)
(0.5160013630547845 0 0)
(0.5234267769528057 0 0)
(0.5217514564402543 0 0)
(0.5272212683069516 0 0)
(0.5319238770470179 0 0)
(0.539033852446283 0 0)
(0.544901813118331 0 0)
(0.5550404179425013 0 0)
(0.5546365477062837 0 0)
(0.5495811164650164 0 0)
(0.5462001826684 0 0)
(0.5466043663166918 0 0)
(0.5479827816110447 0 0)
(0.5588815031387704 0 0)
(0.5720715726365101 0 0)
(0.5783114157716013 0 0)
(0.5825334399713792 0 0)
(0.5850522663413407 0 0)
(0.5813885628800428 0 0)
(0.5809146912827468 0 0)
(0.5748048842662891 0 0)
(0.5671811527696636 0 0)
(0.5679962350520747 0 0)
(0.5813263849757704 0 0)
(0.5877071457325947 0 0)
(0.6060684167832143 0 0)
(0.6095215385539715 0 0)
(0.6205757769041899 0 0)
(0.6163212063397202 0 0)
(0.6120234069579065 0 0)
(0.6077923099176954 0 0)
(0.6029027273890735 0 0)
(0.5966762809238048 0 0)
(0.5972870761517248 0 0)
(0.6100025593705539 0 0)
(0.6219458987069216 0 0)
(0.6316215928380234 0 0)
(0.6473433879884448 0 0)
(0.6541385129028826 0 0)
(0.6592372621988921 0 0)
(0.6491244312810978 0 0)
(0.6468230590413366 0 0)
(0.6365393866279843 0 0)
(0.6332928976945236 0 0)
(0.6384651523418324 0 0)
(0.6458815213615 0 0)
(0.6557634045418779 0 0)
(0.6631132410701993 0 0)
(0.6707641064612166 0 0)
(0.6820227847777336 0 0)
(0.6890607426541561 0 0)
(0.6901097574619792 0 0)
(0.6857752482175589 0 0)
(0.681698904187267 0 0)
(0.6849959002463827 0 0)
(0.6932076366328953 0 0)
(0.7008882491079906 0 0)
(0.7131313461065116 0 0)
(0.7177012027382648 0 0)
(0.7278072172701323 0 0)
(0.73264515352264 0 0)
(0.7345386003808521 0 0)
(0.7354911722513745 0 0)
(0.7286159573594275 0 0)
(0.7207700048052488 0 0)
(0.7267920315394737 0 0)
(0.7400548040055068 0 0)
(0.7497894650294973 0 0)
(0.7608621858687649 0 0)
(0.7675699271004615 0 0)
(0.7690500121808537 0 0)
(0.7779582729826194 0 0)
(0.7720151854952486 0 0)
(0.7653123883093762 0 0)
(0.7584456710387487 0 0)
(0.759332081502811 0 0)
(0.7608639995879156 0 0)
(0.7784395237690004 0 0)
(0.7852130541829446 0 0)
(0.7977088609565249 0 0)
(0.7966548764114121 0 0)
(0.806608058233771 0 0)
(0.8021552492962729 0 0)
(0.8012008271825152 0 0)
(0.7931973618508715 0 0)
(0.7925428527367606 0 0)
(0.7973923178530469 0 0)
(0.8088242403787719 0 0)
(0.8155279001451561 0 0)
(0.8259689594743446 0 0)
(0.829067248371857 0 0)
(0.8310042755291487 0 0)
(0.8329375396338248 0 0)
(0.8317675824892061 0 0)
(0.826253118493136 0 0)
(0.8273593307776159 0 0)
(0.8288439008424096 0 0)
(0.8358156274691463 0 0)
(0.8464921670677232 0 0)
(0.8516267436221824 0 0)
(0.8614716708304406 0 0)
(0.8643822524278129 0 0)
(0.8699995776442121 0 0)
(0.8794552283136119 0 0)
(0.8811584510293917 0 0)
(0.8868948577718503 0 0)
(0.8901184342556553 0 0)
(0.8968454994269086 0 0)
(0.8909988831959215 0 0)
(0.8955194930724935 0 0)
(0.8867096839692313 0 0)
(0.8938356505190053 0 0)
(0.9000659055046678 0 0)
(0.9147039983470344 0 0)
(0.9219912980505345 0 0)
(0.9352808803064139 0 0)
(0.9395368681866983 0 0)
(0.9482295528409826 0 0)
(0.9426519735169322 0 0)
(0.9427386387044884 0 0)
(0.9322781407303827 0 0)
(0.9263362265445847 0 0)
(0.926694527636526 0 0)
(0.9321121697207588 0 0)
(0.9430083355557969 0 0)
(0.9541403209463919 0 0)
(0.961638394416516 0 0)
(0.9723703954066285 0 0)
(0.9755118698490086 0 0)
(0.9742948004009413 0 0)
(0.9693661069074703 0 0)
(0.9665236964296219 0 0)
(0.9691747433471171 0 0)
(0.9717997351649846 0 0)
(0.98506703738585 0 0)
(0.9910028065062628 0 0)
(0.9996195306817396 0 0)
(1.00682521013306 0 0)
(1.01532081292406 0 0)
(1.011261879210613 0 0)
(1.011341200182887 0 0)
(1.013159334262985 0 0)
(1.014545650031087 0 0)
(1.024343853117371 0 0)
(1.03488725297974 0 0)
(1.042478196136079 0 0)
(1.050363060863276 0 0)
(1.060391308031895 0 0)
(1.064459314780428 0 0)
(1.062598216787637 0 0)
(1.053285477631057 0 0)
(1.051277667184906 0 0)
(1.051416116047725 0 0)
(1.054118895841368 0 0)
(1.062771212499696 0 0)
(1.071624684983744 0 0)
(1.082885510562739 0 0)
(1.092433640255598 0 0)
(1.0971298883201 0 0)
(1.099249568391005 0 0)
(1.091996999062386 0 0)
(1.092510331877324 0 0)
(1.090460979349059 0 0)
(1.089880010874103 0 0)
(1.092059010004193 0 0)
(1.098687368269643 0 0)
(1.10657749117222 0 0)
(1.115785026272294 0 0)
(1.122969113593145 0 0)
(1.121349211058624 0 0)
(1.123636310610271 0 0)
(1.122526659046566 0 0)
(1.125190354204201 0 0)
(1.1245533599891 0 0)
(1.129147471010916 0 0)
(1.124997482223919 0 0)
(1.134534176472887 0 0)
(1.13737225106366 0 0)
(1.142663942722131 0 0)
(1.143537444668321 0 0)
(1.142757898577938 0 0)
(1.146728594195107 0 0)
(1.151834867106912 0 0)
(1.157037405928222 0 0)
(1.158737183833425 0 0)
(1.163281505801916 0 0)
(1.171260770938228 0 0)
(1.172672038404267 0 0)
(1.178627954128241 0 0)
(1.173217180101414 0 0)
(1.171651430499205 0 0)
(1.177738469402472 0 0)
(1.18262209387 0 0)
(1.191035269323569 0 0)
(1.200927889020263 0 0)
(1.205031875782112 0 0)
(1.209878377377915 0 0)
(1.211823415404878 0 0)
(1.215041175320479 0 0)
(1.211314107900741 0 0)
(1.217338460022197 0 0)
(1.216270472791395 0 0)
(1.228797901044015 0 0)
(1.231075292743801 0 0)
(1.240621124661868 0 0)
(1.239891736241329 0 0)
(1.245709626754405 0 0)
(1.247865941557821 0 0)
(1.251196166653773 0 0)
(1.255305443932428 0 0)
(1.258409422468357 0 0)
(1.267558012937905 0 0)
(1.27049008557762 0 0)
(1.276718764680635 0 0)
(1.275238392383302 0 0)
(1.272839614825831 0 0)
(1.274769728497104 0 0)
(1.278765214383479 0 0)
(1.28796955131224 0 0)
(1.293212107166047 0 0)
(1.298458914327495 0 0)
(1.307673135397774 0 0)
(1.310747495911206 0 0)
(1.315767819489201 0 0)
(1.316902866581004 0 0)
(1.316388876404828 0 0)
(1.319839662831896 0 0)
(1.328232952518852 0 0)
(1.331212895967615 0 0)
(1.340787533843041 0 0)
(1.344207871617086 0 0)
(1.350080731951115 0 0)
(1.359338090867995 0 0)
(1.364926510757686 0 0)
(1.368783935348907 0 0)
(1.371526390355771 0 0)
(1.371574940776146 0 0)
(1.375668683694758 0 0)
(1.379556631272313 0 0)
(1.381227673680065 0 0)
(1.389931586576664 0 0)
(1.394447375459374 0 0)
(1.404649985354551 0 0)
(1.414445425448743 0 0)
(1.418436529111758 0 0)
(1.426649537242779 0 0)
(1.429284196376372 0 0)
(1.434618634410556 0 0)
(1.437826972725364 0 0)
(1.439455244915137 0 0)
(1.440425151892508 0 0)
(1.440771043909828 0 0)
(1.444234835345212 0 0)
(1.448179299917018 0 0)
(1.459925190407376 0 0)
(1.468325394443519 0 0)
(1.479008798680131 0 0)
(1.487889138045938 0 0)
(1.496001821143947 0 0)
(1.50119412708911 0 0)
(1.503016741829215 0 0)
(1.500977833281503 0 0)
(1.49739672496 0 0)
(1.495407088173299 0 0)
(1.496957507141337 0 0)
(1.498966566579257 0 0)
(1.509692126663825 0 0)
(1.518455070858466 0 0)
(1.527264710936186 0 0)
(1.535111042112574 0 0)
(1.539305943657582 0 0)
(1.543072003121108 0 0)
(1.539679128273565 0 0)
(1.540288481698516 0 0)
(1.537891242602406 0 0)
(1.539412361039945 0 0)
(1.545204570717057 0 0)
(1.551204786253775 0 0)
(1.55916153874416 0 0)
(1.565839047386579 0 0)
(1.572695482803274 0 0)
(1.578843384364682 0 0)
(1.582686520964909 0 0)
(1.585166287389924 0 0)
(1.586705973947909 0 0)
(1.58993714040214 0 0)
(1.593808640727814 0 0)
(1.601000400334786 0 0)
(1.606667856964215 0 0)
(1.612615694621013 0 0)
(1.620971097474793 0 0)
(1.627177173611756 0 0)
(1.632852132877407 0 0)
(1.632185372829716 0 0)
(1.635994451276388 0 0)
(1.639270079537278 0 0)
(1.647461132955174 0 0)
(1.659164037098496 0 0)
(1.670450435775886 0 0)
(1.679632531230964 0 0)
(1.689302361362607 0 0)
(1.693363465469043 0 0)
(1.696784233887817 0 0)
(1.696165830745615 0 0)
(1.694361794426418 0 0)
(1.695091923295834 0 0)
(1.698779762556004 0 0)
(1.704105443628992 0 0)
(1.716607570406594 0 0)
(1.728041781295685 0 0)
(1.73201622225104 0 0)
(1.744084637848186 0 0)
(1.746266789024819 0 0)
(1.7485266785742 0 0)
(1.747174072394913 0 0)
(1.747608030802519 0 0)
(1.747724920643923 0 0)
(1.751489197166175 0 0)
(1.759556114304656 0 0)
(1.768781694307607 0 0)
(1.776094372797284 0 0)
(1.785684918275858 0 0)
(1.793612455115971 0 0)
(1.791700087113688 0 0)
(1.794410757732174 0 0)
(1.793362030120768 0 0)
(1.79402810557436 0 0)
(1.79920342727617 0 0)
(1.806721719939165 0 0)
(1.813549533419602 0 0)
(1.824806999739131 0 0)
(1.83702216435376 0 0)
(1.84233299239741 0 0)
(1.846787159884772 0 0)
(1.848649478893688 0 0)
(1.848153972465744 0 0)
(1.871475379530104 0 0)
)
;

boundaryField
{
    inlet
    {
        type            calculated;
        value           uniform (0.03376740350957669 0 0);
    }
    outlet
    {
        type            calculated;
        value           uniform (1.871475379530104 0 0);
    }
    frontAndBack
    {
        type            empty;
    }
}


// ************************************************************************* //
