/*--------------------------------*- C++ -*----------------------------------*\
| =========                 |                                                 |
| \\      /  F ield         | OpenFOAM: The Open Source CFD Toolbox           |
|  \\    /   O peration     | Version:  v2012                                 |
|   \\  /    A nd           | Website:  www.openfoam.com                      |
|    \\/     M anipulation  |                                                 |
\*---------------------------------------------------------------------------*/
FoamFile
{
    version     2.0;
    format      ascii;
    class       volScalarField;
    location    "0.004";
    object      p;
}
// * * * * * * * * * * * * * * * * * * * * * * * * * * * * * * * * * * * * * //

dimensions      [1 -1 -2 0 0 0 0];


internalField   nonuniform List<scalar> 
1000
(
101303.8400172604
101309.4672246998
101304.6555825732
101294.6426700369
101292.0409338359
101286.4742682342
101281.9140050865
101281.6151675464
101276.5471152034
101276.2118456176
101276.4833994326
101276.4450934789
101277.7357792785
101279.5143118823
101280.8978320559
101286.1510856031
101289.5074877004
101294.7684159183
101301.3519903103
101306.3101907854
101313.0888579836
101319.5853505516
101326.1971416453
101333.0119979396
101339.3480714866
101345.9086580169
101351.7000318838
101357.1251982666
101362.2397018272
101366.3748736355
101371.754345828
101372.9136126329
101372.8640560691
101372.7344130911
101372.6471739508
101371.1369591029
101370.724775738
101368.3128144394
101364.9674972176
101362.2167564777
101356.3825905295
101351.5163911566
101345.22427087
101338.3757971443
101332.0568675461
101324.9987536022
101318.4136629239
101311.9390214498
101305.4958246791
101299.4396433019
101293.7273143707
101288.5150122603
101283.0832541059
101278.0821518362
101277.6019514291
101277.6139607199
101277.9980416717
101278.0582817957
101279.0056330943
101280.5834784792
101281.4979117959
101284.9723604748
101287.9290624684
101291.637905611
101297.7215641233
101302.5539306361
101309.4188724168
101316.242586289
101322.8864574661
101330.223016218
101336.7154433303
101343.2728176457
101349.4812227521
101355.2212301599
101360.5859125141
101366.6450139242
101371.6532482342
101371.796658648
101371.8613880608
101371.771575921
101371.0874409627
101370.9573479825
101369.2584341778
101367.5926704151
101366.3339806244
101361.7831107293
101359.0640805664
101354.605503994
101348.11391602
101343.2611113411
101335.8866212016
101328.9087276057
101322.124146942
101314.539766242
101307.9278648407
101301.2844353934
101295.0379832849
101289.7103256999
101282.6517832816
101278.7936257942
101278.684583805
101278.517556359
101278.9334082744
101279.213554483
101279.6760626496
101281.2274485614
101282.1936829988
101284.6055959008
101287.6099068895
101290.4732178571
101295.4175544273
101300.0419045218
101305.7680111408
101312.3815025392
101318.843448852
101326.2197350499
101333.2972846497
101340.4053524499
101347.3098356341
101353.7302026543
101359.5144000513
101366.8378387377
101370.7764176757
101371.0228969672
101371.0012387628
101370.666127496
101370.6844695322
101369.8371204281
101368.6636100881
101368.1130890274
101365.2720255474
101363.0394266234
101360.2782883425
101355.281226222
101351.326261565
101345.6457322418
101339.2865951101
101333.0867519223
101325.7217514152
101318.583637356
101311.2577815494
101304.0419502005
101297.0496635988
101290.7704567893
101282.4548598622
101279.3352148554
101279.3802150125
101279.27716585
101279.4698854237
101280.1375180883
101280.1228717653
101281.3981682908
101283.0228795011
101284.0450318917
101287.4452541731
101289.9461756676
101293.4229487847
101298.8582775975
101302.996449957
101309.3451153764
101315.8288117128
101322.1887006436
101329.777862282
101336.7625265732
101344.0089721806
101351.2488848178
101357.4856543225
101366.1710646328
101370.2346360926
101370.4785127676
101370.4001820727
101370.1817941697
101370.2170537697
101369.2331047337
101368.5525684606
101367.7374750117
101365.10666842
101363.8544174679
101360.6313749523
101356.6131196452
101353.3837506534
101347.5690591763
101342.2768328909
101336.3179522765
101329.0108046932
101322.349011861
101314.6767408238
101307.19284564
101299.7634899049
101292.6122224103
101283.4169353938
101279.9485591836
101279.8804326582
101280.0181734523
101280.0801653058
101280.3937038576
101281.1090533502
101281.7830949406
101282.8747513544
101284.7451665868
101286.9732347926
101288.9636072616
101293.1871044901
101296.7793239125
101300.9048837904
101307.4753461726
101312.4022959668
101319.0240123635
101326.5225833168
101333.0693186281
101340.8408393939
101348.4000624425
101355.1728433008
101364.3801135852
101369.6523509442
101369.7905511826
101369.6870824813
101369.6854240135
101369.3387560696
101368.7080940611
101368.5125934034
101366.8464277785
101365.4678172856
101364.1125810881
101360.5326491731
101358.2620567618
101354.4096982787
101349.2271181176
101345.0206213972
101338.624168325
101332.3554515104
101325.7014114985
101317.9711433377
101310.7825075374
101302.6910844635
101295.4087590283
101285.4824304963
101280.5400594135
101280.4582286857
101280.5652501829
101280.5829017667
101280.8705039745
101281.5269211806
101281.7837322167
101283.3794464933
101284.7726857339
101286.1383293213
101289.5411506854
101291.7716107004
101295.5293127942
101300.3554018025
101304.4004367068
101310.6083335537
101316.507624023
101322.8996588444
101330.4390882341
101337.4248606087
101345.2181329098
101352.6680930728
101361.316463061
101368.8617259484
101369.2401444219
101369.2511954787
101369.0476110129
101369.0042398277
101368.4414169279
101367.6900437944
101367.0878715672
101365.2700573509
101363.8053189435
101361.6486685719
101358.3136800911
101355.4500606612
101350.9850644638
101346.3281294532
101341.1450814038
101334.7904128073
101328.5322913952
101321.2825566668
101313.759096407
101306.0429856827
101298.2601897949
101289.1587840918
101281.3424336333
101280.9989667491
101281.0603926698
101281.0255151926
101281.4736871462
101281.8005553863
101282.2473230039
101283.6787736414
101284.5139708524
101286.4104863805
101288.8643777998
101291.0876023432
101294.9338319625
101298.5940604052
101303.0674448394
101308.52805797
101313.9251017614
101320.5014929085
101327.1741065561
101334.3636763659
101341.9620900791
101349.5066864575
101357.2726208903
101367.1577496025
101368.6732027786
101368.6338431277
101368.5673533657
101368.5703109692
101367.8917237662
101367.5898182401
101366.9084760859
101365.0665952158
101364.2610115417
101361.8283665741
101358.9503906508
101356.6370876483
101352.0497625385
101348.0459374483
101343.2895445335
101337.0110999453
101331.3271309144
101324.2719713208
101316.8329354797
101309.4728678143
101301.2914071532
101293.4255271291
101283.2064835832
101281.4993665723
101281.5167828064
101281.652077026
101281.6539613604
101282.1788646162
101282.7828455033
101283.2396138344
101284.9063963966
101286.2170252102
101288.172884521
101290.9214613326
101293.8532905781
101297.479625761
101301.670458996
101306.761878299
101311.8510546913
101317.9870798342
101324.6592962394
101331.1970539554
101338.8124238002
101346.4728381173
101353.463635461
101363.8277689563
101368.1261218633
101368.1448910421
101368.1055264349
101368.1106392133
101367.582385851
101367.3345855466
101366.6065033934
101365.2815646613
101364.2459325423
101361.9180289361
101359.9527365817
101356.9505944865
101353.1574171781
101349.7895153134
101344.3459681645
101339.3194406224
101333.6947380385
101326.5670218042
101320.0145660348
101312.4506273346
101304.3475839503
101297.1865486193
101286.4060333919
101282.1192190846
101282.0617025347
101282.1424886471
101282.2333431534
101282.464829923
101283.0439316684
101283.6084654318
101284.8572122021
101286.1929829509
101288.0165007887
101290.5161983979
101293.1433382559
101296.6679356474
101300.5553467858
101304.9879394176
101310.2191925644
101315.75613837
101321.985907613
101328.7281852049
101335.7575914113
101343.2697224381
101350.6100469029
101359.463720393
101367.0953550569
101367.6480581116
101367.6049117256
101367.4572291757
101367.4670683618
101366.7550838125
101366.1815415131
101365.6775605396
101363.6725871895
101362.5216861403
101360.2808641447
101357.227972243
101354.6074751213
101350.390689437
101346.0756174322
101341.2643533681
101335.3819855667
101329.3939830201
101322.5822750038
101315.3540603387
101307.7828291742
101300.1567212294
101291.1134294772
101283.0479600221
101282.6729753106
101282.7642682009
101282.6715548365
101283.0583093086
101283.1663843311
101284.2147945443
101284.9175913307
101285.9633594784
101288.2288030514
101289.7718363096
101292.6610137596
101295.7279481343
101299.2308715709
101303.7420981165
101308.1488229676
101313.9419659982
101319.6483983355
101325.9091656718
101333.2393321729
101340.0066323805
101347.6624771391
101355.1594382727
101364.8152715392
101367.1398346033
101367.1279787664
101367.0940159603
101366.8231061364
101366.787247073
101365.5936667833
101365.2303539191
101364.4119110844
101361.9731015107
101360.8261294316
101358.2963243967
101354.7862374226
101352.0427391422
101347.3741245247
101342.7739721318
101337.7316110252
101331.3587653532
101325.2838440256
101318.1229523275
101310.7449502786
101303.187318839
101295.554076463
101285.2400028725
101283.1532480796
101283.1224833384
101283.1834130697
101283.3277037635
101283.7827297271
101284.1696246046
101285.1695467233
101286.2632461079
101287.668564363
101289.842515489
101291.9397094691
101295.0372367437
101298.3540791819
101302.2287103234
101306.9313126682
101311.812573496
101317.5344980766
101323.6577302133
101330.2072431259
101337.2599416068
101344.6121805959
101351.599536846
101361.2947408335
101366.4441227552
101366.5131749759
101366.4742780108
101366.4200404489
101366.1119462289
101365.6737372187
101365.0760561466
101363.9009286242
101362.6788948396
101360.885374817
101358.547533774
101356.0013528814
101352.5717835706
101348.7958041462
101344.4277671425
101339.2527388098
101333.7671083029
101327.5290633316
101320.8184081091
101313.7596538246
101306.1258060452
101298.994268466
101288.8556366771
101283.8276530042
101283.7982643886
101283.7698634037
101283.8740207067
101284.1514576779
101284.5923828327
101285.1965487893
101286.29676132
101287.618868076
101289.2980194148
101291.6319837825
101294.1814144012
101297.457077813
101301.1323742326
101305.3518594651
101310.3087484213
101315.4339108789
101321.4604305095
101327.727044079
101334.3917798272
101341.5951887698
101348.7303862144
101356.2509666216
101365.4604060441
101366.4257260887
101366.5013251113
101366.4970409613
101366.1500524083
101365.9773011246
101365.4764155477
101364.4507994973
101363.8508058455
101362.1554562791
101360.4901580696
101358.6181631908
101355.7448716067
101353.1865045566
101349.6854746937
101345.9692183568
101342.1313887528
101337.5522724813
101333.5634863864
101327.4911995004
101325.0274856372
101325.0000003041
101324.9999999968
101324.999999997
101324.9999999969
101324.9999999969
101324.9999999978
101324.9999999983
101324.9999999983
101324.9999999986
101324.9999999995
101324.9999999998
101324.9999999999
101325.0000000002
101325
101325.0000000002
101324.9999999999
101325.0000000003
101325.0000000001
101325.0000000001
101325.0000000002
101325.0000000001
101325
101325.0000000001
101325.0000000002
101324.9999999999
101325.0000000001
101325.0000000001
101325.0000000001
101324.9999999999
101325.0000000003
101324.9999999998
101325.0000000002
101325
101325.0000000001
101325
101325.0000000002
101324.9999999999
101325.0000000002
101325
101325
101325
101325.0000000001
101324.9999999998
101325.0000000001
101325
101325.0000000001
101324.9999999998
101325.0000000001
101325
101325
101325
101324.9999999999
101325
101324.9999999998
101325
101324.9999999999
101324.9999999999
101324.9999999998
101324.9999999999
101325
101324.9999999997
101325.0000000001
101324.9999999996
101325.0000000001
101324.9999999997
101324.9999999999
101324.9999999998
101324.9999999999
101324.9999999998
101324.9999999998
101324.9999999998
101324.9999999998
101324.9999999997
101325
101324.9999999997
101324.9999999998
101324.9999999997
101324.9999999998
101324.9999999997
101324.9999999997
101324.9999999999
101324.9999999998
101324.9999999998
101324.9999999999
101324.9999999997
101324.9999999998
101324.9999999999
101324.9999999998
101324.9999999998
101324.9999999998
101324.9999999998
101324.9999999997
101325
101324.9999999997
101324.9999999999
101325
101324.9999999997
101324.9999999998
101325
101324.9999999996
101325
101324.9999999998
101324.9999999999
101324.9999999998
101324.9999999999
101324.9999999998
101324.9999999999
101324.9999999997
101324.9999999998
101324.9999999999
101324.9999999998
101324.9999999998
101324.9999999999
101324.9999999997
101324.9999999998
101324.9999999998
101324.9999999997
101324.9999999999
101324.9999999998
101324.9999999999
101324.9999999997
101324.9999999998
101324.9999999998
101324.9999999998
101324.9999999997
101324.9999999998
101324.9999999999
101324.9999999997
101324.9999999999
101324.9999999997
101324.9999999997
101324.9999999998
101324.9999999998
101324.9999999998
101324.9999999998
101324.9999999998
101324.9999999998
101324.9999999996
101324.9999999999
101324.9999999996
101324.9999999998
101324.9999999998
101324.9999999997
101324.9999999997
101324.9999999997
101324.9999999997
101324.9999999997
101324.9999999998
101324.9999999998
101324.9999999997
101324.9999999998
101324.9999999997
101324.9999999997
101325
101324.9999999996
101324.9999999998
101324.9999999998
101324.9999999997
101324.9999999998
101324.9999999998
101324.9999999997
101324.9999999998
101324.9999999997
101324.9999999997
101324.9999999998
101324.9999999997
101324.9999999998
101324.9999999998
101324.9999999998
101324.9999999999
101324.9999999999
101324.9999999997
101324.9999999998
101324.9999999998
101324.9999999997
101324.9999999999
101324.9999999996
101324.9999999998
101324.9999999999
101324.9999999998
101324.9999999998
101324.9999999999
101324.9999999998
101324.9999999997
101324.9999999999
101324.9999999998
101324.9999999999
101324.9999999999
101324.9999999998
101324.9999999999
101324.9999999997
101324.9999999999
101324.9999999998
101324.9999999998
101324.9999999998
101324.9999999999
101324.9999999998
101324.9999999999
101324.9999999998
101324.9999999998
101324.9999999998
101324.9999999999
101325
101324.9999999999
101324.9999999998
101325
101324.9999999998
101324.9999999999
101324.9999999998
101324.9999999999
101325.0000000001
101324.9999999998
101324.9999999999
101325
101324.9999999998
101325
101324.9999999999
101324.9999999998
101324.9999999999
101325
101325
101324.9999999999
101325
101325
101325.0000000001
101325
101324.9999999999
101325
101325.0000000001
101325
101325
101324.9999999999
101325.0000000001
101325
101325.0000000001
101325
101325.0000000002
101324.9999999999
101325.0000000001
101325
101325.0000000002
101325.0000000001
101325
101325.0000000001
101325
101325.0000000002
101325
101325.0000000002
101325.0000000001
101325.0000000001
101325.0000000001
101325
101325.0000000001
101325.0000000001
101325.0000000002
101325
101325.0000000002
101325.0000000001
101325.0000000001
101325.0000000001
101325.0000000002
101325.0000000001
101325.0000000001
101325.0000000002
101325.0000000001
101325.0000000002
101325.0000000001
101325.0000000001
101325.0000000001
101325.0000000002
101325.0000000001
101325
101325.0000000002
101325.0000000001
101325.0000000002
101325.0000000001
101325.0000000001
101325.0000000003
101325.0000000002
101325
101325.0000000002
101325.0000000002
101325.0000000002
101325.0000000002
101325.0000000002
101325.0000000003
101325.0000000002
101325.0000000002
101325.0000000003
101325.0000000002
101325.0000000003
101325.0000000002
101325.0000000002
101325.0000000002
101325.0000000002
101325.0000000004
101325.0000000003
101325.0000000002
101325.0000000002
101325.0000000003
101325.0000000002
101325.0000000004
101325.0000000002
101325.0000000003
101325.0000000002
101325.0000000003
101325.0000000002
101325.0000000001
101325.0000000004
101325
101325.0000000002
101325.0000000003
101325.0000000001
101325.0000000001
101325.0000000003
101325.0000000002
101325.0000000002
101325.0000000002
101325.0000000002
101325.0000000001
101325.0000000002
101325.0000000002
101325.0000000002
101325.0000000002
101325.0000000003
101325.0000000002
101325.0000000004
101325.0000000001
101325.0000000002
101325.0000000003
101325.0000000002
101325.0000000004
101325.0000000002
101325.0000000003
101325.0000000003
101325.0000000002
101325.0000000004
101325.0000000002
101325.0000000005
101325.0000000002
101325.0000000002
101325.0000000004
101325.0000000003
101325.0000000002
101325.0000000003
101325.0000000004
101325.0000000002
101325.0000000005
101325.0000000003
101325.0000000003
101325.0000000004
101325.0000000003
101325.0000000005
101325.0000000003
101325.0000000003
101325.0000000004
101325.0000000003
101325.0000000003
101325.0000000003
101325.0000000004
101325.0000000004
101325.0000000003
101325.0000000004
101325.0000000004
101325.0000000003
101325.0000000003
101325.0000000004
101325.0000000002
101325.0000000004
101325.0000000003
101325.0000000003
101325.0000000003
101325.0000000002
101325.0000000003
101325.0000000002
101325.0000000002
101325.0000000003
101325.0000000002
101325.0000000002
101325.0000000003
101325.0000000003
101325.0000000003
101325.0000000001
101325.0000000004
101325.0000000002
101325.0000000002
101325.0000000003
101325.0000000002
101325.0000000001
101325.0000000002
101325.0000000002
101325.0000000002
101325.0000000002
101325.0000000002
101325.0000000002
101325.0000000002
101325.0000000001
101325.0000000002
101325.0000000003
101325.0000000001
101325.0000000004
101325.0000000001
101325.0000000003
101325.0000000001
101325.0000000003
101325.0000000001
101325.0000000003
101325.0000000002
101325.0000000002
101325.0000000003
101325.0000000003
101325.0000000003
101325.0000000004
101325.0000000004
101325.0000000003
101325.0000000005
101325.0000000004
101325.0000000005
101325.0000000005
101325.0000000005
101325.0000000005
101325.0000000006
101325.0000000005
101325.0000000006
101325.0000000005
101325.0000000006
101325.0000000005
101325.0000000005
101325.0000000005
101325.0000000005
101325.0000000005
101325.0000000005
101325.0000000005
101325.0000000005
101325.0000000005
101325.0000000005
101325.0000000006
101325.0000000005
101325.0000000006
101325.0000000006
101325.0000000005
)
;

boundaryField
{
    inlet
    {
        type            uniformFixedValue;
        uniformValue    sine;
        uniformValueCoeffs
        {
            frequency       constant 3000;
            scale           constant 50;
            level           constant 101325;
        }
        value           uniform 101312.8819131453;
    }
    outlet
    {
        type            waveTransmissive;
        gamma           1.4;
        fieldInf        101325;
        lInf            2.25;
        value           uniform 101325.0000000005;
    }
    frontAndBack
    {
        type            empty;
    }
}


// ************************************************************************* //
