/*--------------------------------*- C++ -*----------------------------------*\
| =========                 |                                                 |
| \\      /  F ield         | OpenFOAM: The Open Source CFD Toolbox           |
|  \\    /   O peration     | Version:  v2012                                 |
|   \\  /    A nd           | Website:  www.openfoam.com                      |
|    \\/     M anipulation  |                                                 |
\*---------------------------------------------------------------------------*/
FoamFile
{
    version     2.0;
    format      ascii;
    class       volScalarField;
    location    "0.004";
    object      rho;
}
// * * * * * * * * * * * * * * * * * * * * * * * * * * * * * * * * * * * * * //

dimensions      [1 -3 0 0 0 0 0];


internalField   nonuniform List<scalar> 
1000
(
1.176234363778025
1.176285878755689
1.176248778389293
1.176165394501187
1.176141886607744
1.176093604266458
1.176054766443709
1.17605165971911
1.176009937245651
1.176007187245856
1.176009389711494
1.176008884859669
1.176019428250054
1.176034156041508
1.176045701275143
1.176089392653493
1.176117317998609
1.176161008259107
1.176215644376139
1.176256788745195
1.176313010945038
1.176366877928237
1.176421688506437
1.176478176382246
1.176530695234177
1.176585079173658
1.176633089975756
1.17667806827918
1.176720473056877
1.176754757251712
1.176799362652822
1.176808976550843
1.176808565024695
1.176807495310856
1.176806773530885
1.176794252177094
1.176790834424499
1.176770836293985
1.176743099605476
1.17672029292589
1.176671920841447
1.176631574244334
1.176579404377547
1.176522620442636
1.176470226554843
1.176411702227744
1.176357099029574
1.176303410616245
1.176249981816806
1.17619976140601
1.176152391550488
1.176109167493668
1.176064123104888
1.176022649122147
1.1760186668335
1.176018766430526
1.176021951609757
1.176022451153888
1.176030307496944
1.176043392425602
1.176050975796807
1.176079788849402
1.176104308123942
1.176135064744956
1.176185513788251
1.176225586273912
1.176282512593542
1.176339095886741
1.176394187076756
1.17645502052226
1.176508853700811
1.176563224325222
1.176614700492696
1.17666229226071
1.176706771388891
1.176757007356646
1.17679852964489
1.176799718637769
1.176800255290237
1.176799510688872
1.176793838684506
1.176792760120216
1.176778674737295
1.176764864124539
1.176754428644412
1.176716697355625
1.176694153852578
1.176657187480701
1.176603363700331
1.176563127577452
1.176501981639132
1.176444122921458
1.176387866286873
1.176324976148105
1.176270148967882
1.176215059198269
1.176163260342811
1.1761190801024
1.176060544958671
1.176028549452762
1.176027645167672
1.176026260019377
1.176029708659063
1.176032031896774
1.176035867470476
1.176048732978014
1.17605674588807
1.176076747562585
1.176101661630758
1.176125406439768
1.176166407920401
1.176204755510921
1.17625223879568
1.17630707947277
1.176360662748934
1.176421826402401
1.176480511808396
1.176539449093889
1.176596697092532
1.176649930137792
1.176697887819229
1.176758606190351
1.17679126024047
1.176793303740202
1.176793124165179
1.17679034580167
1.176790497840755
1.176783472609832
1.176773743197205
1.176769178951426
1.176745623910226
1.176727113503518
1.176704221040594
1.176662789651252
1.176629998340199
1.17658289928363
1.176530172583552
1.176478766057332
1.176417697048464
1.176358508182443
1.176297761410744
1.176237925549793
1.176179942196384
1.176127871519821
1.176058911693107
1.176033040667657
1.176033413831135
1.176032559220408
1.176034157401576
1.176039694023378
1.176039572550019
1.176050148484444
1.176063621998004
1.176072098628163
1.176100295909662
1.176121035412482
1.176149867311
1.176194939857352
1.176229255672614
1.17628190084434
1.176335664673171
1.176388401247308
1.17645132935259
1.176509244085763
1.176569328082982
1.176629356594492
1.176681067171104
1.176753077745986
1.17678676813254
1.176788790065691
1.176788140637004
1.176786330002803
1.17678662231957
1.176778464549967
1.176772822304625
1.17676606450576
1.17674425263684
1.176733870340205
1.176707148113647
1.176673832260391
1.176647057246143
1.17659884588014
1.176554965883434
1.176505557797587
1.176444968940461
1.176389730389775
1.176326111728943
1.17626405358718
1.176202446429471
1.176143144621421
1.17606688991866
1.17603812695226
1.176037561974553
1.17603870423212
1.176039218311687
1.17604181845029
1.176047750763179
1.176053340544752
1.176062393507941
1.176077904556997
1.176096381490367
1.176112887241631
1.176147911216518
1.17617770004297
1.176211911521494
1.176266395879027
1.17630725152149
1.17636215963437
1.176424337044813
1.176478621343989
1.176543059556497
1.176605736129483
1.176661891357024
1.176738229201409
1.176781940535123
1.176783086330136
1.176782228476963
1.176782214708628
1.176779340536015
1.176774111812428
1.176772490950798
1.176758676950815
1.176747247000356
1.176736010900278
1.176706329537741
1.176687503964487
1.176655563640905
1.176612593378596
1.17657771605035
1.17652467992454
1.176472702012631
1.176417528303469
1.176353429222172
1.176293820228326
1.17622672353171
1.176166335325734
1.176084019018602
1.176043032409387
1.176042353793319
1.17604324130624
1.17604338767512
1.176045772732532
1.176051216334421
1.176053346049448
1.176066579098363
1.176078132999395
1.176089458112913
1.176117676773062
1.176136173349507
1.176167334625869
1.176207354904237
1.176240898244003
1.176292375849571
1.176341293659987
1.176394296632763
1.176456812243531
1.176514736166906
1.176579354090758
1.176641123947886
1.176712829067263
1.176775385884225
1.176778523304615
1.176778614931631
1.176776927034168
1.176776567446915
1.176771901168185
1.176765671632317
1.176760679118559
1.176745607764086
1.176733463693867
1.176715582985232
1.176687932324749
1.176664189774734
1.176627169512301
1.176588557362674
1.176545582572208
1.176492892298634
1.176441001837472
1.176380887928064
1.176318502985276
1.176254519303921
1.17618998104764
1.176114506942693
1.176049686881396
1.176046838559957
1.176047347954808
1.176047058711441
1.176050775352238
1.176053486026404
1.176057191028345
1.176069061833613
1.176075988007601
1.176091715475785
1.17611206496815
1.176130501606979
1.176162396931472
1.176192749566056
1.176229844980117
1.176275126134621
1.176319879676202
1.176374411525593
1.176429740229321
1.176489354505872
1.176552357245032
1.17661491228831
1.176679302096099
1.176761258985865
1.176773823444453
1.176773497115858
1.176772945857646
1.176772970376334
1.176767344295854
1.176764841231337
1.17675919232316
1.17674392140568
1.176737242395968
1.176717073386217
1.176693211890067
1.176674032199629
1.176635997707119
1.176602800851901
1.176563363905152
1.17651130587443
1.176464176509636
1.176405676465963
1.176343992177965
1.176282961479989
1.176215117664116
1.176149890543706
1.17606514581442
1.176050988920567
1.176051133353514
1.176052255338833
1.176052270965726
1.176056623932651
1.176061632671906
1.176065420620595
1.176079242957604
1.176090111763325
1.176106331300677
1.17612912441477
1.176153437078518
1.176183508764941
1.176218261197091
1.176260481094608
1.17630268193439
1.176353562620693
1.176408888345873
1.176463098498127
1.176526242312452
1.176589758236226
1.176647721714396
1.176733651149816
1.17676928831955
1.176769443931871
1.176769117564478
1.17676915995261
1.176764780268413
1.176762725785396
1.176756689357382
1.176745704377396
1.176737118035233
1.176717817407315
1.17670152311907
1.176676632113256
1.176645182168754
1.176617258222974
1.176572123703427
1.17653044636117
1.176483808761007
1.176424707271325
1.176370375089763
1.176307654239611
1.176240461385928
1.176181079664866
1.176091679911889
1.176056129948439
1.176055652977498
1.176056322933438
1.176057076381231
1.176058996078278
1.176063798494622
1.176068480105538
1.17607883575945
1.176089913051455
1.176105035089197
1.176125764366054
1.176147550385708
1.176176778426415
1.176209014815014
1.176245771732111
1.176289150801025
1.176335064131863
1.176386721589447
1.176442627710695
1.176500913614683
1.176563200801433
1.176624062049733
1.176697469781846
1.176760743037579
1.176765325456518
1.176764967735346
1.176763743317697
1.176763824892467
1.176757921901972
1.176753166709441
1.176748988279249
1.176732365108122
1.176722823037503
1.176704244367372
1.176678932500925
1.176657205662327
1.176622243286667
1.1765864655926
1.176546573405059
1.176497799332889
1.176448148673879
1.176391667005103
1.176331730548472
1.176268948525423
1.176205709903532
1.176130718185348
1.176063832546349
1.176060722872701
1.176061479956362
1.176060711108654
1.176063918411187
1.176064814666345
1.176073508962991
1.176079337134473
1.176088009542045
1.176106796289789
1.176119592293775
1.176143551331077
1.176168984188716
1.176198032351854
1.17623544136721
1.17627198350271
1.176320021422836
1.176367339654322
1.176419253616244
1.17648003364256
1.176536145593465
1.176599623403579
1.176661783339139
1.176741839731789
1.176761112495692
1.176761014203214
1.176760732629654
1.176758486558271
1.176758189266174
1.176748293376267
1.176745281177822
1.176738495556511
1.17671827535254
1.176708765818889
1.176687791105045
1.176658688399051
1.176635941618558
1.176597232700309
1.176559090954219
1.176517282296942
1.176464440762178
1.17641406880705
1.176354691139403
1.176293511768608
1.176230841501905
1.176167543748086
1.176082011509497
1.176064706404177
1.176064451274388
1.176064956555499
1.176066153136672
1.176069926596383
1.176073135060312
1.176081427246843
1.176090497078637
1.176102151094573
1.176120179067278
1.17613757046858
1.17616325708321
1.176190762165717
1.176222892456182
1.176261888111668
1.176302364813576
1.176349811753542
1.176400585530659
1.176454893150969
1.176513371796671
1.176574332935438
1.176632267842344
1.17671265190536
1.176755345066055
1.176755917573399
1.176755595082379
1.176755145401225
1.17675259102292
1.176748957868881
1.176744002545455
1.176734259615775
1.176724127763918
1.176709257671992
1.176689874470743
1.176668763810097
1.176640328595987
1.176609020928448
1.176572803980768
1.176529895313389
1.176484410689044
1.176432686439363
1.17637704246142
1.176318510835718
1.176255209142125
1.176196071999517
1.176111995942091
1.176070299758821
1.176070056050572
1.176069820527307
1.176070684290367
1.17607298503
1.176076641548091
1.17608165179289
1.176090775636737
1.176101739566559
1.176115664352022
1.176135019197126
1.176156160715874
1.176183324397651
1.176213801758837
1.176248791435803
1.176289895352141
1.176332394153994
1.176382366279522
1.176434328346122
1.176489590764563
1.176549318357689
1.176608479027752
1.176670834626186
1.176747189740339
1.176755193161415
1.176755819945882
1.176755784426211
1.176752907574139
1.176751475306698
1.176747322509401
1.176738819172185
1.176733844669
1.17671978854386
1.176705981501044
1.17669046071257
1.176666637852723
1.176645425999153
1.176616398051133
1.176585585309614
1.17655376423911
1.176515796267228
1.176482722953195
1.176432372870797
1.176411944078851
1.176411716174713
1.176411716172165
1.176411716172167
1.176411716172167
1.176411716172166
1.176411716172173
1.176411716172178
1.176411716172178
1.176411716172181
1.176411716172187
1.176411716172191
1.176411716172191
1.176411716172193
1.176411716172193
1.176411716172193
1.176411716172191
1.176411716172195
1.176411716172193
1.176411716172193
1.176411716172194
1.176411716172193
1.176411716172192
1.176411716172193
1.176411716172194
1.176411716172192
1.176411716172194
1.176411716172193
1.176411716172194
1.176411716172192
1.176411716172195
1.176411716172191
1.176411716172195
1.176411716172192
1.176411716172193
1.176411716172192
1.176411716172195
1.176411716172191
1.176411716172194
1.176411716172193
1.176411716172192
1.176411716172193
1.176411716172193
1.176411716172191
1.176411716172194
1.176411716172193
1.176411716172193
1.176411716172192
1.176411716172193
1.176411716172192
1.176411716172192
1.176411716172193
1.176411716172192
1.176411716172193
1.176411716172191
1.176411716172192
1.176411716172192
1.176411716172192
1.176411716172191
1.176411716172192
1.176411716172192
1.176411716172191
1.176411716172193
1.176411716172189
1.176411716172193
1.17641171617219
1.176411716172192
1.176411716172191
1.176411716172191
1.176411716172191
1.176411716172191
1.176411716172191
1.176411716172191
1.17641171617219
1.176411716172193
1.17641171617219
1.176411716172191
1.176411716172191
1.176411716172191
1.17641171617219
1.17641171617219
1.176411716172191
1.176411716172191
1.176411716172191
1.176411716172192
1.17641171617219
1.176411716172191
1.176411716172192
1.17641171617219
1.176411716172191
1.176411716172191
1.176411716172191
1.17641171617219
1.176411716172192
1.17641171617219
1.176411716172191
1.176411716172193
1.17641171617219
1.176411716172191
1.176411716172192
1.17641171617219
1.176411716172193
1.176411716172191
1.176411716172192
1.176411716172191
1.176411716172192
1.176411716172191
1.176411716172193
1.17641171617219
1.176411716172191
1.176411716172192
1.176411716172192
1.176411716172191
1.176411716172192
1.17641171617219
1.176411716172192
1.176411716172191
1.17641171617219
1.176411716172191
1.176411716172191
1.176411716172191
1.176411716172191
1.176411716172191
1.176411716172191
1.176411716172191
1.17641171617219
1.176411716172191
1.176411716172192
1.176411716172191
1.176411716172192
1.17641171617219
1.176411716172191
1.176411716172191
1.176411716172191
1.176411716172191
1.176411716172191
1.176411716172191
1.176411716172191
1.17641171617219
1.176411716172192
1.176411716172189
1.176411716172191
1.176411716172191
1.17641171617219
1.17641171617219
1.17641171617219
1.17641171617219
1.17641171617219
1.176411716172191
1.176411716172191
1.17641171617219
1.17641171617219
1.17641171617219
1.17641171617219
1.176411716172192
1.176411716172189
1.176411716172191
1.176411716172191
1.17641171617219
1.176411716172191
1.176411716172191
1.17641171617219
1.176411716172191
1.176411716172191
1.17641171617219
1.176411716172191
1.17641171617219
1.176411716172191
1.176411716172191
1.176411716172191
1.176411716172191
1.176411716172192
1.17641171617219
1.176411716172191
1.176411716172191
1.17641171617219
1.176411716172192
1.176411716172189
1.176411716172191
1.176411716172192
1.176411716172191
1.176411716172191
1.176411716172192
1.176411716172191
1.17641171617219
1.176411716172192
1.176411716172191
1.176411716172191
1.176411716172192
1.176411716172191
1.176411716172191
1.17641171617219
1.176411716172192
1.176411716172191
1.176411716172191
1.176411716172191
1.176411716172192
1.176411716172191
1.176411716172192
1.176411716172191
1.176411716172191
1.176411716172191
1.176411716172192
1.176411716172192
1.176411716172192
1.176411716172191
1.176411716172193
1.176411716172191
1.176411716172192
1.176411716172191
1.176411716172193
1.176411716172193
1.176411716172191
1.176411716172192
1.176411716172193
1.176411716172191
1.176411716172193
1.176411716172193
1.176411716172192
1.176411716172192
1.176411716172193
1.176411716172193
1.176411716172192
1.176411716172193
1.176411716172193
1.176411716172193
1.176411716172193
1.176411716172192
1.176411716172192
1.176411716172193
1.176411716172193
1.176411716172193
1.176411716172192
1.176411716172193
1.176411716172193
1.176411716172193
1.176411716172192
1.176411716172194
1.176411716172192
1.176411716172193
1.176411716172192
1.176411716172194
1.176411716172193
1.176411716172192
1.176411716172193
1.176411716172192
1.176411716172194
1.176411716172193
1.176411716172194
1.176411716172193
1.176411716172193
1.176411716172193
1.176411716172193
1.176411716172193
1.176411716172193
1.176411716172194
1.176411716172193
1.176411716172194
1.176411716172193
1.176411716172193
1.176411716172193
1.176411716172195
1.176411716172193
1.176411716172193
1.176411716172194
1.176411716172194
1.176411716172194
1.176411716172193
1.176411716172194
1.176411716172193
1.176411716172195
1.176411716172193
1.176411716172193
1.176411716172194
1.176411716172194
1.176411716172194
1.176411716172194
1.176411716172194
1.176411716172195
1.176411716172195
1.176411716172193
1.176411716172194
1.176411716172195
1.176411716172195
1.176411716172195
1.176411716172195
1.176411716172195
1.176411716172195
1.176411716172195
1.176411716172196
1.176411716172195
1.176411716172195
1.176411716172195
1.176411716172195
1.176411716172195
1.176411716172195
1.176411716172196
1.176411716172195
1.176411716172195
1.176411716172195
1.176411716172195
1.176411716172194
1.176411716172196
1.176411716172195
1.176411716172195
1.176411716172194
1.176411716172196
1.176411716172195
1.176411716172194
1.176411716172196
1.176411716172193
1.176411716172195
1.176411716172195
1.176411716172194
1.176411716172194
1.176411716172195
1.176411716172195
1.176411716172195
1.176411716172194
1.176411716172194
1.176411716172194
1.176411716172195
1.176411716172195
1.176411716172195
1.176411716172194
1.176411716172195
1.176411716172194
1.176411716172196
1.176411716172193
1.176411716172195
1.176411716172195
1.176411716172195
1.176411716172196
1.176411716172195
1.176411716172195
1.176411716172195
1.176411716172194
1.176411716172196
1.176411716172194
1.176411716172196
1.176411716172195
1.176411716172194
1.176411716172196
1.176411716172195
1.176411716172195
1.176411716172195
1.176411716172196
1.176411716172195
1.176411716172196
1.176411716172195
1.176411716172195
1.176411716172196
1.176411716172195
1.176411716172197
1.176411716172195
1.176411716172196
1.176411716172197
1.176411716172195
1.176411716172196
1.176411716172195
1.176411716172196
1.176411716172196
1.176411716172195
1.176411716172196
1.176411716172196
1.176411716172195
1.176411716172195
1.176411716172196
1.176411716172194
1.176411716172196
1.176411716172195
1.176411716172195
1.176411716172196
1.176411716172194
1.176411716172195
1.176411716172195
1.176411716172195
1.176411716172195
1.176411716172195
1.176411716172195
1.176411716172195
1.176411716172195
1.176411716172196
1.176411716172193
1.176411716172196
1.176411716172195
1.176411716172194
1.176411716172196
1.176411716172195
1.176411716172194
1.176411716172195
1.176411716172195
1.176411716172195
1.176411716172195
1.176411716172195
1.176411716172195
1.176411716172195
1.176411716172194
1.176411716172195
1.176411716172196
1.176411716172194
1.176411716172196
1.176411716172193
1.176411716172195
1.176411716172194
1.176411716172196
1.176411716172194
1.176411716172195
1.176411716172195
1.176411716172195
1.176411716172195
1.176411716172195
1.176411716172195
1.176411716172196
1.176411716172196
1.176411716172195
1.176411716172197
1.176411716172196
1.176411716172197
1.176411716172197
1.176411716172197
1.176411716172197
1.176411716172197
1.176411716172197
1.176411716172197
1.176411716172198
1.176411716172198
1.176411716172197
1.176411716172197
1.176411716172197
1.176411716172197
1.176411716172197
1.176411716172197
1.176411716172197
1.176411716172197
1.176411716172197
1.176411716172197
1.176411716172198
1.176411716172197
1.176411716172197
1.176411716172198
1.176411716172197
)
;

boundaryField
{
    inlet
    {
        type            calculated;
        value           uniform 1.176271021779363;
    }
    outlet
    {
        type            calculated;
        value           uniform 1.176411716172199;
    }
    frontAndBack
    {
        type            empty;
    }
}


// ************************************************************************* //
