/*--------------------------------*- C++ -*----------------------------------*\
| =========                 |                                                 |
| \\      /  F ield         | OpenFOAM: The Open Source CFD Toolbox           |
|  \\    /   O peration     | Version:  v2012                                 |
|   \\  /    A nd           | Website:  www.openfoam.com                      |
|    \\/     M anipulation  |                                                 |
\*---------------------------------------------------------------------------*/
FoamFile
{
    version     2.0;
    format      ascii;
    class       volScalarField;
    location    "0.004";
    object      T;
}
// * * * * * * * * * * * * * * * * * * * * * * * * * * * * * * * * * * * * * //

dimensions      [0 0 0 1 0 0 0];


internalField   nonuniform List<scalar> 
1000
(
299.9825746588742
299.9860996881416
299.9813134890379
299.9729284353388
299.9712191731717
299.9670478617546
299.9634479325879
299.9633552729541
299.9589869082293
299.9586953410724
299.9589378528312
299.9589531690008
299.960086639288
299.9615976747855
299.9627505131846
299.9671649215344
299.9699826206991
299.9744195044797
299.9799811606467
299.9841701635358
299.9899040958669
299.9954026186049
300.0010013798505
300.0067730972262
300.0121389299333
300.0176933381364
300.0225952512597
300.0271859754147
300.0315129680637
300.0350114141548
300.0395610197857
300.0405410210158
300.0404992681244
300.0403882899521
300.0403141077351
300.0390366587064
300.0386880749217
300.036647871706
300.0338180282248
300.0314909784594
300.0265552414952
300.0224381226737
300.0171143386469
300.0113195848725
300.0059725690244
299.999999865715
299.9944271817084
299.9889477304994
299.9834946821055
299.978368940692
299.9735340305586
299.9691221829029
299.9645243505381
299.9602909820695
299.9598844833954
299.9598946484197
299.9602197786601
299.9602707794396
299.961072726142
299.9624083904826
299.9631824402819
299.9661235184825
299.9686262646115
299.9717655230271
299.976914886527
299.9810048496091
299.9868149812514
299.9925899560419
299.998212403486
300.00442082407
300.0099146027637
300.0154631027391
300.0207160984863
300.0255725584043
300.0301112973792
300.0352372986255
300.0394741773034
300.0395954942596
300.0396502537743
300.0395742736955
300.0389955198629
300.038885463553
300.0374482371549
300.0360390392602
300.0349741590503
300.0311241608696
300.0288237681538
300.0250515386952
300.0195592328292
300.0154531175388
300.0092132263919
300.0033086168986
299.9975672369046
299.9911488162106
299.985553042937
299.9799303554626
299.9746434175747
299.9701339009627
299.9641591207717
299.9608932283945
299.9608009242075
299.9606595323989
299.9610115566994
299.9612487034046
299.9616402148043
299.9629534674763
299.9637713700295
299.9658130039634
299.9683560661538
299.9707796700361
299.9749647027367
299.9788787185518
299.9837250680444
299.9893222776961
299.9947909176581
300.0010331080998
300.007022174019
300.0130367617306
300.0188788237968
300.0243109924755
300.0292046671952
300.0354003895315
300.038732358014
300.038940873032
300.0389225538804
300.0386390678767
300.0386545925243
300.0379377677802
300.0369450174524
300.0364792770989
300.0340757908548
300.0321870118634
300.0298509943838
300.0256233303494
300.0222771283159
300.0174708403792
300.0120902054126
300.0068440444499
300.0006117369109
299.9945710980944
299.988371246553
299.9822642454723
299.9763461493866
299.9710312211425
299.963992479685
299.961351728705
299.9613898268732
299.9613026025053
299.9614657491379
299.9620309066343
299.9620185116585
299.9630980461042
299.9644733536807
299.9653385685132
299.9682167700605
299.9703336684025
299.9732764732889
299.9778770278079
299.9813794212999
299.9867525937457
299.9922398237715
299.9976219460075
300.0040441476643
300.0099544456698
300.0160859870527
300.0222117111789
300.0274883085852
300.0348363787815
300.0382741063051
300.0384804183319
300.0384141542245
300.0382294106968
300.0382592427432
300.0374268563089
300.0368511458494
300.0361615861211
300.0339359779193
300.0328765588649
300.0301498122581
300.0267502623173
300.0240179698743
300.0190982873781
300.0146204403599
300.0095782752433
300.003395093191
299.9977576475512
299.9912647957945
299.9849310672235
299.9786431588379
299.9725901613585
299.9648068974535
299.9618709645785
299.961813297492
299.9619299000694
299.9619823800804
299.9622477945131
299.9628533419191
299.9634239085893
299.9643479866547
299.9659312594738
299.9678172433579
299.9695019803458
299.9730769324979
299.9761174229592
299.9796091800355
299.9851702315042
299.9893399707623
299.9949438128307
300.0012895212931
300.0068293339066
300.0134053431226
300.019801367428
300.0255315490449
300.0333212135933
300.0377815050585
300.0378984180956
300.0378108897987
300.0378094914415
300.0375162221771
300.0369826994861
300.0368173091185
300.0354077705762
300.0342414821526
300.0330949317618
300.0300662971483
300.0281452886061
300.024885971815
300.0205011679486
300.0169419733018
300.0115297206019
300.006225308413
300.0005945473996
299.9940527948662
299.9879690421566
299.9811209518882
299.9749571710355
299.9665552133358
299.9623716223261
299.962302352681
299.9623929483937
299.9624078940964
299.9626513498969
299.9632070052867
299.9634243919678
299.9647751459775
299.9659544948112
299.9671104470378
299.9699908081853
299.9718787378347
299.9750593111887
299.9791441261411
299.9825676554082
299.9878216583771
299.992814238806
299.99822355188
300.0046036380406
300.0105148179578
300.0171089908263
300.0234123785237
300.0307291908809
300.0371125833671
300.0374327123249
300.0374420600709
300.0372698359128
300.0372331459267
300.0367570109715
300.036121365125
300.0356119309074
300.0340740819025
300.0328349121965
300.0310103461422
300.0281888755849
300.0257660997669
300.0219884158998
300.018048208255
300.0136626744421
300.0082856386917
300.0029900088896
299.996855019287
299.990488070608
299.9839577082962
299.9773705985544
299.9696668932238
299.9630507142356
299.962759966532
299.962811964586
299.9627824428601
299.9631618199942
299.9634385142427
299.9638166966543
299.9650284036927
299.9657353752741
299.967340710846
299.9694178322316
299.9712996392614
299.9745551930865
299.9776532109068
299.9814393584641
299.98606095569
299.9906285225893
299.9961939963006
300.0018406362572
300.0079244013814
300.0143538597198
300.0207374726504
300.0273077645928
300.035670915042
300.0369529501666
300.0369196537471
300.0368634053183
300.0368659079865
300.036291839655
300.0360364341683
300.0354600238605
300.0339018177606
300.0332202837191
300.031162240576
300.0287274170804
300.0267702300009
300.0228891027459
300.0195015161924
300.0154770289099
300.0101645965453
300.0053548838371
299.9993846736762
299.9930892869394
299.9868603874219
299.9799360896571
299.9732781834451
299.9646284621834
299.9631834015193
299.9631981437734
299.9633126683318
299.9633142633297
299.9637585887841
299.9642698511747
299.9646564906622
299.9660673918244
299.967176794665
299.9688323371465
299.9711588681482
299.9736404410029
299.9767097901295
299.9802568402415
299.9845660106391
299.9888730905852
299.9940659621638
299.9997123857012
300.0052446723172
300.0116886420883
300.0181703823035
300.0240850155
300.0328535675204
300.0364899674177
300.0365058458526
300.0364725444076
300.0364768700241
300.0360299787037
300.0358203439049
300.0352043908543
300.0340835092979
300.0332073589344
300.0312379359104
300.0295752513667
300.027035321568
300.0238260935793
300.0209765373865
300.0163707586398
300.0121176310454
300.0073581367521
300.0013266801235
299.9957816330144
299.9893803777798
299.9825225619088
299.9764614109112
299.9673365937115
299.9637079338441
299.963659244806
299.9637276279278
299.9638045348196
299.9640004844273
299.9644906858678
299.9649685505956
299.9660255858977
299.967156273975
299.9686998024912
299.9708156673929
299.9730393505177
299.9760226142862
299.9793128772827
299.9830644563281
299.9874918622768
299.9921777924263
299.997449849664
300.0031553784679
300.0091035754274
300.015459938125
300.0216706332835
300.0291612421863
300.0356177839606
300.0360853558826
300.0360488547629
300.0359239177608
300.0359322417358
300.0353299148484
300.0348447065444
300.034418333921
300.0327221388129
300.0317484584278
300.0298526711062
300.0272698389059
300.0250527375654
300.0214850408307
300.0178340702518
300.0137631132299
300.0087857219435
300.0037187042121
299.9979544314426
299.9918373929294
299.985429724154
299.978975316148
299.9713208875709
299.9644939312584
299.9641765057507
299.9642537830495
299.9641752993176
299.9645026816627
299.9645941644433
299.965481625951
299.9660765264413
299.9669617242462
299.9688793453892
299.9701854301801
299.9726309239281
299.9752268346658
299.9781916825403
299.9820098751704
299.9857394639662
299.9906423087156
299.99547154694
300.0007696809132
300.0069725342027
300.0126987505155
300.0191765729351
300.025519410706
300.0336886794158
300.0356552388149
300.0356452082045
300.0356164740614
300.03538728486
300.0353569455849
300.0343471936335
300.0340398320164
300.0333474198947
300.0312841870374
300.0303138170869
300.0281735091858
300.0252038315059
300.0228826137131
300.0189325645146
300.0150403056551
300.0107736936886
300.0053811559773
300.0002404444271
299.99418047391
299.9879364984986
299.9815401832337
299.9750793104623
299.9663492665968
299.9645828726719
299.9645568313389
299.9646084075417
299.9647305474778
299.9651157192656
299.9654432160864
299.9662896231322
299.9672154050747
299.9684049439385
299.9702450898849
299.972020222768
299.9746420381163
299.9774494181679
299.9807288172242
299.9847088961546
299.9888400204055
299.9936824516522
299.9988642930371
300.0044066058807
300.0103744868995
300.0165955082012
300.0225073953598
300.0307100644322
300.0350665111106
300.0351249280044
300.0350920216179
300.0350461379241
300.0347854925475
300.034414770891
300.0339091333161
300.032914976042
300.0318811248684
300.0303637749072
300.0283858973725
300.0262317098178
300.023330084963
300.0201352905644
300.016439448308
300.0120606779467
300.0074189015952
300.0021402504501
299.9964614034397
299.9904877190659
299.9840270214075
299.9779909969468
299.9694095504009
299.9651535876195
299.9651287089634
299.9651046676544
299.9651928340289
299.9654276787618
299.9658009116343
299.966312320729
299.9672436154914
299.9683627273916
299.969784042139
299.971759602648
299.9739174990403
299.9766900393732
299.9798007572163
299.983371962897
299.9875671622312
299.9919045932563
299.9970046719872
300.0023077124858
300.0079473571685
300.0140425779444
300.0200798132747
300.0264425814905
300.0342341449669
300.035050789556
300.0351147454392
300.0351111211469
300.0348175729078
300.0346714271973
300.0342476798915
300.0333800151699
300.0328724140194
300.0314381338768
300.0300292627304
300.0284454874042
300.0260145685232
300.0238500250554
300.0208878826206
300.0177435571997
300.0144962783116
300.0106216971411
300.0072464392061
300.0021081094829
300.0000232595337
300.0000000002575
299.9999999999973
299.9999999999976
299.9999999999974
299.9999999999975
299.9999999999983
299.9999999999986
299.9999999999986
299.9999999999989
299.9999999999998
299.9999999999999
300.0000000000001
300.0000000000003
300.0000000000001
300.0000000000004
299.9999999999999
300.0000000000003
300.0000000000002
300.0000000000001
300.0000000000002
300.0000000000002
300.0000000000001
300.0000000000001
300.0000000000003
299.9999999999999
300.0000000000002
300.0000000000001
300.0000000000002
299.9999999999999
300.0000000000002
299.9999999999999
300.0000000000002
300
300.0000000000001
300
300.0000000000001
300
300.0000000000002
300
300
299.9999999999999
300.0000000000001
299.9999999999998
300.0000000000002
299.9999999999999
300.0000000000001
299.9999999999997
300
299.9999999999999
299.9999999999999
299.9999999999999
299.9999999999999
300
299.9999999999997
300
299.9999999999998
299.9999999999999
299.9999999999998
299.9999999999998
299.9999999999999
299.9999999999996
300.0000000000001
299.9999999999995
300.0000000000001
299.9999999999997
299.9999999999999
299.9999999999997
299.9999999999999
299.9999999999998
299.9999999999998
299.9999999999998
299.9999999999998
299.9999999999998
299.9999999999999
299.9999999999997
299.9999999999998
299.9999999999997
299.9999999999998
299.9999999999998
299.9999999999998
300
299.9999999999998
299.9999999999999
299.9999999999999
299.9999999999998
299.9999999999999
299.9999999999999
299.9999999999999
299.9999999999998
299.9999999999999
299.9999999999999
299.9999999999997
300
299.9999999999997
299.9999999999999
300
299.9999999999996
299.9999999999998
300
299.9999999999996
299.9999999999999
299.9999999999998
299.9999999999998
299.9999999999998
299.9999999999997
299.9999999999998
299.9999999999997
299.9999999999997
299.9999999999997
299.9999999999999
299.9999999999997
299.9999999999997
299.9999999999998
299.9999999999998
299.9999999999997
299.9999999999997
299.9999999999996
299.9999999999999
299.9999999999997
299.9999999999999
299.9999999999996
299.9999999999998
299.9999999999998
299.9999999999997
299.9999999999998
299.9999999999997
299.9999999999999
299.9999999999997
299.9999999999999
299.9999999999997
299.9999999999997
299.9999999999998
299.9999999999998
299.9999999999998
299.9999999999998
299.9999999999998
299.9999999999998
299.9999999999997
299.9999999999999
299.9999999999997
299.9999999999998
299.9999999999999
299.9999999999997
299.9999999999998
299.9999999999998
299.9999999999998
299.9999999999997
299.9999999999999
299.9999999999999
299.9999999999997
299.9999999999999
299.9999999999997
299.9999999999998
299.9999999999999
299.9999999999997
299.9999999999998
299.9999999999998
299.9999999999997
299.9999999999999
299.9999999999998
299.9999999999998
299.9999999999998
299.9999999999997
299.9999999999998
299.9999999999998
299.9999999999998
299.9999999999998
299.9999999999998
299.9999999999998
299.9999999999999
299.9999999999999
299.9999999999998
299.9999999999998
299.9999999999999
299.9999999999998
299.9999999999999
299.9999999999997
299.9999999999998
299.9999999999999
299.9999999999998
299.9999999999998
299.9999999999999
299.9999999999998
299.9999999999998
299.9999999999999
299.9999999999998
299.9999999999999
299.9999999999999
299.9999999999998
299.9999999999999
299.9999999999998
299.9999999999999
299.9999999999999
299.9999999999998
299.9999999999999
299.9999999999999
299.9999999999998
299.9999999999999
299.9999999999998
299.9999999999998
299.9999999999998
299.9999999999999
300
299.9999999999998
299.9999999999998
299.9999999999999
299.9999999999998
299.9999999999999
299.9999999999998
299.9999999999998
299.9999999999999
299.9999999999997
299.9999999999998
299.9999999999998
299.9999999999998
299.9999999999998
299.9999999999998
299.9999999999998
299.9999999999998
299.9999999999999
299.9999999999999
299.9999999999998
299.9999999999999
299.9999999999999
299.9999999999999
299.9999999999999
299.9999999999998
299.9999999999999
299.9999999999999
299.9999999999999
300
299.9999999999999
300.0000000000001
300.0000000000001
300.0000000000001
300
300.0000000000002
300
300.0000000000002
300
300.0000000000003
300.0000000000002
300.0000000000001
300.0000000000001
300.0000000000001
300.0000000000002
300.0000000000001
300.0000000000002
300.0000000000001
300.0000000000002
300.0000000000001
300.0000000000001
300.0000000000001
300.0000000000001
300.0000000000002
300
300.0000000000002
300.0000000000001
300
300.0000000000001
300.0000000000002
300.0000000000001
300.0000000000001
300.0000000000001
300.0000000000001
300.0000000000002
300.0000000000001
300.0000000000001
300.0000000000001
300.0000000000001
300.0000000000001
299.9999999999999
300.0000000000001
300
300.0000000000002
300
299.9999999999999
300.0000000000002
300
300
300
300.0000000000001
300.0000000000002
300
300.0000000000002
300.0000000000001
300.0000000000001
300
300.0000000000002
300
300.0000000000001
300.0000000000001
300.0000000000001
300.0000000000001
300.0000000000002
300.0000000000002
300.0000000000002
300.0000000000001
300.0000000000001
300.0000000000003
300
300.0000000000003
300
300.0000000000002
300.0000000000001
300.0000000000001
300.0000000000001
299.9999999999999
300.0000000000003
299.9999999999999
300.0000000000001
300.0000000000001
300.0000000000001
299.9999999999999
300.0000000000002
300.0000000000001
300.0000000000001
300.0000000000002
300.0000000000001
300.0000000000001
300.0000000000002
300.0000000000001
300.0000000000002
300.0000000000001
300.0000000000003
300.0000000000002
300.0000000000002
300.0000000000002
300.0000000000001
300.0000000000003
300.0000000000001
300.0000000000003
300.0000000000002
300.0000000000002
300.0000000000003
300.0000000000002
300.0000000000003
300.0000000000001
300.0000000000005
300.0000000000001
300.0000000000002
300.0000000000003
300.0000000000002
300.0000000000002
300.0000000000002
300.0000000000003
300.0000000000001
300.0000000000004
300.0000000000002
300.0000000000002
300.0000000000002
300.0000000000002
300.0000000000003
300.0000000000002
300.0000000000002
300.0000000000003
300.0000000000002
300.0000000000002
300.0000000000002
300.0000000000003
300.0000000000003
300.0000000000003
300.0000000000003
300.0000000000003
300.0000000000002
300.0000000000002
300.0000000000003
300.0000000000001
300.0000000000003
300.0000000000002
300.0000000000003
300.0000000000002
300.0000000000001
300.0000000000002
300.0000000000001
300.0000000000002
300.0000000000002
300.0000000000001
300.0000000000001
300.0000000000002
300.0000000000002
300.0000000000001
299.9999999999999
300.0000000000002
300.0000000000001
300.0000000000001
300
300.0000000000001
299.9999999999999
300.0000000000001
300.0000000000001
300
300
300.0000000000001
300
300.0000000000001
299.9999999999999
300.0000000000001
300.0000000000001
300
300.0000000000002
299.9999999999999
300.0000000000001
300.0000000000001
300.0000000000002
300
300.0000000000002
300.0000000000001
300.0000000000002
300.0000000000002
300.0000000000002
300.0000000000002
300.0000000000003
300.0000000000003
300.0000000000002
300.0000000000003
300.0000000000003
300.0000000000003
300.0000000000003
300.0000000000003
300.0000000000004
300.0000000000005
300.0000000000002
300.0000000000005
300.0000000000002
300.0000000000006
300.0000000000003
300.0000000000003
300.0000000000003
300.0000000000003
300.0000000000004
300.0000000000003
300.0000000000003
300.0000000000004
300.0000000000004
300.0000000000002
300.0000000000006
300.0000000000002
300.0000000000004
300.0000000000004
300.0000000000003
)
;

boundaryField
{
    inlet
    {
        type            fixedValue;
        value           uniform 300;
    }
    outlet
    {
        type            inletOutlet;
        inletValue      uniform 300;
        value           uniform 300;
    }
    frontAndBack
    {
        type            empty;
    }
}


// ************************************************************************* //
