/*--------------------------------*- C++ -*----------------------------------*\
| =========                 |                                                 |
| \\      /  F ield         | OpenFOAM: The Open Source CFD Toolbox           |
|  \\    /   O peration     | Version:  v2012                                 |
|   \\  /    A nd           | Website:  www.openfoam.com                      |
|    \\/     M anipulation  |                                                 |
\*---------------------------------------------------------------------------*/
FoamFile
{
    version     2.0;
    format      ascii;
    class       volScalarField;
    location    "0.018";
    object      p;
}
// * * * * * * * * * * * * * * * * * * * * * * * * * * * * * * * * * * * * * //

dimensions      [1 -1 -2 0 0 0 0];


internalField   nonuniform List<scalar> 
1000
(
101303.3304204654
101304.2084940964
101298.2429440063
101286.4317543721
101282.2299118533
101274.3872843157
101266.6930185733
101263.0879464777
101260.1428834029
101255.7439164069
101255.1698802103
101253.7308222919
101254.9582769762
101256.533575024
101259.4681655696
101265.0450959762
101269.0716449375
101276.5459600916
101285.3090415959
101292.1830135533
101302.4920961531
101311.9867206715
101321.2959149643
101331.9760449666
101341.2676075662
101351.2076625926
101360.6877418233
101368.3712737275
101375.8213387217
101382.5058520809
101386.2521262941
101389.6735572784
101391.8398176832
101392.6896493142
101392.260074362
101390.9066190432
101388.3468836655
101385.3303606015
101380.1409184385
101373.8500974256
101367.4846393202
101359.4438063057
101350.1261053477
101342.5972768272
101333.1315842614
101323.2206481606
101315.2047989012
101305.9975218071
101296.7405109152
101288.6960468824
101280.5845380143
101272.9214943582
101266.5415017605
101260.581650428
101257.361460451
101253.9337428079
101252.5202240778
101251.7355414136
101252.0367248282
101253.6844932072
101255.0298123145
101258.2689879154
101263.7664985975
101268.5192077383
101276.2030539961
101284.4014781819
101292.8541018006
101302.692859324
101312.2346077799
101322.6499631388
101332.4406439794
101341.9925082055
101351.072840633
101359.7557207498
101367.8583098896
101375.5830008602
101380.0481538189
101384.135797747
101386.6707582103
101387.6823139995
101387.552373345
101386.7618452608
101384.9665216921
101381.9633515205
101377.8591166541
101373.0998295508
101366.8679781174
101359.4347329454
101351.6404286045
101342.6665480852
101333.5142437812
101324.0573903361
101314.5758630331
101305.4399254666
101296.3267688094
101287.7177188637
101279.5209482063
101272.4979838941
101265.5562042758
101259.1894708382
101254.7892482381
101252.64214715
101249.6862285892
101248.651458477
101249.0307532518
101249.2253831022
101251.5025108703
101254.2014015095
101257.4860150546
101263.3320566744
101269.1388120468
101276.1530486965
101284.9896676998
101293.6972899659
101303.410892393
101313.5507601934
101324.4584505017
101334.2213965773
101343.5128324071
101353.4720693154
101361.3307428331
101369.7521649865
101374.9235593801
101379.7025923875
101382.3792850878
101384.1980845848
101385.184780649
101384.1631255389
101382.440931986
101380.6457464543
101376.6371292112
101371.2725249232
101366.7247034844
101359.8385096758
101351.3980517922
101344.2772613142
101334.7586607303
101325.2330894009
101315.8362646027
101306.0784018963
101296.6880745213
101287.6881587423
101278.5204830617
101271.6658080613
101263.8377091746
101257.2482586005
101252.7901938739
101249.9591881907
101246.9453698072
101245.625278577
101245.0335788858
101245.6545458362
101246.8160407033
101249.5375814378
101251.8850599964
101256.8691541876
101262.8008725214
101268.4728430987
101276.8145786142
101284.955802017
101293.4477281674
101303.9643314303
101313.840452489
101323.7710118506
101334.1565185123
101343.8150588172
101352.55662929
101360.5733968331
101368.1299982088
101372.2765924739
101376.2351773931
101378.0507273886
101379.2102597288
101379.0393293869
101377.8102048385
101376.1108205639
101372.9901504281
101368.2133702558
101363.9394357148
101357.9704892108
101350.0470201758
101342.821589378
101334.2864706683
101325.1036207051
101315.5686148544
101306.3111522124
101296.7718287194
101287.4468508361
101278.867033963
101270.577151332
101263.0050765818
101255.2201758909
101251.2954865626
101247.7619019548
101244.9588056456
101243.3285087148
101242.5644924858
101242.6124513472
101244.3025017514
101245.6524181006
101247.6747374876
101252.8146423397
101257.0051459261
101262.5464134564
101270.8475135572
101277.6175694935
101286.3065930834
101296.3316831578
101305.6806449743
101316.0698756514
101326.0928835426
101335.7165069587
101345.290891684
101353.8343336125
101362.4788155664
101367.570162437
101371.9545831398
101374.8008269046
101376.530232494
101376.6284305048
101375.8422768412
101374.2282975445
101371.5306554303
101367.9365351873
101362.9567744651
101357.5571381577
101350.9899455766
101343.1449489427
101335.2079491646
101326.2849942627
101316.6159685646
101307.671622383
101297.8258466735
101288.1516421671
101279.4569972706
101270.3218618808
101261.8433137649
101255.0200740905
101248.5235780671
101244.9683208174
101241.9385956515
101240.4606196448
101239.0808968173
101238.9938071097
101239.5516451197
101241.6327019488
101243.3573504109
101246.5715948221
101251.7751008051
101256.1742817503
101263.0496298339
101270.6283981104
101278.2484977329
101287.4345517458
101296.7490739083
101306.7744957285
101316.7561711995
101326.6611687936
101336.3656985231
101345.6636434374
101353.8536584374
101361.2857511584
101365.1747311798
101369.6249827992
101371.0897699656
101372.1088157164
101371.7473530767
101370.2913064172
101368.5751646562
101365.3004369568
101360.2517856416
101356.0932584114
101349.4224259425
101341.9044957205
101335.023471529
101325.9165537025
101316.9614770701
101308.0677268972
101298.210836462
101288.6532922329
101279.3912864769
101270.5715086155
101261.9439342299
101254.7167688509
101247.3649113997
101243.4232958227
101240.3542757307
101238.7067041847
101237.0134511284
101236.9532209581
101237.8222979124
101238.989952911
101240.4459201558
101244.2894705578
101247.6971452698
101252.3083061136
101258.9486485907
101264.9274621963
101272.4515404325
101281.5180978866
101289.9247212763
101300.2361240055
101310.2320294598
101319.4810881801
101330.2347949009
101339.1618026455
101347.6021384072
101356.3667103556
101361.6751879817
101365.6638278739
101368.6955314374
101369.9888862736
101370.0629515501
101369.2422417573
101367.5484598861
101363.9917298201
101360.3339480457
101356.3905750309
101349.1465176175
101342.6832642381
101335.4460156191
101326.292855914
101317.8345525264
101308.4845516987
101298.7452934054
101289.1869265311
101279.3520999197
101270.3514251922
101261.4671814168
101252.9976606305
101245.9855180869
101239.517918478
101236.4635652065
101233.9372960976
101232.1104908578
101231.4500918708
101231.9926359941
101233.6147796976
101234.8581373649
101236.9609238498
101241.4954683284
101245.3361314707
101250.4654795547
101257.9495611209
101263.9883825243
101272.0696530324
101281.6724582311
101289.9668576202
101299.5488087019
101309.943983517
101319.2100340065
101328.6049455863
101338.3278136744
101345.9497421304
101353.7452134505
101357.9623737754
101361.2027855882
101363.698895836
101364.4224866698
101363.4354405936
101362.2966882066
101360.1759661003
101356.1136725661
101352.0269623376
101346.9817651625
101339.6107582422
101333.1614094558
101325.2777450792
101316.1043041422
101307.5262243106
101298.3737071756
101288.4960411802
101279.402590003
101270.179920824
101260.4259557521
101252.7462950935
101244.820469803
101237.5442049391
101233.2100169329
101230.8508177832
101228.4561763313
101227.6738816797
101227.8171994047
101228.7264367457
101230.6715300189
101232.8122964595
101235.9663329519
101240.5689612026
101245.1083531655
101251.6112281032
101258.2562175356
101265.2956277652
101274.0041093858
101282.6558282711
101292.1497859878
101301.5424597022
101310.6808854238
101321.377382102
101328.880045322
101338.1280035589
101346.2073585166
101351.535327307
101354.7132764942
101357.7644580668
101358.8886002269
101358.5219723822
101357.0736575691
101355.9369150515
101353.0340626993
101348.0930844867
101344.1915858665
101337.9569679591
101330.4179308054
101323.9354203564
101315.450706266
101306.7542576647
101297.7634647069
101288.3131464225
101279.0398557059
101269.6202042996
101260.8134439288
101252.3830717862
101244.5128888997
101237.2504079022
101231.626762224
101228.3904637116
101227.1468735036
101225.1723350564
101225.003861678
101225.9306212933
101227.66549513
101229.4511055616
101232.4355502359
101236.8868701573
101240.9506812158
101246.9930517098
101253.8271629332
101259.9392466799
101268.5569532018
101277.5196016518
101285.6115223326
101295.4126928832
101305.4188170062
101314.3048386089
101323.7013770634
101332.8471425167
101341.2885161669
101347.7374361766
101352.2051969433
101355.5474369296
101357.2825200164
101357.8390119708
101356.957916679
101355.3559040791
101353.2611893768
101349.0264801851
101344.0826055582
101338.9868579617
101331.6375573796
101324.5096019852
101316.6378525692
101307.6082284257
101298.6297286595
101289.1982033259
101279.8439739518
101270.522313017
101261.3384765201
101252.1399209021
101244.6470987264
101237.0683945113
101229.7597251392
101226.8321296612
101223.8740636877
101221.608628866
101221.7167881221
101221.4697669571
101223.4082307533
101225.1802506809
101227.4950187698
101231.6796034055
101236.1405411025
101240.891752333
101247.6831140135
101254.7373934518
101261.9983746289
101270.3683519901
101279.4040529198
101288.8462399612
101297.9641109255
101307.8411435536
101316.976343082
101325.6728964762
101334.6282400195
101342.3714213376
101348.1148174249
101352.2331947983
101354.9108174331
101355.9808578679
101355.8761207393
101355.0602751795
101353.26304825
101350.2636353956
101346.416831012
101342.0088493184
101335.7541201291
101329.675278212
101322.8945921497
101314.1571601253
101306.6231646308
101297.9908970709
101288.694806147
101280.5450701648
101271.7934140497
101263.162322123
101255.0878188969
101248.0740495226
101241.1503433297
101234.8319303469
101231.3730737358
101229.0170933376
101227.0376928263
101226.5552613246
101226.9373639563
101227.9179554402
101230.1008451532
101232.0044555936
101235.4994722014
101240.4556386059
101244.3013134624
101250.1942747237
101256.6784988809
101262.7686041762
101270.2164395165
101277.9968929565
101285.5112306122
101293.3496280515
101301.4521837239
101308.7240008678
101316.0043410044
101322.9671456573
101329.5173065226
101333.9196335573
101337.6983762302
101339.6914341028
101341.5303032578
101341.6449701588
101340.8639902705
101339.5846216457
101337.9079904534
101334.3909169291
101330.360770344
101326.2387262289
101320.1846012443
101314.6202431172
101307.9292952866
101300.7344246662
101293.5536965604
101285.6075129025
101278.0791810157
101270.2435242014
101262.575716984
101255.4523857979
101248.7664896452
101243.0030203037
101237.199789373
101234.0765061522
101232.2782538475
101230.4090622778
101230.0731335567
101230.6784481859
101231.4877541595
101233.5800345808
101236.0199031404
101239.1017291019
101243.7177190919
101248.3108469994
101254.3824030708
101260.6031575348
101267.0500076414
101274.8432957546
101282.1417467666
101290.2175584162
101298.2326667486
101305.9860193916
101313.5708359109
101320.9992063945
101327.5629025618
101333.8613847147
101337.9299714077
101341.1298164923
101344.013974014
101344.4874222582
101344.6342779335
101343.6806622253
101341.4829027652
101339.3096460428
101335.8453378943
101330.9578059065
101326.4619119168
101320.6393643051
101313.6944270164
101307.1834331793
101299.6840095169
101291.9101896287
101283.8066689089
101275.9789504113
101268.2181164889
101259.9531415404
101253.8960803647
101247.0460196295
101241.0216423063
101237.127898831
101235.1499853453
101232.6447239941
101232.3518782687
101232.4677955669
101233.4592827682
101235.3983163465
101237.1883831996
101240.680700272
101244.5956036282
101248.1824026368
101253.8638769883
101259.7628421831
101265.5511973622
101272.9361492623
101280.3020452288
101287.8413479078
101295.6559598339
101303.043178264
101311.2726866756
101318.8227101135
101324.9153547806
101332.4994468468
101336.885905657
101340.7062929548
101343.8433781155
101345.1389965747
101345.6105933506
101344.8515890222
101343.2290523146
101341.0787836315
101337.4554529582
101332.9144688238
101327.7220853877
101322.1406685016
101315.4429640597
101308.123408158
101301.321326355
101293.2182046143
101284.8805044006
101277.2303009701
101268.9069692181
101261.4869077087
101254.3103438988
101247.0812504423
101241.0363541554
101236.7106600708
101233.4295712371
101230.8332936739
101230.2162801889
101229.378640262
101230.6625692799
101231.40534039
101234.060786382
101236.3640084724
101239.7699379176
101244.3850061216
101248.926232038
101254.9999488809
101261.2504713208
101267.462533986
101275.4676570161
101282.7459480638
101290.0979053339
101298.29212416
101306.2033249012
101312.8012581918
101319.9710536478
101326.5645491278
101331.9720361256
101335.6850298933
101338.6621759464
101341.1346627592
101341.6137660162
101341.4742499873
101341.1300095254
101338.2724649164
101335.9018477308
101332.5195049138
101327.3858784186
101322.7753736669
101316.5214641808
101309.7899940309
101303.2092841223
101295.4149567766
101287.8446758324
101280.0714589929
101272.1608028886
101264.7064125551
101257.331450276
101249.9304229621
101244.4679016228
101238.0502782765
101235.2691660163
101231.817816845
101230.7309130622
101229.8482415044
101229.9959522522
101231.391754041
101233.491476206
101236.0000221083
101238.9151391162
101243.3784560365
101247.8927584559
101252.8096052201
101259.4259267178
101265.1234385004
101271.894087315
101279.6513352081
101287.0074317592
101294.7049731729
101302.3971297669
101309.9131625746
101317.6710169296
101323.6233868712
101330.3353108065
101334.9031995451
101338.4449440006
101341.1474325719
101342.7414982073
101342.8589472401
101342.45890344
101341.3555858164
101338.5006480603
101335.8938633015
101331.898305589
101326.2348737558
101321.3678263335
101314.5154348938
101307.070569266
101300.3809798712
101292.2883287164
101284.1779020088
101276.7215096286
101268.575785222
101261.4581254153
101254.4046783775
101247.8503078261
101241.5104826287
101237.8358263918
101234.271658201
101231.8761631881
101230.731661148
101230.2337982351
101231.1407896029
101232.8299158557
101235.2471383042
101237.950037887
101242.2439115827
101246.7558719277
101251.3666604634
101257.9108966473
101263.3869710403
101269.8341423015
101277.252787498
101283.7267265815
101291.2137771989
101298.7758137348
101306.0844555803
101313.385012229
101320.3457757323
101327.1444026825
101332.2052168362
101336.4899412246
101340.3469966451
101342.1312366586
101343.1897159442
101343.5545912398
101342.0254677162
101339.6382292945
101337.3432564188
101333.0281092247
101327.148389201
101322.8263074727
101315.9937123719
101307.7754153861
101301.6130615538
101293.0965252416
101284.274654709
101276.7995791111
101268.4195593023
101260.8353521108
101253.8034573393
101246.5421653488
101241.2898933996
101235.6707752597
101232.8774035671
101229.8769836359
101228.4551990721
101227.7081180001
101227.7714106735
101228.9435050677
101231.2338636759
101233.638817048
101237.1865315193
101241.8848814373
101246.2791327658
101252.0556410001
101258.3090914611
101264.5376058008
101271.3704684767
101278.2775887898
101285.7008928784
101293.2790044289
101300.6982690873
101307.923818832
101315.1920842913
101321.7381647881
101327.2672862465
101331.8702443198
101335.4510140993
101337.6446808696
101339.0150780282
101339.5684809049
101338.776216253
101337.1757175409
101334.7231013661
101331.419963974
101327.0012370252
101322.4168994178
101316.6419580105
101310.0094102067
101303.4322525378
101295.8592085142
101287.9905797859
101280.0266075225
101272.3848772782
101264.6451801931
101256.7095211633
101250.3596932748
101243.899810563
101237.7568740266
101234.7242446359
101231.8089838639
101230.0653023532
101228.5191333202
101228.6160049601
101229.4450426913
101230.7147549507
101232.4517463264
101235.7560240487
101239.7347397393
101244.0229355813
101249.6110809777
101256.3267452402
101262.4226032293
101269.1748929966
101276.8422514453
101283.5883182582
101290.4979981515
101297.6582638511
101304.8298410458
101310.8255699222
101317.8596412626
101324.0497823908
101329.3061402483
101333.4520523393
101336.9030872017
101339.3351648902
101340.7518595395
101341.0637468095
101340.2220714741
101338.3613358156
101335.5739746092
101331.4294051079
101326.6718890794
101321.1227106311
101314.2109287548
101307.2529017473
101300.0681072164
101292.0752326063
101283.7961227154
101275.8048053034
101268.2678451791
101260.3410680511
101253.418559908
101246.8730572915
101240.9928104788
101236.3250483541
101234.5836275428
101231.0833137559
101230.2765764805
101230.1063705232
101230.7293299394
101231.8625423947
101234.2946423312
101236.5328068288
101239.4856816058
101244.1585033882
101248.5241130078
101254.1399624464
101260.7969336469
101267.3294144625
101274.8665012032
101282.4288393064
101289.7744434857
101297.2979928709
101303.847772209
101310.2774711732
101316.4355030284
101321.8564199855
101327.081571132
101331.0753928185
101334.5788390541
101337.654866552
101340.1275198243
101341.3366176828
101341.5205186592
101340.1362353045
101337.597409724
101334.3207865792
101328.9488392812
101323.1998638557
101316.7969809527
101309.1305133157
101301.6809761409
101293.4194716864
101285.1284662175
101276.9325644945
101268.62401191
101260.9991954493
101253.3284825592
101246.6159531545
101240.1145503349
101234.9957289283
101231.9224107783
101228.706115156
101227.7318257618
101226.1084449649
101227.1549425219
101227.9415648166
101229.7196483578
101232.1326540329
101235.1135817815
101238.4491982493
101243.6559693712
101248.4305528967
101254.1324332782
101261.0993617473
101267.5655549524
101274.6284603439
101282.3566990756
101289.8755230301
101297.1547166118
101304.8721179045
101311.752857562
101316.784699243
101323.1597479954
101326.3757542962
101328.6393086931
101331.4236161777
101333.3992795534
101335.1572047611
101335.8142618639
101335.8271821418
101334.5495277757
101331.9740665288
101327.5016376904
101321.9067310271
101316.277302729
101309.2726931406
101301.3845413841
101294.7614152588
101286.882799119
101278.1727681977
101271.2045325633
101263.3119761597
101255.5839968147
101249.3760889017
101242.5776444691
101236.8630062784
101232.8574747988
101230.7593755345
101228.4210515117
101227.3628459664
101227.4032881325
101228.0622806681
101229.3948341819
101231.7314025644
101234.8383812416
101237.4009434028
101242.0713693946
101247.5478108137
101251.6923304532
101258.1791796052
101266.4546473741
101270.9506228612
101279.2710335287
101290.2303376274
)
;

boundaryField
{
    inlet
    {
        type            uniformFixedValue;
        uniformValue    sine;
        uniformValueCoeffs
        {
            frequency       constant 3000;
            scale           constant 50;
            level           constant 101325;
        }
        value           uniform 101312.8819131453;
    }
    outlet
    {
        type            waveTransmissive;
        gamma           1.4;
        fieldInf        101325;
        lInf            2.25;
        value           uniform 101292.0845816955;
    }
    frontAndBack
    {
        type            empty;
    }
}


// ************************************************************************* //
