/*--------------------------------*- C++ -*----------------------------------*\
| =========                 |                                                 |
| \\      /  F ield         | OpenFOAM: The Open Source CFD Toolbox           |
|  \\    /   O peration     | Version:  v2012                                 |
|   \\  /    A nd           | Website:  www.openfoam.com                      |
|    \\/     M anipulation  |                                                 |
\*---------------------------------------------------------------------------*/
FoamFile
{
    version     2.0;
    format      ascii;
    class       volScalarField;
    location    "0.018";
    object      pMean;
}
// * * * * * * * * * * * * * * * * * * * * * * * * * * * * * * * * * * * * * //

dimensions      [1 -1 -2 0 0 0 0];


internalField   nonuniform List<scalar> 
1000
(
101325.0683261041
101325.0466921979
101325.0237733709
101325.0174709923
101325.0527661709
101325.0525505984
101325.0560677269
101325.0977533026
101325.0955944312
101325.1230526022
101325.1368115504
101325.1537997302
101325.1706454892
101325.1989013793
101325.1951471908
101325.2006914721
101325.2376657113
101325.2397172545
101325.2205000433
101325.2410230671
101325.2520529373
101325.235830649
101325.2231300742
101325.2294934561
101325.2221215896
101325.2010769448
101325.1762764447
101325.1705847768
101325.1591001629
101325.1220164272
101325.1040067531
101325.0937951872
101325.0659188882
101325.0290107691
101325.0286700835
101325.0017299753
101324.9685280088
101324.956470784
101324.9422063625
101324.919998945
101324.9026294972
101324.892776555
101324.8833887031
101324.881051193
101324.8579882086
101324.8706406614
101324.8815807168
101324.8608736916
101324.8728266269
101324.9005365338
101324.8918059864
101324.8981258822
101324.9398011134
101324.9356261651
101324.9497450466
101324.9818937923
101324.9969644147
101325.000384579
101325.0308121694
101325.0423817504
101325.0518656785
101325.0645828323
101325.0770762542
101325.0818567042
101325.0962217969
101325.0922493751
101325.091518119
101325.0992582145
101325.0919352906
101325.0827027418
101325.0710912629
101325.0674726153
101325.0483646227
101325.0262049151
101325.0172784705
101324.995672473
101324.9680547246
101324.9545782694
101324.9338186611
101324.903609576
101324.8843949559
101324.8729074176
101324.8410068773
101324.8248020196
101324.8066938038
101324.7898531243
101324.7711364826
101324.7577472991
101324.7472523308
101324.7347601908
101324.7316145312
101324.7260163587
101324.7225487758
101324.7290798054
101324.7318806963
101324.7366182442
101324.7473906493
101324.7571611162
101324.7695866331
101324.7911667142
101324.7961883562
101324.8186766142
101324.8436030583
101324.8463097643
101324.8598544098
101324.892235286
101324.8938175191
101324.8908435073
101324.9237542663
101324.9245386603
101324.9185649381
101324.9339010017
101324.9389361202
101324.917695639
101324.9288743155
101324.9286923042
101324.901051038
101324.8970691947
101324.8959580941
101324.8573228093
101324.839612536
101324.8441666769
101324.7964502572
101324.7742242596
101324.7746236512
101324.7342281441
101324.7033539962
101324.7050733182
101324.6698830781
101324.6354595537
101324.6391716493
101324.6109333532
101324.5793543194
101324.58446887
101324.5673835629
101324.5379966615
101324.5429224374
101324.5449805546
101324.5168996756
101324.5323459881
101324.542127429
101324.5268593593
101324.5366634944
101324.5668004348
101324.5569558742
101324.5691109017
101324.6019581565
101324.6044445424
101324.6146357943
101324.6504271739
101324.6482723494
101324.658858841
101324.6864892293
101324.689480159
101324.6827453725
101324.7149218317
101324.7121217564
101324.7031786388
101324.7155727683
101324.7176741663
101324.6999746185
101324.7020908063
101324.7005270319
101324.677954569
101324.6666705216
101324.6548061628
101324.6331467851
101324.605753653
101324.5946469962
101324.5702774015
101324.5363969394
101324.5247769597
101324.5004676696
101324.4682447161
101324.4527542325
101324.4344432512
101324.4031866495
101324.3874808091
101324.3748473958
101324.3479577594
101324.3413133957
101324.3204708034
101324.3125096205
101324.3069226189
101324.2998734467
101324.2875376373
101324.3066745649
101324.2978968892
101324.2936109092
101324.3214052931
101324.3218582537
101324.3237633914
101324.3499561823
101324.3686365227
101324.3685061346
101324.3943035537
101324.4149954357
101324.4155197198
101324.428789952
101324.4522317365
101324.4461782395
101324.4553643179
101324.4710842297
101324.4688965248
101324.4629708468
101324.470806322
101324.4660284591
101324.4583490583
101324.4486251448
101324.4461585597
101324.426761408
101324.40873911
101324.3973037719
101324.374367307
101324.3482264003
101324.328907662
101324.3101960862
101324.2796507675
101324.2562073897
101324.2390235341
101324.2136878978
101324.1853376363
101324.1722300347
101324.1486330873
101324.1268906816
101324.1088365667
101324.0984850661
101324.0772236086
101324.0657406221
101324.0559084341
101324.0505126768
101324.0412893337
101324.0420284432
101324.0453514766
101324.0417801703
101324.0472882166
101324.0607541024
101324.0593741577
101324.0810450556
101324.0917656693
101324.1008646109
101324.1233825692
101324.1329745581
101324.1407342932
101324.1613708424
101324.1658403662
101324.170320202
101324.1792199487
101324.1872765129
101324.1860325141
101324.1861500127
101324.1865627952
101324.1802136357
101324.1746724094
101324.1685752436
101324.1557676313
101324.1464548455
101324.1227453538
101324.1137266751
101324.0903545561
101324.0599833218
101324.0448874501
101324.0220924981
101323.9871843684
101323.9683958983
101323.9479508958
101323.9182594858
101323.8935416067
101323.8754836866
101323.8523644813
101323.8264234852
101323.8091440967
101323.7939870475
101323.7781743088
101323.755179444
101323.7476244099
101323.7437156353
101323.7287806091
101323.7214737555
101323.7337845795
101323.7233992171
101323.7242293527
101323.7368983048
101323.7425527079
101323.7459218874
101323.7616017228
101323.7803404343
101323.7864847461
101323.8000755407
101323.816685871
101323.8276433053
101323.8296216246
101323.8417848773
101323.8479912786
101323.8440644602
101323.858519681
101323.8546837158
101323.8446254827
101323.8423017529
101323.8464739818
101323.8231535384
101323.8166038085
101323.8143216506
101323.7886532317
101323.7655105425
101323.7572194544
101323.7280459023
101323.697177211
101323.6837730063
101323.6495859936
101323.6268996605
101323.600964876
101323.5760583679
101323.549292854
101323.5296586305
101323.5003164945
101323.4768569735
101323.4593038838
101323.4411109609
101323.4192050142
101323.401214828
101323.3893136301
101323.3745853423
101323.3622476514
101323.3599845565
101323.3556742851
101323.348294927
101323.346748718
101323.3566093103
101323.352670564
101323.3594793687
101323.3714549145
101323.3838700713
101323.3863695494
101323.4063778896
101323.4135573811
101323.4213097807
101323.4319794825
101323.4402037066
101323.438751549
101323.4421876855
101323.4473870319
101323.4443079641
101323.4370320149
101323.4332310201
101323.4251959038
101323.4141171093
101323.4029691714
101323.3892650605
101323.3761145459
101323.3498073648
101323.3332725533
101323.306405142
101323.2810017533
101323.2555867946
101323.2275002513
101323.1942058664
101323.171174759
101323.1466806782
101323.1073418772
101323.0916023617
101323.0645997391
101323.03197409
101323.0071757123
101322.9964931033
101322.9629809593
101322.9478674495
101322.9327189919
101322.9103864596
101322.9000189895
101322.8941383347
101322.8800294262
101322.8753165886
101322.8779648014
101322.8675408027
101322.8776961534
101322.8706398579
101322.8811669298
101322.8893039664
101322.8951577318
101322.9053558645
101322.9118767052
101322.9277222907
101322.9290355642
101322.9286438796
101322.9389672372
101322.940550581
101322.9297609384
101322.93797081
101322.9350160249
101322.9172189937
101322.9098936159
101322.9075219652
101322.8842723889
101322.872502675
101322.8607000804
101322.8338396568
101322.8126749853
101322.7899465423
101322.7615049531
101322.7289409139
101322.7024711176
101322.6764880445
101322.6364106254
101322.6103542377
101322.5893214118
101322.5450956688
101322.5215153571
101322.50561407
101322.4588948314
101322.4389873773
101322.4291284321
101322.3946604208
101322.3711476829
101322.3601253466
101322.3434832089
101322.3254680318
101322.3159393399
101322.3151150334
101322.3007274565
101322.3021162186
101322.2986004902
101322.2993442152
101322.294905691
101322.3111819407
101322.3124353786
101322.3156279451
101322.3318236556
101322.3336897633
101322.3369118147
101322.354789419
101322.346869376
101322.3387905138
101322.3559724758
101322.3496932962
101322.3336214167
101322.3358078515
101322.326343439
101322.3049040122
101322.3001165085
101322.2837339891
101322.2626012816
101322.2401452167
101322.2284369084
101322.1976412912
101322.1631624417
101322.1423556368
101322.1162472915
101322.0705746449
101322.0532624699
101322.0204801115
101321.9803457078
101321.958335782
101321.9351797563
101321.8907689069
101321.867520692
101321.8500937412
101321.8096183846
101321.7932667258
101321.77821754
101321.7445839241
101321.7243153574
101321.7292474023
101321.6944084337
101321.6872405698
101321.6898521501
101321.6828193583
101321.6646859569
101321.676059066
101321.6770862366
101321.6608733794
101321.6803464665
101321.6901212346
101321.6786048038
101321.6935852432
101321.7081108995
101321.6974366189
101321.7031110104
101321.7111550645
101321.6947376759
101321.6987720119
101321.698568391
101321.6811314414
101321.6747860834
101321.6606261407
101321.6454940053
101321.6275518747
101321.6105532
101321.58630085
101321.5719602334
101321.5366095076
101321.5122383869
101321.4817774785
101321.4458184056
101321.4164105478
101321.3798979254
101321.3461873387
101321.3144469075
101321.2797117326
101321.2444024296
101321.2172897881
101321.1807862541
101321.1414560456
101321.1218710345
101321.0944797992
101321.0599628404
101321.0383429555
101321.0161758658
101320.9919805391
101320.9726790694
101320.9583943991
101320.9437112768
101320.9379417443
101320.9242305633
101320.9161062543
101320.9082982266
101320.9100313672
101320.9017181149
101320.9000195872
101320.9082782492
101320.90807769
101320.9003989761
101320.9150432647
101320.9087192506
101320.90474861
101320.9005478894
101320.8915070785
101320.8924674425
101320.8851222896
101320.8658056405
101320.8545820093
101320.8477792855
101320.8266266404
101320.8067434498
101320.7943420559
101320.774616726
101320.7491303261
101320.7303570823
101320.6992557848
101320.6697780445
101320.6467058485
101320.6148932268
101320.5822315545
101320.5611112379
101320.5214470385
101320.4976634213
101320.4771258231
101320.4346264557
101320.4062997325
101320.3880724893
101320.3542562618
101320.3279860925
101320.3142053643
101320.2812079745
101320.2569453507
101320.2492457772
101320.2296487347
101320.2028320058
101320.207532428
101320.1970400712
101320.1733823732
101320.1758057668
101320.1739417175
101320.1556138822
101320.1578305304
101320.1654891782
101320.159014152
101320.1539312299
101320.1689593336
101320.1674589254
101320.150222518
101320.1601182582
101320.1576444427
101320.1420328403
101320.1360279406
101320.138633691
101320.1207256659
101320.0977410095
101320.0980226628
101320.0765656338
101320.0553335861
101320.0421193923
101320.0277802884
101319.9949219778
101319.9693751671
101319.9596068918
101319.9160811305
101319.8890887161
101319.8718394403
101319.836489882
101319.8050030023
101319.7857111668
101319.7588511837
101319.7228041571
101319.6938067625
101319.6759861107
101319.6425445689
101319.6186769891
101319.6006057666
101319.573134228
101319.5508578252
101319.5348281809
101319.5163584733
101319.5006045184
101319.4927886379
101319.4846962616
101319.4738839461
101319.4635645541
101319.4620440697
101319.4556342671
101319.4485201912
101319.4518119138
101319.4570554259
101319.4487680478
101319.4540664034
101319.4614251122
101319.4596983675
101319.448673601
101319.4536381293
101319.4483288114
101319.4363131721
101319.4395018128
101319.4252856242
101319.4096646706
101319.3996360414
101319.3850539495
101319.3643700555
101319.3538758804
101319.3354684265
101319.3100561318
101319.2906265431
101319.2625985804
101319.2379702253
101319.2083948123
101319.1830258802
101319.1543689636
101319.1295457529
101319.0974559564
101319.0750533295
101319.0485980411
101319.0199967999
101318.986020933
101318.9625954262
101318.9430159524
101318.9161364344
101318.8902752734
101318.8708361945
101318.8475661626
101318.8289246865
101318.810563705
101318.8063673837
101318.7876615738
101318.7784145121
101318.7788549139
101318.7573907959
101318.7539929884
101318.757838929
101318.7463953763
101318.7464876072
101318.7504563943
101318.7450102272
101318.7507186925
101318.7518353425
101318.7416965416
101318.7393014021
101318.7405484302
101318.7271384045
101318.7198531508
101318.7184951809
101318.7022090316
101318.6825510781
101318.6722079924
101318.6582030832
101318.6341597664
101318.6229418168
101318.6054188193
101318.5711461997
101318.5529336589
101318.5239467882
101318.4939467543
101318.4660686495
101318.4424205993
101318.405612407
101318.3838791161
101318.3543077293
101318.3270597822
101318.2944353112
101318.268354745
101318.2402945996
101318.2108467975
101318.189742024
101318.166563662
101318.1355619287
101318.1197889152
101318.0994296018
101318.0747014375
101318.0654335037
101318.0567576712
101318.0447649809
101318.0349073423
101318.0277958495
101318.016734014
101318.0150027203
101318.0072469314
101318.0076066952
101318.0097744751
101318.0058364756
101318.0048992804
101318.0104461107
101318.0038141401
101317.9990225649
101318.0017915288
101317.985759611
101317.982885499
101317.9850559066
101317.965545048
101317.9453537027
101317.9449799065
101317.9222123778
101317.8964820867
101317.8916450807
101317.8743904833
101317.8443877279
101317.8178130041
101317.8049659062
101317.7619726723
101317.7317356044
101317.7216158832
101317.6823405478
101317.6475053506
101317.6365142033
101317.5996641999
101317.56687353
101317.5533754311
101317.5168380629
101317.482701969
101317.4762823139
101317.447415997
101317.4094850117
101317.4047178202
101317.3835360403
101317.3443733318
101317.3475265392
101317.3366289496
101317.3125160433
101317.3183937918
101317.3067168455
101317.2926725972
101317.2904305728
101317.2904120994
101317.275027216
101317.2838216513
101317.2901990474
101317.2753231881
101317.2798225785
101317.2927951355
101317.2706565191
101317.2690572997
101317.2736943195
101317.2657056716
101317.2477533575
101317.2533464311
101317.2356290867
101317.217131552
101317.2056278201
101317.1923587892
101317.1628100438
101317.1567669564
101317.1378719874
101317.1036899465
101317.0821301576
101317.0611111711
101317.0233599712
101316.9930637604
101316.9749561461
101316.9414050027
101316.9111406397
101316.8936343391
101316.8610691541
101316.8332118208
101316.8036523612
101316.7856453421
101316.7513287398
101316.7305083661
101316.7116143622
101316.684676804
101316.6540399914
101316.6442936919
101316.6220693663
101316.601920719
101316.5980146592
101316.587790833
101316.5684226155
101316.5749434466
101316.5590834518
101316.5402170638
101316.5532619424
101316.5443115217
101316.5319701847
101316.5465088851
101316.5450764705
101316.5284883658
101316.5317935199
101316.5408282258
101316.5116385376
101316.5115422117
101316.516192051
101316.493301889
101316.4831192755
101316.4742326702
101316.453466067
101316.4324362775
101316.4188318557
101316.4040168532
101316.3753177819
101316.3565242819
101316.331761064
101316.3108757059
101316.2670792099
101316.2413106197
101316.2216322096
101316.1809660638
101316.1498990722
101316.1384423057
101316.1065628297
101316.0591848667
101316.0507555024
101316.0236502992
101315.9792967021
101315.9620857617
101315.9529117227
101315.9068618975
101315.8886522083
101315.8804906193
101315.8441116867
101315.824856326
101315.8326203754
101315.8044811811
101315.7954719476
101315.7971927655
101315.7849471669
101315.766806216
101315.7753722445
101315.7625969253
101315.7606222142
101315.7613099041
101315.7619025132
101315.7607622498
101315.757881681
101315.7499497915
101315.7413813302
101315.7434553885
101315.7277422137
101315.7184488531
101315.7142849121
101315.7025862981
101315.6710682483
101315.6714011101
101315.6465619046
101315.624653651
101315.6142853935
101315.594523805
101315.5571354751
101315.5399000506
101315.5134831084
101315.4721255378
101315.4525472433
101315.4168443043
101315.3867665899
101315.3630909379
101315.339102655
101315.3091508782
101315.2818313563
101315.2553055518
101315.2267312694
101315.2051157798
101315.1809090597
101315.15582554
101315.1322853385
101315.1168118913
101315.0889557148
101315.0679476534
101315.0575671784
101315.0508363843
101315.0361205758
101315.0274231015
101315.0203580189
101315.0095915184
101315.0085835124
101314.9980535359
101315.0008851922
101314.9936663212
101314.989222559
101314.9990898914
101314.9989896381
101314.9846655239
101314.9817967376
101314.9869217975
101314.9666044338
101314.9596099922
101314.957722551
101314.9411538532
101314.9240296527
101314.9140233205
101314.8943575364
101314.8618473963
101314.8706714221
101314.8452676598
101314.8115732127
101314.7936660688
101314.7694884165
101314.7302121125
101314.7089361503
101314.6853627708
101314.6341371336
101314.6166470503
101314.5989578952
101314.5628604545
101314.5354574212
101314.5213929525
101314.4805821011
101314.4586490595
101314.4471051049
101314.4101639259
101314.3850767777
101314.3783327027
101314.3465606325
101314.3190623101
101314.3087384355
101314.2976081425
101314.2835057885
101314.2775718582
101314.2659599236
101314.2471900379
101314.2455943129
101314.2443032874
101314.2371828405
101314.2237322309
101314.2324837758
101314.2177506094
101314.2212385931
101314.2273428049
101314.2049855151
101314.2004791191
101314.2045263097
101314.1814363143
101314.1754577036
101314.1685313842
101314.1403280769
101314.1323193793
101314.1220337357
101314.0842029731
101314.0601922551
101314.0767544339
101314.0289482477
101314.0082322653
101313.9787349998
101313.9546231208
101313.9162341549
101313.8940808141
101313.8648555584
101313.8178564691
101313.8018235083
101313.7676803124
101313.7416763607
101313.7146602967
101313.6864056958
101313.6584591683
101313.6349777737
101313.606681403
101313.5866366552
101313.5594338037
101313.532834484
101313.5171402418
101313.4960814267
101313.4651588188
101313.4818231694
101313.4567826412
101313.4454542212
101313.4339655259
101313.4271862147
101313.4205744247
101313.4084606487
101313.4145137866
101313.4115535108
101313.4020738395
101313.3884871698
101313.4117477771
101313.4015285683
101313.3621733665
101313.3910978574
101313.3755340981
101313.3318558895
101313.3873479704
101313.2730148899
101313.3252519683
101313.3261656303
101313.2359521992
101313.1826724139
101313.286020546
)
;

boundaryField
{
    inlet
    {
        type            calculated;
        value           uniform 101325.0019626455;
    }
    outlet
    {
        type            calculated;
        value           uniform 101313.2991139903;
    }
    frontAndBack
    {
        type            empty;
    }
}


// ************************************************************************* //
