/*--------------------------------*- C++ -*----------------------------------*\
| =========                 |                                                 |
| \\      /  F ield         | OpenFOAM: The Open Source CFD Toolbox           |
|  \\    /   O peration     | Version:  v2012                                 |
|   \\  /    A nd           | Website:  www.openfoam.com                      |
|    \\/     M anipulation  |                                                 |
\*---------------------------------------------------------------------------*/
FoamFile
{
    version     2.0;
    format      ascii;
    class       volScalarField;
    location    "0.007";
    object      p;
}
// * * * * * * * * * * * * * * * * * * * * * * * * * * * * * * * * * * * * * //

dimensions      [1 -1 -2 0 0 0 0];


internalField   nonuniform List<scalar> 
1000
(
101303.7764764157
101309.4074969852
101304.3619242725
101294.7010442546
101292.4114557424
101286.4220597661
101281.8599161842
101281.5827456838
101276.5517744769
101276.2039153867
101276.4578698652
101276.3847757543
101277.801684195
101279.4786441227
101280.9104137894
101286.1738047589
101289.4666802273
101294.8307072905
101301.317140053
101306.3260542386
101313.1054963943
101319.5803303371
101326.2012035501
101333.0023300206
101339.3389016965
101345.8982552126
101351.6993935312
101357.1233932045
101362.2097249354
101366.3665403156
101371.6835641669
101372.9261985463
101372.8625479026
101372.8141513357
101372.5065780405
101371.0042695965
101370.9474629548
101368.2499384287
101364.6077136418
101362.668240086
101356.3148233438
101351.3196305313
101345.7630974914
101338.0178092171
101332.1747941616
101325.0935099992
101318.2717404911
101312.0431282683
101305.4454824066
101299.4367295615
101293.733517897
101288.4953184391
101282.977179145
101278.1157778709
101277.6213488193
101277.7159115128
101277.9420336336
101277.929086706
101279.4037997946
101280.2894424723
101281.4249350686
101285.3962009325
101287.3852512054
101292.0244018721
101297.6073606972
101302.3295183843
101309.6756832723
101316.0670952078
101322.9800166867
101330.2703561186
101336.7044653104
101343.3447287322
101349.4199436539
101355.2025676751
101360.5727276931
101366.5189315355
101371.7080849206
101371.9131203963
101371.8476917033
101371.977306148
101370.9719694152
101370.8401768159
101369.645653359
101367.2900213802
101366.2122658486
101362.3055806981
101358.5163597143
101354.8096733405
101348.171719159
101342.9286163136
101336.1515807729
101328.7721908047
101322.1095524126
101314.6360249228
101307.8587345151
101301.3332090107
101295.0129951394
101289.6527644829
101282.8189607702
101278.6754329251
101278.5929332955
101278.7171153794
101278.6590464671
101279.3476902627
101279.9125367204
101280.5495014683
101282.9135281329
101284.3335380129
101287.1741880204
101291.3121040034
101294.7052685271
101300.2856655522
101306.0517963423
101311.9131173339
101319.1999057074
101326.1356082729
101333.2029032707
101340.5515072417
101347.2336083985
101353.7176876454
101359.5726815771
101366.6549157487
101370.8724994982
101370.9766181064
101370.8665117433
101370.8557631553
101370.413301589
101369.7234499922
101369.2801200332
101367.1132308808
101365.66464084
101363.4551416835
101359.0870168023
101356.461781279
101351.2202008736
101345.1294362955
101340.2109715618
101332.6684564295
101325.8360959771
101318.7670470471
101311.0183233327
101304.1660340045
101296.978056729
101290.7908948557
101282.5125432521
101279.2975342298
101279.2885557715
101279.3938390614
101279.3764539183
101279.9817312656
101280.4846901208
101281.0392224952
101283.110713109
101284.291928836
101286.831038745
101290.3754504017
101293.3954861462
101298.4764333056
101303.4387665146
101309.1138611266
101315.8609324291
101322.3642573502
101329.7072375933
101336.949409945
101344.0842718954
101351.3692605867
101357.7285810121
101366.3159086811
101370.2277827538
101370.3117368722
101370.1948261304
101370.1382096891
101369.9676105419
101368.9875387957
101368.7920750445
101367.3437422301
101365.220347818
101363.9372000643
101360.2619711099
101357.0170823324
101353.219971387
101347.5604129981
101342.6206862046
101336.0168170999
101329.2951275618
101322.3686684718
101314.5260274474
101307.3624545605
101299.6050294241
101292.5985149775
101282.9172749003
101280.1132836936
101280.0720859421
101280.0879023947
101280.3687238974
101280.3868724424
101281.14076409
101282.0949635056
101282.6147650682
101285.0412520365
101286.7179522884
101289.0024191104
101293.365336704
101296.2862100797
101301.4016405852
101307.0942433263
101312.1859040766
101319.4751524216
101326.0684811436
101333.1458438493
101340.9963332527
101348.1558569339
101355.2235074554
101364.3285771563
101369.6969522689
101369.8615695501
101369.8496934841
101369.5954932245
101369.5711414811
101368.9261450621
101367.9637343378
101367.5162022779
101365.2578124936
101363.5257843777
101361.5612851127
101357.2843163889
101354.504884119
101349.8090746116
101344.1110175922
101339.2878299868
101332.1265706339
101325.4558024783
101318.423393226
101310.3341500387
101302.8470242686
101295.4783678811
101285.2010753289
101280.6428584186
101280.5416223778
101280.4974063673
101280.7425813684
101280.8047193708
101281.4003406612
101282.0544900954
101283.1758552591
101284.8578562799
101286.3366779273
101289.2794751627
101291.9849569615
101295.6018418547
101300.0707790695
101304.6161755287
101310.5468198484
101316.3194795889
101323.097545725
101330.3025057068
101337.3495506998
101345.3026893158
101352.5084313008
101361.3455520421
101368.6983997104
101369.1663486727
101369.2022651879
101368.9746604887
101368.8490969311
101368.6213464009
101367.5086870449
101367.0081806971
101365.6284541981
101363.2719453066
101362.119852102
101358.5593182738
101354.8614656596
101351.8106269094
101346.0416305198
101341.1121023735
101335.2583921423
101328.1150191124
101321.5565301272
101313.7213310063
101305.8626926247
101298.4988309188
101288.7857064377
101281.6604579928
101281.0767875305
101281.0921252321
101281.2866714085
101281.2549684984
101282.0598902499
101282.4307521609
101283.1750567766
101285.176787476
101286.0882987423
101288.7343452419
101291.6866422964
101294.2159254736
101298.9750805266
101303.089800477
101308.0379827795
101314.358725583
101320.1103600086
101327.1546763912
101334.5081147617
101341.7183118366
101349.7083418893
101357.1450331478
101367.1786917203
101368.7666288855
101368.8400995821
101368.8164085354
101368.4858500034
101368.2540440018
101367.6894756706
101366.5099288844
101365.9375211339
101363.7747536411
101361.6585069803
101359.9990879353
101355.5578607298
101352.3393161631
101348.3863975662
101342.3184901119
101337.4868595276
101330.9603798371
101323.8383305648
101317.0694988384
101309.0260026284
101301.1516282026
101293.3165926037
101282.9412696315
101281.6170660132
101281.5590096878
101281.6140608756
101281.7867806768
101282.2851601815
101282.4861519098
101283.7233202166
101284.9363686412
101285.7444267027
101288.7706452319
101290.7945118536
101293.6005739757
101297.9779586567
101301.4896606966
101306.7112514456
101312.098863911
101317.7428951201
101324.6847075358
101331.2601939119
101338.6673172517
101346.5506386977
101353.4800178209
101363.6967952111
101368.1952337669
101368.225981551
101368.1626964514
101368.172526971
101367.5479778479
101367.3316583622
101366.695197391
101365.0593330546
101364.3356835524
101362.0985025592
101359.5160271535
101357.2925200383
101353.0897792167
101349.3897758335
101344.819224039
101339.0466825404
101333.5980297921
101326.8434305423
101319.7547416623
101312.5050304391
101304.376759206
101297.0819096522
101286.3486729736
101282.2208097889
101282.1784033933
101282.0348914695
101282.3914868908
101282.5870152477
101282.8425857276
101284.1065562981
101284.6308831349
101286.1511884431
101288.4758946175
101289.9783650224
101293.3861336601
101296.6750852797
101300.1058774204
101305.3113111563
101309.9684864749
101315.6413390834
101322.0900289927
101328.5598546968
101335.8317800164
101343.1659461394
101350.6060530406
101359.249611255
101367.2129573306
101367.7279737417
101367.7366481915
101367.5480047157
101367.4353125073
101367.1036240456
101366.088383727
101365.5708647016
101363.9994253857
101361.9912086828
101360.7805953228
101357.2115065859
101354.0882582501
101351.0341939101
101345.7118092301
101341.3152563521
101335.5987780341
101329.1254440121
101322.841389671
101315.1971304914
101307.744667066
101300.2762539722
101291.0181242445
101283.0601323342
101282.6616783689
101282.7642263689
101282.6999970103
101283.0038108782
101283.1416108445
101284.297096542
101284.7540788519
101285.8983097577
101288.2940488095
101289.6021625303
101292.6167909821
101295.8827637021
101299.0499395306
101303.8362158061
101308.3224498972
101313.7201046213
101319.8608924855
101326.0159648601
101333.084329292
101340.2564942263
101347.7245151537
101355.1451246785
101365.1770250405
101367.0000214373
101366.9729425586
101366.9424841325
101366.8766417177
101366.2510856604
101366.1720670773
101365.0632470469
101363.7552753587
101362.9839830995
101360.1454680302
101358.2012000004
101355.5088641457
101351.1542146575
101347.9278062736
101342.8285677232
101337.3405082084
101331.9760628975
101325.0029075365
101318.2701545272
101310.9836536888
101302.9979801004
101295.6909473165
101285.1505184725
101283.1942937581
101283.1973983823
101283.1468808436
101283.4890619133
101283.5213546485
101284.39923697
101285.2110276215
101285.8172274996
101288.0913286913
101289.4817424384
101291.7768205097
101295.2337319732
101297.9608499746
101302.3826905029
101306.8426027465
101311.6448325352
101317.7097862397
101323.4641589243
101330.2577346388
101337.2856303079
101344.482023263
101351.673839065
101361.1484898082
101366.4885130667
101366.5880162074
101366.5015571766
101366.4962527573
101366.1398835207
101365.6558350015
101365.2594899247
101363.8324677523
101362.7335754105
101361.0731500672
101358.4117478747
101356.1098748995
101352.6531194818
101348.6512271558
101344.5759997526
101339.3022408129
101333.6997386204
101327.7227414218
101320.8325471905
101313.7692089745
101306.3382400234
101299.0230088172
101289.2238594492
101283.7561263654
101283.6339699846
101283.6669802318
101283.8334983147
101283.8544291009
101284.622126618
101285.0870067798
101286.2395431496
101287.8208948194
101288.9649456778
101291.993293266
101294.1145942906
101297.1186687793
101301.6735348747
101305.0480679517
101310.2424644619
101315.7964911886
101321.1604538973
101327.9226715519
101334.5263978758
101341.5365961441
101348.8867018266
101356.6317213435
101365.2727097893
101365.995184294
101366.0373196376
101365.8835473365
101365.7562885253
101365.4910968049
101364.5327578742
101364.0216904306
101362.8532511368
101360.6091468667
101359.5386534328
101356.4748283881
101353.1072977399
101350.4451795978
101345.4044056788
101340.9898282304
101335.996987668
101329.5119237789
101323.6293216279
101316.5083816147
101309.1505600506
101302.0345606591
101293.5796142587
101284.8922870668
101284.2596766533
101284.2378288387
101284.3196020604
101284.4700806531
101284.9060114928
101285.3634084103
101286.3723063609
101287.5001764885
101289.1239008161
101291.2314623211
101293.448335066
101296.7132476789
101299.976424588
101303.9541263938
101308.7210162583
101313.5419237334
101319.2749848918
101325.3352540419
101331.8201269374
101338.6819605423
101345.8607778342
101352.6906043861
101362.5303534607
101365.4673838401
101365.4872637212
101365.4480018307
101365.2475723085
101365.1202738242
101364.5958718028
101363.6701705195
101362.8789748245
101361.328151367
101359.3127180292
101357.3578319063
101354.2698108382
101350.9976468514
101347.2171487857
101342.604358691
101337.6604886733
101331.9620277664
101325.9203092568
101319.1479817632
101312.1549539909
101304.8104094953
101297.6028521952
101287.5743580425
101284.7196213561
101284.7043692431
101284.8117276201
101284.9395905276
101285.0413937311
101286.0179656458
101286.4910276569
101287.200388034
101289.4735898153
101290.5164695534
101292.929135526
101296.1769678472
101298.6741474058
101303.0284316457
101307.1875770308
101311.7491631401
101317.5492749255
101322.9838790656
101329.3907421852
101336.1035895003
101342.8998579613
101349.79799606
101358.4697098575
101364.6705235284
101364.9231665456
101364.9279252882
101364.7263013091
101364.675770486
101364.2296536506
101363.445204583
101362.8226893209
101361.2477322021
101359.7187362199
101357.6834815464
101354.8542996786
101352.0192637529
101348.2298659615
101344.0011453759
101339.4153135266
101333.9150167506
101328.1153834071
101321.8278159882
101314.8995490056
101307.7686978954
101300.8299386859
101291.6955975098
101285.4461915461
101285.2552456045
101285.3282233797
101285.390168154
101285.5751097153
101286.0350421036
101286.7137492285
101287.5406724798
101288.9812863426
101290.470369377
101292.6235165892
101295.1815394001
101298.1382066074
101301.7269958482
101305.7814912184
101310.3660514201
101315.3857279746
101321.1343854388
101326.9883782966
101333.4835880389
101340.2766836182
101347.0555013955
101354.0584323356
101363.0991194601
101364.419546745
101364.5173114605
101364.5073448763
101364.1331339404
101363.8932872684
101363.4264097683
101362.2222275782
101361.5625313915
101359.7943931546
101357.7778567165
101355.8030586421
101352.4864584115
101349.4322124064
101345.459375868
101340.7752834807
101336.0164076977
101330.223110813
101324.1921109166
101317.6467130118
101310.6401762271
101303.5269355402
101296.1407965459
101286.9125103616
101285.7760765428
101285.7107761289
101285.7977189193
101285.9723898426
101286.3945654467
101286.7904023614
101287.8068492372
101288.7822556318
101290.2603092119
101292.316237707
101294.4218918969
101297.5091748865
101300.6130953747
101304.5370363606
101308.9668274603
101313.5917050542
101319.1098582924
101324.7431441213
101330.9241431215
101337.4740584265
101344.246050046
101350.7036314965
101359.9214846171
101363.8528802317
101363.8449736353
101364.0081137474
101363.7991884444
101363.4648879778
101363.1693343047
101362.3872881171
101361.3160350931
101360.1336636428
101358.2372362882
101356.1526566891
101353.574470415
101350.2694227398
101346.7573787835
101342.4682706221
101337.6753562158
101332.3939222658
101326.5822090851
101320.1727903616
101313.5416448571
101306.4562318155
101299.6707192722
101290.1558515049
101286.3150971435
101286.3463307378
101286.3058049021
101286.4423360811
101286.599923007
101287.4306395351
101287.7601126159
101288.6532605283
101290.5954237672
101291.5945319832
101294.102671014
101296.7912631122
101299.344480092
101303.5114433165
101307.1722956151
101311.7998522118
101317.1119045161
101322.309617081
101328.5458148635
101334.7838830614
101341.3985429286
101348.0897946198
101355.8149527192
101362.9257425556
101363.3520214603
101363.3544924172
101363.2537020192
101363.0729862382
101362.7291332039
101362.2606440213
101361.0468881732
101360.0290630506
101359.0218122282
101356.065807825
101354.4170650144
101351.4832847422
101347.403984056
101344.276961397
101339.210763132
101334.1894116417
101328.9836710708
101322.4031313709
101316.2053057886
101309.2934281528
101302.3510749047
101294.253613917
101287.1411802083
101286.8132004356
101286.7847738056
101286.9801419471
101287.0410343938
101287.4850705017
101288.2596332463
101288.7384141108
101290.3013994905
101291.7468369554
101293.3307014442
101296.3897377882
101298.5904699302
101302.1720633576
101306.2901994045
101309.9850551932
101315.5104752958
101320.5333098857
101326.016373706
101332.7185663325
101338.672470421
101345.4798871402
101352.0585847489
101360.9561189651
101362.9154003143
101362.9763146847
101362.9747802696
101362.7198561102
101362.405781563
101362.0839701446
101361.0032188727
101360.2571003015
101358.770721067
101356.7733233858
101354.9252822063
101351.8175188985
101348.8368880706
101345.132134605
101340.6142304176
101336.1404072452
101330.5956932666
101324.889766168
101318.6829280273
101311.9553097329
101305.1811429723
101298.2725740246
101289.0448386151
101287.3940303098
101287.4134396129
101287.4922436458
101287.523487973
101287.9646934424
101288.3750178201
101289.0785820073
101290.2560645808
101291.5063730889
101293.4034177945
101295.4171927383
101298.2559955792
101301.1742386598
101304.7168306857
101309.0743249316
101313.2620152647
101318.5027445103
101324.0888334243
101329.6912688186
101336.1947478558
101342.7403563137
101348.863849843
101357.4179319837
101362.3633625204
101362.4671010009
101362.3939263416
101362.4008699249
101362.0011183077
101361.6352968986
101361.2251700848
101359.82957207
101359.0400992867
101357.295436202
101354.9598022081
101353.0832065532
101349.5103891608
101346.2924778816
101342.5007572145
101337.3698858871
101332.9040200333
101326.9950447619
101320.8664110252
101314.8912313118
101307.6169937707
101301.359755617
101292.6589116823
101287.7869676279
101287.6961416765
101287.7248601601
101287.8214038135
101288.3070466606
101288.3660541652
101289.1148193627
101290.3792307284
101291.1030503992
101293.1220076048
101295.060273311
101297.245528134
101300.6002933503
101303.6527287954
101307.5998940346
101312.07355638
101316.7500920099
101322.113337921
101327.7572030896
101333.8192657624
101340.112557541
101346.5105038064
101353.3906377497
101361.2548048589
101361.9256558096
101361.9609594796
101361.9019910356
101361.7037115455
101361.4226074407
101360.792855771
101360.0484603648
101359.0992818664
101357.1244825124
101355.9022808616
101353.4144917908
101350.1151345368
101347.6869406308
101343.317586281
101339.0233455219
101334.6774136153
101328.8317757276
101323.3817840262
101317.1819766706
101310.4836117847
101304.0984944254
101296.6990373271
101288.9323478039
101288.2199388825
101288.208952825
101288.3785338218
101288.4358676798
101288.8630937751
101289.5558926005
101290.0701182103
101291.4495180278
101292.798106182
101294.4660151075
101297.0420380048
101299.4049624175
101302.7944933827
101306.3644793819
101310.3814738696
101315.2306820599
101320.0091764432
101325.6484560276
101331.5318740305
101337.5228842886
101344.2261924766
101350.2143798507
101358.7085265974
101362.603696786
101362.6480737981
101362.608255201
101362.6076023354
101362.2585178508
101362.0248876452
101361.6575130059
101360.7428729643
101359.9780389056
101358.6108741999
101357.3219232812
101355.3548091421
101353.148657177
101350.9849376593
101347.6980547111
101344.8247867545
101341.4494765675
101337.5092630459
101334.0575260068
101329.73727259
101325.3493817208
101325.000179878
101324.9999999952
101324.9999999948
101324.9999999949
101324.999999995
101324.9999999953
101324.9999999963
101324.9999999961
101324.9999999968
101324.9999999974
101324.9999999983
101324.9999999985
101324.9999999991
101324.9999999993
101324.9999999997
101324.9999999997
101324.9999999999
101324.9999999999
101324.9999999998
101324.9999999999
101324.9999999998
101324.9999999998
101324.9999999999
)
;

boundaryField
{
    inlet
    {
        type            uniformFixedValue;
        uniformValue    sine;
        uniformValueCoeffs
        {
            frequency       constant 3000;
            scale           constant 50;
            level           constant 101325;
        }
        value           uniform 101312.8819131453;
    }
    outlet
    {
        type            waveTransmissive;
        gamma           1.4;
        fieldInf        101325;
        lInf            2.25;
        value           uniform 101324.9999999999;
    }
    frontAndBack
    {
        type            empty;
    }
}


// ************************************************************************* //
