/*--------------------------------*- C++ -*----------------------------------*\
| =========                 |                                                 |
| \\      /  F ield         | OpenFOAM: The Open Source CFD Toolbox           |
|  \\    /   O peration     | Version:  v2012                                 |
|   \\  /    A nd           | Website:  www.openfoam.com                      |
|    \\/     M anipulation  |                                                 |
\*---------------------------------------------------------------------------*/
FoamFile
{
    version     2.0;
    format      ascii;
    class       volScalarField;
    location    "0.007";
    object      pMean;
}
// * * * * * * * * * * * * * * * * * * * * * * * * * * * * * * * * * * * * * //

dimensions      [1 -1 -2 0 0 0 0];


internalField   nonuniform List<scalar> 
1000
(
101325.0392019967
101325.0224880207
101325.0173092084
101325.0533776891
101325.0732785139
101325.104987694
101325.1444365437
101325.1917224322
101325.2211587419
101325.28406235
101325.3298734127
101325.3752185646
101325.4256268653
101325.4886455498
101325.5202679857
101325.563616845
101325.6236695947
101325.6526973374
101325.678528827
101325.7116699725
101325.7396093524
101325.7500417373
101325.7428983532
101325.7665856824
101325.7605729147
101325.7377474613
101325.7056394058
101325.7089237391
101325.6773249284
101325.6074325626
101325.5900385984
101325.5618518413
101325.4827736534
101325.4244271868
101325.4186827512
101325.3458360807
101325.2802365165
101325.2549431469
101325.2177201857
101325.154845528
101325.1137041461
101325.1004006919
101325.056400172
101325.0319767104
101325.0174176709
101325.0123322338
101325.0052074815
101325.0047856578
101325.0217204817
101325.0397837845
101325.0578224073
101325.0925832532
101325.1295640329
101325.1603567753
101325.2163761118
101325.2699965944
101325.3052262351
101325.3598589262
101325.4151331587
101325.4519172157
101325.5016635413
101325.5543283768
101325.5841878054
101325.6256469213
101325.6759016033
101325.693937321
101325.7142361202
101325.7440562597
101325.7580544913
101325.7526728134
101325.752448707
101325.7487219757
101325.7320993601
101325.7028705178
101325.6786357306
101325.6483213843
101325.6010264656
101325.5556293952
101325.5122204384
101325.4605936965
101325.4060157219
101325.3705610989
101325.3191543787
101325.2647906498
101325.2298691508
101325.1868920141
101325.1399536857
101325.1067249592
101325.079038263
101325.0446474865
101325.0316050852
101325.0125684919
101325.0059510047
101325.0064872826
101325.0186684556
101325.0254986039
101325.04961954
101325.0819402121
101325.115525448
101325.1499783843
101325.1995478411
101325.252483094
101325.2966720252
101325.3407172089
101325.3919424132
101325.4420225277
101325.4807470181
101325.5266535164
101325.5752249383
101325.6087595112
101325.6441950783
101325.6848633589
101325.7067792135
101325.7214065388
101325.751193371
101325.7568918384
101325.7456720023
101325.7556161181
101325.7444581159
101325.7056772776
101325.6908966873
101325.6688780885
101325.607758041
101325.5668752534
101325.536296812
101325.470241522
101325.4219364299
101325.3919637917
101325.3362038832
101325.2793894205
101325.2572672935
101325.2048954945
101325.1519071547
101325.1326034183
101325.0990728061
101325.0549463667
101325.0396732138
101325.0330164569
101325.0046106689
101325.0061238344
101325.0179801946
101325.0216391891
101325.0343492904
101325.074598858
101325.0986526896
101325.1350208868
101325.1942104294
101325.2281103063
101325.2823074378
101325.3327818421
101325.3694772524
101325.4185341198
101325.4759685193
101325.5047589166
101325.5447113656
101325.6087440491
101325.6237504933
101325.6551930299
101325.7034107105
101325.7186343531
101325.7245119003
101325.7551658104
101325.7607962381
101325.7383327198
101325.7480963718
101325.7339202858
101325.6920849962
101325.6674375242
101325.6468954147
101325.5769543394
101325.5345478712
101325.5021565095
101325.4420823367
101325.3949220765
101325.3604249108
101325.3079110979
101325.2579901727
101325.234236193
101325.1771713819
101325.1389104377
101325.1198195895
101325.0767506512
101325.047441423
101325.0407559664
101325.0217391878
101325.0012558813
101325.0205771035
101325.0216733021
101325.0259515051
101325.0625268017
101325.0930914579
101325.1183722556
101325.1762816864
101325.2257463179
101325.2606163269
101325.3118904474
101325.3634774782
101325.4016455264
101325.4428410043
101325.5006958389
101325.530069965
101325.5734021033
101325.6145307965
101325.6466998546
101325.6768848708
101325.7019828289
101325.726912568
101325.7385265885
101325.7484620015
101325.7483358381
101325.749691532
101325.728154062
101325.7103946596
101325.6842239392
101325.6484283844
101325.5964407363
101325.5569547842
101325.510304461
101325.4572593806
101325.4194650213
101325.3756206898
101325.321451057
101325.2817518067
101325.2479465498
101325.19572208
101325.1584487302
101325.1338254906
101325.0928063216
101325.0656734885
101325.0504076405
101325.0286443519
101325.0144546449
101325.0216534349
101325.0194441733
101325.0281114283
101325.0525221718
101325.0805770982
101325.1120382971
101325.1604023226
101325.208320966
101325.250478244
101325.297759468
101325.34362287
101325.3872686969
101325.4314059172
101325.4782172212
101325.5178308169
101325.555747998
101325.5980369201
101325.6312153121
101325.6633242326
101325.6887882845
101325.7159866598
101325.7297395202
101325.7426445943
101325.7461585335
101325.7456316757
101325.7345967161
101325.7175777543
101325.6924640731
101325.6588234923
101325.6140728518
101325.5702405076
101325.5256594371
101325.4773175846
101325.4309872918
101325.3933874417
101325.3438727104
101325.298357737
101325.2598112249
101325.2224130108
101325.173670459
101325.1457559152
101325.1143740817
101325.0785992062
101325.0601698363
101325.0421598425
101325.0247801062
101325.0186300909
101325.0268266082
101325.0273036454
101325.0434583144
101325.0752099571
101325.1018458785
101325.1452537358
101325.1918715662
101325.2424411769
101325.2750146073
101325.3329977218
101325.370384088
101325.4148519087
101325.4590219511
101325.5023429105
101325.5398406663
101325.5767901864
101325.6200377101
101325.6455355976
101325.6775719117
101325.6986311405
101325.7232579129
101325.7325291364
101325.7399796734
101325.7420187707
101325.7349874824
101325.7239633379
101325.6933411089
101325.6726334884
101325.6278648599
101325.5844522653
101325.5370095926
101325.492959504
101325.4487356889
101325.4028879262
101325.3620995806
101325.3135668501
101325.2760547323
101325.2341483852
101325.196398113
101325.155702032
101325.1268278198
101325.0944370539
101325.0703258673
101325.0493771768
101325.0325000819
101325.0282264633
101325.0242224201
101325.02883008
101325.0431261843
101325.0652439903
101325.0911361633
101325.1339894324
101325.1785579462
101325.2210645469
101325.2704602202
101325.3114701949
101325.3530001334
101325.4035844509
101325.4436233386
101325.4827150506
101325.5263828529
101325.5647358816
101325.5986034933
101325.6355692758
101325.6623369557
101325.6860017104
101325.7109830123
101325.7289155389
101325.7306523825
101325.7364686684
101325.7410185001
101325.7235383415
101325.6990767126
101325.6813061389
101325.646607457
101325.5932704174
101325.5567099365
101325.5109336872
101325.4636047317
101325.4213803944
101325.3806997641
101325.3325799401
101325.2916085399
101325.2548286517
101325.2114794373
101325.1756968747
101325.141923812
101325.1134073812
101325.0839258922
101325.0622020506
101325.0462755695
101325.0348902043
101325.0319622219
101325.0284699348
101325.0439358351
101325.0603568326
101325.0864761858
101325.1168960076
101325.1684853974
101325.2071594445
101325.2547047297
101325.296821553
101325.3386442927
101325.3855756589
101325.4280670837
101325.4687126641
101325.5050072718
101325.5533060216
101325.5823036467
101325.6163183648
101325.6497800753
101325.6782338837
101325.6943005852
101325.7165498532
101325.7309620528
101325.7291406371
101325.734965777
101325.7239769416
101325.7078964573
101325.6836522586
101325.6589247783
101325.6090450168
101325.5667770094
101325.5295622899
101325.4777499693
101325.4355293442
101325.3968378054
101325.3506102948
101325.305016031
101325.2721535684
101325.2313914623
101325.1850813082
101325.1612245987
101325.129693835
101325.0928446715
101325.0751710775
101325.0608492803
101325.0384551919
101325.0358553947
101325.0399424366
101325.0394469278
101325.055820347
101325.0842612349
101325.1085885899
101325.1481591856
101325.2006769052
101325.2391775208
101325.2781269048
101325.3299905084
101325.3691183076
101325.4082533765
101325.4527374294
101325.4975691867
101325.5282378387
101325.570871082
101325.6053669176
101325.6327708073
101325.6628375283
101325.6882900389
101325.7061176276
101325.7179754821
101325.729074882
101325.7278437842
101325.7238662093
101325.7118879594
101325.6897251759
101325.6630273887
101325.6260505894
101325.5813367643
101325.5375289559
101325.4969815047
101325.449729527
101325.410793975
101325.3672932621
101325.3259034317
101325.2829496094
101325.248477957
101325.2083586226
101325.1702827551
101325.143591896
101325.1132524763
101325.0847720912
101325.0664798491
101325.0559641088
101325.037828579
101325.0421587793
101325.0450598712
101325.0522133564
101325.0753869836
101325.1037796642
101325.1365539038
101325.1798211093
101325.2303784895
101325.2658662645
101325.3108222621
101325.3532003255
101325.3976799978
101325.4360678121
101325.4803393769
101325.5131777087
101325.5532986821
101325.5925186377
101325.618264005
101325.6502363964
101325.6758655342
101325.6969745594
101325.7084054671
101325.7238532413
101325.7238826132
101325.7204313348
101325.7162823648
101325.6957343339
101325.6676400392
101325.6403150999
101325.599865561
101325.5496066222
101325.5095006462
101325.4717797613
101325.4234824952
101325.3828184569
101325.3443785277
101325.300500751
101325.2593845249
101325.2293771845
101325.1878355823
101325.1523827668
101325.1292152023
101325.1026242687
101325.0741876121
101325.0617625746
101325.0541842578
101325.0405004265
101325.047693797
101325.0576092807
101325.068663819
101325.0942396847
101325.1300221278
101325.1687379643
101325.2081214527
101325.2595594081
101325.2947328807
101325.3379447808
101325.3826488857
101325.4242232792
101325.459644528
101325.5009227778
101325.542463614
101325.5704417279
101325.6099705986
101325.635207727
101325.6631788854
101325.6828064088
101325.7046028663
101325.7128456232
101325.7199226564
101325.719634596
101325.7116780471
101325.7013723506
101325.6739624087
101325.6500935504
101325.6082285285
101325.5675320127
101325.5223459967
101325.4835396936
101325.4400947802
101325.3967066354
101325.3587071971
101325.3176603958
101325.2771308396
101325.2382512091
101325.2075390615
101325.1680950827
101325.1396316431
101325.1146175657
101325.0909482724
101325.0680918512
101325.0592239222
101325.0533335578
101325.0467299951
101325.0555322248
101325.0701920316
101325.090215325
101325.1152973066
101325.158858517
101325.1994703567
101325.2405006882
101325.2828547855
101325.3261875367
101325.3652827976
101325.407360801
101325.4478950807
101325.4866048106
101325.5247264704
101325.5582080705
101325.5937674567
101325.6230209435
101325.6508123885
101325.6735911456
101325.69267522
101325.7058535228
101325.7156120772
101325.7161978713
101325.7113560597
101325.7036827709
101325.6816642774
101325.6557299947
101325.6249993785
101325.5812428144
101325.5368205145
101325.4971906808
101325.4590775467
101325.411617193
101325.3739956215
101325.3366536633
101325.2916376758
101325.2551551852
101325.2235878604
101325.1858256189
101325.151166812
101325.1298459317
101325.1024875009
101325.0804818982
101325.0667567987
101325.0588845444
101325.0536940558
101325.0579786735
101325.0678571086
101325.0834363908
101325.1132118102
101325.143669346
101325.1865704846
101325.2278555221
101325.272311163
101325.3090787194
101325.3509190807
101325.3958283388
101325.4302580851
101325.4733504105
101325.5068609042
101325.5473168967
101325.5765915078
101325.6125454571
101325.637125861
101325.660395033
101325.6860955415
101325.6971483727
101325.7069860146
101325.7111822916
101325.7146334139
101325.6975299597
101325.6884418561
101325.6659415067
101325.6307241606
101325.5925253851
101325.5549089376
101325.5110762759
101325.4672299808
101325.4324397243
101325.3885693706
101325.3481595763
101325.3096684528
101325.2737681323
101325.2352653054
101325.1996652688
101325.1706053925
101325.1407513385
101325.1147645168
101325.0927018302
101325.0768180578
101325.0656345207
101325.0611787854
101325.0593285567
101325.0666771
101325.0847670648
101325.1044813098
101325.1322723836
101325.1757056032
101325.2160340934
101325.2562303636
101325.2955590059
101325.3410208315
101325.375002665
101325.4182125449
101325.4572414524
101325.4940780009
101325.5295389442
101325.5652928463
101325.59667539
101325.6228543185
101325.6528111877
101325.6712617921
101325.6879831326
101325.7013839152
101325.7086701622
101325.7060154697
101325.7020885596
101325.6906770028
101325.6655667415
101325.6434132118
101325.6082622488
101325.5627912099
101325.523307772
101325.4867377772
101325.4428527256
101325.4021842132
101325.3636476631
101325.3272052287
101325.2859309221
101325.2498670116
101325.2160920421
101325.1837597722
101325.155092653
101325.1251511353
101325.1060044268
101325.0872819072
101325.07405618
101325.0641072693
101325.0646587021
101325.0692716187
101325.0805987752
101325.0992685231
101325.1260428849
101325.163333683
101325.2024420948
101325.2433548312
101325.2844488439
101325.3254425848
101325.3624991957
101325.4047154682
101325.4418577795
101325.4779733435
101325.5170204245
101325.5524831202
101325.5819939729
101325.6097890846
101325.6435528083
101325.6595395135
101325.6786939904
101325.6944331395
101325.7029290921
101325.7014191268
101325.7037320896
101325.691977885
101325.6695644678
101325.6529674838
101325.6203214854
101325.5750730578
101325.5375986189
101325.502046432
101325.4564850381
101325.415925192
101325.3823760347
101325.3411339472
101325.3005951806
101325.2667607364
101325.2323980412
101325.1967108548
101325.1683763083
101325.1413816955
101325.1147469094
101325.0972935376
101325.0831329424
101325.0718916858
101325.065559928
101325.0724454709
101325.0799797308
101325.0937378816
101325.1191562012
101325.1500082804
101325.1923744188
101325.2277566784
101325.2717854747
101325.3086991644
101325.3502161558
101325.3877524735
101325.4267426725
101325.4653279403
101325.4980461451
101325.5383946051
101325.565960783
101325.5994148858
101325.6245747925
101325.650837097
101325.669271024
101325.6837496273
101325.6957430992
101325.7009945774
101325.6991012076
101325.6883564634
101325.6809847767
101325.6557990757
101325.627930661
101325.5896802182
101325.5537815015
101325.5106658209
101325.4708449215
101325.4351687713
101325.3933437846
101325.3551904224
101325.3186199585
101325.2831159
101325.2440544892
101325.2151918897
101325.1818776173
101325.1536895545
101325.1289721239
101325.1079249568
101325.09270692
101325.0783499356
101325.0732385092
101325.0740628659
101325.0806005558
101325.0919434263
101325.1151278539
101325.1403513538
101325.1798615915
101325.2180434341
101325.2586849595
101325.2956475487
101325.3375447901
101325.3745134732
101325.4126419562
101325.4508249014
101325.486671241
101325.5225284967
101325.5542025858
101325.5856584734
101325.6132244191
101325.639829328
101325.658490036
101325.6766312948
101325.688698783
101325.6954932865
101325.6971371606
101325.6897637982
101325.6810942704
101325.6603473027
101325.6370513462
101325.6033796854
101325.5624360326
101325.5249491507
101325.4851511258
101325.447057943
101325.4072842017
101325.3697668172
101325.332242396
101325.2953452909
101325.2615872513
101325.225906772
101325.195328278
101325.1664459433
101325.1416003635
101325.1176429153
101325.1001812169
101325.0872468989
101325.079311171
101325.0768988798
101325.0810153272
101325.0915802054
101325.1082370922
101325.133849912
101325.1664753488
101325.2076279321
101325.2441656187
101325.2829687618
101325.3238863689
101325.3595938904
101325.3988547136
101325.4340533427
101325.473828811
101325.5049214824
101325.5407847457
101325.5713409412
101325.5997257607
101325.6258809117
101325.6471176611
101325.6680722224
101325.6777273885
101325.6907045579
101325.6905695608
101325.691226237
101325.6794196221
101325.6663190828
101325.6427761971
101325.6141333196
101325.576028473
101325.5368796734
101325.4988775409
101325.4599227976
101325.4225715561
101325.3836324822
101325.3473532485
101325.3099221705
101325.275081081
101325.241721276
101325.2088852923
101325.1795252111
101325.1535955716
101325.1295310655
101325.1094868623
101325.096818398
101325.0846766102
101325.0807385775
101325.0826698228
101325.0907616634
101325.1054191596
101325.1267398255
101325.156176253
101325.1957473409
101325.2318149988
101325.2716435714
101325.3092614572
101325.3481183847
101325.3847268854
101325.4221733376
101325.4588010707
101325.4935437167
101325.5273548384
101325.5579766284
101325.5898013975
101325.613395706
101325.6388469078
101325.6574306085
101325.6722859629
101325.6830465676
101325.6886707327
101325.688234682
101325.6800470426
101325.6698463256
101325.6480203786
101325.6232591358
101325.5879028064
101325.5496796167
101325.5105215868
101325.4743623167
101325.4352331209
101325.3980875581
101325.3609483449
101325.3254231657
101325.2878842679
101325.2562597914
101325.2236767877
101325.1921722856
101325.1659119412
101325.1412660285
101325.1216953598
101325.1031257487
101325.0933974965
101325.0866555664
101325.0853537826
101325.0911295769
101325.1039192161
101325.1219812308
101325.1471725021
101325.1842810533
101325.2200365708
101325.2600101586
101325.2956724868
101325.3359898785
101325.3695543048
101325.4101268429
101325.4438148433
101325.4796164511
101325.5134824895
101325.5451394391
101325.5760263146
101325.6010117833
101325.6286993451
101325.6454503198
101325.6656211559
101325.6750034743
101325.6844549563
101325.6843249856
101325.6805314973
101325.6717029686
101325.6514513454
101325.6313831447
101325.5984205811
101325.560126809
101325.5215553879
101325.4832209712
101325.4441646293
101325.4048441887
101325.3690096552
101325.3287953067
101325.2930931718
101325.2559618851
101325.2219035881
101325.1867452213
101325.1557477639
101325.126024761
101325.0969381214
101325.0743718421
101325.0508618241
101325.0339603372
101325.0182389388
101325.0087913411
101325.0006482038
101325.000000334
101325.0000000002
101325.0000000002
101325.0000000002
101325.0000000002
101325.0000000002
101325.0000000002
101325.0000000002
101325.0000000002
101325.0000000002
101325.0000000003
101325.0000000003
101325.0000000003
101325.0000000002
101325.0000000003
101325.0000000003
101325.0000000002
101325.0000000003
101325.0000000003
101325.0000000003
101325.0000000002
101325.0000000002
101325.0000000003
)
;

boundaryField
{
    inlet
    {
        type            calculated;
        value           uniform 101325.0050468023;
    }
    outlet
    {
        type            calculated;
        value           uniform 101325.0000000003;
    }
    frontAndBack
    {
        type            empty;
    }
}


// ************************************************************************* //
