/*--------------------------------*- C++ -*----------------------------------*\
| =========                 |                                                 |
| \\      /  F ield         | OpenFOAM: The Open Source CFD Toolbox           |
|  \\    /   O peration     | Version:  v2012                                 |
|   \\  /    A nd           | Website:  www.openfoam.com                      |
|    \\/     M anipulation  |                                                 |
\*---------------------------------------------------------------------------*/
FoamFile
{
    version     2.0;
    format      ascii;
    class       volScalarField;
    location    "0.007";
    object      rho;
}
// * * * * * * * * * * * * * * * * * * * * * * * * * * * * * * * * * * * * * //

dimensions      [1 -3 0 0 0 0 0];


internalField   nonuniform List<scalar> 
1000
(
1.176235832413214
1.17628731589003
1.176248256285556
1.176167797849132
1.176146552803353
1.176094538527209
1.176055421281097
1.176052134440884
1.176010591996504
1.176007551138471
1.176009274777852
1.176008215503279
1.176019726057772
1.17603355745329
1.176045481876872
1.176089272425819
1.176116687749361
1.176161273467059
1.176215164304462
1.176256803566501
1.17631311302598
1.176366871258747
1.17642180627454
1.176478203303181
1.176530726119195
1.176585083972846
1.176633158834148
1.176678105449549
1.176720247599893
1.176754674588728
1.176798743721908
1.176809049960411
1.176808520664036
1.176808125866342
1.176805581842394
1.176793135725276
1.176792671446088
1.17677031118001
1.176740117464499
1.176724040233547
1.176671363766374
1.176629947065852
1.1765838749156
1.176519652281968
1.176471202076504
1.176412483709153
1.176355916759404
1.176304268341692
1.176249559213717
1.176199732689159
1.176152438948535
1.176109000531103
1.176063240270661
1.176022925231152
1.176018825096842
1.176019609214522
1.176021484161602
1.176021376526355
1.176033606108092
1.176040950534846
1.176050367138322
1.176083300076632
1.176099794984247
1.176138266230516
1.176184563228731
1.176223721994095
1.176284638589736
1.176337637285417
1.176394959386272
1.176455409544108
1.176508759177626
1.176563817019642
1.176614188884987
1.176662133979066
1.176706658500062
1.17675595847074
1.176798980714902
1.176800680631986
1.176800138171394
1.176801212785767
1.176792877748504
1.176791785083536
1.176781881549388
1.17676235129125
1.176753415849533
1.176721025656532
1.176689608974654
1.176658876713749
1.176603839455159
1.176560367011957
1.176504175095968
1.176442987194308
1.176387741654613
1.176325770788112
1.176269572119278
1.176215460086224
1.176163049542402
1.176118599163051
1.176061927774325
1.176027565697002
1.176026881530555
1.176027911351987
1.176027429774629
1.176033140664178
1.176037824894577
1.176043107231894
1.176062711803079
1.176074487771544
1.176098044783281
1.176132359227042
1.176160497703007
1.176206773239322
1.176254588194088
1.176303192004653
1.176363614672008
1.176421125080797
1.17647972554482
1.176540657128858
1.17659606128458
1.17664982257196
1.176698367200129
1.176757085784494
1.176792052990113
1.176792916201923
1.176792003294215
1.176791914130846
1.176788245735922
1.176782526269793
1.176778850675555
1.176760885223338
1.176748875112988
1.176730556347287
1.176694339866069
1.176672573961447
1.176629115036675
1.176578614167433
1.176537833289776
1.176475293516683
1.176418641053395
1.176360025020273
1.176295771569168
1.176238950424647
1.176179344265265
1.176128036843763
1.176059385900339
1.176032724029883
1.176032649545392
1.176033522595236
1.176033378365105
1.176038397857381
1.176042568815288
1.176047167502417
1.176064346068505
1.176074141712526
1.176095198099729
1.176124590854277
1.17614963512771
1.176191769135869
1.176232919010755
1.17627997883123
1.176335926600647
1.176389852409918
1.176450739289793
1.176510789121437
1.176569947891045
1.176630350075272
1.176683076750364
1.176754274030002
1.176786706728044
1.176787402752481
1.176786433427297
1.176785963989133
1.176784549550741
1.176776423894883
1.176774803304085
1.17676279534183
1.176745190364517
1.176734551924481
1.176704080495477
1.176677176782414
1.176645694466677
1.176598769292086
1.176557812161954
1.176503055884418
1.176447321631204
1.176389888507079
1.176324856985
1.17626545518576
1.17620112744839
1.176143026076414
1.176062741324501
1.176039487982999
1.176039146329533
1.176039277502346
1.176041606283672
1.176041756768485
1.176048008702655
1.176055921749348
1.176060232413966
1.176080354839468
1.17609425936382
1.176113203992639
1.176149384066071
1.176173605824817
1.176216025530304
1.176263230529202
1.176305452132015
1.17636589509944
1.176420566579542
1.176479250647512
1.17654434350371
1.176603706209188
1.176662306100164
1.176737796626374
1.176782305013099
1.176783669819395
1.176783571340641
1.176781463795807
1.176781261867688
1.176775914287291
1.176767935050759
1.176764224630539
1.176745500482556
1.176731140292641
1.176714852756862
1.176679391936574
1.176656347366881
1.176617413364158
1.176570168500113
1.17653017740656
1.176470798763539
1.176415486153379
1.176357174037356
1.176290096694042
1.176228011141241
1.176166907153814
1.176081680267848
1.176043879393512
1.176043039842619
1.176042673173503
1.176044706354395
1.176045221647939
1.17605016106849
1.176055585848608
1.176064885194376
1.176078833729491
1.176091097368116
1.176115501222043
1.176137936936486
1.176167930436634
1.176204989134059
1.176242681554296
1.176291860114884
1.176339727992922
1.176395931779451
1.176455674099615
1.176514106120548
1.176580049461372
1.176639794504809
1.176713064539946
1.176774026094754
1.176777905796981
1.176778203564428
1.176776316516162
1.176775275463522
1.176773387210492
1.176764162289097
1.176760012663778
1.176748573494205
1.176729035713479
1.176719483830769
1.176689963255182
1.176659303747725
1.176634008862745
1.176586176124325
1.176545303284121
1.176496767047376
1.176437536029696
1.17638315400979
1.1763181840892
1.176253018374589
1.176191954336898
1.176111407244162
1.176052318453833
1.176047478141887
1.176047605334106
1.176049218681162
1.176048955768941
1.176055630890731
1.176058706387631
1.176064878825904
1.176081478803391
1.176089037833954
1.176110980876162
1.176135463324561
1.17615643790396
1.176195903300111
1.176230024416652
1.176271056584099
1.176323469362782
1.176371162487937
1.176429573322215
1.176490546178032
1.176550330193788
1.176616578381099
1.176678238376404
1.176761426728894
1.176774592138391
1.176775201272746
1.176775004858327
1.176772264252799
1.176770342371962
1.176765661609958
1.176755882112357
1.176751136353127
1.176733204944276
1.17671565912381
1.176701900992956
1.17666507812752
1.176638392554259
1.176605618024172
1.176555306316326
1.176515244925352
1.176461129636257
1.176402074706288
1.176345948050713
1.176279250019177
1.176213952644262
1.176148981331264
1.176062940535141
1.176051959110434
1.176051477656274
1.176051934202659
1.176053366561912
1.176057499579403
1.176059166394481
1.176069426063727
1.176079485663773
1.176086186831833
1.176111282480095
1.176128065813382
1.176151335639205
1.17618763527396
1.176216756102505
1.176260055471072
1.176304730872378
1.17635153202453
1.176409093211472
1.17646361613185
1.176525033354216
1.176590397442729
1.176647851630169
1.17673255938747
1.17676985543363
1.176770110364046
1.176769585681986
1.176769667194226
1.176764489141323
1.176762695668741
1.176757418857829
1.176743856000809
1.17673785628414
1.176719307852215
1.176697896390217
1.176679461213095
1.17664461550582
1.17661393786551
1.176576041922389
1.176528178903157
1.176483000951633
1.176426993455071
1.17636821469449
1.176308099532788
1.176240697575872
1.176180206061755
1.176091198379413
1.176056966596358
1.17605661492812
1.176055424805252
1.176058382020744
1.176060003519957
1.176062122949454
1.176072604864748
1.176076953036913
1.176089560668168
1.176108838867627
1.17612129852956
1.176149557974091
1.176176831861383
1.176205281917676
1.176248447351819
1.1762870660636
1.176334106461027
1.17638757913859
1.176441226195997
1.176501522924795
1.176562334578141
1.176624023124145
1.176695688834132
1.176761712278009
1.176765982249773
1.176766054174558
1.17676449015979
1.176763555838176
1.176760805846251
1.176752388583924
1.1767480978958
1.176735069180736
1.176718419032671
1.176708381932389
1.176678790272932
1.176652894855915
1.176627573117346
1.176583443310199
1.176546989634918
1.176499591202869
1.176445916160614
1.17639380988464
1.1763304234596
1.17626862625431
1.176206695471259
1.176129922086236
1.176063927746937
1.176060623446096
1.17606147387087
1.176060941243314
1.176063460741208
1.176064603514994
1.176074185779173
1.176077975474134
1.176087464419103
1.176107331670543
1.17611817957181
1.176143178927554
1.176170262300493
1.176196526332628
1.176236216134347
1.176273417518648
1.176318176089842
1.176369095905785
1.1764201334383
1.176478742845972
1.176538211611932
1.176600132044691
1.176661659049493
1.176744833326018
1.176759947666999
1.176759723151882
1.176759470635445
1.176758924746554
1.176753738318073
1.176753083185674
1.17674389004593
1.176733045705744
1.176726651012016
1.176703116769074
1.176686996725324
1.176664674349684
1.176628568874058
1.176601817900512
1.176559538089159
1.176514033633081
1.176469553753483
1.17641173363538
1.176355906127548
1.176295485673555
1.17622926571904
1.176168673246848
1.176081263850021
1.176065041231419
1.176065066980513
1.176064648043569
1.176067485720006
1.176067753526464
1.176075033667452
1.176081765699573
1.176086792843594
1.176105651402364
1.176117181746191
1.176136214189055
1.17616488096386
1.176187495845052
1.176224163790906
1.176261146980892
1.176300968426729
1.176351259689007
1.176398974988423
1.176455306302624
1.176513579261195
1.176573248306096
1.176632878351569
1.176711433868212
1.176755707623695
1.176756532603296
1.176755815782301
1.176755771805342
1.176752817184896
1.176748803980933
1.176745517930735
1.176733686544696
1.176724575653059
1.176710809074355
1.176688743168286
1.176669658120622
1.176640997529454
1.176607816704583
1.176574027602022
1.176530300313839
1.176483846590971
1.176434286993828
1.176377154246654
1.176318584569109
1.176256965343096
1.176196304776984
1.176115044107549
1.176069701160256
1.176068688146217
1.176068961899614
1.176070342807291
1.176070516396459
1.176076882794755
1.176080737964412
1.176090295740597
1.176103409529912
1.176112896913968
1.176138009992106
1.176155601208665
1.176180512843168
1.176218283824074
1.176246266944482
1.176289340412889
1.176335395227717
1.176379873613443
1.176435945114089
1.176490701576805
1.17654882726886
1.176609769720478
1.176673986108223
1.176745628233002
1.176751618246658
1.176751967585065
1.176750692673783
1.176749637573937
1.176747438881447
1.176739493338507
1.176735256108065
1.176725568628568
1.176706962667641
1.176698087242986
1.176672684762071
1.176644763877876
1.17662269180256
1.176580896920977
1.176544293671657
1.176502895441667
1.176449123126462
1.176400345647437
1.176341298914155
1.176280286619927
1.176221278354046
1.176151166076599
1.176079123863425
1.176073877766897
1.176073696601806
1.176074374741311
1.176075622648119
1.176079237749059
1.176083030866624
1.176091397460467
1.176100750632268
1.176114215770048
1.176131693130366
1.176150076916067
1.176177151445179
1.17620421140051
1.176237196255201
1.176276724797845
1.176316700873327
1.176364239933327
1.176414491338815
1.176468262743682
1.176525158563947
1.176584681446665
1.176641310319145
1.176722892196896
1.176747242988355
1.176747407817608
1.17674708230953
1.176745420569222
1.176744365152717
1.176740017364624
1.1767323424029
1.176725782627835
1.176712924746616
1.176696214664679
1.176680006576241
1.176654403308715
1.176627273050157
1.176595927840485
1.176557681300718
1.176516689151184
1.176469439552216
1.17641934294262
1.176363187336235
1.176305200446716
1.176244297477931
1.176184529902909
1.176101366530034
1.176077692771875
1.17607756629382
1.176078456597759
1.176079516948403
1.176080361186332
1.176088459699518
1.176092382708269
1.176098265319668
1.176117116335666
1.176125764668411
1.176145772145277
1.176172705026599
1.176193413093972
1.176229520728629
1.176264009817578
1.176301835760071
1.176349930918793
1.176394994746263
1.176448119572274
1.176503780437105
1.176560132093211
1.176617327222705
1.176689226204653
1.17674063697166
1.176742731631438
1.17674277108521
1.176741099431272
1.176740680484938
1.176736981760782
1.176730477917092
1.176725316677028
1.176712258689389
1.1766995817209
1.176682707275708
1.176659250094628
1.176635744265759
1.176604325277789
1.176569263341202
1.176531240064793
1.176485633788268
1.1764375448033
1.176385409160751
1.176327959684266
1.176268829278134
1.176211290712172
1.176135543703969
1.176083718711157
1.176082135241874
1.17608274043656
1.176083254135548
1.176084787827106
1.176088601964169
1.176094230340349
1.176101087839374
1.176113034474935
1.176125383027371
1.176143238366953
1.176164451055396
1.176188969401378
1.176218729335367
1.176252350786918
1.176290367269016
1.176331991333156
1.176379659429248
1.17642820021199
1.176482057043476
1.176538382657239
1.176594588755146
1.176652652632713
1.176727609155455
1.176738556804277
1.176739367367056
1.176739284736235
1.176736182167419
1.176734193604715
1.176730322745413
1.17672033886136
1.176714869325266
1.176700209621162
1.17668349032285
1.176667117087811
1.176639618470884
1.176614294946846
1.176581354814546
1.176542516832825
1.176503058427894
1.176455022225035
1.176405014209906
1.176350740074844
1.176292640939118
1.176233655662866
1.176172407006528
1.176095879211875
1.176086455039509
1.176085913516237
1.176086634523895
1.176088083040362
1.176091584055468
1.176094866655364
1.176103295812164
1.176111384609195
1.176123641711703
1.176140690838527
1.176158152278581
1.176183753747423
1.176209493016827
1.176242031963807
1.176278765153568
1.176317115676392
1.176362872658355
1.176409583639406
1.176460835451992
1.17651514509459
1.176571295112902
1.176624837615523
1.17670126402776
1.176733859187227
1.176733793632729
1.176735146224477
1.176733414029826
1.176730642358482
1.176728191938837
1.176721708011066
1.176712826242495
1.176703023172729
1.176687299748951
1.176670016252405
1.176648640084249
1.176621237095635
1.176592117644446
1.176556554876139
1.176516814324617
1.176473022604608
1.176424833205624
1.176371686909277
1.17631670099147
1.176257947101556
1.176201679402758
1.176122776095563
1.176090925618823
1.176091184641826
1.17609084857575
1.176091980809731
1.176093287650514
1.176100176588898
1.176102908833932
1.176110315511672
1.176126421269076
1.176134706593416
1.176155505679928
1.17617780099402
1.176198973699302
1.176233527897903
1.176263885018203
1.176302257938057
1.176346306102853
1.176389405694367
1.176441115418907
1.176492839836115
1.176547685857849
1.176603165671004
1.176667217255212
1.176726172917412
1.176729707210643
1.176729727698847
1.176728892039339
1.176727393725288
1.176724542850223
1.176720658603743
1.176710595319794
1.176702156485704
1.176693805377411
1.176669296714259
1.176655626754067
1.176631302205446
1.176597479350945
1.176571552170792
1.176529545828824
1.176487910736199
1.176444746365284
1.176390181335641
1.17633878901344
1.176281474659471
1.176223906249489
1.176156758328382
1.17609777671289
1.176095056865549
1.176094821134073
1.176096441281547
1.176096946255836
1.176100628552546
1.176107051807311
1.176111022226859
1.176123983614717
1.176135970150407
1.176149104639084
1.176174471914907
1.176192721613358
1.176222421854057
1.17625657089523
1.176287209854757
1.176333027474841
1.176374677092498
1.17642014236776
1.176475715374146
1.176525083053476
1.176581526533476
1.176636073140596
1.176709843297527
1.176726087734283
1.176726592777709
1.17672658006771
1.176724466498309
1.176721862503505
1.176719194366451
1.176710233818349
1.176704047722333
1.176691724072334
1.176675163413125
1.176659841079492
1.176634073925745
1.176609360695964
1.176578643307783
1.176541183237247
1.176504088341049
1.176458113327168
1.176410800831403
1.176359334177967
1.176303548000792
1.17624737469213
1.176190086570794
1.176113563835521
1.176099874122811
1.176100035077332
1.176100688577839
1.176100947674869
1.176104606476694
1.176108009188434
1.176113843670101
1.176123608180192
1.176133976615061
1.176149708134991
1.17616640758106
1.176189948466359
1.176214147961742
1.176243524589997
1.176279658213849
1.176314383510903
1.176357840158464
1.176404159801538
1.176450614462028
1.176504539250187
1.176558812403389
1.176609585012169
1.176680508636195
1.176721511312089
1.17672237141317
1.176721764718852
1.176721822284652
1.176718507942998
1.176715474916166
1.176712074565807
1.176700503585689
1.176693958026559
1.176679492872251
1.176660127743603
1.176644568594067
1.176614945384659
1.176588264597871
1.176556825966648
1.17651428310223
1.176477253905575
1.176428258063665
1.176377440014311
1.176327893700613
1.176267574072687
1.176215687158699
1.176143534918974
1.176103133164198
1.176102379974515
1.176102618131728
1.176103418746655
1.176107446056273
1.176107935389046
1.176114144707383
1.176124630084309
1.176130632521893
1.176147375018713
1.176163448286451
1.176181569714704
1.176209389026511
1.176234701153315
1.176267432415296
1.176304529066032
1.176343307583569
1.176387779711304
1.176434577984818
1.176484843139042
1.176537024631701
1.176590072746294
1.176647118476373
1.176712320725882
1.176717882790609
1.176718175498953
1.176717686585695
1.176716042643374
1.17671371199247
1.176708490704388
1.176702318897186
1.17669444921243
1.176678075915651
1.176667942527174
1.176647315853323
1.176619959959866
1.176599827175408
1.176563599080279
1.176527993338764
1.176491958789965
1.176443488300701
1.176398297835721
1.176346889237839
1.176291345399004
1.176238398052552
1.176177038817374
1.176112631969193
1.176106724169436
1.176106633066545
1.176108039357393
1.176108514814239
1.17611205769033
1.176117802873523
1.176122067208015
1.176133506131349
1.176144689496375
1.176158520868847
1.176179882683996
1.176199477302315
1.176227584797823
1.176257188423596
1.17629049850928
1.176330708920783
1.176370332541433
1.176417093064205
1.176465877230048
1.176515552664358
1.176571133073627
1.176620783722904
1.176691209998887
1.17672350490874
1.176723872840961
1.176723542705937
1.176723537293463
1.176720643031641
1.17671870599916
1.176715660103805
1.176708076784471
1.176701735511557
1.176690400246394
1.176679713427434
1.176663403799248
1.176645112155187
1.176627172295681
1.176599919683909
1.176576096341844
1.176548110177771
1.176515439682164
1.176486819167595
1.176450996973902
1.176414613195975
1.176411717663715
1.176411716172153
1.176411716172149
1.176411716172151
1.176411716172151
1.176411716172154
1.176411716172163
1.17641171617216
1.176411716172167
1.176411716172172
1.176411716172179
1.17641171617218
1.176411716172186
1.176411716172186
1.176411716172191
1.17641171617219
1.176411716172193
1.176411716172191
1.176411716172192
1.176411716172192
1.176411716172191
1.176411716172191
1.176411716172192
)
;

boundaryField
{
    inlet
    {
        type            calculated;
        value           uniform 1.176271021779363;
    }
    outlet
    {
        type            calculated;
        value           uniform 1.176411716172192;
    }
    frontAndBack
    {
        type            empty;
    }
}


// ************************************************************************* //
