/*--------------------------------*- C++ -*----------------------------------*\
| =========                 |                                                 |
| \\      /  F ield         | OpenFOAM: The Open Source CFD Toolbox           |
|  \\    /   O peration     | Version:  v2012                                 |
|   \\  /    A nd           | Website:  www.openfoam.com                      |
|    \\/     M anipulation  |                                                 |
\*---------------------------------------------------------------------------*/
FoamFile
{
    version     2.0;
    format      ascii;
    class       volScalarField;
    location    "0.007";
    object      T;
}
// * * * * * * * * * * * * * * * * * * * * * * * * * * * * * * * * * * * * * //

dimensions      [0 0 0 1 0 0 0];


internalField   nonuniform List<scalar> 
1000
(
299.9820119459688
299.9855563200536
299.9805770669076
299.9724883476217
299.9711263570539
299.9666549563216
299.9631207171532
299.9631381675993
299.9588337040306
299.9585790370431
299.9588915553546
299.9589452504541
299.9602058736398
299.9616447139752
299.9628437362352
299.9672628708071
299.9700225146896
299.9745363341196
299.9800003965058
299.9842133578342
299.9899273292512
299.9953894551826
300.0009833739006
300.0067376094122
300.0121039074459
300.01766131862
300.0225758038143
300.02717115462
300.0314817220296
300.0350078247352
300.0395093246833
300.0405595558414
300.0405061145422
300.0404635298421
300.0402018098179
300.0389285771736
300.0388788143801
300.0365956533528
300.0335134466359
300.0318719047773
300.02649668521
300.0222705731512
300.0175695043351
300.0110166402318
300.0060729420857
300.0000811298092
299.9943084648044
299.9890372521235
299.9834533877848
299.9783676361776
299.9735403131158
299.9691064431845
299.9644353680104
299.9603201486569
299.9599015665326
299.9599816383005
299.960173125715
299.9601622339463
299.9614106359047
299.9621603746618
299.9631215509207
299.9664832062828
299.9681668306843
299.972093582905
299.9768191241359
299.9808157714174
299.9870332303203
299.9924423108148
299.9982924643329
300.0044617780996
300.0099062054815
300.015524854497
300.0206651494553
300.025557673531
300.0301010537091
300.0351315393528
300.0395214767931
300.0396949246313
300.0396395762849
300.0397492219279
300.0388987493424
300.0387872574547
300.0377767205658
300.0357839227116
300.0348721249833
300.0315670712434
300.0283613152615
300.0252251886915
300.0196090350217
300.015172727424
300.0094383163352
300.0031939940191
299.9975558081888
299.9912311846597
299.9854954536694
299.9799725452486
299.9746231814013
299.9700860970002
299.9643015436696
299.9607940917148
299.9607242548312
299.9608293804668
299.9607802280659
299.9613631720931
299.9618413197092
299.9623805025585
299.9643816460794
299.9655836473206
299.9679881497591
299.9714907108678
299.9743627146829
299.9790859646891
299.9839662288369
299.9889267791342
299.9950935517419
300.0009628752155
300.0069432489839
300.0131614010431
300.0188152918001
300.0243013732448
300.029254952976
300.0352466104634
300.038814620201
300.038902704381
300.0388095681977
300.0388004877761
300.0384261892431
300.0378426050868
300.0374675658465
300.0356344417281
300.0344089465067
300.0325396895804
300.0288442317807
300.0266231233452
300.0221883938188
300.0170350917044
300.0128733307624
300.0064911492406
300.0007095504661
299.9947273328304
299.9881696613539
299.9823703039123
299.9762865942088
299.9710495823358
299.964042367484
299.9613208913827
299.9613132978345
299.9614024359352
299.9613877335921
299.9619001132444
299.9623258798258
299.9627952913639
299.9645488057025
299.9655486814341
299.9676979488383
299.9706981476595
299.9732543622399
299.9775549293525
299.9817549358884
299.9865579975822
299.9922681345211
299.9977716697346
300.0039855217352
300.0101137340112
300.0161508560086
300.0223147279402
300.0276949956031
300.0349600895275
300.0382694775499
300.0383405059299
300.0382416135189
300.0381937284853
300.03804941518
300.0372203141372
300.0370549646065
300.035829712045
300.0340333692657
300.0329478077878
300.0298385302763
300.0270932535985
300.02388063846
300.0190922211739
300.0149126018659
300.0093247431476
300.003636927482
299.9977755249536
299.9911385252584
299.9850758506234
299.9785103031118
299.9725798021672
299.9643852130077
299.9620116843643
299.9619768112224
299.9619901978343
299.9622279267372
299.9622432945181
299.9628814691025
299.9636891999947
299.9641292027908
299.9661831889543
299.9676024639662
299.9695361346245
299.9732291092646
299.9757013369559
299.9800309792783
299.9848489978568
299.9891581187355
299.9953269744075
300.0009065530662
300.0068954195946
300.0135382721027
300.0195960543873
300.0255757707295
300.0332789622088
300.0378205887612
300.0379598517051
300.0379498090986
300.0377347670494
300.037714174336
300.037168530019
300.0363543591856
300.0359757523938
300.0340651914879
300.0325999003182
300.0309378793102
300.0273194770541
300.024967901435
300.0209948790108
300.0161737796162
300.0120926313753
300.0060330173614
300.000388131657
299.9944368637557
299.9875910304139
299.9812543383846
299.9750174680874
299.9663184638321
299.9624600494962
299.962374355429
299.9623369238344
299.9625444733428
299.9625970760284
299.9631012702862
299.9636550057999
299.9646042252217
299.9660280111568
299.9672797725823
299.9697707295619
299.9720607543333
299.975122139344
299.9789046413089
299.9827516943841
299.9877710388867
299.9926564323086
299.9983924708439
300.0044894985599
300.0104525235686
300.0171819939401
300.0232787340894
300.0307552552914
300.036975860647
300.0373717310569
300.0374021181658
300.0372095741048
300.0371033567774
300.0369106872923
300.0359694031908
300.0355459787608
300.0343787403002
300.0323851520513
300.0314104392198
300.0283981423598
300.0252696162054
300.0226883345254
300.0178072692947
300.0136362593946
300.0086830513761
300.0026384034527
299.9970883235991
299.9904575735159
299.9838066173384
299.9775740220038
299.9693525986982
299.9633213919481
299.9628273154965
299.9628402992989
299.9630049833617
299.9629781477716
299.9636595108533
299.9639734458519
299.9646034847307
299.9662979175625
299.967069471519
299.969309237109
299.9718081978348
299.9739490048646
299.9779772006895
299.9814597957421
299.9856476455441
299.990997023257
299.9958644660156
300.001825671942
300.0080481422946
300.01414906126
300.0209095936976
300.0272013175626
300.0356901324198
300.0370334876103
300.0370956420163
300.0370755988473
300.0367959525902
300.0365998524135
300.0361222389155
300.0351243613176
300.0346401043153
300.0328104137371
300.0310200545802
300.0296161048144
300.0258586902595
300.0231355937003
300.019791030928
300.0146569543821
300.010568633305
300.0050460367581
299.9990192530227
299.9932909468408
299.9864837084753
299.979819291787
299.9731874732562
299.9644054666634
299.9632845329621
299.9632353884269
299.9632819856855
299.9634281886104
299.9638500589051
299.9640201922345
299.9650674347046
299.9660942541579
299.9667782270944
299.9693398158492
299.9710529053255
299.9734280050544
299.9771330889833
299.9801053060505
299.9845246446967
299.9890843298959
299.9938607946323
299.9997353794594
300.0052996072574
300.0115673384763
300.0182377059987
300.0241003839718
300.0327442580428
300.0365499346806
300.0365759454373
300.0365224060462
300.0365307202301
300.036002362848
300.035819358528
300.0352809171222
300.0338969984955
300.033284785818
300.0313921144053
300.0292072981059
300.0273260966591
300.0237703619357
300.0206398514115
300.0167726538409
300.0118883339381
300.0072778175153
300.0015620511031
299.995563265401
299.989427905612
299.9825487189864
299.9763743443452
299.9672895334522
299.9637954168285
299.9637595194831
299.9636380367764
299.9639398881088
299.9641053987575
299.9643217315036
299.9653916615483
299.9658354874357
299.9671223731718
299.9690901515291
299.9703618890614
299.9732463432976
299.9760301586985
299.9789339062734
299.983339645147
299.9872811694145
299.9920821037694
299.9975394468232
300.0030144020113
300.0091678393335
300.0153736008248
300.0216687359577
300.0289815662294
300.035718749159
300.0361544360559
300.0361617729467
300.0360021826979
300.0359068480512
300.0356262451075
300.0347673651661
300.0343295426865
300.0330001068323
300.0313011496955
300.0302769162265
300.0272573639679
300.024614948134
300.0220309370981
300.0175277290294
300.0138076713288
300.0089706176294
300.003492955019
299.9981751557825
299.9917060659748
299.9853989104433
299.9790779282323
299.9712416877697
299.9645056996602
299.9641684077152
299.9642552113127
299.9642008373947
299.9644580090063
299.9645746500285
299.9655527467218
299.9659395662749
299.9669081102176
299.9689360229626
299.9700432560292
299.9725949412369
299.9753593272188
299.9780399828729
299.9820909844243
299.9858878758023
299.9904559822189
299.9956528399957
300.00086152164
300.0068427909986
300.0129116276573
300.0192305263081
300.0255087318593
300.0339961707302
300.0355384002862
300.0355154937384
300.0354897235053
300.0354340208136
300.0349048088555
300.0348379589794
300.0338999031841
300.0327933599837
300.0321408226065
300.0297394030055
300.0280944822288
300.0258166090777
300.0221323228969
300.0194024544278
300.0150879138189
300.0104442374268
300.0059049047363
300.0000041552107
299.9943064802438
299.9881399137349
299.9813813901997
299.975196565105
299.9662749443314
299.9646190349946
299.9646216622729
299.9645789005228
299.9648685463908
299.9648958796709
299.9656389881944
299.9663261487007
299.9668392667357
299.968764216119
299.969941127145
299.9718837504251
299.9748097751674
299.9771179846758
299.9808605523399
299.9846352252408
299.9886994480196
299.9938322130029
299.9987018785193
300.0044507375001
300.0103976352947
300.016486766856
300.0225716757179
300.0305877267945
300.0351054615828
300.0351896378599
300.0351164939101
300.0351120060567
300.034810520303
300.0344010183799
300.0340657078152
300.0328584511024
300.0319287791938
300.0305240260118
300.0282724171659
300.0263249175571
300.0234002883535
300.0200143645995
300.0165662573135
300.012103953185
300.0073632946477
300.0023055187943
299.9964747600721
299.9904972080571
299.9842081835321
299.9780167383543
299.9697226103854
299.9650944290503
299.964991023425
299.965018964846
299.9651599194416
299.9651776335072
299.96582746973
299.9662209781118
299.967196559081
299.9685351101942
299.9695034771494
299.9720668092404
299.9738623171344
299.9764049586607
299.9802601779692
299.9831162120097
299.9875124157172
299.9922128386405
299.9967521587709
300.0024746173273
300.00806264368
300.0139943440696
300.0202134401754
300.0267660974745
300.0340767139874
300.0346879146547
300.0347235613452
300.034593470722
300.0344858125525
300.034261464036
300.033450715214
300.0330183493898
300.0320298361326
300.03013130051
300.0292256102228
300.0266334924509
300.0237843877058
300.0215319797675
300.0172670150576
300.0135317213503
300.0093069503638
300.003819395523
299.9988413545851
299.9928151420669
299.9865881714906
299.9805655485331
299.9734091807864
299.9660559812214
299.9655204838219
299.9655019862578
299.9655712034499
299.9656985766728
299.9660675803614
299.9664547515411
299.96730874903
299.9682634469494
299.9696378497624
299.9714217800127
299.9732981938493
299.9760616636245
299.9788235831455
299.9821901768423
299.9862246189622
299.9903046044697
299.9951563994525
300.0002849064675
300.0057724510755
300.0115787614769
300.017653013307
300.0234314948514
300.0317564798522
300.0342412221228
300.0342580387152
300.0342248209579
300.0340552567093
300.0339475608836
300.0335039179332
300.0327207747342
300.0320514139195
300.0307393926972
300.0290342916557
300.027380370458
300.0247677457567
300.0219992620562
300.0188005930588
300.0148976346576
300.0107143872385
300.0058924739076
300.0007798950128
299.9950487893426
299.9891306608138
299.9829147421949
299.9768142724154
299.9683260527958
299.9659096215583
299.9658967097482
299.9659875858757
299.9660958167847
299.9661819897929
299.9670086301685
299.9674090593031
299.9680094940634
299.9699336660838
299.9708163933012
299.9728585379178
299.9756075732381
299.9777211472047
299.9814065274451
299.9849266287738
299.9887871823797
299.993695815182
299.9982948827845
300.0037165302859
300.0093968746804
300.0151474940544
300.0209840485699
300.0283208257884
300.0335669015506
300.0337806344853
300.0337846605455
300.0336140872093
300.0335713376608
300.0331939201697
300.0325302735347
300.0320036143391
300.0306711779859
300.02937760864
300.027655704968
300.0252620843468
300.0228634434608
300.0196572873501
300.0160793254432
300.0121990676428
300.0075449029196
300.0026372446704
299.9973164569931
299.9914532544799
299.9854182914053
299.9795455775363
299.9718142177251
299.9665244832715
299.9663628508271
299.9664246234307
299.9664770571514
299.9666336028303
299.9670229182415
299.9675974188677
299.9682973721972
299.9695167852392
299.9707772056207
299.9725996988766
299.974764858471
299.9772673781192
299.9803048673469
299.9837364233438
299.9876164884697
299.991864653744
299.996729594563
300.0016834663192
300.0071797021602
300.0129277814465
300.0186635189056
300.0245884209758
300.0322373239716
300.0333544046894
300.0334371136368
300.0334286814853
300.0331120991663
300.0329091888424
300.0325142058155
300.031495460592
300.0309373438026
300.0294414574902
300.0277354042876
300.0260646144147
300.0232585757083
300.0206744238196
300.0173129870803
300.0133496609923
300.0093228825072
300.0044206699141
299.9993171084175
299.993777970401
299.9878483414306
299.9818281508942
299.9755764647554
299.9677655120921
299.9668035531815
299.9667482784441
299.9668218705939
299.9669697223311
299.9673270791257
299.9676621376575
299.9685225175924
299.9693481521369
299.9705992367088
299.9723394498072
299.9741217118137
299.9767348143283
299.9793619268366
299.9826830159594
299.9864321399438
299.9903462221912
299.9950161587174
299.9997833315529
300.0050137715356
300.0105561923004
300.0162862482438
300.0217499079
300.0295488061066
300.032874852393
300.0328681636778
300.0330061801035
300.03282942905
300.0325466079071
300.0322965648566
300.0316349427939
300.0307286443322
300.0297283263031
300.0281238883645
300.026360240643
300.0241789385349
300.0213826262257
300.0184110891553
300.0147819903581
300.0107264835661
300.006257453047
300.0013395310274
299.995915577368
299.9903037485849
299.9843071952518
299.9785640599032
299.9705106612577
299.9672596648507
299.9672861005739
299.9672517953392
299.967367361545
299.9675007514358
299.9682039211728
299.9684828048239
299.9692388049704
299.9708827493849
299.97172841958
299.973851371598
299.9761270323353
299.9782880304808
299.9818148596955
299.9849132061671
299.9888296082499
299.9933251963725
299.997723808888
300.0030010834851
300.0082796850091
300.013876701827
300.019538321617
300.0260742817547
300.0320903325459
300.0324509624886
300.0324530525397
300.0323677852536
300.0322148988797
300.0319239941472
300.0315276474356
300.0305007921791
300.0296396880653
300.0287875041828
300.0262866247998
300.0248916858422
300.0224094861239
300.0189580646569
300.0163122095099
300.012025527755
300.0077766426348
300.0033715175958
299.9978028876987
299.9925578297454
299.9867082326451
299.9808326135286
299.9739788929259
299.9679587674607
299.9676811418266
299.9676570786955
299.9678224493692
299.9678739906018
299.9682498465971
299.968905479798
299.9693107406008
299.9706337229126
299.9718571969359
299.9731978063344
299.9757870298142
299.9776497074486
299.9806810927576
299.9841665247687
299.9872935598617
299.9919697866908
299.9962204777893
300.0008604550134
300.0065319295452
300.0115699211411
300.0173299207457
300.0228959840006
300.0304238597179
300.0320814390354
300.032132972379
300.0321316712364
300.0319160017173
300.0316502918853
300.0313780342975
300.0304637036985
300.0298324688413
300.0285749419348
300.0268850673228
300.025321513364
300.0226921462483
300.0201702738621
300.0170356491157
300.0132129340178
300.0094273592597
300.0047355062682
299.999907046509
299.9946544430391
299.9889609240474
299.9832277582065
299.9773803595255
299.9695699823828
299.9681726459307
299.9681890756598
299.968255780599
299.9682822287882
299.9686556916034
299.9690030130403
299.9695985418804
299.9705952184742
299.9716535199583
299.9732592309805
299.9749637181826
299.9773664876878
299.9798364339254
299.9828347505064
299.9865226939073
299.9900667781432
299.9945019413892
299.9992292115139
300.0039700754758
300.0094732544796
300.0150118180955
300.0201928903185
300.0274302581735
300.0316142760906
300.0317020388097
300.0316401329464
300.0316460081875
300.0313078124424
300.0309983206402
300.0306513404787
300.0294706349354
300.0288027130885
300.0273266563967
300.0253506038235
300.023762867319
300.020739994492
300.0180173200464
300.0148090373979
300.0104675959031
300.0066886528406
300.00168845112
299.9965021503463
299.9914454533417
299.9852891924446
299.979993244575
299.9726288846099
299.9685051211156
299.9684282389819
299.9684525474509
299.968534266847
299.9689453422175
299.9689952895686
299.9696290795032
299.9706993374456
299.9713119985723
299.9730209080286
299.9746614930497
299.9765110862382
299.979350538064
299.9819340144383
299.9852746849541
299.9890608593044
299.9930185786694
299.9975573113754
300.002333344333
300.007463042087
300.0127881855489
300.0182016880534
300.0240227442854
300.030676295472
300.0312438404802
300.031273706603
300.0312238197071
300.0310560730783
300.030818256833
300.0302854733852
300.0296556940008
300.0288526563887
300.0271819095777
300.0261478545762
300.0240430288765
300.021251546709
300.0191970326924
300.0155000753412
300.0118665637138
300.0081891438763
300.0032426200607
299.9986306664296
299.9933839635752
299.9877151424084
299.982311179711
299.9760483066154
299.9694745124156
299.9688714882907
299.9688621886813
299.9690057311391
299.9690542609658
299.9694158857822
299.9700023044648
299.9704375643121
299.9716051417834
299.9727466290993
299.9741583712601
299.976338745521
299.9783386979641
299.981207515414
299.9842289895856
299.9876286854885
299.9917326120417
299.9957765257092
300.0005487504367
300.0055273599816
300.0105968117041
300.0162687812453
300.021335289387
300.0285219188007
300.0318173505432
300.0318548933357
300.0318212061487
300.0318206537066
300.0315253244461
300.0313276706773
300.0310168625385
300.0302430620018
300.0295959924757
300.0284393289476
300.0273488239818
300.0256845503864
300.0238180146067
300.0219873308104
300.0192063450782
300.0167752449674
300.0139192876694
300.0105852962743
300.0076645379264
300.004008734062
300.0002956600857
300.00000015222
299.9999999999959
299.9999999999955
299.9999999999956
299.9999999999957
299.999999999996
299.9999999999966
299.9999999999967
299.9999999999971
299.9999999999977
299.9999999999985
299.9999999999987
299.9999999999991
299.9999999999995
299.9999999999995
299.9999999999998
299.9999999999997
300
299.9999999999997
299.9999999999999
299.9999999999997
299.9999999999998
299.9999999999999
)
;

boundaryField
{
    inlet
    {
        type            fixedValue;
        value           uniform 300;
    }
    outlet
    {
        type            inletOutlet;
        inletValue      uniform 300;
        value           uniform 299.9999999999998;
    }
    frontAndBack
    {
        type            empty;
    }
}


// ************************************************************************* //
