/*--------------------------------*- C++ -*----------------------------------*\
| =========                 |                                                 |
| \\      /  F ield         | OpenFOAM: The Open Source CFD Toolbox           |
|  \\    /   O peration     | Version:  v2012                                 |
|   \\  /    A nd           | Website:  www.openfoam.com                      |
|    \\/     M anipulation  |                                                 |
\*---------------------------------------------------------------------------*/
FoamFile
{
    version     2.0;
    format      ascii;
    class       volVectorField;
    location    "0.007";
    object      UMean;
}
// * * * * * * * * * * * * * * * * * * * * * * * * * * * * * * * * * * * * * //

dimensions      [0 1 -1 0 0 0 0];


internalField   nonuniform List<vector> 
1000
(
(-2.842113359317932e-05 0 0)
(1.997917977168238e-05 0 0)
(4.171636265448212e-05 0 0)
(0.0001326904745525848 0 0)
(0.0001596531386562653 0 0)
(0.000241362411292939 0 0)
(0.0003446180475041555 0 0)
(0.0004542336708446366 0 0)
(0.0005323314092158175 0 0)
(0.0006784434716561632 0 0)
(0.0008009927343119987 0 0)
(0.0009040568916061959 0 0)
(0.001029593271855532 0 0)
(0.0011839797381652 0 0)
(0.001263542448098839 0 0)
(0.001363658736440554 0 0)
(0.001516588461805924 0 0)
(0.001585812964836925 0 0)
(0.001648743739011938 0 0)
(0.001729898065616353 0 0)
(0.00179878335976495 0 0)
(0.001823722807464197 0 0)
(0.00180641667709158 0 0)
(0.001864510213145702 0 0)
(0.001849956967889908 0 0)
(0.001793558814824713 0 0)
(0.001715380567489831 0 0)
(0.001723261281069949 0 0)
(0.001646116408859323 0 0)
(0.001474930200444956 0 0)
(0.00143232542235445 0 0)
(0.001363435375088736 0 0)
(0.001169914018908008 0 0)
(0.001027078862527572 0 0)
(0.001012996330660381 0 0)
(0.0008348036962018443 0 0)
(0.0006742696403836422 0 0)
(0.0006123036035561126 0 0)
(0.000521187279267544 0 0)
(0.0003674511763203943 0 0)
(0.0002666948171777696 0 0)
(0.0002340928809467686 0 0)
(0.0001264491190049799 0 0)
(6.674018807939102e-05 0 0)
(3.094941161830947e-05 0 0)
(1.86295692288481e-05 0 0)
(1.194750886764851e-06 0 0)
(7.330125327495451e-08 0 0)
(4.161663507653363e-05 0 0)
(8.577656189723406e-05 0 0)
(0.0001299715925770567 0 0)
(0.0002150208165099934 0 0)
(0.0003056609846791571 0 0)
(0.0003809192902653225 0 0)
(0.0005182076746512402 0 0)
(0.0006494096717389809 0 0)
(0.0007356537273166812 0 0)
(0.0008694372795579873 0 0)
(0.001004792277123756 0 0)
(0.001094782038572737 0 0)
(0.00121663856992308 0 0)
(0.001345567489638865 0 0)
(0.001418608772019239 0 0)
(0.00152018610104434 0 0)
(0.001643166149510866 0 0)
(0.001687357936818734 0 0)
(0.001737019668178033 0 0)
(0.001809984195172173 0 0)
(0.001844355754260069 0 0)
(0.001831096158958569 0 0)
(0.001830607816319803 0 0)
(0.001821445250978535 0 0)
(0.001780846711514392 0 0)
(0.001709094772279295 0 0)
(0.001650074908926803 0 0)
(0.001575724166182423 0 0)
(0.001459966155935612 0 0)
(0.001348999883564441 0 0)
(0.001242631655382356 0 0)
(0.001116309394436446 0 0)
(0.0009828500022266361 0 0)
(0.0008959692104849833 0 0)
(0.0007701818118291846 0 0)
(0.000637242187235093 0 0)
(0.000551597394951846 0 0)
(0.000446723250514417 0 0)
(0.0003315679765860636 0 0)
(0.0002502745366345445 0 0)
(0.000182735569785167 0 0)
(9.832640878749141e-05 0 0)
(6.644459575480191e-05 0 0)
(1.999862969841637e-05 0 0)
(3.661890211512862e-06 0 0)
(5.045977217788043e-06 0 0)
(3.483454287827434e-05 0 0)
(5.160583023571732e-05 0 0)
(0.000110565302768331 0 0)
(0.0001898122344465698 0 0)
(0.0002718984535653832 0 0)
(0.0003563028336200639 0 0)
(0.000477729903971225 0 0)
(0.0006072519961056419 0 0)
(0.0007154819453356293 0 0)
(0.0008232861758947581 0 0)
(0.0009487434792457399 0 0)
(0.001071261984173219 0 0)
(0.001166193674201201 0 0)
(0.001278465654924884 0 0)
(0.001397484042111343 0 0)
(0.001479525509211342 0 0)
(0.00156630316527504 0 0)
(0.00166584297764839 0 0)
(0.001719504277160135 0 0)
(0.001755335225931032 0 0)
(0.001828224149396189 0 0)
(0.001842234926361254 0 0)
(0.001814682116973546 0 0)
(0.001839090196310794 0 0)
(0.001811735939691202 0 0)
(0.001716895880987233 0 0)
(0.00168061877748883 0 0)
(0.001626826503491757 0 0)
(0.001477190965285627 0 0)
(0.001377182446036531 0 0)
(0.001302271449609972 0 0)
(0.001140756513137903 0 0)
(0.001022438865175949 0 0)
(0.0009490966070074394 0 0)
(0.0008127057934576073 0 0)
(0.0006736251557523537 0 0)
(0.0006194477446008946 0 0)
(0.000491339211130053 0 0)
(0.0003616546788808156 0 0)
(0.0003143828705934389 0 0)
(0.0002323410283843918 0 0)
(0.0001243930851967253 0 0)
(8.692451229160158e-05 0 0)
(7.068533876917956e-05 0 0)
(1.190620669113437e-06 0 0)
(4.845205247095211e-06 0 0)
(3.383561142343124e-05 0 0)
(4.291708456064863e-05 0 0)
(7.396096029662342e-05 0 0)
(0.0001724368724814597 0 0)
(0.0002314001093598593 0 0)
(0.0003204410919454436 0 0)
(0.0004653258317668673 0 0)
(0.0005483454747241116 0 0)
(0.0006810716907343796 0 0)
(0.000804506180325394 0 0)
(0.0008945130652965011 0 0)
(0.001014525228029426 0 0)
(0.001155162471439538 0 0)
(0.001225641088156588 0 0)
(0.001323496098860142 0 0)
(0.001480173313916407 0 0)
(0.001517029772216489 0 0)
(0.001593922514839485 0 0)
(0.001711982600450373 0 0)
(0.00174924356024548 0 0)
(0.001763690004834416 0 0)
(0.001838673597887475 0 0)
(0.001852469060804397 0 0)
(0.001797516003094518 0 0)
(0.001821374169826107 0 0)
(0.001786715209811861 0 0)
(0.00168431027725435 0 0)
(0.00162399360587145 0 0)
(0.001573711397780499 0 0)
(0.001402595862633806 0 0)
(0.001298732355744571 0 0)
(0.001219551584438356 0 0)
(0.001072497831876925 0 0)
(0.0009570967382111838 0 0)
(0.0008726497874264242 0 0)
(0.0007441612017320248 0 0)
(0.0006219968749781762 0 0)
(0.0005638564463343077 0 0)
(0.00042417425924981 0 0)
(0.0003306338349604634 0 0)
(0.0002837807812747744 0 0)
(0.0001784718244308126 0 0)
(0.0001067440957301005 0 0)
(9.031811094701796e-05 0 0)
(4.381192626163662e-05 0 0)
(-6.324325091420213e-06 0 0)
(4.098713944417979e-05 0 0)
(4.364643772224819e-05 0 0)
(5.413170896740985e-05 0 0)
(0.0001437086750708588 0 0)
(0.0002184692322655539 0 0)
(0.0002803863636648295 0 0)
(0.0004222202166724037 0 0)
(0.0005432607435907048 0 0)
(0.0006286286384884346 0 0)
(0.0007541854877303036 0 0)
(0.0008804810553293492 0 0)
(0.0009739184709870972 0 0)
(0.001074840080861741 0 0)
(0.001216388716413752 0 0)
(0.001288349528955058 0 0)
(0.001394450348231432 0 0)
(0.001495129466953134 0 0)
(0.001573888743775175 0 0)
(0.001647778556189451 0 0)
(0.001709243212245324 0 0)
(0.001770257700780289 0 0)
(0.001798677287844755 0 0)
(0.001823029783275259 0 0)
(0.001822733627234717 0 0)
(0.001825969830748818 0 0)
(0.001773360656682567 0 0)
(0.001729832454315321 0 0)
(0.001665807494648912 0 0)
(0.001578232541782232 0 0)
(0.00145097397288054 0 0)
(0.001354281811582214 0 0)
(0.001240254644440949 0 0)
(0.00111038674096241 0 0)
(0.001017774078132153 0 0)
(0.0009107066527944543 0 0)
(0.0007779775691172681 0 0)
(0.0006808418830718426 0 0)
(0.0005981812145403808 0 0)
(0.0004703217972930414 0 0)
(0.0003791181150572429 0 0)
(0.0003188684872986323 0 0)
(0.0002184411363377902 0 0)
(0.0001520832276467517 0 0)
(0.000114683074463814 0 0)
(6.149168705940718e-05 0 0)
(2.663766667970591e-05 0 0)
(4.441387184236289e-05 0 0)
(3.890601297756154e-05 0 0)
(6.009973807908732e-05 0 0)
(0.0001200013342032112 0 0)
(0.0001885686673053206 0 0)
(0.0002656177932929562 0 0)
(0.0003840517685009174 0 0)
(0.000501290018969403 0 0)
(0.0006046341768893061 0 0)
(0.0007202626851289255 0 0)
(0.0008325683542881195 0 0)
(0.0009394965966759397 0 0)
(0.001047585223679265 0 0)
(0.001161968690473945 0 0)
(0.00125923697717488 0 0)
(0.00135191591307818 0 0)
(0.001455475070602225 0 0)
(0.001536703260005925 0 0)
(0.001615321668925815 0 0)
(0.001677654095829329 0 0)
(0.001744225078008902 0 0)
(0.001777927080483019 0 0)
(0.001809466451236014 0 0)
(0.001818140989020877 0 0)
(0.001816810085893267 0 0)
(0.001789808188040413 0 0)
(0.001748171405425248 0 0)
(0.001686691549283086 0 0)
(0.001604398127624585 0 0)
(0.001494795060436938 0 0)
(0.001387609625299436 0 0)
(0.001278518859727576 0 0)
(0.001160135260306223 0 0)
(0.00104682503388235 0 0)
(0.0009548340288965109 0 0)
(0.0008335543043352218 0 0)
(0.0007222407211234776 0 0)
(0.0006279788226974463 0 0)
(0.0005362179030970561 0 0)
(0.0004171858822926511 0 0)
(0.0003487601658641487 0 0)
(0.0002719601426940282 0 0)
(0.0001844303364925178 0 0)
(0.0001393183013102871 0 0)
(9.521376838868285e-05 0 0)
(5.273000028778818e-05 0 0)
(3.765364731656622e-05 0 0)
(5.770450000338839e-05 0 0)
(5.892001285108475e-05 0 0)
(9.845134536571618e-05 0 0)
(0.0001761143164940034 0 0)
(0.0002414087116841483 0 0)
(0.0003476705672043011 0 0)
(0.0004617793202233324 0 0)
(0.0005855875227237194 0 0)
(0.0006653597752250636 0 0)
(0.0008073077026691655 0 0)
(0.00089881381105041 0 0)
(0.001007730941274132 0 0)
(0.001115830211113581 0 0)
(0.00122190582887127 0 0)
(0.001313740462823441 0 0)
(0.001404146577543378 0 0)
(0.001510027247009456 0 0)
(0.001572540984244332 0 0)
(0.001650879829428293 0 0)
(0.001702406028442681 0 0)
(0.001762853167876854 0 0)
(0.00178539064205592 0 0)
(0.001803673587637993 0 0)
(0.001808750561522052 0 0)
(0.001791421553761615 0 0)
(0.001764506698246841 0 0)
(0.001689568752082937 0 0)
(0.001638856694843454 0 0)
(0.001529310575291628 0 0)
(0.001423084964517796 0 0)
(0.001306965161822811 0 0)
(0.001199168374732499 0 0)
(0.001090961807833512 0 0)
(0.000978699582071377 0 0)
(0.0008790040031407481 0 0)
(0.0007600855821020126 0 0)
(0.0006683735818761619 0 0)
(0.0005657691944891503 0 0)
(0.0004734445473528438 0 0)
(0.00037381935392171 0 0)
(0.0003031472496179324 0 0)
(0.0002239001122144949 0 0)
(0.0001648446415675923 0 0)
(0.000113638157890294 0 0)
(7.227851668640657e-05 0 0)
(6.185150961698147e-05 0 0)
(5.204164687510883e-05 0 0)
(6.332219340294434e-05 0 0)
(9.831887644772176e-05 0 0)
(0.0001524904113726613 0 0)
(0.0002158372766215997 0 0)
(0.0003208184051184794 0 0)
(0.0004298778289824716 0 0)
(0.0005339466240847227 0 0)
(0.0006549065295405763 0 0)
(0.0007553064919717857 0 0)
(0.0008569470897245213 0 0)
(0.0009808399577374721 0 0)
(0.001078847498953927 0 0)
(0.001174526731903779 0 0)
(0.001281464125739733 0 0)
(0.001375373281578929 0 0)
(0.001458250871676386 0 0)
(0.0015487928743981 0 0)
(0.001614277471483492 0 0)
(0.00167223315937011 0 0)
(0.001733400463003602 0 0)
(0.00177729653753128 0 0)
(0.001781529883382328 0 0)
(0.001795807495586806 0 0)
(0.001806924964012225 0 0)
(0.001764140846464476 0 0)
(0.001704271755452017 0 0)
(0.001660809946798338 0 0)
(0.001575811817064985 0 0)
(0.001445378627156891 0 0)
(0.001355869231676658 0 0)
(0.001243834076041143 0 0)
(0.001128015866226434 0 0)
(0.001024684767392999 0 0)
(0.0009251267434048631 0 0)
(0.0008073743723572671 0 0)
(0.0007070946905916992 0 0)
(0.0006170963954436461 0 0)
(0.0005110110311369841 0 0)
(0.0004234057892946669 0 0)
(0.0003408081996158272 0 0)
(0.0002709893047179643 0 0)
(0.0001988395266665413 0 0)
(0.0001456461056269424 0 0)
(0.0001067202287949137 0 0)
(7.882214025957885e-05 0 0)
(7.165187867194695e-05 0 0)
(6.31289305630634e-05 0 0)
(0.000100984431204072 0 0)
(0.0001411688705316516 0 0)
(0.0002051328820835005 0 0)
(0.0002795987625839027 0 0)
(0.0004058910235988638 0 0)
(0.0005005897921660713 0 0)
(0.0006170089410977175 0 0)
(0.0007200797328180397 0 0)
(0.0008224948052364268 0 0)
(0.0009373912568733071 0 0)
(0.001041436359552108 0 0)
(0.001140937581322474 0 0)
(0.001229785786147127 0 0)
(0.001348038194775715 0 0)
(0.001419033826056168 0 0)
(0.001502305289482445 0 0)
(0.001584222286118614 0 0)
(0.001653889408652476 0 0)
(0.001693221893416118 0 0)
(0.001747682874971113 0 0)
(0.001782949027100912 0 0)
(0.00177852712127054 0 0)
(0.00179277226381501 0 0)
(0.001765874656568378 0 0)
(0.001726525361363558 0 0)
(0.001667186479292685 0 0)
(0.001606671862154723 0 0)
(0.00148459421468324 0 0)
(0.001381175267086562 0 0)
(0.001290080460572609 0 0)
(0.001163283526663583 0 0)
(0.001059985645748505 0 0)
(0.0009652718099650219 0 0)
(0.0008521339301427906 0 0)
(0.0007405766837362026 0 0)
(0.0006601449276911867 0 0)
(0.0005603803316795047 0 0)
(0.0004470591028668203 0 0)
(0.000388667449768017 0 0)
(0.0003114949387046765 0 0)
(0.0002213267534314059 0 0)
(0.0001780522018790646 0 0)
(0.0001430214167390706 0 0)
(8.819799433330178e-05 0 0)
(8.184806328232485e-05 0 0)
(9.184020137251883e-05 0 0)
(9.065877093285573e-05 0 0)
(0.0001307009146010672 0 0)
(0.0002003608807487912 0 0)
(0.0002599033201506457 0 0)
(0.0003567802933714553 0 0)
(0.0004853592723498501 0 0)
(0.0005796179719134605 0 0)
(0.0006749825248005498 0 0)
(0.0008019475270960465 0 0)
(0.0008977406102441646 0 0)
(0.0009935713201545493 0 0)
(0.001102457726972492 0 0)
(0.001212219665669808 0 0)
(0.001287314031560961 0 0)
(0.001391680033605328 0 0)
(0.001476127522161546 0 0)
(0.001543227363913363 0 0)
(0.001616843205020279 0 0)
(0.001679129743597623 0 0)
(0.00172278416712057 0 0)
(0.001751820328206007 0 0)
(0.001778979663445827 0 0)
(0.001775972749615222 0 0)
(0.001766246711595459 0 0)
(0.001736921058569897 0 0)
(0.001682685517834268 0 0)
(0.001617337088820249 0 0)
(0.001526859823283329 0 0)
(0.001417418170422699 0 0)
(0.001310218648202506 0 0)
(0.001210989829382465 0 0)
(0.001095339166727514 0 0)
(0.001000063193257236 0 0)
(0.0008936092427755581 0 0)
(0.0007923049792762753 0 0)
(0.0006872026429817458 0 0)
(0.0006028277526773772 0 0)
(0.0005046382219411872 0 0)
(0.0004114722481404088 0 0)
(0.0003461411518827852 0 0)
(0.0002718766094404899 0 0)
(0.0002021896802921553 0 0)
(0.0001574260312384589 0 0)
(0.0001316631261317532 0 0)
(8.731014065541223e-05 0 0)
(9.788768406287197e-05 0 0)
(0.0001049940004894462 0 0)
(0.0001225156293848386 0 0)
(0.0001792382339058663 0 0)
(0.0002487555255973397 0 0)
(0.000328974476951745 0 0)
(0.0004349268293306122 0 0)
(0.0005586936231581222 0 0)
(0.0006455729541217192 0 0)
(0.0007556338564466467 0 0)
(0.0008594066698744138 0 0)
(0.0009682705887511251 0 0)
(0.001062268505805814 0 0)
(0.001170671362879618 0 0)
(0.001251038748438958 0 0)
(0.001349277267763215 0 0)
(0.001445285746757093 0 0)
(0.001508330694930051 0 0)
(0.001586586089608867 0 0)
(0.001649323909391375 0 0)
(0.001701025266910166 0 0)
(0.001728991630055392 0 0)
(0.00176680389265956 0 0)
(0.001766898823944569 0 0)
(0.001758428081722684 0 0)
(0.001748291441031304 0 0)
(0.001697998537083957 0 0)
(0.001629229962503594 0 0)
(0.00156236380817427 0 0)
(0.001463371779680968 0 0)
(0.001340382730381388 0 0)
(0.00124222607993337 0 0)
(0.001149908678650655 0 0)
(0.001031716359005048 0 0)
(0.0009322024030933127 0 0)
(0.000838132427178011 0 0)
(0.0007307315339631932 0 0)
(0.000630137656704353 0 0)
(0.0005566737096705378 0 0)
(0.0004550183203321421 0 0)
(0.000368257953322094 0 0)
(0.0003115585305840491 0 0)
(0.0002464704225676592 0 0)
(0.0001768895766350811 0 0)
(0.0001464665758490533 0 0)
(0.0001279136506284043 0 0)
(9.443910275355279e-05 0 0)
(0.0001120453252151968 0 0)
(0.0001362962503168914 0 0)
(0.0001633889496497233 0 0)
(0.0002259869703313077 0 0)
(0.0003135738698976379 0 0)
(0.0004083927379917651 0 0)
(0.0005047841335966076 0 0)
(0.0006307168949113702 0 0)
(0.0007168439985145141 0 0)
(0.0008226357419467109 0 0)
(0.000932067506493078 0 0)
(0.001033862636228694 0 0)
(0.001120574983871065 0 0)
(0.001221636750514069 0 0)
(0.001323338345558923 0 0)
(0.001391825674655415 0 0)
(0.001488601974115293 0 0)
(0.001550390078738876 0 0)
(0.001618859797272883 0 0)
(0.001666909203705369 0 0)
(0.001720271836048157 0 0)
(0.001740450026650567 0 0)
(0.001757769856904865 0 0)
(0.001757070795700205 0 0)
(0.001737600843745448 0 0)
(0.001712376138645863 0 0)
(0.001645286539388805 0 0)
(0.00158687322959701 0 0)
(0.001484417846883714 0 0)
(0.001384826986322718 0 0)
(0.001274237213241311 0 0)
(0.001179265759334427 0 0)
(0.001072943180738148 0 0)
(0.000966772930309844 0 0)
(0.0008737675069237441 0 0)
(0.0007733169443035644 0 0)
(0.0006741188508277416 0 0)
(0.0005789871560483583 0 0)
(0.0005038090979145482 0 0)
(0.0004072859726436446 0 0)
(0.0003376041456030605 0 0)
(0.0002764126007518658 0 0)
(0.0002184819254726516 0 0)
(0.0001625050874497093 0 0)
(0.0001408410186444921 0 0)
(0.0001264119496562375 0 0)
(0.0001102447104404062 0 0)
(0.0001317983626022936 0 0)
(0.0001676844577910955 0 0)
(0.0002167005195264242 0 0)
(0.0002781047146504658 0 0)
(0.000384751086545996 0 0)
(0.000484179963100375 0 0)
(0.0005846277664264654 0 0)
(0.0006883265769449266 0 0)
(0.0007944058808389038 0 0)
(0.0008901244033988894 0 0)
(0.000993137711072482 0 0)
(0.001092369634585649 0 0)
(0.001187149451264367 0 0)
(0.001280474802635792 0 0)
(0.001362431095124956 0 0)
(0.001449501138292845 0 0)
(0.001521116802694323 0 0)
(0.001589134876819128 0 0)
(0.001644912795101587 0 0)
(0.001691633912954022 0 0)
(0.001723878255975258 0 0)
(0.001747787987613194 0 0)
(0.0017492139638278 0 0)
(0.001737365907372622 0 0)
(0.001718581159103499 0 0)
(0.001664696866864582 0 0)
(0.001601225738754601 0 0)
(0.001526007818380519 0 0)
(0.001418931862935327 0 0)
(0.001310220401969031 0 0)
(0.001213218615353015 0 0)
(0.00111996234859762 0 0)
(0.001003806200576948 0 0)
(0.0009117320695820068 0 0)
(0.0008203469524919324 0 0)
(0.0007101831760313433 0 0)
(0.0006208930818995402 0 0)
(0.0005436402871809657 0 0)
(0.000451218527362617 0 0)
(0.0003664006906866369 0 0)
(0.0003142170359310462 0 0)
(0.0002472575840619008 0 0)
(0.000193403219437394 0 0)
(0.0001598073953466617 0 0)
(0.0001405417365582034 0 0)
(0.0001278373568521769 0 0)
(0.0001383323564107723 0 0)
(0.000162510071152769 0 0)
(0.0002006483916681694 0 0)
(0.0002735418908320998 0 0)
(0.0003481051232613059 0 0)
(0.0004531395046182195 0 0)
(0.0005542085353668166 0 0)
(0.0006630477073284397 0 0)
(0.0007530612255404502 0 0)
(0.0008554997568520924 0 0)
(0.0009654388052160674 0 0)
(0.001049735687639402 0 0)
(0.001155229774147588 0 0)
(0.00123727164058378 0 0)
(0.001336313130757688 0 0)
(0.001407979550720139 0 0)
(0.00149600539638369 0 0)
(0.001556170996306539 0 0)
(0.001613141792154448 0 0)
(0.001676057967288388 0 0)
(0.001703108563214394 0 0)
(0.00172719827015228 0 0)
(0.001737467375858269 0 0)
(0.001745919484041275 0 0)
(0.001704052809635003 0 0)
(0.00168181634482811 0 0)
(0.001626741983937888 0 0)
(0.001540553290779596 0 0)
(0.001447068082059423 0 0)
(0.001355018401411079 0 0)
(0.001247732703670634 0 0)
(0.001140430575162625 0 0)
(0.001055296835090303 0 0)
(0.000947921987512749 0 0)
(0.0008490350471384812 0 0)
(0.0007548292966768763 0 0)
(0.0006669742126779377 0 0)
(0.0005727406201033879 0 0)
(0.0004856165209145775 0 0)
(0.0004144947275976219 0 0)
(0.0003414295677305818 0 0)
(0.0002778335128767521 0 0)
(0.0002238259756303099 0 0)
(0.0001849587490054573 0 0)
(0.0001575826018688783 0 0)
(0.0001466815479478815 0 0)
(0.0001421465825546813 0 0)
(0.0001601456538008506 0 0)
(0.0002044222748069187 0 0)
(0.0002526843962281253 0 0)
(0.0003207228861387273 0 0)
(0.0004270499061053447 0 0)
(0.0005257853466843006 0 0)
(0.0006241939623131548 0 0)
(0.0007204810530177419 0 0)
(0.0008317706818144698 0 0)
(0.000914975554594724 0 0)
(0.001020756290886037 0 0)
(0.001116302089149178 0 0)
(0.001206492271767979 0 0)
(0.001293299766588139 0 0)
(0.001380836242188025 0 0)
(0.00145765680856451 0 0)
(0.001521750995111176 0 0)
(0.001595081815368525 0 0)
(0.001640253930416586 0 0)
(0.001681188694963972 0 0)
(0.001713988632182521 0 0)
(0.0017318279719451 0 0)
(0.001725332883672949 0 0)
(0.001715715932553735 0 0)
(0.001687793696226654 0 0)
(0.001626332771954372 0 0)
(0.001572109828719968 0 0)
(0.001486089414377511 0 0)
(0.001374803627798519 0 0)
(0.001278175078409882 0 0)
(0.001188679143550382 0 0)
(0.001081279004264509 0 0)
(0.0009817471733400622 0 0)
(0.0008874378794304631 0 0)
(0.0007982531285380796 0 0)
(0.0006972386094877922 0 0)
(0.0006089767236813759 0 0)
(0.0005263182404817088 0 0)
(0.0004471899386912204 0 0)
(0.0003770290075007791 0 0)
(0.0003037472090016658 0 0)
(0.0002568900018288167 0 0)
(0.0002110632039635491 0 0)
(0.0001786926971886494 0 0)
(0.0001543448083040201 0 0)
(0.0001556950859656463 0 0)
(0.0001669829566752197 0 0)
(0.0001947181080893726 0 0)
(0.0002404171226754605 0 0)
(0.0003059635855120446 0 0)
(0.0003972565040694875 0 0)
(0.0004930042985571317 0 0)
(0.0005931610850410849 0 0)
(0.0006937692441126545 0 0)
(0.0007941335132075652 0 0)
(0.0008848464543250736 0 0)
(0.0009882068737918368 0 0)
(0.001079135881212284 0 0)
(0.001167546765661073 0 0)
(0.00126314645475435 0 0)
(0.001349963126247557 0 0)
(0.001422205275644183 0 0)
(0.001490250972292241 0 0)
(0.001572911741861102 0 0)
(0.001612040214774193 0 0)
(0.001658934545010099 0 0)
(0.001697464738459192 0 0)
(0.001718257644944353 0 0)
(0.001714563185014372 0 0)
(0.001720230545950091 0 0)
(0.00169145757824311 0 0)
(0.001636594133951374 0 0)
(0.001595987666704076 0 0)
(0.00151608106609695 0 0)
(0.001405338519422522 0 0)
(0.001313634241113299 0 0)
(0.001226626625317876 0 0)
(0.001115118532156716 0 0)
(0.001015859005451621 0 0)
(0.0009337527075580151 0 0)
(0.0008328203054869749 0 0)
(0.0007336061759555527 0 0)
(0.0006508008941464132 0 0)
(0.0005667064667751997 0 0)
(0.0004793604099671574 0 0)
(0.0004100190392630148 0 0)
(0.0003439482921720091 0 0)
(0.0002787622177882327 0 0)
(0.0002360435148731641 0 0)
(0.000201386040673362 0 0)
(0.0001738743395552017 0 0)
(0.0001583704777343508 0 0)
(0.0001752339783113305 0 0)
(0.0001936673419211063 0 0)
(0.0002273568891476283 0 0)
(0.0002895745529935323 0 0)
(0.0003651064004910789 0 0)
(0.0004688253176797674 0 0)
(0.0005554474706673898 0 0)
(0.000663236134374376 0 0)
(0.0007536103914224096 0 0)
(0.0008552493913982417 0 0)
(0.000947142930348763 0 0)
(0.001042600713293041 0 0)
(0.001137060658726082 0 0)
(0.001217159786690958 0 0)
(0.001315939233598602 0 0)
(0.001383424484345485 0 0)
(0.00146532052545964 0 0)
(0.001526913577890497 0 0)
(0.001591210196397515 0 0)
(0.00163632465663426 0 0)
(0.001671781637315779 0 0)
(0.001701129316122779 0 0)
(0.001713991322558364 0 0)
(0.001709355279004555 0 0)
(0.001683055481044829 0 0)
(0.001665014358885442 0 0)
(0.001603372072124457 0 0)
(0.001535165072301498 0 0)
(0.001441551541646155 0 0)
(0.001353701574964879 0 0)
(0.001248174626668838 0 0)
(0.001150725246709263 0 0)
(0.001063413072897015 0 0)
(0.0009610519472035248 0 0)
(0.0008676775871859563 0 0)
(0.0007781770791897387 0 0)
(0.0006912873110592904 0 0)
(0.0005956850949559786 0 0)
(0.0005250545019837966 0 0)
(0.0004435128743376618 0 0)
(0.0003745284536619764 0 0)
(0.000314031624706447 0 0)
(0.0002625195581333616 0 0)
(0.0002252731031651504 0 0)
(0.0001901334195881179 0 0)
(0.0001776205040732726 0 0)
(0.0001796423072542327 0 0)
(0.0001956444824096329 0 0)
(0.0002234078918800618 0 0)
(0.0002801668492479883 0 0)
(0.0003419160890981577 0 0)
(0.0004386400583115098 0 0)
(0.0005321137171944321 0 0)
(0.0006316184435238549 0 0)
(0.0007221022357244834 0 0)
(0.0008246733724387582 0 0)
(0.0009151830673932068 0 0)
(0.001008524939826474 0 0)
(0.001102000589592863 0 0)
(0.001189761454253623 0 0)
(0.001277540700821408 0 0)
(0.001355083260015494 0 0)
(0.001432089934988931 0 0)
(0.00149957427721209 0 0)
(0.001564701144320513 0 0)
(0.001610384351195162 0 0)
(0.00165479321748285 0 0)
(0.001684331889223357 0 0)
(0.001700966931282209 0 0)
(0.001704988018350073 0 0)
(0.001686944488118032 0 0)
(0.001665721433954454 0 0)
(0.001614944174140956 0 0)
(0.001557929610451484 0 0)
(0.001475517858996884 0 0)
(0.001375315636919239 0 0)
(0.001283576581622228 0 0)
(0.00118617116071889 0 0)
(0.001092948199516065 0 0)
(0.0009956049754538841 0 0)
(0.0009037903767135173 0 0)
(0.0008119511634326977 0 0)
(0.0007216530012594702 0 0)
(0.0006390319004698145 0 0)
(0.0005517129127040514 0 0)
(0.0004768667937980811 0 0)
(0.0004061853939443959 0 0)
(0.0003453748910131967 0 0)
(0.0002867376739898748 0 0)
(0.0002439997115856607 0 0)
(0.0002123431670853277 0 0)
(0.0001929172710036712 0 0)
(0.0001870163291021023 0 0)
(0.0001970892215239812 0 0)
(0.0002229555944043955 0 0)
(0.0002637257253798736 0 0)
(0.0003264304848586221 0 0)
(0.0004062949266541269 0 0)
(0.0005070508129484503 0 0)
(0.0005964951199757535 0 0)
(0.0006914925245497868 0 0)
(0.0007916641101853986 0 0)
(0.0008790845579493846 0 0)
(0.0009751970451223754 0 0)
(0.001061369938998611 0 0)
(0.001158746094818714 0 0)
(0.001234863270756712 0 0)
(0.001322660920200205 0 0)
(0.001397464657140957 0 0)
(0.001466951495427707 0 0)
(0.001530981609931272 0 0)
(0.001582968374098329 0 0)
(0.001634263858194001 0 0)
(0.001657897760297903 0 0)
(0.001689666791416355 0 0)
(0.001689334542612889 0 0)
(0.001690944106982029 0 0)
(0.001662043329416292 0 0)
(0.001629981907021892 0 0)
(0.001572358208296309 0 0)
(0.001502255607283061 0 0)
(0.001409002555709007 0 0)
(0.001313188001384369 0 0)
(0.001220186603759822 0 0)
(0.001124846915857208 0 0)
(0.001033439140081648 0 0)
(0.0009381378206437425 0 0)
(0.0008493526432997528 0 0)
(0.0007577417536856149 0 0)
(0.0006724737846364563 0 0)
(0.000590830042421989 0 0)
(0.0005104635521156569 0 0)
(0.0004386107563944719 0 0)
(0.000375143817274729 0 0)
(0.000316250042350105 0 0)
(0.0002671886884391136 0 0)
(0.0002361835656736433 0 0)
(0.0002064633686735165 0 0)
(0.0001968239211533184 0 0)
(0.0002015550216410845 0 0)
(0.0002213567900350683 0 0)
(0.0002572423309449095 0 0)
(0.0003094315850965053 0 0)
(0.0003814966911918602 0 0)
(0.0004783674936039914 0 0)
(0.0005666706299791894 0 0)
(0.0006641753161692041 0 0)
(0.0007562683723426702 0 0)
(0.0008513976450569133 0 0)
(0.0009410173431643335 0 0)
(0.001032694809910019 0 0)
(0.001122360246927588 0 0)
(0.001207418029207671 0 0)
(0.001290187239604428 0 0)
(0.001365154668236438 0 0)
(0.001443062079001509 0 0)
(0.001500821193313143 0 0)
(0.001563127778772925 0 0)
(0.00160861701369993 0 0)
(0.001644984465130021 0 0)
(0.001671321921822969 0 0)
(0.001685092981140906 0 0)
(0.001684021386560114 0 0)
(0.001663983281821473 0 0)
(0.001639016150910372 0 0)
(0.001585594939460419 0 0)
(0.001524992799748244 0 0)
(0.001438460647197419 0 0)
(0.001344917794454446 0 0)
(0.00124907985817073 0 0)
(0.001160588537829738 0 0)
(0.001064823375403819 0 0)
(0.0009739145005340646 0 0)
(0.0008830212201115661 0 0)
(0.0007960781993562962 0 0)
(0.0007042060832988659 0 0)
(0.000626805565534369 0 0)
(0.0005470664255378504 0 0)
(0.0004699559217656447 0 0)
(0.0004056870626170597 0 0)
(0.0003453655407163045 0 0)
(0.000297466508698251 0 0)
(0.0002520146476842371 0 0)
(0.0002282035276143179 0 0)
(0.000211703222327221 0 0)
(0.000208514339684661 0 0)
(0.0002226554101787445 0 0)
(0.0002539591331648655 0 0)
(0.0002981771602630441 0 0)
(0.0003598435827474974 0 0)
(0.0004506896986270537 0 0)
(0.0005382247301058109 0 0)
(0.000636084656892639 0 0)
(0.0007233916448657511 0 0)
(0.0008220922579425353 0 0)
(0.0009042655447472089 0 0)
(0.001003588275459026 0 0)
(0.001086063355531972 0 0)
(0.001173708209519645 0 0)
(0.001256615984392367 0 0)
(0.001334113948638225 0 0)
(0.001409726954071264 0 0)
(0.001470892937336459 0 0)
(0.001538669991192644 0 0)
(0.001579678536262549 0 0)
(0.001629052638309861 0 0)
(0.001652020419037546 0 0)
(0.001675155714586299 0 0)
(0.001674838342142004 0 0)
(0.001665551846888443 0 0)
(0.001643943082798633 0 0)
(0.001594375799725267 0 0)
(0.001545258206083144 0 0)
(0.001464583981804034 0 0)
(0.001370865940875327 0 0)
(0.001276467361618573 0 0)
(0.001182649107437326 0 0)
(0.001087064589815702 0 0)
(0.0009908328737455651 0 0)
(0.0009031328178550878 0 0)
(0.0008047131596551097 0 0)
(0.0007173372379136259 0 0)
(0.000626461961119601 0 0)
(0.00054310825088939 0 0)
(0.000457061232396336 0 0)
(0.0003811971407814537 0 0)
(0.0003084515649917109 0 0)
(0.0002372628374945151 0 0)
(0.0001820318886443648 0 0)
(0.0001244901328999281 0 0)
(8.312280071613785e-05 0 0)
(4.46428402139874e-05 0 0)
(2.151854324582807e-05 0 0)
(1.586637589228346e-06 0 0)
(8.164887956688151e-10 0 0)
(-4.068601229403849e-13 0 0)
(-3.467535344753593e-13 0 0)
(-4.289230120905604e-13 0 0)
(-3.47329973563214e-13 0 0)
(-3.719460853601165e-13 0 0)
(-3.445780067345346e-13 0 0)
(-3.171137493808452e-13 0 0)
(-3.35488748012104e-13 0 0)
(-3.128310648910512e-13 0 0)
(-3.286897484743963e-13 0 0)
(-2.436534391171265e-13 0 0)
(-3.370484310263858e-13 0 0)
(-2.915615802330106e-13 0 0)
(-3.033883586651913e-13 0 0)
(-2.817196242421263e-13 0 0)
(-2.803149607173315e-13 0 0)
(-3.005890101598235e-13 0 0)
(-2.508495341960944e-13 0 0)
(-3.104927308856085e-13 0 0)
(-3.011469437520766e-13 0 0)
(-2.860305336097431e-13 0 0)
(-2.797409238252084e-13 0 0)
)
;

boundaryField
{
    inlet
    {
        type            calculated;
        value           uniform (-2.842113359317932e-05 0 0);
    }
    outlet
    {
        type            calculated;
        value           uniform (-2.797409238252084e-13 0 0);
    }
    frontAndBack
    {
        type            empty;
    }
}


// ************************************************************************* //
