/*--------------------------------*- C++ -*----------------------------------*\
| =========                 |                                                 |
| \\      /  F ield         | OpenFOAM: The Open Source CFD Toolbox           |
|  \\    /   O peration     | Version:  v2012                                 |
|   \\  /    A nd           | Website:  www.openfoam.com                      |
|    \\/     M anipulation  |                                                 |
\*---------------------------------------------------------------------------*/
FoamFile
{
    version     2.0;
    format      ascii;
    class       volVectorField;
    location    "0.001";
    object      U;
}
// * * * * * * * * * * * * * * * * * * * * * * * * * * * * * * * * * * * * * //

dimensions      [0 1 -1 0 0 0 0];


internalField   nonuniform List<vector> 
100
(
(-1.6075e-13 0 0)
(-1.30131e-13 0 0)
(-1.85453e-14 0 0)
(7.88638e-14 0 0)
(8.06769e-14 0 0)
(-9.24636e-14 0 0)
(-7.30115e-14 0 0)
(-4.3025e-14 0 0)
(-8.10864e-15 0 0)
(1.53975e-14 0 0)
(3.04452e-14 0 0)
(1.52888e-13 0 0)
(1.42543e-13 0 0)
(2.1502e-14 0 0)
(-1.37668e-13 0 0)
(-9.11606e-14 0 0)
(6.55248e-14 0 0)
(1.06821e-13 0 0)
(4.01629e-14 0 0)
(-1.0643e-13 0 0)
(-9.79191e-14 0 0)
(7.44265e-14 0 0)
(5.78613e-14 0 0)
(-1.32679e-13 0 0)
(-1.50938e-13 0 0)
(5.45262e-14 0 0)
(1.61532e-13 0 0)
(1.6869e-13 0 0)
(5.54967e-14 0 0)
(-1.42108e-13 0 0)
(-3.41233e-14 0 0)
(-8.15992e-15 0 0)
(1.21781e-14 0 0)
(2.0142e-14 0 0)
(-7.10099e-14 0 0)
(-2.65895e-14 0 0)
(2.44798e-14 0 0)
(2.84979e-14 0 0)
(8.46796e-14 0 0)
(5.22359e-14 0 0)
(7.88213e-12 0 0)
(1.71242e-07 0 0)
(0.000341427 0 0)
(0.0660727 0 0)
(1.9532 0 0)
(14.7439 0 0)
(47.3977 0 0)
(96.3848 0 0)
(150.695 0 0)
(217.671 0 0)
(284.084 0 0)
(303.828 0 0)
(295.631 0 0)
(298.34 0 0)
(275.776 0 0)
(187.38 0 0)
(45.1435 0 0)
(1.33061 0 0)
(0.00299705 0 0)
(3.44789e-07 0 0)
(8.60768e-12 0 0)
(-2.05902e-14 0 0)
(3.78324e-14 0 0)
(-1.48362e-15 0 0)
(3.24592e-14 0 0)
(-4.27624e-14 0 0)
(-1.56581e-15 0 0)
(1.58748e-13 0 0)
(8.08575e-14 0 0)
(3.43212e-14 0 0)
(-4.40296e-14 0 0)
(-5.20968e-14 0 0)
(-8.47956e-15 0 0)
(4.54545e-14 0 0)
(3.02672e-14 0 0)
(-2.53452e-15 0 0)
(-2.69909e-14 0 0)
(-3.26397e-14 0 0)
(7.04721e-14 0 0)
(3.54599e-14 0 0)
(7.8323e-14 0 0)
(6.05429e-14 0 0)
(-4.89596e-14 0 0)
(-5.19268e-14 0 0)
(-1.34997e-14 0 0)
(1.30435e-14 0 0)
(3.60631e-14 0 0)
(-5.5783e-14 0 0)
(-3.17508e-14 0 0)
(-1.48257e-13 0 0)
(-1.26108e-13 0 0)
(-3.64181e-14 0 0)
(-1.30309e-15 0 0)
(2.49275e-14 0 0)
(1.27937e-14 0 0)
(-8.32993e-15 0 0)
(-4.4408e-14 0 0)
(-1.7623e-14 0 0)
(3.97637e-14 0 0)
(2.09642e-14 0 0)
)
;

boundaryField
{
    sides
    {
        type            zeroGradient;
    }
    empty
    {
        type            empty;
    }
}


// ************************************************************************* //
