/*--------------------------------*- C++ -*----------------------------------*\
| =========                 |                                                 |
| \\      /  F ield         | OpenFOAM: The Open Source CFD Toolbox           |
|  \\    /   O peration     | Version:  v2012                                 |
|   \\  /    A nd           | Website:  www.openfoam.com                      |
|    \\/     M anipulation  |                                                 |
\*---------------------------------------------------------------------------*/
FoamFile
{
    version     2.0;
    format      ascii;
    class       volScalarField;
    location    "0.009";
    object      p;
}
// * * * * * * * * * * * * * * * * * * * * * * * * * * * * * * * * * * * * * //

dimensions      [1 -1 -2 0 0 0 0];


internalField   nonuniform List<scalar> 
1000
(
101327.9717931027
101338.3503862468
101328.954449096
101308.8108809128
101285.806086846
101268.3877599782
101262.9423393683
101271.7421365767
101286.2831176348
101298.1706558764
101297.050399485
101283.3495585415
101267.3538449991
101254.9895936544
101257.3166549696
101271.4467766036
101291.1192895926
101308.5573583652
101319.6659059642
101317.1596147409
101308.2455557663
101300.3247310959
101302.3924429648
101311.8656528483
101324.6443960493
101332.8587303081
101346.4080350749
101363.5545040667
101374.4437620908
101375.9205731471
101381.2152465417
101379.0032305825
101370.4772623982
101366.9554777563
101360.0794964136
101362.5203474512
101372.670832755
101379.8759921921
101387.1852617231
101381.4240580225
101363.1476198897
101343.5870455683
101334.4302492714
101333.1711375751
101337.5145790037
101341.8457896264
101339.0755089769
101327.6335024808
101307.3722033431
101286.6221988318
101284.274723244
101288.1247546884
101292.6986360811
101292.1688740451
101285.0999889228
101274.9648030308
101266.2061774049
101263.3621245182
101267.8086076918
101276.072687836
101284.6878039722
101286.1359527334
101285.3417698294
101283.8551445509
101284.1458232545
101289.7360296425
101299.5663645368
101312.2645620156
101325.4654959282
101336.0565710232
101340.7870380117
101340.6736142016
101339.5508683911
101342.0206413249
101350.5608980002
101361.3345210559
101373.5363067689
101381.3349093812
101384.7519305241
101382.0398295321
101374.8225196282
101369.5794815764
101366.0065898138
101369.0849430564
101375.6036491257
101378.290753141
101376.9103230633
101368.2713350716
101355.0447375652
101339.0621131914
101330.3469192072
101323.4011426749
101322.9624090142
101324.2308426527
101322.7428273
101314.7900509612
101299.3529104017
101282.38491536
101271.0918274805
101268.2306703911
101274.593397786
101282.9024092005
101288.1456589377
101283.924267819
101272.5704136476
101262.9286656416
101259.5680276045
101265.3305258721
101278.3801640914
101290.7949007687
101303.6954359337
101309.9905861851
101311.1570969075
101307.9840851523
101309.5564421008
101312.0205115198
101318.9527485893
101323.9584846353
101339.5031467076
101358.7203208605
101369.2560492474
101374.9795678662
101378.5683762049
101374.9880715779
101372.3605849642
101365.383036122
101364.268495406
101371.2700528567
101378.707323857
101388.0725353462
101388.5830763937
101380.5668719087
101366.9094610698
101353.7593741656
101346.5645602949
101346.295860314
101349.2070776951
101349.1664614759
101341.4424302116
101324.5538086727
101303.7246410057
101290.0340498087
101288.6340587532
101292.4079624408
101293.3093139436
101288.1981306066
101277.9786636468
101268.4930262873
101262.9591318654
101264.422383451
101269.4558091933
101273.9085063527
101274.6550935618
101276.0001557046
101279.9542086456
101285.9539153591
101292.4914919502
101296.9470906092
101297.1684866888
101295.8337825486
101296.3681873493
101303.4604131994
101319.8176951985
101343.5787191417
101363.8361742891
101366.7725240503
101362.2270746897
101358.6086609014
101360.5774616907
101367.6891724467
101376.4228320019
101383.9216526579
101386.19671484
101382.9948514667
101377.224302504
101371.7134768866
101372.2820063892
101373.4568057389
101374.0225632365
101369.4055463511
101361.4725838358
101351.9498532949
101343.9527932094
101341.2073624463
101342.1032974981
101339.6688610592
101326.1534652866
101300.7830709036
101282.8042529953
101276.6396578336
101277.6389728221
101281.6986419535
101284.213928171
101281.4412571808
101274.9325913653
101267.9370254113
101263.2054381578
101263.95427469
101267.4762432962
101269.9814010654
101272.6198445247
101280.0435782846
101289.4785871481
101296.0550391517
101299.4049001002
101299.9190543797
101299.286116104
101305.513232912
101323.8051320021
101349.0474145958
101361.8459710567
101361.6959429692
101358.9390304457
101356.2476986225
101356.2875724695
101359.3846827377
101363.0509207399
101371.0262903691
101382.927285151
101388.8221299547
101389.8938133805
101388.6033813717
101383.4081658392
101375.5128921049
101367.4212967002
101363.1978996752
101362.4428261588
101362.0617193845
101359.2573671475
101350.6888001868
101333.3059699796
101312.4213145322
101304.098318033
101304.0444867934
101303.7644188455
101300.6187887516
101294.6676177674
101283.2990120631
101270.7476602669
101266.9702645632
101267.0304380489
101266.2885573276
101268.3159562007
101272.614620911
101275.9424390609
101276.9293848916
101276.2028756867
101275.9700419351
101277.6010923469
101280.779770719
101283.4251418377
101287.4941963093
101294.3513951341
101303.4090555596
101314.1014485723
101327.7159756567
101346.7809158157
101365.9126232028
101372.8961857315
101373.6100293496
101374.3159417743
101374.6544756977
101374.1686979739
101374.9271000774
101377.9636868119
101381.3885485329
101382.7149683841
101382.2322755399
101381.1827186481
101381.7924627306
101378.7807188577
101370.9447156508
101361.5841036087
101356.111650788
101354.4355875397
101353.0688376897
101347.7384701857
101334.4239308414
101310.2218745618
101293.4957535592
101290.7381636704
101290.1975212444
101289.4923705062
101289.1483780368
101284.6929534314
101275.202140726
101268.0977175211
101267.1880527743
101267.2385530716
101267.0271861693
101268.3273988854
101271.7797047256
101276.3914179305
101279.4940369239
101280.6673010372
101281.8755428706
101282.7773615645
101282.3016507688
101287.7056812762
101301.4197602375
101330.618500289
101353.876189216
101358.4142214946
101359.315548753
101359.1757161232
101358.4433567434
101358.559777077
101360.0146871602
101362.1078696796
101370.053053585
101381.6750029596
101386.0141914873
101386.4846112935
101385.5879439044
101383.9566355638
101382.8631905346
101378.7016977101
101371.1623570113
101363.6892156762
101359.3037487119
101356.2635182706
101352.2728285958
101345.8495373042
101329.7131127878
101308.2410910585
101298.8056071447
101296.9760036126
101295.547424521
101294.2233530658
101290.7316900016
101281.5077863739
101272.3703922383
101269.7158194625
101268.8756185608
101269.0539722668
101270.5584444791
101273.0168039022
101275.9971278586
101277.0969945656
101276.7534754169
101276.2465436875
101276.5104286239
101277.6674183374
101279.3537922984
101280.138743528
101285.6406474784
101303.3507267394
101338.7505336694
101365.4617748602
101369.9229516166
101369.9705145259
101369.5846905213
101369.3237779718
101369.5148870919
101369.9912466886
101370.0960748984
101371.0865949483
101374.5244698608
101379.8521494682
101382.4842766323
101383.0330090425
101382.9422319789
101382.4770010743
101381.9297296365
101381.3265309076
101380.3752556693
101378.3901447808
101373.787962418
101362.0149945627
101334.0357896225
101296.3404483416
101280.9272640276
101279.808552508
101279.8633560719
101279.9208056826
101279.9536557642
101279.9747334942
101280.1093946909
101279.535905992
101278.142785106
101274.6699237048
101269.9152362185
101267.9687277886
101267.7437672761
101267.8250129235
101268.0638100084
101268.320286741
101268.73114315
101269.9196774151
101272.1313178134
101275.819258891
101283.0959021563
101299.5139309869
101331.7826353124
101365.3038838328
101375.146987173
101375.6765930281
101375.7640135187
101375.590849704
101375.2292008795
101374.9965393483
101374.9883093044
101374.9662841043
101374.8930717156
101374.9601447775
101375.3989138792
101376.181893022
101377.4552631396
101378.5350362027
101378.9361741791
101379.2535819202
101378.8208475801
101377.4812676488
101375.5716480645
101366.2575620197
101343.4796486751
101309.0329632121
101290.839598523
101288.2163597605
101287.6284493052
101287.1509735809
101284.8704557736
101279.30663999
101274.1502358516
101273.012185468
101273.0630725986
101273.1664009551
101273.1556029823
101273.2459504207
101273.4271592552
101273.2514020921
101272.9133635085
101273.2656219945
101273.8753656578
101274.242925066
101274.9296106578
101278.3811728915
101286.1267599027
101308.5276209487
101342.6259015331
101358.7132770984
101360.0653519347
101359.957771019
101360.167738498
101360.744316193
101361.0609650936
101363.5494548646
101369.8990391784
101376.0335726705
101377.47352497
101377.4156385152
101377.3703791357
101377.5332301474
101377.4328346684
101376.8754746445
101376.6703284524
101377.2794124204
101376.1437405693
101373.2635546779
101370.5212970489
101357.9444002504
101332.6205841946
101310.4499851198
101305.1791728492
101304.5715269732
101303.5323137589
101301.9135677125
101295.2495928798
101281.6302863944
101272.6295520756
101271.3576360869
101271.5576228124
101271.6367529636
101270.9279079477
101270.4392964067
101270.6307723266
101269.269023983
101266.8544493681
101265.7763384315
101266.5876657232
101267.539241471
101266.8986717573
101268.0941726931
101271.7975937241
101276.6487772916
101297.307218643
101341.1763201299
101377.3570454341
101383.6888087519
101383.7854473983
101383.771674576
101383.7288621384
101383.5376403106
101383.2020455349
101382.4661699741
101380.1176486532
101376.5599626171
101374.6399463779
101374.4034311778
101374.3138073511
101374.1261203992
101374.3802718586
101374.8181386117
101374.4119088008
101373.5475718894
101373.537610847
101373.2995325857
101369.288735495
101361.3259193729
101335.1057500102
101292.522927489
101270.3644300896
101268.2715837251
101268.3377316267
101268.4274594346
101268.5603909659
101269.4448814966
101271.297068934
101274.512707109
101276.6824942185
101277.0818574905
101277.1927770389
101277.0367146116
101276.8377596616
101276.779607015
101277.022988368
101277.2563752647
101277.242290132
101277.9498035761
101280.2804283426
101286.3857585059
101304.9142576614
101339.7561012057
101364.0054352408
101367.4518953002
101367.5005151031
101367.5194893017
101367.5075390771
101367.4687070172
101367.2766042936
101367.5876281217
101368.3514239932
101369.0064444996
101372.3267618232
101378.0739399669
101381.2178864295
101381.4702365691
101381.4043341295
101381.4223474339
101381.2422988806
101380.8394255039
101380.3170962204
101379.5031758604
101376.6038772244
101368.3246880831
101342.9867220236
101297.825691738
101269.008455143
101265.4143008041
101265.2350721483
101264.9248416874
101265.5056631343
101266.3028350452
101266.5814235593
101267.0026160127
101268.0359572334
101268.9364431768
101269.4732978689
101269.2680597746
101269.631969586
101271.2397208206
101273.9604544297
101280.6689294988
101294.7180822943
101309.2400029788
101314.5590332138
101315.7696020476
101316.3544823371
101319.9697818564
101329.9092875409
101347.8463365652
101358.923002012
101360.3821631742
101360.66235345
101360.9604291321
101360.9411219453
101362.9741972634
101367.4724440168
101373.8251469128
101376.2812066407
101376.4998106033
101376.3499869639
101376.0522436897
101375.9298275275
101375.7047866222
101375.239354196
101374.8142850929
101374.6535152917
101374.310099402
101371.6594538698
101365.743761884
101346.2655344701
101307.3127063982
101277.1678830901
101272.1834226389
101272.0521140587
101271.9496740719
101272.0849497813
101272.5109279937
101273.1053454171
101274.5744827047
101276.827667818
101277.9548826807
101278.1788155977
101277.8892539369
101277.6026282053
101277.8015975537
101277.9168964884
101277.6115698647
101277.5719402637
101278.5696921222
101279.8801422512
101280.2713748965
101285.894049311
101302.0244352273
101337.259599667
101367.0352781598
101372.5195380772
101372.6722283038
101372.6672422232
101372.5505792089
101372.497082365
101372.5978517838
101372.5932038941
101372.3595958371
101372.5672568323
101373.1036854797
101373.4119136168
101373.9152685656
101376.5884757652
101379.5148518488
101380.3738643439
101379.9500371264
101379.7864909183
101379.3989228173
101376.0104688182
101368.7071810569
101344.1073016903
101301.5531181359
101277.2895130979
101274.7458027528
101274.6584941467
101274.5876266657
101274.7693904514
101275.0391924228
101275.1852752423
101275.5309895532
101275.9090408309
101276.1355982432
101275.8935241452
101275.56657428
101275.5940081547
101275.8056516468
101275.562295978
101274.9866802502
101275.6064055716
101276.6419657008
101277.0100835115
101277.5864354182
101281.8824197983
101291.6426170763
101320.1407572359
101359.8329949312
101375.5355411997
101376.48658696
101376.5369656
101376.6732623235
101376.4464955775
101376.1247538922
101376.0337992763
101375.9842357338
101375.3598956053
101374.4148704127
101373.9581135392
101373.9994391199
101373.8704874629
101373.3313655726
101373.2735689772
101374.0519949048
101373.560532404
101371.8771066861
101370.6932236368
101370.6801755185
101364.5965031057
101348.343460258
101310.9025563667
101276.6971235965
101269.4975808486
101269.1214959343
101269.3559444073
101269.766940617
101269.9246613663
101269.8741735251
101270.2859208392
101270.9492183338
101271.3852918758
101271.6048820139
101272.0222281904
101272.5681444345
101272.9478732371
101272.9008720721
101273.3937049814
101274.385423076
101275.6252660522
101276.3737016307
101281.321721194
101295.5811645383
101329.4952107227
101364.0340406491
101373.2350874157
101375.1437857945
101375.7229478233
101375.4837433979
101374.5763800939
101371.988458503
101370.4109303606
101370.3966774992
101371.3692116893
101374.7653750679
101377.617756667
101379.0546672357
101378.8625769425
101376.7541096023
101374.198774134
101373.798331427
101374.3300377157
101378.104235194
101383.1160720153
101384.821107729
101377.0257956594
101351.6456354451
101302.3367295561
101267.0820467018
101254.7659842547
101253.7241809654
101257.2249696226
101270.250903444
101285.4067115587
101292.4185658855
101294.8463182417
101294.6855445469
101285.0355976791
101264.6511544594
101250.3030780233
101244.1193942394
101241.6442120055
101242.5961259258
101242.5407452563
101245.2224148355
101254.3589629764
101264.7726777449
101275.307813961
101282.9585945632
101293.2511724984
101312.3185167272
101329.7152427375
101337.678048919
101338.4113476478
101337.7036789884
101344.9195941404
101368.502740735
101385.6153228819
101392.6697536939
101394.177489549
101395.3873498523
101399.3453595183
101405.9532934406
101411.325680832
101412.4757019344
101409.4772284063
101397.6394363947
101380.701807064
101369.1346778872
101364.5062679012
101358.2065853801
101364.699636498
101375.520706801
101376.2402774256
101355.7723248119
101331.3000275645
101323.2020109115
101314.3906263175
101292.0351723967
101267.7380916674
101257.8011226648
101251.7766912362
101253.1209551029
101256.8762769974
101258.8023031742
101256.3292017723
101249.827366826
101244.4982635904
101245.2131398731
101246.3252719311
101255.4289890816
101268.2055726918
101275.4470414022
101281.4450438854
101284.0548579348
101283.5245234459
101289.7123460305
101310.6959779967
101331.6414292915
101341.4818829991
101344.9452191112
101357.3162039859
101377.0302968762
101386.9020150224
101393.2802261215
101394.7815898096
101393.0237874349
101391.8845552479
101395.7552707952
101406.5587850643
101414.469149093
101414.8744661087
101411.1605006294
101398.1773220396
101382.1114105738
101373.5956046336
101368.5843333523
101362.6858722691
101367.0687294105
101370.5001736799
101356.4801253623
101331.4025960261
101313.433829961
101311.587457555
101298.6647074064
101276.682800666
101262.694164136
101260.425576759
101254.9872384756
101254.579657772
101253.2867385991
101254.7948370671
101253.6076684504
101251.9861419821
101251.9239429225
101252.3240661562
101256.3600566172
101263.076198702
101269.4706394171
101273.2053709227
101281.2190588764
101280.7821554668
101280.9706752894
101298.4088145484
101328.2746154056
101348.5427731342
101351.5079224934
101361.4276974218
101376.7470537104
101388.663294802
101389.5044601587
101393.857784733
101395.7344659251
101397.4675307687
101396.2124244988
101398.6258476977
101400.5372982307
101400.8503611015
101399.6505640689
101396.2971209133
101388.3468460706
101378.8582528153
101374.8225279865
101370.1738063512
101370.6787128292
101374.5964962809
101368.1274568352
101341.4918381133
101314.2168144074
101300.8940741434
101294.359611146
101278.5919843459
101259.4827159629
101252.7231568871
101254.8010060655
101254.3893814365
101257.7257120359
101262.5303179695
101265.157184109
101264.1527110133
101259.5669681101
101255.0778443716
101254.0555234732
101256.7598056636
101262.7538552659
101266.9796992461
101270.9868952081
101275.2429585519
101275.4007304934
101277.9211676694
101302.40712451
101337.6318033285
101359.3402645179
101361.1845553114
101373.995009155
101389.4140106574
101396.9891570755
101392.5550674015
101390.6069724595
101389.3861763683
101387.4939012249
101385.8274528439
101386.9396313676
101391.4942679407
101395.3671729941
101397.5474687753
101394.6626718876
101387.5307888521
101381.1946308831
101377.8156967673
101370.8352292346
101372.8667104601
101370.8336364726
101346.438176642
101309.0928475546
101286.5824660549
101283.7168067217
101273.9318582189
101260.1186804504
101249.4149824551
101250.29384188
101254.9815403271
101255.0181934489
101256.5181793372
101259.6975891716
101260.8853470389
101258.9526238297
101255.4184538178
101252.3895636783
101251.1609933487
101251.2711151738
101253.3923591574
101255.7972364827
101261.3899081685
101263.0830087528
101269.5966671166
101296.8312606534
101338.2463763981
101360.659949006
101365.1205025097
101369.8651067027
101376.9521142801
101384.3656548256
101384.7067471131
101380.279893555
101381.3399358958
101381.0303342518
101380.3828218065
101379.2819765737
101380.9337309511
101385.8543591549
101389.6895167203
101390.5503531246
101388.9140809441
101385.0663644065
101381.9329611809
101376.1529770424
101374.1421629854
101366.5438985453
101342.7541729551
101300.5217668782
101274.6598239474
101267.7500047383
101264.471285719
101255.8868349979
101248.4433125571
101249.0393256713
101254.9266814851
101257.4861408818
101254.6181605465
101252.6188729802
101251.5310329456
101250.7321177906
101249.794283951
101248.8283384445
101247.3380461088
101244.3559159413
101242.2933227245
101242.8124499876
101245.9123218187
101248.0084320324
101254.8565260192
101279.2234479717
101326.3559259908
101360.6767245952
101367.4831892366
)
;

boundaryField
{
    inlet
    {
        type            uniformFixedValue;
        uniformValue    sine;
        uniformValueCoeffs
        {
            frequency       constant 3000;
            scale           constant 50;
            level           constant 101325;
        }
        value           uniform 101325;
    }
    outlet
    {
        type            waveTransmissive;
        gamma           1.4;
        fieldInf        101325;
        lInf            2.25;
        value           uniform 101367.1765133026;
    }
    frontAndBack
    {
        type            empty;
    }
}


// ************************************************************************* //
