/*--------------------------------*- C++ -*----------------------------------*\
| =========                 |                                                 |
| \\      /  F ield         | OpenFOAM: The Open Source CFD Toolbox           |
|  \\    /   O peration     | Version:  v2012                                 |
|   \\  /    A nd           | Website:  www.openfoam.com                      |
|    \\/     M anipulation  |                                                 |
\*---------------------------------------------------------------------------*/
FoamFile
{
    version     2.0;
    format      ascii;
    class       volScalarField;
    location    "0.009";
    object      pMean;
}
// * * * * * * * * * * * * * * * * * * * * * * * * * * * * * * * * * * * * * //

dimensions      [1 -1 -2 0 0 0 0];


internalField   nonuniform List<scalar> 
1000
(
101325.0319530209
101325.0120168554
101325.0362171459
101325.0200416225
101325.0559097299
101325.0693257458
101325.0768050193
101325.1087883464
101325.1917594544
101325.2205511423
101325.2542406499
101325.2974051022
101325.3464065845
101325.3369736223
101325.4118743795
101325.4447667708
101325.4712426666
101325.5159839704
101325.5709173322
101325.5522798898
101325.5464590315
101325.5625978587
101325.5779460997
101325.5847597715
101325.5682479984
101325.6272462605
101325.6093591893
101325.5853607285
101325.5274731805
101325.4970543213
101325.4606373169
101325.3872169031
101325.3793534314
101325.3617760152
101325.309232179
101325.2804828927
101325.245362153
101325.1967611881
101325.1330041602
101325.1047125491
101325.0798577491
101325.0680503194
101325.0371816019
101325.0401541537
101325.0200039462
101325.0076042227
101324.9981304213
101324.9814264594
101324.9905268082
101324.9910820556
101325.040330901
101325.0722091456
101325.1010391423
101325.1406657249
101325.1846676389
101325.2059384048
101325.2330340108
101325.2608261816
101325.3162729227
101325.3568219551
101325.4150626084
101325.4580707401
101325.4702065248
101325.5331902706
101325.5540185036
101325.5484792963
101325.5570918407
101325.6145064281
101325.6166427224
101325.5986973782
101325.626314049
101325.6370415046
101325.6002310997
101325.5526683443
101325.5663226019
101325.5236593813
101325.4647135665
101325.4485968722
101325.444260091
101325.3728982689
101325.3277558733
101325.2979140169
101325.2531774503
101325.1568268337
101325.1770626666
101325.1365103715
101325.0851458346
101325.0675223042
101325.0831237134
101324.9908660824
101324.9679838575
101324.9826781451
101324.9762319227
101324.9725560075
101325.0035263834
101325.0253304757
101325.0400751057
101325.060404368
101325.0636388799
101325.094885679
101325.1485669803
101325.1966713442
101325.2225658921
101325.2695725285
101325.3118678268
101325.3628214221
101325.3751456547
101325.4100258371
101325.4839979508
101325.5197659683
101325.5300352867
101325.567444641
101325.5958099143
101325.562201449
101325.5766608091
101325.6138528053
101325.6290434318
101325.6061509727
101325.6251957996
101325.61351063
101325.5626057675
101325.492927592
101325.4794776111
101325.4564684925
101325.4263579713
101325.3512095093
101325.3585460551
101325.3055842287
101325.240355245
101325.1982578992
101325.1715026879
101325.1328651116
101325.0749146729
101325.0610674309
101325.0280556171
101324.992579003
101324.9757668134
101324.9785426622
101324.9597623072
101324.9468527188
101324.9593769031
101324.9654133338
101324.9832175598
101325.0221731695
101325.0709572063
101325.0635795145
101325.1150470564
101325.1756224046
101325.1800171518
101325.2203231913
101325.2986351279
101325.3420675877
101325.3670847787
101325.4200326339
101325.4595672438
101325.4794743973
101325.5001733501
101325.5481087576
101325.5728830357
101325.586815064
101325.5986200272
101325.6379559191
101325.649131193
101325.6229194417
101325.6257244953
101325.616966869
101325.5664662366
101325.5141638634
101325.5128721435
101325.4584444262
101325.4236888802
101325.4048844223
101325.3575179806
101325.3105018443
101325.2708527164
101325.2147659618
101325.1623777307
101325.1218193174
101325.0985741061
101325.0605706883
101325.0363634401
101325.0145678523
101324.992369461
101324.9617954465
101324.9403960867
101324.9440565209
101324.9415311262
101324.9332568476
101324.975785258
101325.0208188677
101325.035150197
101325.0581057435
101325.1202445504
101325.1585063319
101325.1693409553
101325.2230350875
101325.28038566
101325.3157205146
101325.3454009482
101325.4251502178
101325.4635234103
101325.4865767949
101325.5177424283
101325.5596635056
101325.5801735573
101325.5821853006
101325.6168735734
101325.642672743
101325.6332858019
101325.6284189251
101325.6215604097
101325.5809502386
101325.551606346
101325.5340845927
101325.4940843004
101325.4684698179
101325.4459313861
101325.4173675302
101325.3701876044
101325.3218624113
101325.2744214992
101325.2245867518
101325.1671118398
101325.1276296082
101325.0827642538
101325.0435647828
101325.0191076044
101324.991974092
101324.9630334011
101324.9349716143
101324.9245542078
101324.9201839374
101324.9243223586
101324.946919131
101324.9726218358
101324.9817774128
101325.003959648
101325.0345738064
101325.0668300355
101325.1097030603
101325.1642247231
101325.2058064645
101325.252869388
101325.294999108
101325.3389897977
101325.3763703225
101325.4161905712
101325.4528049205
101325.49151975
101325.5275683158
101325.5672049101
101325.598292252
101325.6246757116
101325.6444836955
101325.6636341286
101325.6644458454
101325.6611796046
101325.6383620083
101325.6026730354
101325.563580208
101325.5211768399
101325.4876230288
101325.4478224729
101325.4049529394
101325.364213491
101325.3240133885
101325.2769832412
101325.2328012643
101325.1823383973
101325.1404328931
101325.0965050231
101325.0576184392
101325.0204924425
101324.9953589432
101324.9670054073
101324.9468374457
101324.9250919746
101324.9120053963
101324.908787723
101324.9304683038
101324.953467126
101324.9861705173
101325.0102452138
101325.0419760568
101325.0685742383
101325.1084540744
101325.1475948723
101325.1964375374
101325.2400495162
101325.2903846094
101325.3325556935
101325.3802800261
101325.4203398531
101325.4585225603
101325.492560571
101325.530875826
101325.5644508998
101325.5995930786
101325.6291144664
101325.6606037353
101325.6665081611
101325.6567104781
101325.6280277945
101325.6058934876
101325.5761902775
101325.5544018079
101325.5231944373
101325.499758493
101325.4683275166
101325.4387367242
101325.3969167206
101325.352372682
101325.303489888
101325.2567826996
101325.2053430411
101325.1597081034
101325.1135608626
101325.0746108812
101325.0381830411
101325.011778939
101324.9829101178
101324.9589843408
101324.9359173883
101324.926286056
101324.927361841
101324.9478023917
101324.9696179835
101324.9922905253
101325.0135686295
101325.0394469578
101325.0690161662
101325.1074466114
101325.1518345764
101325.1962730344
101325.2398515381
101325.2836937775
101325.3270039107
101325.3689279447
101325.4076482943
101325.4466230788
101325.4844356088
101325.5214204528
101325.5589115136
101325.6004583709
101325.6357212115
101325.6723111337
101325.6967671812
101325.7065370034
101325.6820077588
101325.6523001708
101325.6120804019
101325.5806629236
101325.5410792519
101325.5094103812
101325.470740135
101325.4396794639
101325.3986160695
101325.3645122405
101325.3196264994
101325.2777058312
101325.2282563416
101325.1860745523
101325.1369950611
101325.0930478643
101325.0453462841
101325.0029283222
101324.9553030348
101324.9161653424
101324.8778618187
101324.8577704729
101324.8605681642
101324.8926316945
101324.9260995643
101324.964781336
101324.9984309241
101325.036935777
101325.0704914777
101325.1095113813
101325.1433333862
101325.1824662641
101325.2184591023
101325.2630671954
101325.3059455371
101325.3542169754
101325.3976187727
101325.4458257945
101325.4894816269
101325.5367273575
101325.5800797659
101325.625482834
101325.6660944631
101325.7047728041
101325.7340854776
101325.7456845485
101325.7295808893
101325.6925357931
101325.6530505951
101325.6117807729
101325.5727693021
101325.5311087994
101325.4921920872
101325.4505356458
101325.4130269538
101325.3709887439
101325.333265144
101325.290232721
101325.2528064381
101325.2081298519
101325.1687945711
101325.1224236254
101325.0819238666
101325.0361424073
101324.9962222716
101324.9511873407
101324.9170138658
101324.8854463584
101324.8856332707
101324.9012695644
101324.9339536354
101324.9589381274
101324.9928967793
101325.0195762239
101325.0575658095
101325.0913505904
101325.1367955639
101325.173505205
101325.219793187
101325.2563046735
101325.3025687596
101325.3384627857
101325.385545132
101325.4211431837
101325.468236156
101325.5030630085
101325.5507617723
101325.5842577245
101325.6305090308
101325.6592723241
101325.6911499251
101325.685721469
101325.6730198466
101325.6373141377
101325.6176519134
101325.5804953424
101325.5611023195
101325.5239783023
101325.5029337271
101325.4615503126
101325.4322462853
101325.3823230069
101325.3487089619
101325.2984807033
101325.2643662628
101325.2152817396
101325.1804875841
101325.1322778715
101325.0967287605
101325.0508643771
101325.0153012279
101324.9721718249
101324.9446400995
101324.9207166138
101324.9262243997
101324.9367948914
101324.9562036765
101324.9703994548
101324.9896512852
101325.0087651286
101325.0381920852
101325.0752569033
101325.1182025763
101325.1606462749
101325.2038369269
101325.2467077034
101325.2891951838
101325.3333354868
101325.3772600695
101325.422896919
101325.4684521459
101325.5159178366
101325.5624344463
101325.609073476
101325.653489576
101325.697752102
101325.7407180126
101325.7715577366
101325.783008985
101325.7536549245
101325.7111963405
101325.6613474674
101325.6169965515
101325.5670277552
101325.5230496039
101325.4729811237
101325.4297367718
101325.3811747085
101325.3412969123
101325.2972959952
101325.261296548
101325.2182230536
101325.1824695613
101325.1389294544
101325.1034555789
101325.060107826
101325.0246202736
101324.9808530722
101324.9472627495
101324.9063121056
101324.8754118492
101324.8513241978
101324.8592398358
101324.8921067411
101324.9391766752
101324.9822830235
101325.0300429113
101325.0728550549
101325.1199744471
101325.1617772228
101325.206041663
101325.2431546845
101325.2839225855
101325.3197978039
101325.3605842439
101325.3965137152
101325.4372960731
101325.4733829098
101325.5142353822
101325.5502053083
101325.5900678992
101325.6251877047
101325.6617582218
101325.6854856595
101325.6933630595
101325.6699879514
101325.6393318758
101325.6032129333
101325.5712300839
101325.5354128318
101325.5034937241
101325.4677796189
101325.4354883606
101325.3996971659
101325.3668192078
101325.3285543096
101325.2909055779
101325.2453083476
101325.2020252075
101325.1550630299
101325.1114283344
101325.0648632865
101325.0215535051
101324.975311738
101324.9326433069
101324.8882399933
101324.8501718437
101324.8210314648
101324.8210000828
101324.8532697252
101324.9009499937
101324.9478157219
101324.9965808817
101325.0429132935
101325.0917462654
101325.1377894817
101325.1855435278
101325.2299439584
101325.2765033582
101325.3203977715
101325.3663632336
101325.4093001656
101325.4537898506
101325.4956559464
101325.5358233288
101325.5660936226
101325.5864197099
101325.5962413188
101325.6058817467
101325.6123242387
101325.6186515688
101325.620025781
101325.6108061943
101325.5880097792
101325.5600080144
101325.5318487304
101325.503117859
101325.474896552
101325.4446969454
101325.4143712216
101325.3770113864
101325.3379970517
101325.295736443
101325.2556863159
101325.2135791022
101325.1736269038
101325.1320403004
101325.0926958685
101325.0515322235
101325.0122980505
101324.9719662646
101324.9342560347
101324.8966019996
101324.8708814274
101324.8633358025
101324.890703589
101324.9294270653
101324.9735873473
101325.0141942075
101325.0579454261
101325.0984702249
101325.1418240977
101325.1815384563
101325.2220331723
101325.2590952422
101325.2975708839
101325.3344786359
101325.3725820805
101325.4098239298
101325.4480645728
101325.4859016469
101325.5234041776
101325.5607043282
101325.5981218867
101325.6344767148
101325.6674702333
101325.6962515282
101325.702581341
101325.683248424
101325.6450862309
101325.6087997377
101325.5688761229
101325.5326672902
101325.4925752938
101325.4565725588
101325.4165572432
101325.3806237596
101325.3403322738
101325.3041694053
101325.2640790473
101325.2268754219
101325.1845592065
101325.14484723
101325.099222731
101325.0568364035
101325.0103227017
101324.9692241689
101324.9254920392
101324.8869173063
101324.8583710127
101324.8563926812
101324.8851616281
101324.9245955404
101324.9650057723
101325.0051333521
101325.045562708
101325.0856704657
101325.1259170363
101325.1653821626
101325.2050499869
101325.2441818667
101325.283779617
101325.3228142489
101325.3624396972
101325.4017661216
101325.4418769637
101325.4811362378
101325.5206756625
101325.559814345
101325.5992909923
101325.6370498986
101325.6730312711
101325.706745123
101325.7239041074
101325.7165262478
101325.6800492623
101325.6409768513
101325.5980018576
101325.5585922581
101325.5158419296
101325.4764378084
101325.4338154854
101325.39480083
101325.3529045797
101325.3143455693
101325.2733518985
101325.2358228403
101325.195532783
101325.1581304927
101325.1174858434
101325.0800331049
101325.0405207498
101325.0036538709
101324.9638796239
101324.9289724492
101324.8943700658
101324.8660832092
101324.8588755986
101324.8824289981
101324.9251349351
101324.96904522
101325.0139526168
101325.0578827985
101325.1026241315
101325.1461834539
101325.1901996906
101325.2335387962
101325.2772689431
101325.3198909448
101325.3622994168
101325.4041843894
101325.4462025126
101325.4875531472
101325.5286845061
101325.5697707442
101325.6114822694
101325.6515841985
101325.6884669063
101325.7201185405
101325.731697462
101325.7151094525
101325.6784261903
101325.6406318495
101325.6023472143
101325.5650536409
101325.526853713
101325.4885738127
101325.4480224322
101325.4074055188
101325.3648908531
101325.3267004291
101325.2917543128
101325.2554408761
101325.2181119537
101325.1781499088
101325.1376634633
101325.0886248146
101325.0389739516
101324.9865589002
101324.9489825422
101324.9133392278
101324.8811268791
101324.8564988402
101324.8529075784
101324.8796920645
101324.9105805662
101324.9468945946
101324.9852709101
101325.0262113134
101325.0741088287
101325.1342632166
101325.1944954086
101325.2609072492
101325.3069593159
101325.3468449224
101325.3782661471
101325.3979437348
101325.4265695431
101325.4308495292
101325.446918667
101325.4625193317
101325.4910508212
101325.5237179338
101325.5746235561
101325.6015226989
101325.6249866599
101325.6175626156
101325.5855742847
101325.5161871791
101325.4268679766
101325.3341667361
101325.2497433193
101325.1918139414
101325.1526398543
101325.121103979
101325.0930909824
101325.0649817271
101325.0378237002
101325.0146951917
101325.0146648212
101325.0076399036
101324.9827023865
101324.9607583662
101324.9224257392
101324.8872481561
101324.8330608194
101324.7742387212
101324.7441267509
101324.7020275801
101324.7108336919
101324.7673519537
101324.8456853702
101324.9710230493
101325.0528803137
101325.1337728936
101325.1963541576
101325.2249560439
101325.2554682308
101325.2918453347
101325.3183303146
101325.3571613372
101325.3553874896
101325.3919756326
101325.4234483808
101325.4423910978
101325.4472380026
101325.4787436006
101325.5068723417
101325.5606966957
101325.6069906129
101325.6698426362
101325.6952645157
101325.7053644885
101325.6633135257
101325.5999391303
101325.5056131137
101325.4066926952
101325.3181737604
101325.2437817895
101325.2190421655
101325.1901176438
101325.1585192264
101325.1269063023
101325.1049973555
101325.0536925136
101325.0444428466
101325.0398512601
101325.0285883402
101325.0065526252
101324.989278272
101324.9579039636
101324.9219449211
101324.8630626141
101324.8192572942
101324.7840269637
101324.7614551576
101324.7836763734
101324.8670014765
101324.964406827
101325.0875197553
101325.1690594573
101325.2417809912
101325.3017786396
101325.3153726766
101325.3403934709
101325.3737726374
101325.3941154352
101325.445355978
101325.4517785795
101325.4888294051
101325.5103318592
101325.5228825542
101325.5364216641
101325.5600874961
101325.6060747639
101325.6429261511
101325.6993866197
101325.7514828666
101325.7740117219
101325.7586107582
101325.7052960323
101325.6236110203
101325.5276953436
101325.424317563
101325.3253863156
101325.2957412958
101325.2549105551
101325.2316514944
101325.2097110543
101325.1779572191
101325.1391925177
101325.100043637
101325.1005715405
101325.0938952744
101325.0829082182
101325.0738527682
101325.0598584566
101325.0280736224
101324.9884507573
101324.9283155061
101324.8980570697
101324.8657406969
101324.8503472937
101324.8938411006
101324.976399955
101325.0932358258
101325.1849707351
101325.2747922327
101325.3568992382
101325.397590128
101325.4107668245
101325.4401776131
101325.4598910449
101325.4885329268
101325.5049023681
101325.5219875106
101325.5417282918
101325.5542498588
101325.5634236042
101325.5870064654
101325.6163041334
101325.6515396656
101325.6909637464
101325.7390568876
101325.7761248956
101325.7824792231
101325.7583645151
101325.7068652331
101325.6066140534
101325.5086160105
101325.4031797071
101325.3271624403
101325.2824339995
101325.2396032233
101325.2249424852
101325.2018084023
101325.1793568686
101325.1484024381
101325.1308412524
101325.1247707638
101325.1126247174
101325.0909271693
101325.0782364116
101325.0488557426
101325.0093889065
101324.9647457044
101324.913282099
101324.8918448072
101324.8548619179
101324.8613578655
101324.9263997935
101325.0112496488
101325.1277256734
101325.2140406866
101325.2979331594
101325.3737841711
101325.3859137063
101325.4059505528
101325.4201802678
101325.4303831224
101325.455699017
101325.4549518911
101325.4739813634
101325.4919004126
101325.5001593019
101325.5123604749
101325.5441448386
101325.5628589445
101325.6021996135
101325.6304590861
101325.6780502621
101325.6854662217
101325.6767466045
101325.6246329409
101325.5344631321
101325.4308677082
101325.3276596124
101325.227050533
101325.1697576234
101325.1194906991
101325.0861760053
101325.0704847925
101325.0412554434
101325.0194500157
101324.9814576209
101324.9698608345
101324.9540353312
101324.9354940062
101324.9058299474
101324.8873447087
101324.8504318287
101324.8085119722
101324.7532008751
101324.7261644531
101324.6899716931
101324.6699023158
101324.7066120659
101324.7786673052
101324.8842794797
101324.9631070107
101325.0412956909
101325.122351836
101325.1604560508
101325.1681582183
101325.1876104129
101325.1808622354
101325.1880230568
101325.1908967314
101325.1969357786
101325.210846922
101325.2200740516
101325.2271258138
101325.2501860237
101325.2709054245
101325.2915081874
101325.3122849973
101325.3408658163
101325.359961267
101325.3450135702
101325.301868735
101325.2284968339
101325.0879362362
)
;

boundaryField
{
    inlet
    {
        type            calculated;
        value           uniform 101324.9999999996;
    }
    outlet
    {
        type            calculated;
        value           uniform 101325.0710479243;
    }
    frontAndBack
    {
        type            empty;
    }
}


// ************************************************************************* //
