/*--------------------------------*- C++ -*----------------------------------*\
| =========                 |                                                 |
| \\      /  F ield         | OpenFOAM: The Open Source CFD Toolbox           |
|  \\    /   O peration     | Version:  v2012                                 |
|   \\  /    A nd           | Website:  www.openfoam.com                      |
|    \\/     M anipulation  |                                                 |
\*---------------------------------------------------------------------------*/
FoamFile
{
    version     2.0;
    format      ascii;
    class       volVectorField;
    location    "0.009";
    object      U;
}
// * * * * * * * * * * * * * * * * * * * * * * * * * * * * * * * * * * * * * //

dimensions      [0 1 -1 0 0 0 0];


internalField   nonuniform List<vector> 
1000
(
(-0.03002110200604979 0 0)
(-0.04432833789623363 0 0)
(-0.03524147586078353 0 0)
(-0.02707152865114252 0 0)
(-0.03577810288633457 0 0)
(-0.06676078674309188 0 0)
(-0.09834609330114379 0 0)
(-0.1327488874905606 0 0)
(-0.1484213181095777 0 0)
(-0.1338305769331888 0 0)
(-0.1287395098012761 0 0)
(-0.1057760350837385 0 0)
(-0.0954500008119462 0 0)
(-0.1087961184829541 0 0)
(-0.1118153244365316 0 0)
(-0.1288166387326738 0 0)
(-0.1263258565467869 0 0)
(-0.09519221379051281 0 0)
(-0.04844641457732928 0 0)
(-0.01687728449185306 0 0)
(-0.0002425329628008089 0 0)
(-0.0141882006634937 0 0)
(-0.02545929749074933 0 0)
(-0.04388059485060007 0 0)
(-0.04608074571274327 0 0)
(-0.01815752895391105 0 0)
(0.04440726632057389 0 0)
(0.1138181101961448 0 0)
(0.1533563078235532 0 0)
(0.1560942816742396 0 0)
(0.1330781183034125 0 0)
(0.10254383717273 0 0)
(0.07854436041240773 0 0)
(0.07992307619506496 0 0)
(0.1032371965302397 0 0)
(0.1324997239306448 0 0)
(0.1524237830582366 0 0)
(0.1488664137921031 0 0)
(0.1265584258756197 0 0)
(0.09848041331912005 0 0)
(0.06412256339089402 0 0)
(0.04042053290139476 0 0)
(0.03519308596231856 0 0)
(0.04246676471560537 0 0)
(0.04306999953779603 0 0)
(0.04024157828441641 0 0)
(0.03313292758240304 0 0)
(0.01803567073924879 0 0)
(-0.0261210478125233 0 0)
(-0.08427628260942874 0 0)
(-0.1045183873062816 0 0)
(-0.1212625628690708 0 0)
(-0.1178526662045189 0 0)
(-0.111955825244153 0 0)
(-0.09370292412150745 0 0)
(-0.08643523609651653 0 0)
(-0.09767658941248926 0 0)
(-0.1171137087446295 0 0)
(-0.1389817194339878 0 0)
(-0.1514751836601595 0 0)
(-0.1465924906593 0 0)
(-0.1263687146724888 0 0)
(-0.1002340582418214 0 0)
(-0.0723506709166637 0 0)
(-0.05356843454816659 0 0)
(-0.04789641939529931 0 0)
(-0.04826347015960415 0 0)
(-0.04730654377461228 0 0)
(-0.03887000465957085 0 0)
(-0.02033640898218226 0 0)
(0.005983841848708728 0 0)
(0.0320393641163843 0 0)
(0.06200486985787809 0 0)
(0.08896372621899504 0 0)
(0.1036643421890861 0 0)
(0.1057519234439006 0 0)
(0.09830076462521516 0 0)
(0.09348219369020321 0 0)
(0.1027559533428773 0 0)
(0.1192871455065015 0 0)
(0.1472296485355435 0 0)
(0.1604573079577186 0 0)
(0.1508337898138369 0 0)
(0.1296497122536688 0 0)
(0.09564841741289334 0 0)
(0.07424105952209906 0 0)
(0.06924016625046302 0 0)
(0.08456511913232631 0 0)
(0.09944213766135601 0 0)
(0.09840946621837166 0 0)
(0.07139811229436765 0 0)
(0.01790854923938755 0 0)
(-0.02657224038555633 0 0)
(-0.05909185092078145 0 0)
(-0.06799570536301103 0 0)
(-0.05658469583469262 0 0)
(-0.04540551214615848 0 0)
(-0.05174953749991318 0 0)
(-0.07824407670187104 0 0)
(-0.1060207073544182 0 0)
(-0.1370655945239869 0 0)
(-0.1483558533625363 0 0)
(-0.1382143056986667 0 0)
(-0.126020154973918 0 0)
(-0.1110265729399693 0 0)
(-0.1088818199954163 0 0)
(-0.1178458394555988 0 0)
(-0.1322105147708995 0 0)
(-0.1390226621240377 0 0)
(-0.1206372672617184 0 0)
(-0.0753759641072857 0 0)
(-0.03408322841166559 0 0)
(-0.01131119199926177 0 0)
(-0.01487151949085894 0 0)
(-0.03101762662039466 0 0)
(-0.05108424634016474 0 0)
(-0.04941570079729147 0 0)
(-0.01615776480429331 0 0)
(0.04992475791241354 0 0)
(0.1139634697868898 0 0)
(0.1370772129181559 0 0)
(0.1276177286798585 0 0)
(0.1064096128812513 0 0)
(0.08881230870657493 0 0)
(0.08892461054137149 0 0)
(0.1069270400050183 0 0)
(0.1306805681814932 0 0)
(0.1447725732313602 0 0)
(0.1453844408620323 0 0)
(0.1338442039715449 0 0)
(0.1162882138240081 0 0)
(0.1119582469056215 0 0)
(0.1082152177426523 0 0)
(0.1001468539131536 0 0)
(0.08366608999410434 0 0)
(0.06496573413524993 0 0)
(0.04270499867962699 0 0)
(0.02519411952843953 0 0)
(0.02039440254785473 0 0)
(0.007083683722843697 0 0)
(-0.02664269727446019 0 0)
(-0.06366844505463515 0 0)
(-0.0818259403267608 0 0)
(-0.09954760524270215 0 0)
(-0.1068470634822775 0 0)
(-0.1052407936679295 0 0)
(-0.1037185987494379 0 0)
(-0.112492664245041 0 0)
(-0.132348817023874 0 0)
(-0.1472519105787214 0 0)
(-0.1573711911060361 0 0)
(-0.1486063831833362 0 0)
(-0.1283588631967263 0 0)
(-0.1047772614150436 0 0)
(-0.08936027307276019 0 0)
(-0.08679693558464932 0 0)
(-0.08953416986576826 0 0)
(-0.08850210394454797 0 0)
(-0.07759237139250875 0 0)
(-0.0618872467187196 0 0)
(-0.04515950172162402 0 0)
(-0.0393387344981257 0 0)
(-0.02302808115351399 0 0)
(0.02205972607694626 0 0)
(0.07347527555227833 0 0)
(0.0931275209074386 0 0)
(0.1113562376765313 0 0)
(0.1148898898017744 0 0)
(0.1147465551352312 0 0)
(0.1035778212440729 0 0)
(0.09714119568571387 0 0)
(0.1056070073168534 0 0)
(0.1234220918609527 0 0)
(0.1439734761941795 0 0)
(0.1580294865798016 0 0)
(0.1545852381541696 0 0)
(0.1379405577001589 0 0)
(0.1130971817607306 0 0)
(0.08891320257804226 0 0)
(0.07550338978809737 0 0)
(0.07509886137466198 0 0)
(0.07769997424399958 0 0)
(0.07796976586431618 0 0)
(0.06429830388239506 0 0)
(0.04347499406701486 0 0)
(0.01641484542333243 0 0)
(-0.01964857426396856 0 0)
(-0.06979811680492483 0 0)
(-0.09621793494054336 0 0)
(-0.1022286527265127 0 0)
(-0.1012403162883533 0 0)
(-0.1076198129756501 0 0)
(-0.1154391983316129 0 0)
(-0.120373106636845 0 0)
(-0.1209428354669364 0 0)
(-0.127246821625349 0 0)
(-0.1398906860121204 0 0)
(-0.14717575258375 0 0)
(-0.1534654328471151 0 0)
(-0.1454860345820691 0 0)
(-0.125341070144704 0 0)
(-0.1002906525401062 0 0)
(-0.08098721909286195 0 0)
(-0.07369461345238158 0 0)
(-0.07180247864420422 0 0)
(-0.06583653796581426 0 0)
(-0.05284293244692709 0 0)
(-0.03907550497985947 0 0)
(-0.005106444711201447 0 0)
(0.04949807247379541 0 0)
(0.08098375875530801 0 0)
(0.08604738312082305 0 0)
(0.0910965917149982 0 0)
(0.08812603262170143 0 0)
(0.08491316930819533 0 0)
(0.07837548436303551 0 0)
(0.08592068368200598 0 0)
(0.110116248209237 0 0)
(0.1418127985494903 0 0)
(0.1547384685057313 0 0)
(0.1544359167121374 0 0)
(0.1525493362589321 0 0)
(0.1492137691070767 0 0)
(0.1338970570850803 0 0)
(0.1107174442266654 0 0)
(0.09362053054363735 0 0)
(0.08573518493998687 0 0)
(0.07991819877341882 0 0)
(0.07606654584695284 0 0)
(0.06513867847696252 0 0)
(0.02933871878278583 0 0)
(-0.02233649287585596 0 0)
(-0.04964807421009017 0 0)
(-0.05811021934336891 0 0)
(-0.06188232436150798 0 0)
(-0.06011820644404909 0 0)
(-0.06888831144627855 0 0)
(-0.09761600591378433 0 0)
(-0.1327794678693931 0 0)
(-0.1446135897372928 0 0)
(-0.1450266365828111 0 0)
(-0.1402881416835604 0 0)
(-0.1355351920564392 0 0)
(-0.12951941903962 0 0)
(-0.1243914082075136 0 0)
(-0.120719909848172 0 0)
(-0.1167729365262122 0 0)
(-0.1137337507087483 0 0)
(-0.1140377331483094 0 0)
(-0.1148485579870296 0 0)
(-0.1080718897417025 0 0)
(-0.09122477717850541 0 0)
(-0.06874654444102631 0 0)
(-0.04773228746289616 0 0)
(-0.02829605890883951 0 0)
(0.001210420594927532 0 0)
(0.05128839547674563 0 0)
(0.1019796745428696 0 0)
(0.1200586844718201 0 0)
(0.1206764585044528 0 0)
(0.118714640748755 0 0)
(0.1192167252952698 0 0)
(0.1218074229801482 0 0)
(0.1249025010165999 0 0)
(0.1276768829713364 0 0)
(0.1342519325903082 0 0)
(0.1402663899110307 0 0)
(0.1442916386850599 0 0)
(0.1424150666094949 0 0)
(0.1351768472147173 0 0)
(0.1268311656190276 0 0)
(0.1127643351918509 0 0)
(0.09288176314524686 0 0)
(0.07865990460771827 0 0)
(0.07166894499661892 0 0)
(0.06516665945023639 0 0)
(0.05572659167929358 0 0)
(0.02406346432448597 0 0)
(-0.03555739243743895 0 0)
(-0.07753578943819844 0 0)
(-0.08462412591361948 0 0)
(-0.08517065759957068 0 0)
(-0.08521494287651321 0 0)
(-0.08966818046652202 0 0)
(-0.09878666538450701 0 0)
(-0.1208463059396673 0 0)
(-0.1387080929696606 0 0)
(-0.1419760840893711 0 0)
(-0.1424941477651551 0 0)
(-0.1406969983698706 0 0)
(-0.1386912478158751 0 0)
(-0.1325432782475935 0 0)
(-0.1190435825853039 0 0)
(-0.1088811223902058 0 0)
(-0.1066975937824506 0 0)
(-0.1083971582464575 0 0)
(-0.1066742642286405 0 0)
(-0.1001883344250857 0 0)
(-0.09333200301568106 0 0)
(-0.05758562272400927 0 0)
(0.01554698883717778 0 0)
(0.07245271468918296 0 0)
(0.0816031171034757 0 0)
(0.08124717563073069 0 0)
(0.08060470876092998 0 0)
(0.0824514974624829 0 0)
(0.08474685554321754 0 0)
(0.08502301889589257 0 0)
(0.09322903719883915 0 0)
(0.1120738793029233 0 0)
(0.1376703973592633 0 0)
(0.1461431967704677 0 0)
(0.1472384601667893 0 0)
(0.1491153326863415 0 0)
(0.1487089713089642 0 0)
(0.1424579888532974 0 0)
(0.1307525531335137 0 0)
(0.1116775605266013 0 0)
(0.09263635134502181 0 0)
(0.08245823048226758 0 0)
(0.07798771476573489 0 0)
(0.07240449717049539 0 0)
(0.05255108106253194 0 0)
(0.008901680886886257 0 0)
(-0.04559218555222776 0 0)
(-0.0675851477669622 0 0)
(-0.06926735139039564 0 0)
(-0.06822878375172166 0 0)
(-0.07078229827015095 0 0)
(-0.08222895731561097 0 0)
(-0.1083443207019205 0 0)
(-0.1317924456246969 0 0)
(-0.1368652191967933 0 0)
(-0.1362458837065154 0 0)
(-0.1341201781272979 0 0)
(-0.1333863805406671 0 0)
(-0.1291590768998873 0 0)
(-0.1223452998158176 0 0)
(-0.1185047026260435 0 0)
(-0.1163733055886699 0 0)
(-0.1152591884279154 0 0)
(-0.115046392040288 0 0)
(-0.1171917924867797 0 0)
(-0.1175511626301644 0 0)
(-0.1111622876883423 0 0)
(-0.09588451422975924 0 0)
(-0.05124890744989911 0 0)
(0.03467843885340367 0 0)
(0.09913689079086054 0 0)
(0.1096325899782206 0 0)
(0.1096106733860662 0 0)
(0.1098576886678373 0 0)
(0.1090613556335311 0 0)
(0.1082068287227172 0 0)
(0.1078852282506336 0 0)
(0.1097975400895968 0 0)
(0.1142042200875358 0 0)
(0.1230322616853106 0 0)
(0.1351746334669701 0 0)
(0.1401929787223807 0 0)
(0.1407626288236308 0 0)
(0.1404584168131158 0 0)
(0.1404670645431773 0 0)
(0.1399138261154081 0 0)
(0.1384766961920935 0 0)
(0.1358266970918802 0 0)
(0.1308993243248893 0 0)
(0.1195809745374404 0 0)
(0.09017413321595318 0 0)
(0.02155009132490847 0 0)
(-0.07030817039372171 0 0)
(-0.1077634694661544 0 0)
(-0.1104724870796353 0 0)
(-0.1105214838865593 0 0)
(-0.1101894192842543 0 0)
(-0.1099375115294595 0 0)
(-0.1100844312920254 0 0)
(-0.1107810845995383 0 0)
(-0.1111345792120077 0 0)
(-0.1143221646340567 0 0)
(-0.1233869480795566 0 0)
(-0.13523083275993 0 0)
(-0.1396316768191799 0 0)
(-0.1397623187254702 0 0)
(-0.1395481757357729 0 0)
(-0.1396949812050567 0 0)
(-0.1392336280322305 0 0)
(-0.1376059431927429 0 0)
(-0.1348953102631908 0 0)
(-0.1298289174647927 0 0)
(-0.1202050146261847 0 0)
(-0.1017879074731876 0 0)
(-0.06248364932374943 0 0)
(0.01612778857767959 0 0)
(0.09851385002027163 0 0)
(0.1229059390612247 0 0)
(0.1241284152755525 0 0)
(0.1238582656435839 0 0)
(0.123582177749809 0 0)
(0.1234301370337023 0 0)
(0.1228207827534086 0 0)
(0.1221057509047428 0 0)
(0.1215881282085916 0 0)
(0.1221338356751338 0 0)
(0.1229337389782179 0 0)
(0.1230741683604404 0 0)
(0.124733198734275 0 0)
(0.12877107324915 0 0)
(0.1317002607518395 0 0)
(0.1320888366002628 0 0)
(0.1316030750972521 0 0)
(0.1313529806611992 0 0)
(0.1302928133412395 0 0)
(0.1216899885542893 0 0)
(0.102020160346907 0 0)
(0.04599207835756043 0 0)
(-0.03947029826487383 0 0)
(-0.08428534261617604 0 0)
(-0.09008753932891275 0 0)
(-0.09086969693228102 0 0)
(-0.09310682685107995 0 0)
(-0.09876445184050403 0 0)
(-0.1115143024165317 0 0)
(-0.1238671642837604 0 0)
(-0.1270769880360395 0 0)
(-0.1276077475015039 0 0)
(-0.1271882634876804 0 0)
(-0.126649057791926 0 0)
(-0.1265075500851294 0 0)
(-0.1269859891117157 0 0)
(-0.1271482962732264 0 0)
(-0.1263938191630882 0 0)
(-0.1259251094338724 0 0)
(-0.126249327032096 0 0)
(-0.1247694457451361 0 0)
(-0.120988019041627 0 0)
(-0.1160315447346824 0 0)
(-0.09429180677795125 0 0)
(-0.03958256075786152 0 0)
(0.04268287327015753 0 0)
(0.08175903655888067 0 0)
(0.08578525281134791 0 0)
(0.08655414637049627 0 0)
(0.08655014943924137 0 0)
(0.08591616111360768 0 0)
(0.08849172311233702 0 0)
(0.09512263206058219 0 0)
(0.1096811472062677 0 0)
(0.124340102089721 0 0)
(0.1284209618265434 0 0)
(0.1290863635546335 0 0)
(0.1284096372112699 0 0)
(0.1274359117562819 0 0)
(0.1274548403810422 0 0)
(0.1287028676869693 0 0)
(0.1277724877723354 0 0)
(0.1252772149256078 0 0)
(0.1238967596931794 0 0)
(0.1223010946708067 0 0)
(0.108689541445438 0 0)
(0.08031157498740822 0 0)
(0.02030309345785737 0 0)
(-0.03493970565272032 0 0)
(-0.04971827190442769 0 0)
(-0.05144826976793489 0 0)
(-0.05093340034369582 0 0)
(-0.05635365253303495 0 0)
(-0.07402487622388713 0 0)
(-0.1062060042794308 0 0)
(-0.1273064895420365 0 0)
(-0.1308087919195534 0 0)
(-0.1317543341216685 0 0)
(-0.131790988261119 0 0)
(-0.1305954012074641 0 0)
(-0.1322036046361026 0 0)
(-0.1354293811266814 0 0)
(-0.1378762707760513 0 0)
(-0.1404277184906503 0 0)
(-0.1429235176713267 0 0)
(-0.144859399497795 0 0)
(-0.1438305463488261 0 0)
(-0.1397399741516708 0 0)
(-0.1357847369835928 0 0)
(-0.1348618919491076 0 0)
(-0.1168727718793026 0 0)
(-0.06773001318872673 0 0)
(0.03954239833571737 0 0)
(0.1279764502316506 0 0)
(0.1436247307660845 0 0)
(0.1439770070306591 0 0)
(0.1438226772581057 0 0)
(0.1435140846522184 0 0)
(0.1433715596283943 0 0)
(0.142630719102832 0 0)
(0.1402037000272611 0 0)
(0.1351868954454847 0 0)
(0.1264754051564361 0 0)
(0.1212499774748124 0 0)
(0.1204637212411431 0 0)
(0.1206442617768554 0 0)
(0.1211605271404435 0 0)
(0.1209627159577567 0 0)
(0.1202711960643918 0 0)
(0.120525008447642 0 0)
(0.1218969614770785 0 0)
(0.1189367306586269 0 0)
(0.1138154502771481 0 0)
(0.1118911066622243 0 0)
(0.08792888080813256 0 0)
(0.02430260624473366 0 0)
(-0.07930518300235591 0 0)
(-0.1333407816925578 0 0)
(-0.1388159111884095 0 0)
(-0.1392379776482856 0 0)
(-0.1386956215383931 0 0)
(-0.1374540258152357 0 0)
(-0.1362791300862476 0 0)
(-0.1317964131287427 0 0)
(-0.1234984692838359 0 0)
(-0.1180140592826517 0 0)
(-0.1172531281298137 0 0)
(-0.1174431223906647 0 0)
(-0.1175694054942707 0 0)
(-0.1174857108302103 0 0)
(-0.1175660224571312 0 0)
(-0.1180305947937817 0 0)
(-0.1175626524054383 0 0)
(-0.116234867671083 0 0)
(-0.1147279631010273 0 0)
(-0.110410080587377 0 0)
(-0.09397077723012826 0 0)
(-0.04900297268387337 0 0)
(0.03577626148755327 0 0)
(0.09519096630587084 0 0)
(0.1040547848098262 0 0)
(0.1044607927017175 0 0)
(0.1040269581767216 0 0)
(0.1035381081113374 0 0)
(0.1036919239700704 0 0)
(0.1042762851129786 0 0)
(0.1044482093734627 0 0)
(0.104833095517645 0 0)
(0.108576537928746 0 0)
(0.1159999265578363 0 0)
(0.1295450436668071 0 0)
(0.1372670387884472 0 0)
(0.1382512171054565 0 0)
(0.138526023444012 0 0)
(0.1379550694895679 0 0)
(0.1372256292574014 0 0)
(0.1367641680001547 0 0)
(0.1357646401215305 0 0)
(0.1330174771364095 0 0)
(0.1268113208866742 0 0)
(0.1048782340521515 0 0)
(0.04501468620426666 0 0)
(-0.06601733286996632 0 0)
(-0.1376524252596334 0 0)
(-0.1466966973567689 0 0)
(-0.1464387142577089 0 0)
(-0.1454543804384714 0 0)
(-0.145430109948582 0 0)
(-0.1454507490350454 0 0)
(-0.1436683872950577 0 0)
(-0.140433217792581 0 0)
(-0.1384915629917647 0 0)
(-0.1382062661413847 0 0)
(-0.137596333907082 0 0)
(-0.1359251688979828 0 0)
(-0.1336616072260443 0 0)
(-0.1323847030629567 0 0)
(-0.1260479618775954 0 0)
(-0.1081872647218116 0 0)
(-0.07292995025183265 0 0)
(-0.03846953215462085 0 0)
(-0.02670680450594218 0 0)
(-0.0235801091524367 0 0)
(-0.01944110367773689 0 0)
(-0.01258600462907537 0 0)
(0.01142345028215418 0 0)
(0.05582153065171317 0 0)
(0.08357079195023681 0 0)
(0.08699598151075419 0 0)
(0.08699456244400904 0 0)
(0.08716466370857258 0 0)
(0.08913963461670063 0 0)
(0.09198366621444468 0 0)
(0.1039573004768268 0 0)
(0.1199132310251895 0 0)
(0.1256780185487353 0 0)
(0.1257607398405239 0 0)
(0.1255496151742237 0 0)
(0.1255094282882845 0 0)
(0.1245937039830454 0 0)
(0.1232861829047838 0 0)
(0.1227698300400512 0 0)
(0.1228658358391263 0 0)
(0.1218341762954155 0 0)
(0.1190262440468632 0 0)
(0.1158493224177332 0 0)
(0.09885319476958995 0 0)
(0.05192758140442204 0 0)
(-0.04285471735378758 0 0)
(-0.1168970280217738 0 0)
(-0.1296422119110288 0 0)
(-0.130111888721473 0 0)
(-0.1295238299784652 0 0)
(-0.1289285316731501 0 0)
(-0.129065735074839 0 0)
(-0.127481656152685 0 0)
(-0.1228775916938994 0 0)
(-0.1175560556237522 0 0)
(-0.1155632726297705 0 0)
(-0.1153122316090948 0 0)
(-0.1149595823098427 0 0)
(-0.1150937446579111 0 0)
(-0.1159705148955899 0 0)
(-0.1168088939704778 0 0)
(-0.1154155206205954 0 0)
(-0.1138527915428464 0 0)
(-0.1145575504937517 0 0)
(-0.1131706387344788 0 0)
(-0.1068263297894182 0 0)
(-0.09653265094817938 0 0)
(-0.0563233147215744 0 0)
(0.03006223288119099 0 0)
(0.1030389131244165 0 0)
(0.1162983176703501 0 0)
(0.1165188353312238 0 0)
(0.116496831866094 0 0)
(0.1166786859600901 0 0)
(0.1164460046312376 0 0)
(0.1160273492859025 0 0)
(0.116031109020892 0 0)
(0.1167198468599545 0 0)
(0.1170597208739379 0 0)
(0.1163602204734981 0 0)
(0.1179328511355658 0 0)
(0.1220056852608192 0 0)
(0.1257428474387136 0 0)
(0.1314944801610083 0 0)
(0.1352402945835017 0 0)
(0.1372401754190646 0 0)
(0.1343812129327931 0 0)
(0.1296710151391192 0 0)
(0.1271964188387522 0 0)
(0.1061778277027097 0 0)
(0.04706229414265789 0 0)
(-0.05730765549538837 0 0)
(-0.1169740083235139 0 0)
(-0.1231975811155576 0 0)
(-0.1231995717007717 0 0)
(-0.1230375932670159 0 0)
(-0.1231341358340225 0 0)
(-0.1228241657943227 0 0)
(-0.1217044886723138 0 0)
(-0.1206103918548102 0 0)
(-0.1202721418842442 0 0)
(-0.120350116912773 0 0)
(-0.1202598326166533 0 0)
(-0.1200704187746281 0 0)
(-0.1207480325675814 0 0)
(-0.1217443117002195 0 0)
(-0.121651854668363 0 0)
(-0.1204084035633939 0 0)
(-0.1200936999527314 0 0)
(-0.1209430386538666 0 0)
(-0.1183351064443098 0 0)
(-0.1127379803575259 0 0)
(-0.1076917021323171 0 0)
(-0.08087960839349201 0 0)
(-0.0121579528418175 0 0)
(0.08498913027734685 0 0)
(0.1237736898664169 0 0)
(0.1263033907831572 0 0)
(0.1263057131285197 0 0)
(0.125868109128943 0 0)
(0.1257459604763885 0 0)
(0.1258633871184843 0 0)
(0.1250906749975154 0 0)
(0.1238135197648843 0 0)
(0.123162317580967 0 0)
(0.1218600231990442 0 0)
(0.1200899408839405 0 0)
(0.1189525239877163 0 0)
(0.1186300923911816 0 0)
(0.1198498206963561 0 0)
(0.1198845131882349 0 0)
(0.1175566814001818 0 0)
(0.1161111289132493 0 0)
(0.1182818726208055 0 0)
(0.114795162930269 0 0)
(0.1066759460356411 0 0)
(0.09860112450272533 0 0)
(0.05770857637867301 0 0)
(-0.03482188710585762 0 0)
(-0.1189317708766966 0 0)
(-0.1359574323538245 0 0)
(-0.1361179835005041 0 0)
(-0.13585003324007 0 0)
(-0.1360076623053813 0 0)
(-0.1351868107842844 0 0)
(-0.1340036206635312 0 0)
(-0.1334853348921655 0 0)
(-0.1335050825096381 0 0)
(-0.1322712192343006 0 0)
(-0.1300578566930975 0 0)
(-0.1286350434619644 0 0)
(-0.128443425767572 0 0)
(-0.1276384223501171 0 0)
(-0.1261693830666105 0 0)
(-0.1253544640844301 0 0)
(-0.1262126976774322 0 0)
(-0.1252113833116053 0 0)
(-0.1189525457238198 0 0)
(-0.106908843298423 0 0)
(-0.06794537896544232 0 0)
(0.01631498295069905 0 0)
(0.09950980147817824 0 0)
(0.1181289657780142 0 0)
(0.117468104155624 0 0)
(0.1157258522109597 0 0)
(0.114822879693864 0 0)
(0.1164173857049796 0 0)
(0.1216771601073779 0 0)
(0.1250091608626122 0 0)
(0.1260629596636605 0 0)
(0.1239361427362905 0 0)
(0.1160589689128068 0 0)
(0.1101255442355802 0 0)
(0.1087826823903209 0 0)
(0.1141316654891652 0 0)
(0.1267078361989679 0 0)
(0.1420601519060944 0 0)
(0.1508272073006215 0 0)
(0.1520559413315685 0 0)
(0.1412650648188637 0 0)
(0.1237805920247258 0 0)
(0.1014704655443768 0 0)
(0.0808196744178289 0 0)
(0.03502218895599439 0 0)
(-0.0489091711588405 0 0)
(-0.1000188909522571 0 0)
(-0.1125277046711533 0 0)
(-0.1098114007794915 0 0)
(-0.1130646993020737 0 0)
(-0.1371063321995357 0 0)
(-0.1700123942904275 0 0)
(-0.1835065379476332 0 0)
(-0.1847123952558307 0 0)
(-0.1805854357271795 0 0)
(-0.1544045232688409 0 0)
(-0.1061908087943304 0 0)
(-0.07459092865629449 0 0)
(-0.06006471133876392 0 0)
(-0.05522262373590985 0 0)
(-0.04997748120858583 0 0)
(-0.04939099629972843 0 0)
(-0.05796683473773226 0 0)
(-0.08447569677724329 0 0)
(-0.1097815492744942 0 0)
(-0.11628817963861 0 0)
(-0.09834403966114062 0 0)
(-0.04566936582632047 0 0)
(0.07136409687698274 0 0)
(0.1913662000215822 0 0)
(0.258269487573699 0 0)
(0.2747379918086498 0 0)
(0.2619040534716203 0 0)
(0.2280314072020168 0 0)
(0.1566116877019649 0 0)
(0.1117766222140282 0 0)
(0.09458179439013073 0 0)
(0.08307654677831876 0 0)
(0.07411895914803369 0 0)
(0.06353896588749748 0 0)
(0.05286953544179323 0 0)
(0.0467912695469131 0 0)
(0.04332975397555092 0 0)
(0.04528518060865187 0 0)
(0.06722415977647499 0 0)
(0.1098771211454416 0 0)
(0.1453354792752043 0 0)
(0.1689761608664578 0 0)
(0.1646086197642625 0 0)
(0.1268011654081518 0 0)
(0.03818720047144124 0 0)
(-0.09964533900041933 0 0)
(-0.221409453119692 0 0)
(-0.3074539459233146 0 0)
(-0.3276540154549575 0 0)
(-0.3012295018115667 0 0)
(-0.2189208619928993 0 0)
(-0.1300103600617295 0 0)
(-0.09542740555181364 0 0)
(-0.09364598337209708 0 0)
(-0.08931294140596353 0 0)
(-0.08720240148488877 0 0)
(-0.08309839583325328 0 0)
(-0.07796319351327013 0 0)
(-0.06943375256798939 0 0)
(-0.06294722642119079 0 0)
(-0.05577803629975837 0 0)
(-0.05850109068967038 0 0)
(-0.08410131087647696 0 0)
(-0.1212822500839561 0 0)
(-0.1495000467020411 0 0)
(-0.1570454287975304 0 0)
(-0.1384432484618185 0 0)
(-0.08046278050229651 0 0)
(0.03778023196687525 0 0)
(0.1794102803682949 0 0)
(0.2762573473008478 0 0)
(0.3083996372535308 0 0)
(0.2943966746717453 0 0)
(0.2368179612544321 0 0)
(0.1490918870736334 0 0)
(0.09891477741316498 0 0)
(0.09135139933316708 0 0)
(0.091298406812946 0 0)
(0.09170379947214277 0 0)
(0.09012992974083339 0 0)
(0.082196032598228 0 0)
(0.06183033246498843 0 0)
(0.04450682394446277 0 0)
(0.03283916211940985 0 0)
(0.03286589257656817 0 0)
(0.05905446399641075 0 0)
(0.1060431801789875 0 0)
(0.143248916848797 0 0)
(0.1616112465402519 0 0)
(0.1497300157809613 0 0)
(0.09776266196052201 0 0)
(-0.01727948178596993 0 0)
(-0.1648526891828057 0 0)
(-0.2838557874696817 0 0)
(-0.3408070351289498 0 0)
(-0.3360799685456071 0 0)
(-0.2808347943118454 0 0)
(-0.1802986889008839 0 0)
(-0.1010944997423494 0 0)
(-0.06930908900426996 0 0)
(-0.07331186303861854 0 0)
(-0.08971981846224135 0 0)
(-0.1029319124061305 0 0)
(-0.1008557924648856 0 0)
(-0.0856738985570614 0 0)
(-0.06459817923711614 0 0)
(-0.04774814822637566 0 0)
(-0.04488028464039061 0 0)
(-0.05985976096442874 0 0)
(-0.09214206106755564 0 0)
(-0.1275531905318084 0 0)
(-0.1518240431661065 0 0)
(-0.1540337616930836 0 0)
(-0.120246883509926 0 0)
(-0.03561688735848673 0 0)
(0.09971792011376943 0 0)
(0.2337643668903574 0 0)
(0.311277740480531 0 0)
(0.3221830448814723 0 0)
(0.2842425895519627 0 0)
(0.2054654903963324 0 0)
(0.1222699018067394 0 0)
(0.07885550800263091 0 0)
(0.07372941379612755 0 0)
(0.08951167009081938 0 0)
(0.1012314899936654 0 0)
(0.09830150901533059 0 0)
(0.07590738783165157 0 0)
(0.04419409589963177 0 0)
(0.01667424859350003 0 0)
(0.008109134569227235 0 0)
(0.0229619764523745 0 0)
(0.0624227317225181 0 0)
(0.1115556432755091 0 0)
(0.1468738685287756 0 0)
(0.1547376028294807 0 0)
(0.1300993456121183 0 0)
(0.06290600857610065 0 0)
(-0.05474830379805765 0 0)
(-0.2001345018073819 0 0)
(-0.3068118051807233 0 0)
(-0.3432114131188456 0 0)
(-0.3265365083882718 0 0)
(-0.2579385521121658 0 0)
(-0.1594794284226867 0 0)
(-0.09329580748252615 0 0)
(-0.06451754463527729 0 0)
(-0.06294618287965996 0 0)
(-0.06921401476141691 0 0)
(-0.07070956546788382 0 0)
(-0.06189522578572443 0 0)
(-0.05307323699961601 0 0)
(-0.04112502594642269 0 0)
(-0.04035419860635554 0 0)
(-0.0507494866726013 0 0)
(-0.06973466899887565 0 0)
(-0.09772671890710155 0 0)
(-0.121038405748637 0 0)
(-0.1306252350647312 0 0)
(-0.1220550055160449 0 0)
(-0.08451013606125161 0 0)
(0.001864664770760059 0 0)
(0.13016237411597 0 0)
(0.2549057979978174 0 0)
(0.3223010211870088 0 0)
(0.3260894120004023 0 0)
(0.2819462877535416 0 0)
(0.2016794212968003 0 0)
(0.1210308158226152 0 0)
(0.07362856132483059 0 0)
(0.06301786756110726 0 0)
(0.06773104660537303 0 0)
(0.07593760256569299 0 0)
(0.06977813762435643 0 0)
(0.05871582164190772 0 0)
(0.04064082917497382 0 0)
(0.0338044837336265 0 0)
(0.04228848469957745 0 0)
(0.06185569600074117 0 0)
(0.09628447874734515 0 0)
(0.1266876789543694 0 0)
(0.1433692815096821 0 0)
(0.1406511267043684 0 0)
(0.1063522424187001 0 0)
(0.02412322999808978 0 0)
(-0.1075201566401932 0 0)
(-0.2441983309846358 0 0)
(-0.3210746138567751 0 0)
(-0.3303967684786831 0 0)
(-0.2953601726976072 0 0)
(-0.2202465460501849 0 0)
(-0.128811453007767 0 0)
(-0.06554713015946129 0 0)
(-0.03807774683487074 0 0)
(-0.03455406665576956 0 0)
(-0.03809260526572938 0 0)
(-0.04277998133210815 0 0)
(-0.04385570824684405 0 0)
(-0.04258902130002328 0 0)
(-0.04101371770698725 0 0)
(-0.04419042741923535 0 0)
(-0.05710591223569296 0 0)
(-0.07411285506574795 0 0)
(-0.09414653415786674 0 0)
(-0.1055507757432977 0 0)
(-0.1047262541444215 0 0)
(-0.08083905901182231 0 0)
(-0.01927678282154995 0 0)
(0.09560043403015873 0 0)
(0.2345780040820533 0 0)
(0.3132614223556331 0 0)
(0.3293601952750811 0 0)
(0.3099931298856706 0 0)
(0.2537248323366669 0 0)
(0.1728534961393757 0 0)
(0.1054921721042364 0 0)
(0.07466526651022352 0 0)
(0.07138966454065922 0 0)
(0.07766818314756033 0 0)
(0.08467045272723023 0 0)
(0.08000243215873204 0 0)
(0.07074103068799291 0 0)
(0.05684468837066431 0 0)
(0.05376742022924811 0 0)
(0.06537088344522807 0 0)
(0.08731106487581616 0 0)
(0.117257204255717 0 0)
(0.1391660850107427 0 0)
(0.1425340913556444 0 0)
(0.1224673509938916 0 0)
(0.07391959662227023 0 0)
(-0.03411765363316283 0 0)
(-0.1840123746538865 0 0)
(-0.2761439005792045 0 0)
(-0.3000747397636463 0 0)
(-0.2865476987519522 0 0)
(-0.2351880710959562 0 0)
(-0.1588059301207063 0 0)
(-0.08065313855541803 0 0)
(-0.02999395015996879 0 0)
(-0.008680746746116781 0 0)
(-0.00466353077882078 0 0)
(-0.01199049823202127 0 0)
(-0.0204893679871014 0 0)
(-0.02646172551302971 0 0)
(-0.03043175176119299 0 0)
(-0.03629962122028538 0 0)
(-0.0458569097073898 0 0)
(-0.05696272574513316 0 0)
(-0.06676409666032956 0 0)
(-0.07279374438755964 0 0)
(-0.07515297488800962 0 0)
(-0.06164964801983715 0 0)
(-0.0216612493371041 0 0)
(0.06752329707490402 0 0)
(0.2042176054581616 0 0)
(0.3051404597196505 0 0)
(0.3277897443620554 0 0)
)
;

boundaryField
{
    inlet
    {
        type            zeroGradient;
    }
    outlet
    {
        type            pressureInletOutletVelocity;
        value           uniform (0.3277897443620554 0 0);
    }
    frontAndBack
    {
        type            empty;
    }
}


// ************************************************************************* //
