/*--------------------------------*- C++ -*----------------------------------*\
| =========                 |                                                 |
| \\      /  F ield         | OpenFOAM: The Open Source CFD Toolbox           |
|  \\    /   O peration     | Version:  v2012                                 |
|   \\  /    A nd           | Website:  www.openfoam.com                      |
|    \\/     M anipulation  |                                                 |
\*---------------------------------------------------------------------------*/
FoamFile
{
    version     2.0;
    format      ascii;
    class       volScalarField;
    location    "0.02";
    object      p;
}
// * * * * * * * * * * * * * * * * * * * * * * * * * * * * * * * * * * * * * //

dimensions      [1 -1 -2 0 0 0 0];


internalField   nonuniform List<scalar> 
1000
(
101303.8551269181
101303.6924937356
101298.2723248303
101286.2855516625
101281.5764777699
101273.2458469412
101266.2906516758
101261.1771030985
101258.6573823059
101253.7944719011
101252.3441412559
101251.0793396618
101252.1590173683
101253.6494973908
101256.3615531638
101261.9519229115
101265.8088993557
101273.2772170468
101282.6859685906
101289.9701637279
101299.9292268852
101310.4529312356
101320.8644705346
101331.2119758195
101341.5447526004
101351.8493594691
101361.2163219582
101369.6090472887
101377.8695496554
101384.1114637155
101388.4621079131
101391.1151513934
101393.7440350364
101393.8064491957
101393.6329356456
101391.9838474866
101388.5007723412
101385.7000136936
101379.617970261
101372.7113267774
101366.2649245816
101357.1361535595
101348.5461254445
101339.3294481793
101329.7346364768
101320.4439859641
101310.7906904696
101302.1775687775
101292.4562388287
101283.7518924286
101275.7525495484
101267.2753842102
101260.9173631316
101254.0318591635
101250.20770734
101247.2657356411
101244.8118309703
101243.7181460368
101244.2362190581
101245.0060297812
101247.3704658789
101250.6272846195
101254.7417455731
101261.4010858415
101268.4950060775
101276.2886786794
101286.3100437754
101295.7840289673
101305.89939562
101317.2115928088
101327.2577789299
101337.5303143127
101347.4907573966
101355.7542645024
101364.5046244036
101372.0440359132
101376.741416344
101380.1000686488
101382.9231452678
101383.420351958
101383.4804662231
101382.1748986076
101379.9344284792
101377.4611045591
101372.4902244994
101366.9568272816
101361.1540403475
101352.9277404509
101344.9287597053
101335.8894513072
101326.1891830636
101316.4340117938
101306.9294486041
101297.4826611693
101288.0861429254
101279.5813690585
101271.0911242528
101263.6736220439
101256.4180630283
101249.5803983863
101245.3513135315
101242.2855731929
101239.8928918552
101238.1379748326
101238.8568450385
101239.3557699309
101241.0191131006
101243.9667454857
101247.3406631775
101253.3268276346
101259.4517461256
101266.5764874756
101275.7462316046
101284.4962114418
101294.4762771844
101305.0298789077
101315.6855102204
101326.2441431921
101335.5768165391
101345.446617052
101353.8223720011
101361.9501458475
101367.0788730722
101371.6041966639
101373.9979891527
101375.5906720193
101376.1123998979
101374.9844313125
101373.1050249245
101370.9230223181
101366.8522444872
101361.375421626
101356.5336162873
101349.4984423726
101340.6636740989
101333.4434629824
101323.767586256
101313.8278966737
101304.6269552576
101294.6425844065
101285.3459603422
101275.7412328432
101267.3701964721
101259.5057574111
101252.2541128127
101244.948449594
101240.9752017072
101237.308631503
101234.5889293303
101233.1807633939
101232.7094052591
101233.044912921
101234.5373070996
101237.1910462055
101239.7245739769
101245.0910924528
101251.0972219393
101256.9538791263
101265.9423931557
101274.5941621345
101283.2737844284
101294.1278609164
101304.921052144
101314.9402278889
101325.4706159367
101335.7816963947
101345.0569904111
101353.3617704691
101360.9472777897
101364.7801113801
101368.4771489494
101370.1072738162
101370.8041833342
101370.2211124281
101368.3050055923
101366.832900562
101363.3253167072
101357.8947029512
101353.1471062158
101346.777596808
101338.6946444654
101331.2754310264
101322.232752765
101312.4346634177
101302.7735887945
101293.3523802138
101283.3411964742
101273.8520930134
101264.7136473777
101256.0518720554
101248.0941612141
101240.6527305525
101235.2780041566
101231.7835002037
101228.3617792755
101227.1338086703
101226.5238051053
101226.1749790316
101227.5984893734
101230.0855857863
101231.9380968531
101235.9318857573
101242.4675531879
101247.4183434916
101255.0106639501
101264.1729441637
101271.6568934134
101282.0642077124
101292.7874645412
101302.2041850195
101313.0988330643
101322.982927606
101332.233951243
101340.9481579151
101349.4902547545
101354.7921227126
101358.1953399366
101360.9294346941
101362.1318084458
101361.6896719472
101360.5056459423
101358.7687217253
101356.6145833726
101351.9938510079
101347.313097452
101342.5725417909
101334.8906506942
101327.871537685
101319.9481842377
101310.5543232924
101301.5169705304
101292.0963166163
101282.3200532991
101272.5454106523
101263.3645388583
101254.3992621024
101246.1038618409
101238.9501568223
101231.8625158541
101227.9056196334
101225.5145830249
101223.3412817962
101222.5025972085
101222.8653133092
101223.5941565073
101225.6985882906
101228.3683752662
101231.5655921415
101236.950337361
101242.3261434743
101249.212355577
101257.4262895917
101265.1111920914
101274.3620012101
101284.002711817
101293.9696118284
101303.9100106852
101313.4411487768
101323.2258265882
101332.8310794981
101339.7103134872
101348.460144978
101351.3106105551
101354.9753039075
101356.6064299786
101357.1332401897
101356.4013837415
101354.8844664343
101353.1536738546
101350.2297633681
101345.0510751767
101340.9734404729
101334.7042727634
101326.8168420329
101320.7729481741
101311.6184355266
101302.8412206403
101294.203959766
101284.2642789273
101275.3107767731
101266.3606276474
101256.2225905285
101249.3364994612
101240.8360088231
101233.3436685244
101228.6976445705
101226.4280781905
101223.8747755652
101222.86645334
101222.8095208311
101223.3919418725
101225.0857585599
101226.7597171505
101229.9633162074
101234.7558363082
101239.2879955782
101246.2353256773
101253.3608006303
101260.4145161976
101269.7353226456
101279.2324503804
101288.7249741771
101298.5867507585
101308.3724502214
101318.8568904353
101326.8072887765
101336.2284987596
101344.6053292735
101350.1696163224
101353.7237031007
101356.1105304832
101357.7761010059
101357.5209736707
101356.3220409706
101355.1666070322
101352.6648809459
101348.3068543258
101344.3949218266
101338.6983487821
101331.5693599874
101325.1149814142
101316.6604758734
101307.7460325363
101299.1935997343
101289.8852229093
101280.5148114606
101271.1090691896
101262.2179899134
101253.5670583567
101244.5616696712
101238.3074098006
101230.8062875321
101228.3865901056
101225.5914557036
101224.0359790434
101223.9464493074
101224.1158607445
101225.445520417
101226.9961348778
101229.3022290934
101233.4782510117
101238.0573288624
101243.2947066736
101250.3558477677
101257.2807912877
101265.0033749695
101274.8589755747
101283.6305930538
101293.0226370523
101303.18659937
101312.8174587597
101321.8046914914
101331.2033032806
101339.2636243679
101346.8926508669
101351.1412751253
101353.9133835821
101355.9792196761
101356.2027575044
101355.7213734414
101354.2262583705
101351.494790672
101348.140624806
101344.2488581205
101338.4093740849
101332.044235947
101325.6121514787
101317.4834083089
101308.846009065
101300.2511618105
101291.2239525281
101281.5527045778
101272.4842051806
101262.9080315181
101254.1034409207
101245.6010914083
101238.1223003777
101230.0621533674
101225.9623408587
101223.145140839
101221.2245758641
101220.5227964483
101220.5139586126
101221.337266502
101223.3913128215
101225.851762189
101228.8837305506
101233.9798556878
101239.0040000769
101244.9848330069
101252.5458440717
101259.7970174128
101268.1666060565
101277.4627903362
101287.1429609743
101296.4586675067
101305.7156814971
101315.5666241837
101324.4181366252
101331.8287926263
101340.9304619344
101346.1823144677
101349.0717473139
101352.1105640545
101353.2058788847
101352.6464355415
101351.487817538
101349.9041985205
101347.2032750925
101342.7111539322
101338.6548637488
101333.4273920428
101325.7829778521
101319.1013294367
101311.1855301057
101302.523053396
101293.3289175876
101284.1946914326
101275.3756529048
101265.4694863465
101256.9445578935
101248.578128996
101239.7951814969
101233.2879816988
101226.4449747042
101223.5846769142
101221.6497662871
101220.3540796872
101219.6213672608
101220.588005118
101222.8736576271
101224.0181550411
101226.7913829542
101232.1675137637
101235.5802610446
101241.5615216755
101249.3299237577
101254.9974364839
101263.4953130566
101272.8676022596
101280.9261561411
101290.4339877961
101300.3140831498
101309.1357663573
101318.4704815679
101327.9910044899
101334.888318203
101343.0051924449
101346.5447060495
101350.0499584885
101351.5410510389
101352.2459810983
101351.4872597821
101350.2088052703
101348.1593844627
101344.6270289326
101340.8339414085
101335.6204251382
101329.2301417937
101322.6180098401
101314.5681698073
101306.2650320269
101297.4035318765
101288.3164590147
101278.9745553358
101269.6368212676
101260.3321774909
101251.4457115036
101243.171474832
101235.9470486747
101228.3597140349
101224.6917498146
101222.3761663741
101220.2163503293
101219.843293304
101220.5816034411
101221.3715485058
101223.495592903
101225.9482761359
101228.7738099123
101234.2382423611
101238.839631445
101244.6052172216
101252.1464433789
101258.9962594879
101267.2348548908
101276.5294482953
101285.3958817087
101294.5010610756
101304.1537785286
101313.8528133761
101321.9756261969
101330.9495352557
101338.7312478641
101344.4423029605
101348.0744978323
101350.6093158424
101352.0457520828
101351.5050484856
101350.0381069376
101348.5174981637
101345.2595460616
101340.7365281163
101336.5231305535
101330.354963418
101322.7521394346
101315.6828011726
101307.6032833775
101298.6026011621
101289.3290887691
101280.0070930519
101270.5808772828
101261.1145703385
101252.4163354666
101244.067620623
101235.5810500984
101228.8561248253
101223.070323521
101219.3553812142
101217.8988242298
101216.438368181
101215.9606981588
101217.2925318839
101219.3319277425
101220.9012786096
101224.1334615728
101229.2314224389
101233.2458173858
101238.9326494791
101246.8727946709
101253.0917463642
101260.8087654012
101270.4738646424
101278.4456705282
101287.4776302229
101297.1900210583
101306.1081683627
101315.1481150303
101323.2852017268
101331.1993360693
101338.1172995341
101342.4918162321
101345.0717900599
101347.2049369073
101347.4364361666
101346.8391434023
101345.2672449183
101342.654863546
101339.4031295566
101335.1556251456
101329.4542255103
101323.6408311198
101316.9561687943
101308.9367057023
101300.8213242375
101292.0335895518
101282.8299770408
101273.6691691058
101264.5385785221
101255.5965398257
101246.6808934473
101238.236169472
101231.7626240675
101224.2400084045
101221.2850208164
101218.4735553598
101217.1744343263
101216.9265173908
101217.7223775497
101218.8710717611
101221.2763887354
101224.1320013454
101227.2612850235
101232.9726333303
101237.860188326
101243.9204672564
101251.3246223498
101258.0988539035
101266.5327970554
101275.3129451071
101283.9623596331
101293.0150121978
101302.2480348535
101311.2941949979
101319.8518897258
101328.0623687742
101336.1237713916
101341.3455816128
101345.4849968017
101348.2670409104
101349.5570129633
101349.2412004672
101348.2241110259
101346.2830296114
101343.1787931924
101339.014949282
101334.0877913559
101328.3361393084
101321.2920333428
101313.7617105505
101305.9795085104
101297.2893976255
101288.3481589705
101279.0045444579
101269.8983316571
101260.5875214558
101251.7157983496
101243.3991945558
101235.7275253804
101228.4903990297
101223.1497188221
101220.761641583
101218.1151381865
101217.6372052519
101218.2005046787
101219.2114393581
101221.6549534102
101224.0988667338
101227.6689531374
101232.6136919944
101236.6077175439
101242.9332482128
101249.9228129768
101255.9886944682
101264.3701638946
101272.732179253
101280.9501889703
101289.9937719488
101299.087407445
101308.2254660385
101316.9584360834
101325.4204728474
101333.774555977
101340.261897766
101344.4885873853
101348.5186047889
101349.9952685861
101350.4444495323
101349.8868258029
101347.8561610081
101345.7798531599
101341.9955796076
101336.5769230925
101331.4590008808
101324.354735789
101316.060749096
101308.7739921575
101299.9601371018
101290.3965108959
101281.4786938041
101272.0391472011
101262.5960092724
101253.7135457156
101245.0507028236
101236.1997251956
101229.3587249162
101222.8199014235
101219.6682698657
101216.4732125139
101215.0949897914
101215.0187614553
101215.7808735725
101217.321493197
101220.1482062213
101222.711166464
101227.0602490911
101231.9277967001
101237.3411831614
101244.1002630336
101250.8696318178
101258.16167539
101266.3981502513
101274.8018952949
101283.6065403546
101292.4593264981
101301.6974860901
101310.0506633169
101318.4554162734
101326.2071819114
101333.6432845513
101338.4815830474
101342.4384627379
101344.9613070109
101346.010783285
101345.857266807
101344.8020357859
101342.6412820429
101339.6162674684
101334.9887577529
101330.0263020501
101323.9812530028
101316.4072669764
101308.9182336677
101300.652243199
101292.2209364824
101283.1603732491
101273.5062894132
101265.2603164764
101256.4773102526
101246.9215909426
101240.3712776105
101231.9024287263
101224.9830142205
101220.8486252046
101217.5810243525
101215.5383031489
101215.5606540785
101215.106521947
101216.5347015985
101219.9545256635
101221.7935822525
101225.4447652244
101231.9293639453
101235.7288008208
101241.6705341121
101249.6205009303
101255.754794208
101263.6366216683
101272.2848477824
101280.5595005229
101288.9929565637
101297.5661653303
101307.592711344
101314.6711243288
101323.4744547644
101331.605092008
101337.8926457211
101341.7638961534
101346.0628633443
101347.1015876664
101348.0547102371
101347.451944768
101345.6513905244
101343.2031924599
101339.9626925863
101334.2842046413
101328.7867583636
101322.3837243143
101313.6774205656
101305.9437356093
101297.6346463539
101287.7275473789
101278.7516955901
101269.4398486274
101260.5370070814
101251.8081118481
101243.5555741679
101235.7420161785
101228.6118777424
101222.739210735
101220.0511705555
101216.9609193174
101215.393645355
101215.6383487633
101216.0692708138
101218.616206946
101220.8808504865
101224.112384713
101229.3997575128
101234.0740478938
101240.5137086139
101247.4146691012
101254.0440774193
101261.8254305393
101269.792463603
101278.0650320958
101286.6047693893
101295.3481174569
101304.5131697184
101312.9258706956
101321.3973396992
101329.521899048
101337.4691763558
101343.3946287307
101347.1786254364
101351.0944984375
101352.435727202
101352.3763107422
101352.1186017096
101349.8108716244
101347.5800326989
101342.8661595209
101337.4206144411
101331.839522783
101323.984764303
101316.0188986074
101307.7215042383
101298.7601475073
101289.1880405437
101279.6520030644
101270.4601704727
101261.0703205972
101252.7364552775
101244.461204472
101236.6848118368
101230.2003128011
101225.0721429304
101221.5527566242
101218.5437456737
101217.1820241572
101216.6941841879
101217.0763445568
101218.4839481005
101221.2006018052
101223.9142041104
101227.8482493089
101233.1024660625
101237.7422147503
101244.1867575751
101250.6272598443
101257.0819420085
101264.6127562286
101271.2606689636
101278.755647622
101286.4696146027
101293.3896787744
101300.831365632
101308.3705352431
101314.2564681092
101320.4261774972
101325.3820396527
101328.9054720947
101331.3758582179
101332.8605102461
101333.8125966964
101332.7529781197
101330.6767766306
101328.3719116609
101324.5832195465
101319.6384158812
101314.5662916624
101308.5878244905
101301.1491549307
101294.2106765159
101286.860663186
101278.2606884457
101270.4779092516
101262.1572609834
101254.1047788111
101247.0378946648
101239.5993898658
101232.9222332926
101226.7185197492
101222.915956192
101219.655892872
101216.7948917651
101216.0924227473
101215.1516584764
101216.1716842295
101217.0226974231
101219.7194409615
101222.2378611406
101226.4212583837
101231.3659028451
101236.3192035016
101242.9485794735
101249.3561771212
101256.000358279
101263.7943643541
101270.9161747473
101278.0857503768
101286.0732358486
101293.4902806263
101300.4244038948
101307.1752780914
101314.0567215654
101318.6472473427
101322.865105642
101325.6224632922
101327.488096882
101328.4586488013
101327.9181150033
101326.7431152393
101323.9189188557
101321.6191496719
101317.3652240232
101311.8621881028
101307.6697620966
101300.7147202795
101293.62438152
101287.7041319396
101279.5400016576
101271.739190808
101264.6435379789
101256.3888160754
101249.1605537464
101241.9139911336
101235.2113436549
101229.4154580698
101223.8126561657
101220.6274777845
101218.665426552
101216.9560591886
101216.4441773595
101216.9161216666
101217.7986233011
101220.0395078012
101222.5018967979
101225.4802197281
101230.5061180398
101235.2308048708
101240.8318042704
101247.6404413753
101254.456436727
101261.5990712843
101269.1720048108
101276.7677534819
101283.8063206829
101290.8940046536
101298.1617198065
101304.7787829942
101310.5920225623
101317.1531766763
101321.2823173179
101325.1520481176
101327.8195285423
101329.1421521492
101330.164324145
101329.177016348
101327.181247903
101324.7230521132
101321.0486443746
101316.1024760241
101310.7477617823
101304.3252454653
101297.211509392
101290.153605826
101282.3496883997
101274.2816950338
101265.8648821909
101257.8878073968
101249.7553992416
101241.6809036291
101235.0689273919
101227.9083707243
101221.8332732002
101217.80502611
101215.3951888622
101212.5031149737
101211.4330507315
101211.8264440518
101212.1961399155
101213.9232685686
101216.3861046217
101219.1517765978
101223.0725213199
101227.838791748
101232.6821585091
101239.0148410243
101246.0134892104
101252.5119058662
101259.84326979
101267.745858401
101275.1770617588
101282.6872375251
101290.2061310242
101297.2706243424
101303.545289481
101309.0340618024
101314.1689976801
101316.8816448686
101320.1703846149
101322.0236304808
101322.7124119823
101322.9745947286
101321.4695048475
101319.2637403565
101317.3196971207
101312.4976342384
101307.0988689296
101303.1607051091
101296.5068418972
101288.7845964885
101283.0467081641
101274.6847771615
101266.059838194
101259.1283882467
101250.362679724
101242.753798835
101235.8458536644
101228.0450993706
101222.2947728559
101217.1628778853
101213.8445986046
101210.9488895762
101209.8057317924
101209.1098203887
101209.944463692
101210.9570980264
101213.4084237777
101216.3884423998
101219.1084271403
101223.9898918515
101229.456549555
101234.0449693171
101240.4895680348
101249.0027326227
101253.9244647498
101262.1546663379
101273.3926739183
)
;

boundaryField
{
    inlet
    {
        type            uniformFixedValue;
        uniformValue    sine;
        uniformValueCoeffs
        {
            frequency       constant 3000;
            scale           constant 50;
            level           constant 101325;
        }
        value           uniform 101312.8819131453;
    }
    outlet
    {
        type            waveTransmissive;
        gamma           1.4;
        fieldInf        101325;
        lInf            2.25;
        value           uniform 101275.310375049;
    }
    frontAndBack
    {
        type            empty;
    }
}


// ************************************************************************* //
