/*--------------------------------*- C++ -*----------------------------------*\
| =========                 |                                                 |
| \\      /  F ield         | OpenFOAM: The Open Source CFD Toolbox           |
|  \\    /   O peration     | Version:  v2012                                 |
|   \\  /    A nd           | Website:  www.openfoam.com                      |
|    \\/     M anipulation  |                                                 |
\*---------------------------------------------------------------------------*/
FoamFile
{
    version     2.0;
    format      ascii;
    class       volScalarField;
    location    "0.02";
    object      pMean;
}
// * * * * * * * * * * * * * * * * * * * * * * * * * * * * * * * * * * * * * //

dimensions      [1 -1 -2 0 0 0 0];


internalField   nonuniform List<scalar> 
1000
(
101325.0781620392
101325.0422351972
101324.9993898784
101324.9641414729
101324.9987195958
101324.9849821566
101324.9655186484
101325.0035680881
101324.988742874
101324.9928004408
101325.001107383
101325.0059654994
101325.0009998842
101325.0221023635
101325.0039328121
101324.9901655314
101325.0210486545
101325.007650872
101324.971326317
101324.9866566474
101324.9813544151
101324.9507860769
101324.9304914985
101324.9236946883
101324.9054419704
101324.8715027669
101324.8376057241
101324.8215724628
101324.7970335901
101324.7503848402
101324.7296863436
101324.701025361
101324.6643429388
101324.6250759233
101324.6082572797
101324.5708721672
101324.5347551445
101324.5054785585
101324.4778491912
101324.45493822
101324.4242869352
101324.3940176967
101324.3848547914
101324.3677162622
101324.328499246
101324.3347819217
101324.3334134237
101324.296442993
101324.2962537348
101324.3150229345
101324.2867718538
101324.2835171814
101324.3123268213
101324.2915278719
101324.2936548378
101324.3138075085
101324.3132511779
101324.3035763946
101324.3214593778
101324.3174403808
101324.3133995636
101324.3142387584
101324.3121922072
101324.3027926259
101324.308021405
101324.2855227297
101324.2745451136
101324.2735195842
101324.2490293713
101324.2286017367
101324.2128387916
101324.1866893363
101324.1610651165
101324.1297627565
101324.1043179254
101324.0714624713
101324.0400866373
101324.0093589771
101323.9772823488
101323.9426854791
101323.9104124935
101323.8820978695
101323.8453752403
101323.8194118029
101323.7828176875
101323.7608887477
101323.7322851411
101323.7008157846
101323.6834059137
101323.660921416
101323.6401171805
101323.6260140484
101323.6112893805
101323.6032158588
101323.5932718767
101323.5845964791
101323.5825052497
101323.5764765465
101323.5765389697
101323.5839025956
101323.5759172274
101323.5861200881
101323.5920356401
101323.5868330843
101323.5888639672
101323.598718006
101323.5927270023
101323.5776652456
101323.5919511666
101323.5851550619
101323.5663127988
101323.5651014278
101323.5600827296
101323.5307305634
101323.5243468538
101323.514376225
101323.4809917385
101323.4579193639
101323.4484949513
101323.4028758635
101323.367118047
101323.3640644933
101323.3089397985
101323.2705076086
101323.2613832337
101323.2160486137
101323.1691757106
101323.1590110191
101323.1178806499
101323.072512157
101323.0593087894
101323.0213026097
101322.985884567
101322.9730278926
101322.9407821201
101322.909029624
101322.8996344985
101322.8839452154
101322.8505973177
101322.8566219445
101322.8461360909
101322.8217275108
101322.8236763647
101322.8361290998
101322.8089828997
101322.8173853762
101322.8362399767
101322.8177540602
101322.8264451274
101322.8456619825
101322.8264679391
101322.832469219
101322.8477306361
101322.8277702858
101322.8210859357
101322.8397262183
101322.8206722872
101322.80058825
101322.81034689
101322.7921095171
101322.7668232485
101322.7623797593
101322.7481450663
101322.7132539562
101322.6968984704
101322.6716758002
101322.6399584435
101322.6059027521
101322.5837576878
101322.547663007
101322.5084220852
101322.486757848
101322.4508814187
101322.4118335633
101322.3873885397
101322.3561858847
101322.3143010633
101322.2907464415
101322.2698897323
101322.2283740563
101322.2122983551
101322.1838921588
101322.1618262444
101322.1459273556
101322.1287848697
101322.1065490006
101322.1099466385
101322.0944663195
101322.0764015397
101322.0876863487
101322.0787970916
101322.0722640348
101322.0775356586
101322.086513545
101322.0798271269
101322.0865409267
101322.0932716916
101322.0905710412
101322.0854184485
101322.0928552676
101322.0847370059
101322.0775023879
101322.077091424
101322.0741758275
101322.0517302752
101322.0457850705
101322.0390022073
101322.0160072099
101321.9945130805
101321.9879706353
101321.9588893682
101321.9230787343
101321.9097948582
101321.876476283
101321.8337044056
101321.8109625943
101321.7861841772
101321.7359397264
101321.7070934821
101321.6876787857
101321.6413639441
101321.6043378431
101321.5906441342
101321.5464635812
101321.5137731151
101321.4946381936
101321.4698712873
101321.4303081594
101321.4198397122
101321.3962985178
101321.3741656868
101321.3606886008
101321.3525748174
101321.3395205771
101321.3263973588
101321.3240933701
101321.3241355845
101321.3069139433
101321.3230634168
101321.3218985606
101321.3156037487
101321.3289569349
101321.3335098229
101321.3225284954
101321.3326162953
101321.3352007133
101321.3231941301
101321.317014077
101321.3268732516
101321.3129324795
101321.295374215
101321.2985889411
101321.2810728632
101321.259849501
101321.2528865687
101321.2351403133
101321.2076561237
101321.1809482356
101321.169929637
101321.1274983797
101321.0915665637
101321.0779351405
101321.0369152761
101320.990536142
101320.9788675986
101320.9397601409
101320.8954161365
101320.8748050076
101320.8461718308
101320.8024243065
101320.7783310116
101320.7528901064
101320.719925979
101320.7017812399
101320.6715101208
101320.6470563982
101320.6408305978
101320.6181939731
101320.5967367476
101320.6031495421
101320.5854472554
101320.57345721
101320.5791008883
101320.5734663303
101320.568071707
101320.5757883069
101320.5837681906
101320.5798509549
101320.5885798768
101320.5937044164
101320.5938174573
101320.5915551632
101320.5944551255
101320.5905355229
101320.5815687912
101320.5892452424
101320.5778149086
101320.5576645933
101320.5563527568
101320.5492670107
101320.5198939893
101320.5108397142
101320.5041323949
101320.4654348046
101320.4449489291
101320.4285583686
101320.3916659036
101320.3552132315
101320.3415913878
101320.2973451514
101320.2666875952
101320.2429058963
101320.2075353611
101320.1718555315
101320.1515729259
101320.1162099115
101320.0824416554
101320.061795657
101320.0386871216
101320.0079521383
101319.9856500059
101319.9688470168
101319.9472911458
101319.9287151014
101319.9248796875
101319.9124446105
101319.8969711958
101319.8950745757
101319.8954610124
101319.8837443353
101319.8882606088
101319.8961043053
101319.8956697762
101319.8978256383
101319.9143853675
101319.9104045813
101319.9153145885
101319.9225086508
101319.9232808096
101319.9174188323
101319.9171179316
101319.9183568472
101319.9120908668
101319.8995821163
101319.8929456809
101319.8838107098
101319.8676278226
101319.856210879
101319.8407652687
101319.8226897088
101319.7964527379
101319.7779600216
101319.7457283877
101319.7236577761
101319.6946434056
101319.6607550059
101319.6329822751
101319.6048247084
101319.5752104363
101319.5392153665
101319.5194458052
101319.4851516196
101319.4549142468
101319.4292414166
101319.4082183606
101319.3749956306
101319.3611836318
101319.3344786619
101319.3120865923
101319.3016495246
101319.2879357529
101319.2701805832
101319.2664324807
101319.2610938649
101319.2464510915
101319.2537057849
101319.2435215461
101319.2460358763
101319.2533341974
101319.2537367688
101319.2587313981
101319.2650307148
101319.2717224357
101319.2708621048
101319.2679120393
101319.2736819824
101319.2705630281
101319.2586532918
101319.2643690008
101319.2578592344
101319.2373892153
101319.2314687325
101319.2243669385
101319.2010765219
101319.1890203669
101319.1769898711
101319.1466361306
101319.1259752171
101319.1034078148
101319.0730402477
101319.0373712355
101319.0171849802
101318.9842563609
101318.9431619651
101318.9226395034
101318.8957102463
101318.8488355931
101318.8281361139
101318.8092299351
101318.7591680542
101318.7374333201
101318.7308961036
101318.6891378151
101318.6642802276
101318.652555269
101318.6359231439
101318.6094718814
101318.603508937
101318.5999654047
101318.580109929
101318.5814691675
101318.5750579367
101318.5729233241
101318.5647180662
101318.5795105498
101318.5771591943
101318.5779259019
101318.5915025171
101318.5908052206
101318.5917533242
101318.6060118914
101318.5960653503
101318.5888980731
101318.6009883006
101318.592015854
101318.5799147115
101318.5803316063
101318.5638118895
101318.552609788
101318.54268458
101318.5264362432
101318.5052607327
101318.4915748512
101318.4696873864
101318.4457198711
101318.4124640099
101318.392759082
101318.3632135474
101318.3267938876
101318.3047544749
101318.2730132045
101318.2379881111
101318.2157519403
101318.1878553427
101318.1519549344
101318.126927875
101318.1041859159
101318.0708939011
101318.0580978491
101318.0332766665
101318.0032610341
101317.9919642962
101317.9855153584
101317.9555706535
101317.9511963809
101317.9505937583
101317.941839577
101317.9276158352
101317.9377944813
101317.9346570999
101317.9209034892
101317.9406802926
101317.9477952299
101317.9383535553
101317.9530679857
101317.9650738228
101317.9556920708
101317.9641054729
101317.9680179719
101317.9501894899
101317.9626207224
101317.9617336537
101317.9374411272
101317.9415404786
101317.9293106762
101317.9098340743
101317.8974892707
101317.8914545633
101317.8593651442
101317.8487948614
101317.8274858356
101317.7997201942
101317.7682998935
101317.7461836658
101317.7200245996
101317.6813732013
101317.6592798547
101317.633660273
101317.5961066148
101317.5711684759
101317.5516714458
101317.5120289923
101317.4793904296
101317.4728329027
101317.4391814317
101317.4084912675
101317.4020779914
101317.3728158056
101317.3519947323
101317.348947165
101317.3279027324
101317.3145425962
101317.3219857137
101317.3064250214
101317.2991500111
101317.2988639218
101317.304646342
101317.2947450119
101317.3004841294
101317.3128825712
101317.3107872991
101317.3078755019
101317.328660879
101317.3191241152
101317.3188664801
101317.3188947038
101317.3101647024
101317.3120092342
101317.310519225
101317.2860628463
101317.2819876163
101317.2742950979
101317.2556619324
101317.2338974065
101317.2254663278
101317.2030130645
101317.1791934226
101317.1611604235
101317.1258704107
101317.0978486399
101317.0758084756
101317.0394902776
101317.0061794123
101316.9905884229
101316.9441334102
101316.919714189
101316.9071272121
101316.8588389449
101316.8278815095
101316.8172977402
101316.7853340793
101316.7501693681
101316.7491976654
101316.7152536648
101316.6875577269
101316.6913372913
101316.6727435544
101316.6437223777
101316.6584855538
101316.6530754637
101316.6280646302
101316.6373878779
101316.6425272227
101316.627061084
101316.6313105523
101316.6482672993
101316.6434334518
101316.6395530902
101316.6603856516
101316.6611993216
101316.6429403814
101316.6605608126
101316.6561246402
101316.6383392785
101316.6417508447
101316.6430802942
101316.6168408734
101316.6034388585
101316.6061893081
101316.5725604075
101316.5601159415
101316.5466953136
101316.5255424219
101316.4936728142
101316.4713188362
101316.4548181565
101316.4076920712
101316.3844934404
101316.3642208513
101316.3222033103
101316.2961798989
101316.2764028165
101316.2412671159
101316.21137774
101316.1847756353
101316.1594514997
101316.1288263688
101316.1113885964
101316.0858193898
101316.0625846778
101316.0447887212
101316.0261615653
101316.0125322912
101315.9990092909
101315.9937579422
101315.9881248442
101315.9828180228
101315.9724567053
101315.9755671866
101315.9758175243
101315.9697497506
101315.9747594467
101315.9880251859
101315.9826304037
101315.984831003
101316.0013838059
101316.0021239489
101315.985285224
101315.9981545856
101315.9959659552
101315.9785185649
101315.9866888681
101315.9752470867
101315.9540692475
101315.9472822721
101315.9362302366
101315.9074696984
101315.9036963328
101315.882190673
101315.8535840217
101315.8346604662
101315.8058299368
101315.7767310752
101315.7478810507
101315.7219379314
101315.688197244
101315.663413732
101315.6338915008
101315.6063567973
101315.579657079
101315.554111739
101315.5177055201
101315.4930138263
101315.4788659923
101315.4483668078
101315.423691575
101315.4089228207
101315.384609176
101315.3677333041
101315.352620102
101315.3533216036
101315.3329077928
101315.3299214668
101315.3332341276
101315.3138275193
101315.3154792081
101315.3207769473
101315.3139001314
101315.3180330227
101315.3236430246
101315.3211972956
101315.3288992582
101315.3327806014
101315.323457758
101315.3212577166
101315.3253215167
101315.3131662009
101315.3027174935
101315.3062410392
101315.2886275307
101315.2656092307
101315.2574637486
101315.2437861998
101315.2156409461
101315.2051839964
101315.1864212371
101315.1476784459
101315.1316717324
101315.0973335332
101315.0635922386
101315.038439443
101315.0110381784
101314.9673782938
101314.9509016916
101314.9210624557
101314.8832715609
101314.8554170247
101314.838070421
101314.7936652257
101314.7695419253
101314.7582371351
101314.7251345473
101314.6916157802
101314.6911416458
101314.6621152292
101314.6357949512
101314.6396469729
101314.6269228743
101314.6155371139
101314.6136040661
101314.6083657267
101314.5972680661
101314.600029227
101314.5983940122
101314.5993979602
101314.6027295596
101314.6074112502
101314.6028419876
101314.6140458704
101314.6088151065
101314.6040405846
101314.6053956218
101314.5967179638
101314.5909655289
101314.5923605299
101314.573615597
101314.5546685484
101314.5508884033
101314.5299271956
101314.500171387
101314.497748812
101314.4764761233
101314.4457546555
101314.415947312
101314.4025160865
101314.3542737931
101314.3246144203
101314.3097038727
101314.2690263824
101314.2351104958
101314.2185995743
101314.1819823555
101314.1512917734
101314.1312085464
101314.0975703788
101314.0645143794
101314.0530341776
101314.0264206792
101313.9926326517
101313.9828865783
101313.9628521735
101313.9310914671
101313.9296065746
101313.9211881826
101313.9050157011
101313.9087823855
101313.8982213929
101313.8904616603
101313.8900146456
101313.8905512391
101313.8802665677
101313.8932035611
101313.899071992
101313.8867881162
101313.8964910851
101313.908413497
101313.8855316598
101313.8904249107
101313.8919317507
101313.8811212408
101313.8716152538
101313.8720915454
101313.8502531109
101313.8379175405
101313.8212609398
101313.8035055436
101313.7782988919
101313.7686549079
101313.7462124665
101313.7109097736
101313.6875835774
101313.6620516313
101313.6203168207
101313.5890160522
101313.5670148129
101313.5307920103
101313.4955914848
101313.4780044415
101313.4424724257
101313.4105067524
101313.3805466108
101313.3600870312
101313.3243604411
101313.2986934344
101313.2825592835
101313.2533006935
101313.2177229846
101313.2106190822
101313.1880471053
101313.1633489468
101313.1616526976
101313.1531010057
101313.1269194998
101313.136716909
101313.1205909507
101313.0961461803
101313.1132889111
101313.1011807641
101313.0853532177
101313.103459251
101313.0998069231
101313.0778230884
101313.0858797102
101313.0896213877
101313.0583796159
101313.0613330636
101313.0596656085
101313.0357632533
101313.0276323469
101313.0138285613
101312.9919208856
101312.9735409745
101312.955153948
101312.9411023308
101312.9153339857
101312.8924011983
101312.8688821266
101312.8471132672
101312.8057675541
101312.7761097459
101312.7577649245
101312.7200778436
101312.6886344266
101312.6727668363
101312.6482579758
101312.5988490678
101312.587318851
101312.5631237248
101312.5175662025
101312.4995036842
101312.4892358712
101312.4418949181
101312.4227470626
101312.4128194627
101312.3714523208
101312.3514883605
101312.3584544106
101312.3256138358
101312.3120209285
101312.3134699586
101312.2948846968
101312.2717204452
101312.2778344181
101312.2612952981
101312.2512649209
101312.2516718845
101312.2502745688
101312.238953547
101312.2390774242
101312.2259951349
101312.210232825
101312.2136535949
101312.1971417476
101312.1762312471
101312.1770933664
101312.1625152885
101312.1228986829
101312.1233737572
101312.1006936653
101312.0693781423
101312.0629999328
101312.0432396134
101312.0009439922
101311.9842492921
101311.9591782379
101311.9157396577
101311.8933948823
101311.8593603929
101311.826577971
101311.7986879822
101311.7759551454
101311.7433237188
101311.7093174789
101311.6816252678
101311.6508186271
101311.6241182251
101311.5935465911
101311.5714111548
101311.5409863484
101311.5190088527
101311.491637195
101311.4672256453
101311.4481052242
101311.4452741851
101311.4234414387
101311.4073271749
101311.400923712
101311.3839530881
101311.378014876
101311.3638618595
101311.3629981843
101311.3500220909
101311.3421482973
101311.3498618827
101311.34612699
101311.3250583928
101311.3198914634
101311.325215698
101311.2969572879
101311.2885817309
101311.2858673309
101311.2645376787
101311.2442948762
101311.2327760668
101311.2114431271
101311.1741439386
101311.183595493
101311.1574980399
101311.1188410587
101311.1032070601
101311.0750389335
101311.0359055506
101311.0155359121
101310.9893626728
101310.9375863191
101310.9193671366
101310.898795394
101310.8638677831
101310.8285226987
101310.8149460277
101310.7726024986
101310.7424088986
101310.7283743134
101310.6937127362
101310.6590554498
101310.6499676156
101310.6210067953
101310.58262902
101310.5724226653
101310.5602780813
101310.540708735
101310.5300698467
101310.5167920489
101310.4928703223
101310.4856949222
101310.4817026268
101310.4701207873
101310.4514011997
101310.4554170301
101310.4376441991
101310.4371743926
101310.4403141318
101310.4098603697
101310.4037699271
101310.4073209753
101310.3771467256
101310.3670942671
101310.3602835712
101310.3266646167
101310.3143118703
101310.3039180547
101310.263088345
101310.234049996
101310.2524419559
101310.2004553688
101310.1768421593
101310.1471133894
101310.1211695601
101310.0779870208
101310.0591764367
101310.0269961077
101309.9768215936
101309.9597147159
101309.9242960041
101309.8951182309
101309.8639368609
101309.8312076678
101309.8003452019
101309.7751909629
101309.738912555
101309.7184620418
101309.6867844058
101309.6576973788
101309.6356928279
101309.6160144688
101309.5770596566
101309.593916021
101309.5645552509
101309.5443327055
101309.5317565052
101309.52228106
101309.5027320825
101309.4899832153
101309.497378808
101309.4763276477
101309.4661292676
101309.4570210735
101309.4615018508
101309.4500093355
101309.4146379277
101309.4284154757
101309.4092188747
101309.3676357279
101309.4126211403
101309.295714445
101309.3437773958
101309.3438882771
101309.2446598615
101309.1898467609
101309.2894534258
)
;

boundaryField
{
    inlet
    {
        type            calculated;
        value           uniform 101325.001766381;
    }
    outlet
    {
        type            calculated;
        value           uniform 101309.3071268571;
    }
    frontAndBack
    {
        type            empty;
    }
}


// ************************************************************************* //
