/*--------------------------------*- C++ -*----------------------------------*\
| =========                 |                                                 |
| \\      /  F ield         | OpenFOAM: The Open Source CFD Toolbox           |
|  \\    /   O peration     | Version:  v2012                                 |
|   \\  /    A nd           | Website:  www.openfoam.com                      |
|    \\/     M anipulation  |                                                 |
\*---------------------------------------------------------------------------*/
FoamFile
{
    version     2.0;
    format      ascii;
    class       volVectorField;
    location    "0.02";
    object      UMean;
}
// * * * * * * * * * * * * * * * * * * * * * * * * * * * * * * * * * * * * * //

dimensions      [0 1 -1 0 0 0 0];


internalField   nonuniform List<vector> 
1000
(
(0.005127908842436206 0 0)
(0.005295477818326126 0 0)
(0.005120758221703848 0 0)
(0.005156726772227685 0 0)
(0.00530725062524944 0 0)
(0.005229384442597467 0 0)
(0.00530064664800759 0 0)
(0.005436673885518868 0 0)
(0.005387691908865982 0 0)
(0.005463148843858007 0 0)
(0.005611693914497107 0 0)
(0.00559074100679713 0 0)
(0.00563990787394026 0 0)
(0.005830225567325206 0 0)
(0.005787783310177845 0 0)
(0.005831203998752539 0 0)
(0.006005568615065896 0 0)
(0.006008727411972982 0 0)
(0.005972696550845837 0 0)
(0.006108416378283699 0 0)
(0.006143022216337148 0 0)
(0.006099305045155488 0 0)
(0.006133255823666616 0 0)
(0.006183797086363106 0 0)
(0.006140587143656832 0 0)
(0.006117027478947422 0 0)
(0.006120250925956187 0 0)
(0.0060830804770841 0 0)
(0.006030838577281311 0 0)
(0.005984462629580675 0 0)
(0.005951255694539257 0 0)
(0.005878566663517811 0 0)
(0.005812556925742008 0 0)
(0.005753728078959725 0 0)
(0.005705866944888284 0 0)
(0.005619140941508617 0 0)
(0.005572898034200565 0 0)
(0.005530005182096612 0 0)
(0.005446294975074161 0 0)
(0.005445250952209345 0 0)
(0.00536151225417544 0 0)
(0.005315354821241583 0 0)
(0.0053294397701591 0 0)
(0.005294540586446113 0 0)
(0.005216969316626131 0 0)
(0.005283797215278351 0 0)
(0.005287710570163413 0 0)
(0.005233296109470307 0 0)
(0.005293018069148493 0 0)
(0.005365174901639851 0 0)
(0.005336743115568606 0 0)
(0.005381133613068887 0 0)
(0.005483600768807839 0 0)
(0.005509772242856695 0 0)
(0.005552817808621494 0 0)
(0.005660948087818173 0 0)
(0.005714251265396702 0 0)
(0.005769452711466578 0 0)
(0.005864289781633106 0 0)
(0.005927157041700925 0 0)
(0.006002490438196543 0 0)
(0.006080585245943635 0 0)
(0.006136973158209089 0 0)
(0.006213534058453584 0 0)
(0.006277965356316823 0 0)
(0.006304530837704666 0 0)
(0.006358119999865504 0 0)
(0.006407005223818391 0 0)
(0.006425441393853907 0 0)
(0.006427523163516254 0 0)
(0.006451229781107458 0 0)
(0.006448749574349691 0 0)
(0.006435769592606388 0 0)
(0.006420315176408352 0 0)
(0.006388622061317503 0 0)
(0.006350376466880968 0 0)
(0.006321805386853115 0 0)
(0.006263542248408324 0 0)
(0.006221046761969039 0 0)
(0.006163807260079567 0 0)
(0.006098662650502515 0 0)
(0.006063103464033601 0 0)
(0.006015946820192238 0 0)
(0.005936122821834844 0 0)
(0.005916313017125395 0 0)
(0.005880938300632048 0 0)
(0.005826771427563641 0 0)
(0.005796779107404053 0 0)
(0.005770934450787839 0 0)
(0.005751216441384101 0 0)
(0.005747814421182562 0 0)
(0.005719701704183036 0 0)
(0.005747732451862955 0 0)
(0.005761321098215786 0 0)
(0.005773784145703053 0 0)
(0.005802819955256189 0 0)
(0.00587160500471254 0 0)
(0.005890918799508611 0 0)
(0.005950225381781147 0 0)
(0.006028949998745656 0 0)
(0.006075040084127277 0 0)
(0.006153743181871073 0 0)
(0.006237770749567289 0 0)
(0.006301670522085591 0 0)
(0.006362433509753024 0 0)
(0.006485437091718678 0 0)
(0.006529916901050096 0 0)
(0.006599596696932945 0 0)
(0.006712352963086136 0 0)
(0.006771996681240775 0 0)
(0.006791881219332599 0 0)
(0.006913660327326679 0 0)
(0.006958525701365311 0 0)
(0.006929867416542565 0 0)
(0.007037784916422439 0 0)
(0.007080245198926689 0 0)
(0.007018324661785718 0 0)
(0.007073718499180794 0 0)
(0.007113080385448586 0 0)
(0.00704840229773827 0 0)
(0.007027250009581808 0 0)
(0.007044248601177791 0 0)
(0.006987882788098414 0 0)
(0.0069362874220763 0 0)
(0.006923554614962884 0 0)
(0.00686924315264536 0 0)
(0.006799679217491932 0 0)
(0.006778280307420594 0 0)
(0.006724003426949086 0 0)
(0.00667554234349858 0 0)
(0.006638582966961791 0 0)
(0.006614313399381371 0 0)
(0.006561605800753066 0 0)
(0.006553044329474379 0 0)
(0.006527395478532176 0 0)
(0.006486899198709989 0 0)
(0.006504264565481387 0 0)
(0.006507925528417884 0 0)
(0.006471598612198622 0 0)
(0.006522296049900117 0 0)
(0.006562026090744688 0 0)
(0.006559602854713394 0 0)
(0.00661366682920185 0 0)
(0.006688636927215981 0 0)
(0.006719103775865898 0 0)
(0.006781308757901797 0 0)
(0.00688099300637455 0 0)
(0.006936068471312478 0 0)
(0.007003403436308269 0 0)
(0.007110633360432108 0 0)
(0.007183890039438473 0 0)
(0.007239807653343846 0 0)
(0.007360651417723585 0 0)
(0.007436689957340255 0 0)
(0.007492348479267056 0 0)
(0.007596597021624463 0 0)
(0.007680519624681781 0 0)
(0.007707261769267419 0 0)
(0.007786647080016241 0 0)
(0.007867843362546681 0 0)
(0.007856341218102187 0 0)
(0.007923454654857011 0 0)
(0.007974924502741055 0 0)
(0.007950490028622446 0 0)
(0.007961421877241616 0 0)
(0.008015200680329572 0 0)
(0.007964286253032861 0 0)
(0.007924102756811229 0 0)
(0.007948207736721766 0 0)
(0.007913788001774603 0 0)
(0.007829145805346377 0 0)
(0.00782931242295558 0 0)
(0.007788533274263327 0 0)
(0.007723177342567392 0 0)
(0.007680881134256088 0 0)
(0.007664338644477299 0 0)
(0.007610983013453085 0 0)
(0.007583714443918474 0 0)
(0.007559559822334571 0 0)
(0.007530891395509794 0 0)
(0.007503482726154496 0 0)
(0.00750323891862439 0 0)
(0.0074915713031314 0 0)
(0.00747726642275418 0 0)
(0.007510037520891789 0 0)
(0.007506685135607124 0 0)
(0.007533216563780461 0 0)
(0.007588495229410068 0 0)
(0.00761627881244387 0 0)
(0.007678930101849181 0 0)
(0.007738987665061844 0 0)
(0.007796547746986061 0 0)
(0.007880394594477095 0 0)
(0.007965729979843277 0 0)
(0.008043032904152356 0 0)
(0.008123611705346704 0 0)
(0.008218566961867258 0 0)
(0.008308688456470162 0 0)
(0.008375008185797058 0 0)
(0.008499920812970298 0 0)
(0.008559051599624501 0 0)
(0.008653710269924416 0 0)
(0.00874427833011784 0 0)
(0.008814464881207179 0 0)
(0.008872031183172967 0 0)
(0.008943315597037869 0 0)
(0.009005569672244069 0 0)
(0.009029552783559169 0 0)
(0.009078349954378773 0 0)
(0.009116505436289576 0 0)
(0.009124801264407397 0 0)
(0.009142104195354472 0 0)
(0.009156945396532295 0 0)
(0.009139828055064848 0 0)
(0.009115183378175165 0 0)
(0.009109010341719802 0 0)
(0.009084708620927983 0 0)
(0.009041138065772825 0 0)
(0.009014042037584932 0 0)
(0.008985311128468159 0 0)
(0.008940480243465943 0 0)
(0.008899526434800424 0 0)
(0.00889290926260375 0 0)
(0.008840813708136349 0 0)
(0.008830297350617463 0 0)
(0.008818650061176176 0 0)
(0.008793373946890918 0 0)
(0.008772815760670504 0 0)
(0.008793041556191844 0 0)
(0.008778876783786877 0 0)
(0.008775176008016503 0 0)
(0.008816410862831517 0 0)
(0.008842748600231667 0 0)
(0.008858837181390472 0 0)
(0.008918292908577135 0 0)
(0.008993517032133269 0 0)
(0.009021464444337659 0 0)
(0.009095386906934913 0 0)
(0.009188169962569158 0 0)
(0.009268687299808608 0 0)
(0.009340400550706632 0 0)
(0.009439754230471666 0 0)
(0.009538386194392075 0 0)
(0.009613285488355541 0 0)
(0.009696378836317625 0 0)
(0.009820933929358233 0 0)
(0.009888125464553414 0 0)
(0.009961953464831329 0 0)
(0.01009606631873228 0 0)
(0.01014299714578896 0 0)
(0.01020315088025103 0 0)
(0.01030697230334762 0 0)
(0.01035635890485627 0 0)
(0.01038004242469287 0 0)
(0.01045486604127634 0 0)
(0.01048712397024769 0 0)
(0.01050036320765031 0 0)
(0.01054107800570783 0 0)
(0.01055270595732404 0 0)
(0.01053515605746078 0 0)
(0.01053967227457612 0 0)
(0.01053301555480579 0 0)
(0.01049394776896625 0 0)
(0.01049636635103376 0 0)
(0.010453377765105 0 0)
(0.01041092592460971 0 0)
(0.01040543711341168 0 0)
(0.01035611588893958 0 0)
(0.01032460563025621 0 0)
(0.01032114592313643 0 0)
(0.01027717245994442 0 0)
(0.01027738278361952 0 0)
(0.01025813154306393 0 0)
(0.01023675254777967 0 0)
(0.01025014767439917 0 0)
(0.01024882129770505 0 0)
(0.01023954263252048 0 0)
(0.01027034202020294 0 0)
(0.01029754739125902 0 0)
(0.01031597767786932 0 0)
(0.01037539035690183 0 0)
(0.01042754126591261 0 0)
(0.01048238379675998 0 0)
(0.0105428814566804 0 0)
(0.01062269482036473 0 0)
(0.01070423967151261 0 0)
(0.01079243139157837 0 0)
(0.01087527972039789 0 0)
(0.01096806395164935 0 0)
(0.01106394017397522 0 0)
(0.0111409062496991 0 0)
(0.01123514116050119 0 0)
(0.01134108753729897 0 0)
(0.0114108041463878 0 0)
(0.01150717934818776 0 0)
(0.01160444065580731 0 0)
(0.01165997939052 0 0)
(0.01173924806229073 0 0)
(0.01181209244999587 0 0)
(0.01185657917978439 0 0)
(0.01189747115972857 0 0)
(0.01195474175603723 0 0)
(0.01197734417214505 0 0)
(0.01200081083786379 0 0)
(0.01202452307888982 0 0)
(0.01203722130295159 0 0)
(0.01201550025341099 0 0)
(0.01201063503999038 0 0)
(0.01201588391871031 0 0)
(0.01196557416235338 0 0)
(0.0119465529804771 0 0)
(0.01193329406277207 0 0)
(0.01188553567622955 0 0)
(0.01185310737836848 0 0)
(0.01181024444638952 0 0)
(0.01181575997802787 0 0)
(0.01176849392277764 0 0)
(0.01174317512076283 0 0)
(0.01175301084180463 0 0)
(0.01172235950654544 0 0)
(0.01170980168657684 0 0)
(0.01172100192968008 0 0)
(0.01172788742504609 0 0)
(0.01171635734550058 0 0)
(0.0117593173094507 0 0)
(0.01177378180552629 0 0)
(0.01182597011769771 0 0)
(0.0118653307886854 0 0)
(0.01193461802047807 0 0)
(0.0119762454722004 0 0)
(0.01204700943110007 0 0)
(0.0121429489014994 0 0)
(0.01220842510740557 0 0)
(0.01230333969226359 0 0)
(0.01239391281556005 0 0)
(0.01247700975984274 0 0)
(0.01256463427480367 0 0)
(0.01267499103992292 0 0)
(0.0127380204284328 0 0)
(0.01282914762020344 0 0)
(0.0129406432354398 0 0)
(0.01302152767152544 0 0)
(0.01307357766733704 0 0)
(0.01317742467068485 0 0)
(0.01324016138582506 0 0)
(0.01328161270507695 0 0)
(0.01334311702864694 0 0)
(0.01340467988034796 0 0)
(0.01340239624746115 0 0)
(0.01345322266519952 0 0)
(0.01349216835378759 0 0)
(0.01348385820964578 0 0)
(0.01347819280097049 0 0)
(0.01349742674731682 0 0)
(0.01346429070694561 0 0)
(0.01344949405640621 0 0)
(0.01344007902091738 0 0)
(0.01340437530637177 0 0)
(0.01335304044748485 0 0)
(0.01335844807159397 0 0)
(0.01331214162198455 0 0)
(0.01326463312482233 0 0)
(0.01327226780012479 0 0)
(0.01323842546449749 0 0)
(0.01322259621330486 0 0)
(0.01321753656263494 0 0)
(0.01321198277309098 0 0)
(0.01319367388768068 0 0)
(0.01322094779356247 0 0)
(0.0132237297475083 0 0)
(0.01322991889299124 0 0)
(0.01326860600614019 0 0)
(0.0133040035964468 0 0)
(0.01334939103192077 0 0)
(0.01341284764631409 0 0)
(0.01347077312338164 0 0)
(0.0135288239485991 0 0)
(0.01361576603291688 0 0)
(0.01370214103603898 0 0)
(0.01377875802541412 0 0)
(0.01389214072921737 0 0)
(0.01396381519583472 0 0)
(0.0140637338304183 0 0)
(0.01414943539272908 0 0)
(0.01426171496728109 0 0)
(0.0143256220450613 0 0)
(0.01442488428446704 0 0)
(0.01453778239861116 0 0)
(0.01460121379017697 0 0)
(0.01466899476901592 0 0)
(0.01477039645010931 0 0)
(0.01482082674450987 0 0)
(0.01486385835776381 0 0)
(0.01493196552813225 0 0)
(0.01496726106219697 0 0)
(0.01499333569800323 0 0)
(0.01502693381013497 0 0)
(0.01505038063500939 0 0)
(0.01506630221173724 0 0)
(0.01503976541363765 0 0)
(0.01504404278349157 0 0)
(0.01505497828410168 0 0)
(0.01500627093857763 0 0)
(0.01498909623676122 0 0)
(0.01499152037597 0 0)
(0.01492554934025799 0 0)
(0.01490939863744533 0 0)
(0.01489396373385802 0 0)
(0.01486582451778939 0 0)
(0.01482453132574661 0 0)
(0.01484036964142327 0 0)
(0.01483551383656982 0 0)
(0.01478750797530743 0 0)
(0.0148150047752611 0 0)
(0.01483324019611616 0 0)
(0.01480151751815382 0 0)
(0.01484141743123469 0 0)
(0.01488026792587446 0 0)
(0.01488057367445557 0 0)
(0.01492751699108362 0 0)
(0.01502272202688379 0 0)
(0.01505354502441252 0 0)
(0.01510326013757556 0 0)
(0.01520156310013326 0 0)
(0.0152843627431661 0 0)
(0.01535056727440091 0 0)
(0.01545796742408619 0 0)
(0.01556339351886209 0 0)
(0.01562691280404419 0 0)
(0.01572823804711853 0 0)
(0.01583900609081196 0 0)
(0.0159061134483798 0 0)
(0.01600630910468465 0 0)
(0.01610082632667387 0 0)
(0.01620174829574294 0 0)
(0.0162492103728243 0 0)
(0.01634843540006617 0 0)
(0.01642366566319615 0 0)
(0.01646367634602394 0 0)
(0.01652565306382786 0 0)
(0.01658166623218959 0 0)
(0.01659936786413894 0 0)
(0.0166382170701821 0 0)
(0.01667307045164847 0 0)
(0.01667906185758489 0 0)
(0.01667534531272527 0 0)
(0.01670084687097658 0 0)
(0.0166604732261748 0 0)
(0.01665024221389048 0 0)
(0.01665950067316748 0 0)
(0.0166071349895265 0 0)
(0.01658071888442263 0 0)
(0.01657492157427887 0 0)
(0.01652890719703837 0 0)
(0.01650517820391799 0 0)
(0.0164919567558375 0 0)
(0.01646577272525726 0 0)
(0.01646708019162275 0 0)
(0.0164498484364951 0 0)
(0.0164362526079046 0 0)
(0.01646130938846888 0 0)
(0.01645810280337917 0 0)
(0.01645313526978941 0 0)
(0.01648991514778651 0 0)
(0.01653682875189796 0 0)
(0.01654607134227689 0 0)
(0.01659143265311191 0 0)
(0.01669840120778585 0 0)
(0.01672261490456587 0 0)
(0.01677880781543175 0 0)
(0.01689914055981962 0 0)
(0.01696826895611665 0 0)
(0.01703313601378945 0 0)
(0.01715999370256767 0 0)
(0.01725096352701913 0 0)
(0.01731152282282334 0 0)
(0.01743778452080341 0 0)
(0.017521660487936 0 0)
(0.01759565052449895 0 0)
(0.01769438487431229 0 0)
(0.01780177458428351 0 0)
(0.01787490139527843 0 0)
(0.01793988698652201 0 0)
(0.01803364044995013 0 0)
(0.01810585324058687 0 0)
(0.01812916593528251 0 0)
(0.01820224067181938 0 0)
(0.01825811306598351 0 0)
(0.01825451760739173 0 0)
(0.01828489017379515 0 0)
(0.01835950525443782 0 0)
(0.01833136324931692 0 0)
(0.01829837510394547 0 0)
(0.0183596268265007 0 0)
(0.01832177498820215 0 0)
(0.01826270796270415 0 0)
(0.01830414901004794 0 0)
(0.01826932490656758 0 0)
(0.01819784241876636 0 0)
(0.01820670188771265 0 0)
(0.01819720158730099 0 0)
(0.01812974921702376 0 0)
(0.01812359501620795 0 0)
(0.01815052374248741 0 0)
(0.01810434964323363 0 0)
(0.01809016970326395 0 0)
(0.01814366734571583 0 0)
(0.0181224035415893 0 0)
(0.01809614142593215 0 0)
(0.01818182461955677 0 0)
(0.01818993034485561 0 0)
(0.01819205982959663 0 0)
(0.01827546382313622 0 0)
(0.01833831545896735 0 0)
(0.01837872338687497 0 0)
(0.01846185958513707 0 0)
(0.01854413112702967 0 0)
(0.01860670980923805 0 0)
(0.01872055607558126 0 0)
(0.01881737457873068 0 0)
(0.01889647322879255 0 0)
(0.01901484018908121 0 0)
(0.01909210643006926 0 0)
(0.01918715783019052 0 0)
(0.0192850699608794 0 0)
(0.01937803741970025 0 0)
(0.01947691861180895 0 0)
(0.01956021106685808 0 0)
(0.01964375136790766 0 0)
(0.01973471009143443 0 0)
(0.01980306224624037 0 0)
(0.01984996641595723 0 0)
(0.01991647363935985 0 0)
(0.01997170871191788 0 0)
(0.0199876880079384 0 0)
(0.02003149266982173 0 0)
(0.02007115418696393 0 0)
(0.02008459869269721 0 0)
(0.02008594065834407 0 0)
(0.02008537879220938 0 0)
(0.02008434390210782 0 0)
(0.02006807865575792 0 0)
(0.02006196049848885 0 0)
(0.02003778820563916 0 0)
(0.02001438270811954 0 0)
(0.01999881934181211 0 0)
(0.01996767733856952 0 0)
(0.01993869167534786 0 0)
(0.01993096262626989 0 0)
(0.01991989361003305 0 0)
(0.01992401546981786 0 0)
(0.01989469755670513 0 0)
(0.01991174070295815 0 0)
(0.01993418583007045 0 0)
(0.019924828364529 0 0)
(0.01993147474736781 0 0)
(0.01999638384286576 0 0)
(0.01999202757768093 0 0)
(0.02003847967756718 0 0)
(0.02012509834353597 0 0)
(0.02017411543486837 0 0)
(0.02021001486109384 0 0)
(0.02033552133073495 0 0)
(0.02039512543231102 0 0)
(0.02046323177592564 0 0)
(0.02058641223364145 0 0)
(0.02068964786415497 0 0)
(0.02075260207335037 0 0)
(0.02087031494860236 0 0)
(0.0209729174231467 0 0)
(0.02104091041798362 0 0)
(0.02112843533053018 0 0)
(0.0212537705856035 0 0)
(0.02132545429568528 0 0)
(0.02140086539659493 0 0)
(0.02151308176228299 0 0)
(0.02156550868615199 0 0)
(0.02162623739240786 0 0)
(0.02170860847160227 0 0)
(0.02174719021535811 0 0)
(0.02176116397582441 0 0)
(0.02182659529428198 0 0)
(0.02186486259591421 0 0)
(0.0218704436143395 0 0)
(0.02187851467985731 0 0)
(0.02188973807099068 0 0)
(0.02188862979991602 0 0)
(0.02186605577112526 0 0)
(0.0218503067339792 0 0)
(0.02186499631752132 0 0)
(0.02181041363627553 0 0)
(0.02178662824368779 0 0)
(0.02177730993878336 0 0)
(0.02175163002575382 0 0)
(0.02169529892583253 0 0)
(0.02171585895409008 0 0)
(0.02170963492788286 0 0)
(0.02167512000277182 0 0)
(0.02168146298940111 0 0)
(0.02172000166904745 0 0)
(0.02168352502976493 0 0)
(0.02171016571232126 0 0)
(0.02175561770248762 0 0)
(0.02176133399344683 0 0)
(0.02177589661588773 0 0)
(0.02187266807581034 0 0)
(0.02192243324700527 0 0)
(0.02195268390339361 0 0)
(0.02205125692064195 0 0)
(0.02213559144002066 0 0)
(0.02219577966009031 0 0)
(0.02229707767335003 0 0)
(0.02240386136775641 0 0)
(0.02249527062587073 0 0)
(0.022584661372367 0 0)
(0.02267445324256051 0 0)
(0.02277545528861201 0 0)
(0.02285936826771847 0 0)
(0.02293175771644933 0 0)
(0.02306286374415409 0 0)
(0.02313309087391757 0 0)
(0.02319257451173241 0 0)
(0.0233065691089642 0 0)
(0.02336591014443936 0 0)
(0.02340106319323127 0 0)
(0.02347686733158117 0 0)
(0.02352858428245049 0 0)
(0.02352722113324602 0 0)
(0.02359027933582671 0 0)
(0.02362364215570501 0 0)
(0.0236170897313772 0 0)
(0.02363198817172203 0 0)
(0.02363223630263624 0 0)
(0.02360256560888921 0 0)
(0.02361913840665786 0 0)
(0.02358203691586489 0 0)
(0.02356959981480137 0 0)
(0.02355608311220802 0 0)
(0.02350662006118333 0 0)
(0.02348855325382206 0 0)
(0.02347032645789973 0 0)
(0.02343199609656359 0 0)
(0.02344328694339013 0 0)
(0.0234331879233821 0 0)
(0.02341451881432612 0 0)
(0.02343151449763346 0 0)
(0.02343374031673993 0 0)
(0.02344911899098258 0 0)
(0.02346308782449706 0 0)
(0.02349480275071775 0 0)
(0.02352171826570089 0 0)
(0.02356627070861972 0 0)
(0.02364484927873243 0 0)
(0.02369102968809969 0 0)
(0.02375638399457022 0 0)
(0.02385615841459968 0 0)
(0.02391406639171889 0 0)
(0.02401026186093174 0 0)
(0.02412202747325334 0 0)
(0.02421097902119492 0 0)
(0.02430934713594217 0 0)
(0.02441358549935435 0 0)
(0.02450142999457272 0 0)
(0.02458292334534172 0 0)
(0.02468124041879434 0 0)
(0.02478149246224853 0 0)
(0.02487396636140433 0 0)
(0.02496054325525119 0 0)
(0.02504456942494118 0 0)
(0.02510482708426182 0 0)
(0.02519325684435031 0 0)
(0.02524739153656516 0 0)
(0.02527156875564939 0 0)
(0.02534096228659004 0 0)
(0.02536488109255442 0 0)
(0.02540142846488636 0 0)
(0.02542505138711092 0 0)
(0.02543666547925637 0 0)
(0.02543584489153537 0 0)
(0.02543213505283064 0 0)
(0.02542698830857446 0 0)
(0.02541467523555226 0 0)
(0.02540985825204595 0 0)
(0.02538744548236361 0 0)
(0.02535181133369864 0 0)
(0.02534599228232044 0 0)
(0.02532227734483189 0 0)
(0.02526628315904523 0 0)
(0.02528439011075979 0 0)
(0.02530338154192196 0 0)
(0.0252651628644122 0 0)
(0.02527099773232057 0 0)
(0.02530151306484905 0 0)
(0.02530896909182712 0 0)
(0.0252987266929877 0 0)
(0.02535737401148223 0 0)
(0.02538589891388861 0 0)
(0.02540503932172722 0 0)
(0.02547138586295896 0 0)
(0.02555897143634081 0 0)
(0.02559195685982303 0 0)
(0.02566960785647425 0 0)
(0.02576776456949901 0 0)
(0.0258448902733294 0 0)
(0.02593653429550745 0 0)
(0.02603837457573074 0 0)
(0.02614935733408368 0 0)
(0.02623621428719937 0 0)
(0.02633413115122282 0 0)
(0.02642100376413936 0 0)
(0.02649454297199238 0 0)
(0.02661541013009617 0 0)
(0.026705807150783 0 0)
(0.02676621008802652 0 0)
(0.02689589372762829 0 0)
(0.02695074068895485 0 0)
(0.02699956251365147 0 0)
(0.02708941179370142 0 0)
(0.02714415575064952 0 0)
(0.02715633086696323 0 0)
(0.0272212240299748 0 0)
(0.02725998575699954 0 0)
(0.02726608068135629 0 0)
(0.02728887803263842 0 0)
(0.02730766860472736 0 0)
(0.02729227784277849 0 0)
(0.02727168759956399 0 0)
(0.02730308020572083 0 0)
(0.02724980309425387 0 0)
(0.027233184813184 0 0)
(0.02725402775247097 0 0)
(0.02718197933493339 0 0)
(0.02717550324804815 0 0)
(0.02713877768362467 0 0)
(0.02713279893743244 0 0)
(0.0271101652820718 0 0)
(0.02712661453076164 0 0)
(0.02711152444500484 0 0)
(0.02713081979099394 0 0)
(0.02712984657812728 0 0)
(0.02712983704653872 0 0)
(0.0271839048041189 0 0)
(0.02719989919197894 0 0)
(0.02721435882795782 0 0)
(0.02727736131041739 0 0)
(0.02736851781852222 0 0)
(0.02739622434440213 0 0)
(0.02745028137324628 0 0)
(0.02757985687696345 0 0)
(0.02763021679291019 0 0)
(0.02771397849485856 0 0)
(0.02783666541950566 0 0)
(0.02793464859541096 0 0)
(0.02800405524280724 0 0)
(0.02813575922860248 0 0)
(0.02821756203943185 0 0)
(0.02828497511929237 0 0)
(0.02837841924390464 0 0)
(0.02851247794425451 0 0)
(0.0285593921784749 0 0)
(0.02865168511393205 0 0)
(0.02876968003431467 0 0)
(0.02881176761595919 0 0)
(0.02884222137578115 0 0)
(0.02896561868750736 0 0)
(0.02897651238110018 0 0)
(0.02899365486765617 0 0)
(0.02906984070728681 0 0)
(0.02909127671561323 0 0)
(0.02908528909921781 0 0)
(0.02911130699723061 0 0)
(0.02912285703195188 0 0)
(0.02909064267711171 0 0)
(0.02909210729256291 0 0)
(0.02908635880200711 0 0)
(0.02905215079482916 0 0)
(0.02903214364949186 0 0)
(0.02901953352089426 0 0)
(0.02897842872154251 0 0)
(0.02894192122622929 0 0)
(0.02890667537580041 0 0)
(0.02891934614850382 0 0)
(0.02887120246068484 0 0)
(0.02888253753961044 0 0)
(0.02890009266939124 0 0)
(0.02887761524256678 0 0)
(0.02888432434337955 0 0)
(0.02892197212496065 0 0)
(0.02891326554924638 0 0)
(0.0289489431762508 0 0)
(0.02899660165907365 0 0)
(0.02904678829319875 0 0)
(0.0290965170633051 0 0)
(0.0291609102652907 0 0)
(0.02923944796770575 0 0)
(0.02931371631294804 0 0)
(0.02937632417228477 0 0)
(0.02949619956796107 0 0)
(0.02958713723109155 0 0)
(0.02966728162150106 0 0)
(0.02977682424726166 0 0)
(0.02988557830346763 0 0)
(0.02994705550678416 0 0)
(0.03003796262320227 0 0)
(0.03015665345243187 0 0)
(0.03022983897289111 0 0)
(0.03031834654864456 0 0)
(0.03041835739625642 0 0)
(0.03051382323894416 0 0)
(0.03055466566618535 0 0)
(0.03063561603665543 0 0)
(0.0307029783606464 0 0)
(0.03072412962462878 0 0)
(0.03078955734201671 0 0)
(0.03083880958017261 0 0)
(0.0308688789713387 0 0)
(0.03088457078262889 0 0)
(0.03091648444207692 0 0)
(0.03093152978138231 0 0)
(0.03092368655892665 0 0)
(0.03093104854138252 0 0)
(0.0309512777329927 0 0)
(0.03092288934892917 0 0)
(0.0309368942743298 0 0)
(0.03092106496224094 0 0)
(0.03089542840891827 0 0)
(0.03089286227389857 0 0)
(0.03088415748984936 0 0)
(0.03086993937241917 0 0)
(0.03089135731242575 0 0)
(0.03089685748667845 0 0)
(0.03091045598282622 0 0)
(0.03093090107301076 0 0)
(0.03095298977724124 0 0)
(0.03096601016532823 0 0)
(0.03100020319325421 0 0)
(0.03103722970023691 0 0)
(0.03109241255472575 0 0)
(0.0311518853881139 0 0)
(0.03120121752989115 0 0)
(0.03127560440057255 0 0)
(0.03135600991839591 0 0)
(0.03142745134423008 0 0)
(0.03151655376257272 0 0)
(0.03161277662134788 0 0)
(0.03171203516075997 0 0)
(0.03181254359051603 0 0)
(0.031907620465039 0 0)
(0.03199065722249152 0 0)
(0.03208680021445657 0 0)
(0.03218505083552411 0 0)
(0.032269302515916 0 0)
(0.0323802409521062 0 0)
(0.03245177910823357 0 0)
(0.03256792086394415 0 0)
(0.03263553863030961 0 0)
(0.03270972724512011 0 0)
(0.03277556065625846 0 0)
(0.03283477248650268 0 0)
(0.03286341784488524 0 0)
(0.03293466621151549 0 0)
(0.0329847766122844 0 0)
(0.03300290719691414 0 0)
(0.03302664684147013 0 0)
(0.03306473935609966 0 0)
(0.03307402507059819 0 0)
(0.03305782605128084 0 0)
(0.0330905400203292 0 0)
(0.03309708825548656 0 0)
(0.03306991158766244 0 0)
(0.03311389407201157 0 0)
(0.03306012776316683 0 0)
(0.03305418277503765 0 0)
(0.03306607932524327 0 0)
(0.0330659215586995 0 0)
(0.0330557807230595 0 0)
(0.03307489498884365 0 0)
(0.03309975879534103 0 0)
(0.03310936210787213 0 0)
(0.0331362666951444 0 0)
(0.03317048022989368 0 0)
(0.03318503746263339 0 0)
(0.03320933408376302 0 0)
(0.03327069359482511 0 0)
(0.03332895338983782 0 0)
(0.03338757791811954 0 0)
(0.03343404571960575 0 0)
(0.03353991407935601 0 0)
(0.03361023344926873 0 0)
(0.03366107056834176 0 0)
(0.03378891086558528 0 0)
(0.03387726358622711 0 0)
(0.03395584017034617 0 0)
(0.03408440635652855 0 0)
(0.03417353392763506 0 0)
(0.03422158861736579 0 0)
(0.03434159167674438 0 0)
(0.03444978878299557 0 0)
(0.03452459797113202 0 0)
(0.03460133896462102 0 0)
(0.03473469016902426 0 0)
(0.03478246374601004 0 0)
(0.03486717849400719 0 0)
(0.03495286140322908 0 0)
(0.03501601364657474 0 0)
(0.0350169620141607 0 0)
(0.03510409718162741 0 0)
(0.03515321407964488 0 0)
(0.03518293993772456 0 0)
(0.03520102638870869 0 0)
(0.03524104237297051 0 0)
(0.03525138849739625 0 0)
(0.03525871653826474 0 0)
(0.03526693118878931 0 0)
(0.03527598965939854 0 0)
(0.03525711945530283 0 0)
(0.03528998160174215 0 0)
(0.03527645926671293 0 0)
(0.03521768379388817 0 0)
(0.03524569216298733 0 0)
(0.03523468736289243 0 0)
(0.03523003125985467 0 0)
(0.03525837532306116 0 0)
(0.03525430663416539 0 0)
(0.03525945898875704 0 0)
(0.03529511661114418 0 0)
(0.03534559759628383 0 0)
(0.03534364864644364 0 0)
(0.03537548358141089 0 0)
(0.03542538849965329 0 0)
(0.03548528249741225 0 0)
(0.0355342507499512 0 0)
(0.03561583557220387 0 0)
(0.03566488651343512 0 0)
(0.0357639189568052 0 0)
(0.03584320647901953 0 0)
(0.03593465451793412 0 0)
(0.03603388104101277 0 0)
(0.03612885472595688 0 0)
(0.03623476964484488 0 0)
(0.0363561896868579 0 0)
(0.03642406774108722 0 0)
(0.03650723065429301 0 0)
(0.03662160689548656 0 0)
(0.03673440697930621 0 0)
(0.03680393815703618 0 0)
(0.03692658028599519 0 0)
(0.03699601856884399 0 0)
(0.03707974877943748 0 0)
(0.03717537088243802 0 0)
(0.03723742973527572 0 0)
(0.0373180587881618 0 0)
(0.03732710783579219 0 0)
(0.03739812685984913 0 0)
(0.0374630835175719 0 0)
(0.03748173713203459 0 0)
(0.03749714875296315 0 0)
(0.03755643254531375 0 0)
(0.03754667991870672 0 0)
(0.03756086320802653 0 0)
(0.03760429930479784 0 0)
(0.03757328134481496 0 0)
(0.03758848562677528 0 0)
(0.03760770381081682 0 0)
(0.03760878836436566 0 0)
(0.03754164145002273 0 0)
(0.03759727233018734 0 0)
(0.03757043268210014 0 0)
(0.03759280444618733 0 0)
(0.03763816669219885 0 0)
(0.03761169170967282 0 0)
(0.03762765557324772 0 0)
(0.03770115684602221 0 0)
(0.03770045312310892 0 0)
(0.03773982004096579 0 0)
(0.03780147890381946 0 0)
(0.03781700222758446 0 0)
(0.03789948838475692 0 0)
(0.0379668173253929 0 0)
(0.03803858869705595 0 0)
(0.03809740786896777 0 0)
(0.03819408344143554 0 0)
(0.03831419238973691 0 0)
(0.0383815076149537 0 0)
(0.03847575026672822 0 0)
(0.03861112880932228 0 0)
(0.03870757764292306 0 0)
(0.03880050975035298 0 0)
(0.03887662154741039 0 0)
(0.03892922958329228 0 0)
(0.03914690297474956 0 0)
(0.03912401279253553 0 0)
(0.03927989324497917 0 0)
(0.03942621798838348 0 0)
(0.0394056657374241 0 0)
(0.03952869417945013 0 0)
(0.03974721571408596 0 0)
(0.03947820285432191 0 0)
(0.039721898533856 0 0)
(0.04000083193919845 0 0)
)
;

boundaryField
{
    inlet
    {
        type            calculated;
        value           uniform (0.005127908842436206 0 0);
    }
    outlet
    {
        type            calculated;
        value           uniform (0.04000083193919845 0 0);
    }
    frontAndBack
    {
        type            empty;
    }
}


// ************************************************************************* //
