/*--------------------------------*- C++ -*----------------------------------*\
| =========                 |                                                 |
| \\      /  F ield         | OpenFOAM: The Open Source CFD Toolbox           |
|  \\    /   O peration     | Version:  v2012                                 |
|   \\  /    A nd           | Website:  www.openfoam.com                      |
|    \\/     M anipulation  |                                                 |
\*---------------------------------------------------------------------------*/
FoamFile
{
    version     2.0;
    format      ascii;
    class       volScalarField;
    location    "0.0185";
    object      p;
}
// * * * * * * * * * * * * * * * * * * * * * * * * * * * * * * * * * * * * * //

dimensions      [1 -1 -2 0 0 0 0];


internalField   nonuniform List<scalar> 
1000
(
101339.1774595415
101336.723128608
101343.5698711727
101349.0308167151
101355.1439090919
101360.6973241851
101365.5251268525
101369.6854536611
101373.2146406998
101375.5991836847
101376.3848753723
101376.4232158717
101376.060562129
101374.9864256774
101372.9099305726
101369.7563497663
101365.6430980357
101360.7594294277
101355.265388481
101349.2707081227
101342.8638421339
101336.1424322598
101329.2223021568
101322.228963149
101315.2869127765
101308.5168458994
101302.0331714605
101295.9245995459
101290.226248737
101284.9506673105
101280.2731551263
101276.7557289401
101274.9903041503
101274.6527390458
101274.7321207107
101275.1113267556
101276.0348881607
101277.728111587
101280.3736618375
101284.048202353
101288.6943154947
101294.1452393796
101300.1889840982
101306.6304995306
101313.3209603291
101320.1519267526
101327.0328620124
101333.8724952253
101340.5760860176
101347.0622565576
101353.2851926891
101359.2256734183
101364.8187942347
101369.7743055088
101373.3814300325
101375.0537244646
101375.3983006274
101375.4171900141
101375.1429457957
101374.4258539139
101373.0655281479
101370.8762021005
101367.7252502481
101363.5691673329
101358.4678737123
101352.5727072549
101346.0901812422
101339.2361909776
101332.2001583632
101325.12940477
101318.1307357274
101311.2793034225
101304.6235965855
101298.1866167734
101291.9916312833
101286.1634416305
101281.1379403582
101277.7203923529
101276.2711944015
101276.0136035528
101276.059427538
101276.3702892615
101277.097060512
101278.4043200613
101280.4575053916
101283.3895947406
101287.2692796809
101292.0804032004
101297.7204150919
101304.0179227849
101310.7643430283
101317.7503963089
101324.7972299731
101331.7746578108
101338.6042097773
101345.2534946877
101351.7227466708
101357.9974431248
101363.9489714001
101369.1759907758
101372.879190052
101374.5209853316
101374.8767761199
101374.9426635304
101374.7397445904
101374.1865604497
101373.1134270923
101371.3627574891
101368.7964257329
101365.3192736938
101360.8985463346
101355.5772094667
101349.4747485058
101342.7720098762
101335.6828485694
101328.4190410658
101321.1573419932
101314.0192698652
101307.0678859286
101300.321663624
101293.8062034988
101287.6799979629
101282.4324116306
101278.8996998019
101277.4213864117
101277.13392564
101277.1275805531
101277.3698047463
101277.9611643141
101279.0400919614
101280.748589919
101283.2157772466
101286.5347749482
101290.7451453431
101295.8217676856
101301.6721996918
101308.1447996282
101315.0484264807
101322.1817148518
101329.3653424143
101336.4661490167
101343.4073587592
101350.1627797366
101356.7072690397
101362.9018229396
101368.3446039995
101372.2612190716
101374.0678254533
101374.4994320682
101374.6080547998
101374.4715608211
101374.0463568876
101373.181294327
101371.7350510738
101369.5775179881
101366.6034899149
101362.7470597706
101357.996079598
101352.4015601696
101346.0776971894
101339.1908720016
101331.9374834898
101324.5134340717
101317.0851073479
101309.7721186589
101302.6464690541
101295.7737377354
101289.3387782073
101283.8341031784
101280.0880309812
101278.4871644073
101278.1395221306
101278.0803737531
101278.2611152313
101278.7366561602
101279.6387340721
101281.0906730498
101283.212324708
101286.1018030858
101289.82078475
101294.3836638082
101299.7507172771
101305.8270210191
101312.4694302562
101319.5033885271
101326.7483477306
101334.0439299326
101341.2679981986
101348.3437088747
101355.2078917895
101361.6998575963
101367.4166978838
101371.622040805
101373.6765232024
101374.2050484351
101374.345616504
101374.2712293888
101373.9493567797
101373.249820416
101372.0423354486
101370.2051394266
101367.6325114812
101364.2443102121
101359.9987744257
101354.9033437392
101349.0198283518
101342.4624380207
101335.3871396579
101327.9713328557
101320.3892747427
101312.7928309289
101305.3019276866
101298.0306200483
101291.2036492713
101285.3415151436
101281.2873593079
101279.4873169979
101279.0665762025
101278.9712530924
101279.0978442788
101279.4771772881
101280.2309712228
101281.472746075
101283.3142477589
101285.8531888232
101289.1612773022
101293.2746581914
101298.1868687209
101303.8447604385
101310.1492524041
101316.9633907474
101324.1288950944
101331.4870429388
101338.8959524234
101346.2425179002
101353.4284886465
101360.2714149524
101366.349679167
101370.930165331
101373.3145209124
101373.974200259
101374.1329629853
101374.1175042049
101373.8811874006
101373.3189224919
101372.3089264135
101370.7363263135
101368.4972229859
101365.5050801993
101361.7015854281
101357.0666324865
101351.6245537186
101345.4461954046
101338.645416733
101331.3674210032
101323.7710306989
101316.0135207571
101308.2415709558
101300.6052038851
101293.359058628
101287.0530835654
101282.5690534999
101280.4606013815
101279.9329608021
101279.8129480105
101279.8893591884
101280.1880686691
101280.8168409055
101281.8819293619
101283.4879093453
101285.7302022543
101288.6855870705
101292.4035044477
101296.8994695047
101302.1503054995
101308.0920763798
101314.6229325538
101321.6131465799
101328.92058626
101336.4043446018
101343.9343936189
101351.388729698
101358.5745707462
101365.0596055701
101370.0970297861
101372.9190833882
101373.7837883525
101373.9518094738
101373.9931493187
101373.8240565609
101373.3773372654
101372.5345202212
101371.187137729
101369.2330995384
101366.5825647759
101363.1674847692
101358.9499856085
101353.9280345484
101348.1390876252
101341.6605349366
101334.6038428336
101327.1029534308
101319.3042192576
101311.3611008563
101303.4407199098
101295.8057700416
101289.0146095955
101283.9960802125
101281.4513156782
101280.7514814216
101280.6142829426
101280.6402166637
101280.8686456369
101281.3883459227
101282.2996088727
101283.7015516887
101285.6872921361
101288.3359265433
101291.7047217374
101295.8236405613
101300.6909431815
101306.2698773838
101312.4885165389
101319.2452649342
101326.4196418508
101333.8823383077
101341.5008731891
101349.1413288279
101356.6150578677
101363.5038945353
101369.0514133642
101372.4232051146
101373.5948466267
101373.8022057092
101373.8798197301
101373.767550231
101373.4197736325
101372.7216812942
101371.5697362712
101369.8645405792
101367.5146609996
101364.4457384587
101360.6079005597
101355.9803903174
101350.5752917891
101344.4399384035
101337.6552170667
101330.3286065756
101322.5875067824
101314.5781535687
101306.4713571036
101298.5223518472
101291.2651050979
101285.6480494734
101282.5298289437
101281.5559211908
101281.3960477734
101281.3757311216
101281.5439244194
101281.9682942607
101282.7430934698
101283.9629690276
101285.7200180645
101288.0951985584
101291.150958699
101294.9268956443
101299.4364387691
101304.6633767998
101310.5600152168
101317.0495387731
101324.0332544489
101331.3980628597
101339.018879273
101346.7595234262
101354.442480332
101361.6913986194
101367.7636942218
101371.7588462026
101373.3688504675
101373.6669867474
101373.7609811493
101373.6985073708
101373.435720153
101372.864688627
101371.8860276218
101370.4028461348
101368.3221723788
101365.5646548175
101362.072188773
101357.8111558244
101352.7750042579
101346.9873886256
101340.503226171
101333.4051067971
101325.7991623079
101317.8175426756
101309.6250594937
101301.4573927974
101293.7924563158
101287.553276915
101283.7502479215
101282.3778894028
101282.146471497
101282.0948521695
101282.213332569
101282.5511670998
101283.2036908501
101284.2601854787
101285.8109659882
101287.9384330655
101290.7090151468
101294.1695114615
101298.3447269644
101303.2342304711
101308.8096440283
101315.0149003337
101321.7709178608
101328.9816453521
101336.5346613663
101344.2981410776
101352.1056114871
101359.6382235081
101366.2089754404
101370.8653792807
101373.0517770288
101373.5322706695
101373.6308774517
101373.6099875062
101373.4180581864
101372.9569477576
101372.1317567982
101370.8483867304
101369.0121407035
101366.5387187586
101363.3632546157
101359.4426502498
101354.7566572221
101349.3107982984
101343.1389281652
101336.30220146
101328.8864635443
101321.0058254825
101312.8116117138
101304.5175843589
101296.5321607812
101289.7038411807
101285.1530673279
101283.2351747638
101282.8550526317
101282.7839307398
101282.8591207177
101283.1218521277
101283.6648594081
101284.5729805332
101285.9347541519
101287.8347633868
101290.3434532225
101293.5129888497
101297.3763028533
101301.944930826
101307.2059386514
101313.1205879956
101319.6269246933
101326.6446329719
101334.0751865406
101341.7966618866
101349.6545018905
101357.3871294512
101364.3969785068
101369.7062021864
101372.5712822652
101373.368794651
101373.4657038739
101373.4816588228
101373.3486088092
101372.9830932733
101372.2940636099
101371.1902901102
101369.5766367764
101367.3644871106
101364.4826551299
101360.8802820364
101356.5267719202
101351.4136776405
101345.5578099785
101339.0022501456
101331.8148198167
101324.0913131223
101315.9665070367
101307.6331987814
101299.4286341663
101292.082190997
101286.7615065525
101284.1602614679
101283.5029155459
101283.4191234133
101283.458151054
101283.6594057314
101284.1072194479
101284.8832039563
101286.0733220135
101287.7635814242
101290.0283098075
101292.9246250631
101296.4923547401
101300.7529265169
101305.7061731595
101311.3279330741
101317.5708418855
101324.3682068004
101331.6352501779
101339.2627782805
101347.1069654394
101354.9489867559
101362.3058269474
101368.2385156378
101371.8333223125
101373.0942489856
101373.2454946541
101373.2757874262
101373.1851284326
101372.8978452679
101372.3237656567
101371.3780346697
101369.9663531949
101367.9955665039
101365.3876142239
101362.0844189427
101358.046973743
101353.2557648307
101347.7138115329
101341.4491150123
101334.5142072789
101326.9878895133
101318.9864131361
101310.6808793163
101302.3496545563
101294.5872057311
101288.5112877252
101285.1075068793
101284.0217496456
101283.8941220641
101283.9004690264
101284.0479696163
101284.4122443631
101285.0686873017
101286.0997307511
101287.5922768119
101289.6249103394
101292.2599159036
101295.5430519487
101299.5037653736
101304.1525686421
101309.4779546636
101315.4456121331
101322.0012144079
101329.0726502186
101336.5636192887
101344.3427932858
101352.2226752017
101359.8300699025
101366.3304920629
101370.6723172016
101372.5358405798
101372.8493858756
101372.8762069239
101372.8167622729
101372.5977818953
101372.1281011352
101371.3291765614
101370.1097187726
101368.3748036373
101366.0414899207
101363.0457720944
101359.3420356686
101354.902724781
101349.7207700629
101343.8125752826
101337.2185530935
101330.0037413243
101322.2679056956
101314.1623375614
101305.9224539957
101298.0215348019
101291.4488092758
101287.3572912176
101285.7885589403
101285.542081675
101285.5375141243
101285.6455945672
101285.9409816435
101286.4926670785
101287.3764518823
101288.6770263197
101290.4749330398
101292.8357559775
101295.8090970468
101299.4300555935
101303.7175409501
101308.6708235128
101314.2676064196
101320.4653746027
101327.2037318779
101334.400213999
101341.940319746
101349.6624745336
101357.2795272353
101364.1272053033
101369.1272912957
101371.6667386845
101372.2863366713
101372.2999415052
101372.2717671175
101372.1027122689
101371.722083262
101371.0545033046
101370.0154173725
101368.5102875261
101366.4507525957
101363.765181341
101360.3999202118
101356.3183574882
101351.5023020494
101345.9549075465
101339.7024573045
101332.7949626712
101325.3132275563
101317.3851164623
101309.2096863613
101301.1534902164
101294.0169242765
101289.0375713617
101286.7510813707
101286.2321284739
101286.2049360193
101286.2802360371
101286.513051533
101286.9746729599
101287.7335019686
101288.8712083262
101290.4714458718
101292.6049454345
101295.3261761337
101298.6756562371
101302.6796577916
101307.3469583285
101312.6660751149
101318.6050675175
101325.1137004742
101332.1221425154
101339.5301225951
101347.1920571647
101354.8752254723
101362.0769847315
101367.7771702682
101371.0662741354
101372.1377905739
101372.2329000053
101372.1984189794
101372.0611312667
101371.7471452878
101371.1812928149
101370.2847192901
101368.9640686824
101367.1273544368
101364.6967631202
101361.611447218
101357.8266446438
101353.3149175397
101348.0690284768
101342.1043726889
101335.4596521483
101328.2006940302
101320.4367461878
101312.3426374834
101304.2121166049
101296.6703541833
101290.9058437054
101287.8459785373
101286.9209278638
101286.8421344522
101286.8982069363
101287.081010389
101287.4695099303
101288.1238376862
101289.120419138
101290.5438453256
101292.4693584186
101294.9561580874
101298.0496293454
101301.7822965139
101306.1710834981
101311.2141000983
101316.8894574476
101323.1567434298
101329.9569678503
101337.202602792
101344.7642310424
101352.4488224285
101359.873448794
101366.1725282855
101370.240662524
101371.9257711437
101372.183283009
101372.1378978778
101372.0311051921
101371.7672905381
101371.2825125739
101370.5060427792
101369.3492605523
101367.7178861295
101365.5281692034
101362.7118542271
101359.2161108605
101355.0048043919
101350.0611303494
101344.3900934487
101338.0195827368
101331.0024215797
101323.4299442574
101315.453794429
101307.3184951298
101299.5131119764
101293.0616419116
101289.1527926136
101287.6906333494
101287.4721464926
101287.5173845961
101287.6577208076
101287.9849326754
101288.5496704901
101289.4218085774
101290.6841897863
101292.4161552205
101294.6820428876
101297.5317253133
101301.0027424248
101305.11865125
101309.8859276942
101315.292171887
101321.3063264151
101327.8791799021
101334.9376162136
101342.3702861867
101350.007287866
101357.5446507299
101364.3136450098
101369.175666445
101371.5580299159
101372.1108625663
101372.1088824014
101372.0083245243
101371.7773400425
101371.3569750644
101370.6796479052
101369.6650120557
101368.2192420861
101366.2536041993
101363.6932715569
101360.477810239
101356.562326871
101351.9207242794
101346.5482864091
101340.4629611054
101333.706546337
101326.3532644645
101318.5320640125
101310.4540506179
101302.5020990916
101295.4911144169
101290.6996639869
101288.5784492522
101288.1068871417
101288.1171694345
101288.23041532
101288.5064489103
101288.9974288358
101289.763112908
101290.881925754
101292.435592971
101294.4936054945
101297.1111449342
101300.3311183419
101304.1830777152
101308.6803394051
101313.8181158888
101319.5733128929
101325.9056902985
101332.7550824039
101340.0263915909
101347.5701805044
101355.1436562949
101362.2422390536
101367.841307181
101370.9847517969
101372.0249348966
101372.1081740764
101372.0102940648
101371.813616633
101371.438722277
101370.8363377618
101369.9378292807
101368.6538219084
101366.893284737
101364.5749090221
101361.6296446602
101358.0032835847
101353.6606518795
101348.5883630266
101342.7957666067
101336.3150637602
101329.2053485572
101321.5728718052
101313.5996040433
101305.5922766395
101298.1827699137
101292.5627292874
101289.6628643101
101288.7837515696
101288.7078978046
101288.8120616028
101289.0387217042
101289.4721970407
101290.151743383
101291.1463456523
101292.537052974
101294.398408682
101296.7923696576
101299.76903482
101303.3649253823
101307.5995779398
101312.4738718106
101317.9703335294
101324.0547516775
101330.676172466
101337.7565770535
101345.1713470909
101352.7201727434
101360.0113258416
101366.2136366992
101370.2003943349
101371.8368288643
101372.1135235268
101372.0528335807
101371.8781137476
101371.5384017128
101370.9914997709
101370.1816268604
101369.0315861045
101367.4522557502
101365.3585235729
101362.6738702929
101359.3327274907
101355.2867583407
101350.5116560473
101345.0096374657
101338.8076021154
101331.9559960957
101324.5420558551
101316.7183884518
101308.7364020042
101301.0835587261
101294.7577730008
101290.9512452223
101289.5505838774
101289.3088222213
101289.3644442685
101289.5546054069
101289.9403277999
101290.5553077011
101291.4549401367
101292.7104527424
101294.394450617
101296.5735412133
101299.3073990734
101302.6446555073
101306.6160956567
101311.2305808293
101316.4751162587
101322.3173275667
101328.7091083073
101335.5832207422
101342.8342365241
101350.2938393845
101357.6642524987
101364.3091071596
101369.1304411743
101371.4569109951
101372.0916911676
101372.1165428042
101371.9700671673
101371.6767771637
101371.1666697417
101370.4126692977
101369.3566381899
101367.9232259131
101366.0308596309
101363.596251334
101360.5399854164
101356.7967971419
101352.3260352129
101347.1172288273
101341.1908526234
101334.5955232031
101327.4093988765
101319.7622474777
101311.8677685062
101304.1036278805
101297.2552026534
101292.5455164856
101290.4704807723
101289.957445855
101289.9046435849
101290.0484462772
101290.3733818059
101290.9360608354
101291.7704537725
101292.9302955795
101294.4755996016
101296.4665633574
101298.9659295504
101302.0362563143
101305.7283187972
101310.0692752668
101315.057774534
101320.6651189644
101326.8403753388
101333.5156191698
101340.5952538482
101347.933491288
101355.2988306905
101362.2078967242
101367.7092750762
101370.8698126311
101371.9549197143
101372.1282451222
101372.081871893
101371.8553118116
101371.4045072105
101370.6958075241
101369.6908305463
101368.3419288526
101366.5923348609
101364.372400593
101361.5976406022
101358.1788594279
101354.0426967078
101349.1509517959
101343.5088862795
101337.1631756816
101330.1943899261
101322.7241762957
101314.9421688913
101307.1505159016
101299.95981477
101294.4961916889
101291.6009250978
101290.6981391648
101290.5551449213
101290.5830805005
101290.8050180756
101291.2726534799
101292.0332285633
101293.1309727719
101294.6033110962
101296.4805420158
101298.797977674
101301.610546171
101304.9912244404
101309.0096219893
101313.7043357935
101319.0663787978
101325.0399377944
101331.5392995287
101338.4613496789
101345.6715448037
101352.9812010735
101360.0358233458
101366.051556279
101370.020949499
101371.6915657239
101372.0406783061
101372.0857074577
101371.9736363939
101371.6661145305
101371.0849034976
101370.1670098877
101368.8605483987
101367.1369626659
101364.9843624766
101362.38186366
101359.2774978875
101355.5802853541
101351.1646379774
101345.905830213
101339.7631045182
101332.8871831604
101325.4921435593
101318.067405271
101309.522797618
)
;

boundaryField
{
    inlet
    {
        type            uniformFixedValue;
        uniformValue    sine;
        uniformValueCoeffs
        {
            frequency       constant 3000;
            scale           constant 50;
            level           constant 101325;
        }
        value           uniform 101326.3578702043;
    }
    outlet
    {
        type            pressureOutletNSCBC;
        pInf            101325;
        gamma           1.4;
        etaAc           1;
        fieldInf        1;
        lInf            2.25;
        value           uniform 101305.682043195;
    }
    frontAndBack
    {
        type            empty;
    }
}


// ************************************************************************* //
