/*--------------------------------*- C++ -*----------------------------------*\
| =========                 |                                                 |
| \\      /  F ield         | OpenFOAM: The Open Source CFD Toolbox           |
|  \\    /   O peration     | Version:  v2012                                 |
|   \\  /    A nd           | Website:  www.openfoam.com                      |
|    \\/     M anipulation  |                                                 |
\*---------------------------------------------------------------------------*/
FoamFile
{
    version     2.0;
    format      ascii;
    class       volScalarField;
    location    "0.0185";
    object      pMean;
}
// * * * * * * * * * * * * * * * * * * * * * * * * * * * * * * * * * * * * * //

dimensions      [1 -1 -2 0 0 0 0];


internalField   nonuniform List<scalar> 
1000
(
101325.3143761814
101325.2845844008
101325.2793278905
101325.2754509012
101325.2658894225
101325.2550719762
101325.2401656107
101325.225847364
101325.2092969735
101325.1923389271
101325.1744939874
101325.1563022
101325.138314364
101325.1204255445
101325.1031211387
101325.0866784197
101325.0715517368
101325.0580555083
101325.0464255953
101325.0369703819
101325.0297681819
101325.0251694228
101325.0228529353
101325.0233309849
101325.0263470518
101325.0320257531
101325.0401886933
101325.0507592557
101325.0634810075
101325.0782832256
101325.0949182027
101325.1131488815
101325.132353381
101325.1519216094
101325.1718148086
101325.1914207379
101325.2108656101
101325.2298804339
101325.2481890242
101325.2653835007
101325.2811470618
101325.2950476821
101325.3068885528
101325.3163770849
101325.3235955418
101325.3279338122
101325.3299364366
101325.3292056956
101325.3260081278
101325.3203152518
101325.3122724905
101325.3019073582
101325.2893669412
101325.2747950142
101325.2585292626
101325.2412539601
101325.2234297323
101325.2060618551
101325.1884688927
101325.1710617631
101325.1539844343
101325.1375102768
101325.1219203789
101325.1076907482
101325.0950621214
101325.0845106343
101325.0761946436
101325.0705286668
101325.0671859195
101325.0667270119
101325.0687271723
101325.0735056762
101325.0807637341
101325.0905697918
101325.1027051312
101325.117115622
101325.1335734647
101325.1516525896
101325.170681166
101325.1897233887
101325.2093364519
101325.2285885226
101325.2476489667
101325.2664627914
101325.2846925811
101325.3020885286
101325.3183170111
101325.3330003932
101325.3457902188
101325.3564061267
101325.3646559093
101325.3703080001
101325.3732525297
101325.3734800147
101325.3712282092
101325.3663710049
101325.359112061
101325.3494451709
101325.3374196049
101325.323279959
101325.3073175782
101325.290402066
101325.2728028734
101325.2557961081
101325.2385361884
101325.221370385
101325.2045458395
101325.1881546024
101325.1725011544
101325.1579088149
101325.1447097171
101325.133279281
101325.1239522079
101325.1169943795
101325.1127507764
101325.1109285815
101325.1118947068
101325.1157271584
101325.1221143304
101325.1311935885
101325.1427723137
101325.1567283348
101325.1728662073
101325.190669147
101325.2094587449
101325.2282404448
101325.2475146182
101325.2665894828
101325.2853703203
101325.3040253795
101325.3221612026
101325.3396587012
101325.3561035528
101325.3713140609
101325.3847869147
101325.3963719329
101325.4055895509
101325.412641937
101325.4165382059
101325.4180102555
101325.4167536215
101325.4128289582
101325.406341787
101325.3973848717
101325.3859567635
101325.3723205043
101325.3567755794
101325.3401618225
101325.3229671945
101325.3059068806
101325.2890863319
101325.2721495597
101325.255499441
101325.2392391344
101325.2235874169
101325.2087862892
101325.1952204533
101325.1831592321
101325.1730087624
101325.1649905318
101325.1597088181
101325.1565434094
101325.1564829766
101325.1591620243
101325.1646328515
101325.1728641659
101325.1837864188
101325.1972571306
101325.2129862475
101325.2305268406
101325.2490357742
101325.2678299887
101325.2864334523
101325.3055837891
101325.3242060909
101325.3426846521
101325.3607622625
101325.3782933206
101325.3949119474
101325.4104627614
101325.4244856763
101325.4368096431
101325.4469487279
101325.4550678923
101325.4600966475
101325.462874509
101325.4626429713
101325.4598400287
101325.4542061174
101325.4460455694
101325.435317766
101325.4222332839
101325.4071686275
101325.3908251697
101325.3740897567
101325.3568443842
101325.3404681608
101325.3237772574
101325.3072357354
101325.2911022991
101325.2754703324
101325.2605961243
101325.2467260096
101325.2342385641
101325.2234031314
101325.2145705654
101325.2081626771
101325.2040970316
101325.2028381786
101325.2042759508
101325.2087513764
101325.2159913853
101325.2261218864
101325.2389995142
101325.2542657517
101325.2715209276
101325.2897882473
101325.3085568303
101325.3267743063
101325.3458975861
101325.3644254635
101325.3827174968
101325.4007390946
101325.4182861568
101325.4350732459
101325.4508447685
101325.465338744
101325.4782421455
101325.4892415202
101325.4980923112
101325.5046576311
101325.5083123988
101325.5092641715
101325.5075937426
101325.5029927434
101325.4957136817
101325.4857794508
101325.4733562459
101325.4588082295
101325.4428120725
101325.4263490851
101325.4093119307
101325.3930307398
101325.3766314066
101325.3601908732
101325.344176644
101325.3285897486
101325.3136992212
101325.2996142361
101325.2868105351
101325.2754247127
101325.2659538421
101325.2584911436
101325.2538093988
101325.2511238733
101325.2515546222
101325.2548814041
101325.2611506587
101325.2703272732
101325.2824576418
101325.2972029666
101325.3140769625
101325.3321598308
101325.3507608116
101325.3690613957
101325.3876317862
101325.4063186081
101325.4245092179
101325.4424805535
101325.4600338605
101325.4769523674
101325.4929427243
101325.5077885524
101325.5212042739
101325.5329083558
101325.5425163917
101325.550238075
101325.5547766637
101325.5570312115
101325.5564433346
101325.5530129008
101325.5466999089
101325.5376481421
101325.5260178733
101325.5120543505
101325.4965063499
101325.4801952646
101325.4637134355
101325.4469554596
101325.4310816498
101325.4148270858
101325.3989088503
101325.3833562698
101325.3684739772
101325.3542998467
101325.341194513
101325.3294191763
101325.31936368
101325.3111395168
101325.3055944822
101325.3018299271
101325.3013272298
101325.3034544001
101325.3087233155
101325.3168797063
101325.3281330311
101325.3422229952
101325.358633028
101325.3765062148
101325.3949004093
101325.4134347904
101325.4313367413
101325.4502502376
101325.468436897
101325.4863283524
101325.5038730369
101325.5209030062
101325.537116756
101325.5522239389
101325.5660946945
101325.5783635839
101325.5887589031
101325.5972072519
101325.6030339293
101325.6063389172
101325.6067987986
101325.6045499512
101325.5993288302
101325.5912286828
101325.5804613696
101325.5672259173
101325.5521882968
101325.5361141654
101325.5200295218
101325.5031560171
101325.4875723081
101325.4715541182
101325.4556710903
101325.4401821974
101325.4252926437
101325.4110878623
101325.3977650974
101325.3856696745
101325.375105584
101325.3663385822
101325.3597253071
101325.3556332463
101325.353779013
101325.3548556547
101325.3590515755
101325.3662115017
101325.3764605791
101325.3897293359
101325.4056081043
101325.4231710062
101325.4414334607
101325.4599271155
101325.4778079225
101325.4964145223
101325.5147714377
101325.5325696952
101325.5501660334
101325.5672274491
101325.583670878
101325.5990495689
101325.6132777465
101325.6260510195
101325.6371842317
101325.64619194
101325.6534259513
101325.6573995999
101325.6590828468
101325.6579403132
101325.6539074523
101325.6468380702
101325.6369969293
101325.624603765
101325.6101729007
101325.5944817976
101325.5785249967
101325.5622150499
101325.5461064998
101325.5306229452
101325.514853597
101325.4994721967
101325.4845414872
101325.4703485977
101325.4569204663
101325.44452258
101325.4335652765
101325.424306395
101325.4169065696
101325.4122306515
101325.4091934919
101325.409448944
101325.4125223931
101325.4186926357
101325.4279365281
101325.4402624214
101325.4554594019
101325.4726420846
101325.4907818757
101325.5090991424
101325.5273805289
101325.5451414793
101325.5638726437
101325.5817404847
101325.5993489331
101325.6164543769
101325.6330751403
101325.6487584934
101325.6632969268
101325.6765261633
101325.6882468317
101325.6979868946
101325.7060385825
101325.7110275052
101325.7138922767
101325.7137562229
101325.7109158232
101325.7050000585
101325.6961501695
101325.6846473107
101325.6709588981
101325.6557646341
101325.6399559002
101325.6242182915
101325.6077116197
101325.5926663855
101325.5771345716
101325.5617766391
101325.5468820112
101325.5326346335
101325.5191865651
101325.5065940266
101325.4952832116
101325.4855583675
101325.4776644759
101325.4720063678
101325.4686416986
101325.4677553429
101325.4697588133
101325.4749231087
101325.483169969
101325.494494148
101325.5088494464
101325.5255584133
101325.5435360192
101325.5617232627
101325.5801459295
101325.5976678789
101325.6163431377
101325.6344144295
101325.6519656996
101325.6691997085
101325.685891148
101325.7018994376
101325.7167803897
101325.730385943
101325.742612816
101325.753140057
101325.7616391428
101325.7682126517
101325.7716548704
101325.7726761101
101325.7709678555
101325.7662410652
101325.7585053531
101325.7479237372
101325.7350584157
101325.7204740545
101325.7049616453
101325.6894511447
101325.6734220417
101325.6579451455
101325.6429339539
101325.6276672511
101325.6128901816
101325.5985630501
101325.5851233399
101325.572441257
101325.5608406787
101325.5507009911
101325.5423952849
101325.5359119195
101325.5322560709
101325.5301112704
101325.5313460083
101325.5354708553
101325.5427402098
101325.5531073145
101325.5665180251
101325.5825981555
101325.6003256164
101325.6184947583
101325.6367792286
101325.6548082786
101325.6725567089
101325.6911252765
101325.7087994386
101325.7261431308
101325.7429437266
101325.7591824737
101325.7744729022
101325.7884667201
101325.8011562514
101325.8123405055
101325.8215320549
101325.8290883727
101325.8333543474
101325.8356412947
101325.8349487493
101325.8314482745
101325.8249223822
101325.815382744
101325.8033815886
101325.7895282206
101325.7745382654
101325.7591196887
101325.7438498671
101325.7278348447
101325.7134003785
101325.6983883795
101325.6836646657
101325.6693994226
101325.6558850834
101325.6432591586
101325.6314821722
101325.6210507857
101325.6123104869
101325.6054071592
101325.600889043
101325.598432681
101325.5987002999
101325.6018147883
101325.6081753409
101325.6175932162
101325.6301281059
101325.6454279715
101325.6628810433
101325.6810574593
101325.6992348302
101325.7176928517
101325.7351063381
101325.7538563528
101325.7718321497
101325.7892554825
101325.8063227133
101325.8227498706
101325.8385243164
101325.8529984892
101325.8662306703
101325.877978438
101325.8880937336
101325.8961557143
101325.9021796218
101325.905109799
101325.9056281097
101325.903392326
101325.8981390466
101325.8898835154
101325.8788249756
101325.8658801912
101325.8514526446
101325.8364233186
101325.8216272171
101325.8060762166
101325.7913606272
101325.7769898824
101325.7624463561
101325.7483898259
101325.7348707994
101325.7222891841
101325.7105637752
101325.6998523428
101325.6908044169
101325.683543786
101325.6781953018
101325.6755992834
101325.674531154
101325.6768312122
101325.6820966835
101325.6903984795
101325.7018115422
101325.7159592335
101325.7325334393
101325.750165066
101325.767991562
101325.7859163506
101325.8034833798
101325.8208512753
101325.8390101296
101325.8561758042
101325.8730047316
101325.8892022922
101325.9048181601
101325.9195058424
101325.9326140497
101325.9448181039
101325.9551704605
101325.9636212356
101325.9705131702
101325.9739909114
101325.9756357388
101325.9743346938
101325.9702890817
101325.9632479628
101325.9533586917
101325.9411786476
101325.9277518747
101325.9130884067
101325.8986089953
101325.8840737366
101325.8688845183
101325.8552848801
101325.8411038558
101325.8272224629
101325.8138773915
101325.8012624933
101325.789751041
101325.7787587683
101325.769780482
101325.7619299379
101325.7561644455
101325.7527609259
101325.7513606378
101325.752631101
101325.7568345374
101325.7641664816
101325.7745184838
101325.7878098062
101325.80344645
101325.8210717299
101325.8384957847
101325.8564409821
101325.8743680789
101325.8912873689
101325.9095433809
101325.9269493801
101325.943794546
101325.9602152018
101325.975951928
101325.9910477371
101326.004617892
101326.0172622148
101326.0281774979
101326.0374039156
101326.0446870946
101326.0498630784
101326.0519633317
101326.0517674434
101326.0488863931
101326.0429920847
101326.0342780418
101326.022814325
101326.0101227694
101325.9958181031
101325.9815801762
101325.9674429441
101325.9526518588
101325.9385819783
101325.9249633092
101325.9111491512
101325.8978875877
101325.8851648052
101325.8734926008
101325.8626690625
101325.8528891324
101325.8451144677
101325.8387390334
101325.8344795661
101325.8330173196
101325.8329276212
101325.8364246976
101325.842796294
101325.8522177014
101325.864630129
101325.8795447888
101325.8965893996
101325.9141576762
101325.9317976531
101325.949867089
101325.9672748625
101325.9845345461
101326.002563284
101326.0195677691
101326.0361390409
101326.0520869658
101326.0673318816
101326.0817297393
101326.094134793
101326.1063035223
101326.1158222255
101326.1237813726
101326.1300598665
101326.1328608311
101326.1338673046
101326.1319412332
101326.1272811466
101326.1196651229
101326.1093009657
101326.0969660787
101326.0836190853
101326.0693187564
101326.0556209627
101326.0414239645
101326.0268058485
101326.0137709469
101326.0001340744
101325.9868385748
101325.9741447283
101325.9622213544
101325.9515440986
101325.9411688122
101325.9334745194
101325.9264780985
101325.9216468159
101325.9193697123
101325.9190150144
101325.9214295041
101325.9267863967
101325.9353506665
101325.9467907278
101325.9610663336
101325.9772277081
101325.9950251656
101326.0124317868
101326.0303690622
101326.0481254514
101326.0650924853
101326.0830904194
101326.1004229629
101326.1170465708
101326.1332593329
101326.1486587681
101326.1634872546
101326.1764318091
101326.1889631279
101326.1993364098
101326.2077269384
101326.2145168362
101326.219111912
101326.2204451401
101326.2196598379
101326.2161521146
101326.209685007
101326.2004591342
101326.1887476921
101326.1760092265
101326.1622229798
101326.1483737713
101326.1349409822
101326.1206346773
101326.1069848416
101326.0939889576
101326.0807464283
101326.0681145492
101326.0560700304
101326.045183088
101326.0350296022
101326.0263853368
101326.0194706571
101326.013974243
101326.0107795791
101326.0105725166
101326.0114015365
101326.0161931257
101326.0237108416
101326.0343160852
101326.0477260055
101326.0633797189
101326.080591586
101326.09822923
101326.1157720097
101326.1339672882
101326.1511768478
101326.168236652
101326.1862391732
101326.2030167712
101326.2193715337
101326.2350392077
101326.2499737621
101326.2639413919
101326.2759615229
101326.2875046054
101326.2967895062
101326.3037957263
101326.3096826474
101326.3117268817
101326.312140839
101326.3095107653
101326.3043281634
101326.2961463555
101326.2855133453
101326.2730619099
101326.259900781
101326.2463363101
101326.2330150362
101326.2195174825
101326.2052616934
101326.1928292344
101326.1797776889
101326.1670525019
101326.1550523011
101326.1438367162
101326.1339407298
101326.1244149808
101326.1175618773
101326.1119683893
101326.1074991957
101326.1065822329
101326.1075254119
101326.1109323242
101326.1175120818
101326.1272597398
101326.1397817951
101326.1548844056
101326.1714886575
101326.1890993228
101326.206825378
101326.2243475986
101326.2425437572
101326.2591331951
101326.2768178036
101326.2941602306
101326.3105779359
101326.3265604175
101326.3416745344
101326.3561340476
101326.3686161077
101326.380786507
101326.3907038661
101326.3983859342
101326.4044756303
101326.4088239719
101326.4091066714
101326.4078513242
101326.4036793472
101326.3967296809
101326.3870924845
101326.3753752522
101326.362495108
101326.3494791788
101326.3360552584
101326.32334386
101326.3095520321
101326.2960273137
101326.2838894534
101326.2712180577
101326.2592113514
101326.2479147573
101326.2377520057
101326.2284389009
101326.2206966611
101326.214638046
101326.2105744161
101326.2078018594
101326.2091564476
101326.2109433523
101326.2170970401
101326.2256345184
101326.2374362546
101326.2517221792
101326.2680972251
101326.2851590537
101326.3029497473
101326.3206153845
101326.3383247983
101326.3561256004
101326.3722831171
101326.3905542692
101326.4072287944
101326.4232519169
101326.4387469902
101326.4533117583
101326.4668675095
101326.4784736424
101326.4894558846
101326.49859046
101326.5043480145
101326.5096587502
101326.511885466
101326.5110836341
101326.5079718226
101326.5021742842
101326.4935809078
101326.4828073284
101326.4703568309
101326.4575094774
101326.4447621218
101326.4314579732
101326.4194197853
101326.4051578677
101326.3927847348
101326.3807589653
101326.3685801905
101326.3573152077
101326.3469012808
101326.3376724749
101326.3291512852
101326.3231863842
101326.3185972821
101326.3154641894
101326.3149819841
101326.3180874772
101326.3216752177
101326.3298986679
101326.3405830807
101326.3541613653
101326.369932276
101326.3870467383
101326.4042107464
101326.4221252785
101326.4396825007
101326.4575718668
101326.4749063581
101326.4908591858
101326.5089284797
101326.525240584
101326.5409002837
101326.5559372023
101326.5697589756
101326.5821673513
101326.5933081016
101326.6027808424
101326.6108020491
101326.6148709528
101326.6192032901
101326.6190638473
101326.6173865511
101326.612452712
101326.6050352526
101326.5950696175
101326.583542522
101326.5707205524
101326.5581948869
101326.5456474641
101326.5326648479
101326.5210318995
101326.5063855467
101326.4955126063
101326.4836800916
101326.4718847485
101326.4615656935
101326.4519947009
101326.4435912833
101326.4364575927
101326.4317432903
101326.4289769885
101326.4270004222
101326.4287552808
101326.4335099997
101326.4392780958
101326.4496200395
101326.4621770933
101326.4773154843
101326.4940107006
101326.5115497251
101326.5287313834
101326.5466443886
101326.5642082298
101326.5819236848
101326.5993469385
101326.6144744102
101326.6324036115
101326.6483755148
101326.6637108201
101326.6782380911
101326.6908657344
101326.7024744961
101326.712708275
101326.7209663844
101326.7275554726
101326.7301375269
101326.732984762
101326.7307806981
101326.7282574619
101326.7215188941
101326.7126241208
101326.7016312779
101326.6896151011
101326.6769737061
101326.6645900347
101326.6523010837
101326.6396240327
101326.6285491163
101326.6138844922
101326.6039564879
101326.5927284263
101326.5812429325
101326.5726495867
101326.5627176353
101326.5559337516
101326.5504689609
101326.546781414
101326.5461212482
101326.545558122
101326.5490607431
101326.5557395859
101326.5673657179
)
;

boundaryField
{
    inlet
    {
        type            calculated;
        value           uniform 101325.2867480338;
    }
    outlet
    {
        type            calculated;
        value           uniform 101326.5709744419;
    }
    frontAndBack
    {
        type            empty;
    }
}


// ************************************************************************* //
