/*--------------------------------*- C++ -*----------------------------------*\
| =========                 |                                                 |
| \\      /  F ield         | OpenFOAM: The Open Source CFD Toolbox           |
|  \\    /   O peration     | Version:  v2012                                 |
|   \\  /    A nd           | Website:  www.openfoam.com                      |
|    \\/     M anipulation  |                                                 |
\*---------------------------------------------------------------------------*/
FoamFile
{
    version     2.0;
    format      ascii;
    class       volScalarField;
    location    "0.0185";
    object      rho;
}
// * * * * * * * * * * * * * * * * * * * * * * * * * * * * * * * * * * * * * //

dimensions      [1 -3 0 0 0 0 0];


internalField   nonuniform List<scalar> 
1000
(
1.176545999689173
1.176522832419913
1.176575813113425
1.176619049898316
1.176670297789718
1.1767166645676
1.176755505760251
1.176787980673118
1.176815266360584
1.17683347665874
1.176838917586684
1.176838444061051
1.176834570581992
1.17682495577628
1.176807362791034
1.176780956052653
1.176746714943734
1.176706231115582
1.176660802584184
1.176611310634665
1.176558474723868
1.176503092691084
1.176446101700342
1.176388503944427
1.176331287989825
1.176275422025257
1.176221841988502
1.176171286577885
1.176124056622755
1.176080266555202
1.176041383873954
1.176012086613106
1.17599729561113
1.175994389967842
1.17599493155903
1.17599792523942
1.176005496070458
1.176019493668741
1.176041410023217
1.176071881602689
1.176110431491887
1.176155670523028
1.176205834016718
1.176259299158005
1.17631482733078
1.176371514883682
1.176428606745827
1.176485342931753
1.17654093686326
1.176594714938635
1.176646299885393
1.17669553573577
1.176741888097518
1.17678295387171
1.176812842172229
1.176826693127224
1.17682954192489
1.176829693925683
1.176827418709347
1.176821477480577
1.176810206473997
1.176792062461972
1.176765945397048
1.176731493932894
1.176689203954973
1.176640329522824
1.176586582473179
1.176529752716039
1.176471410977078
1.176412779226068
1.176354743691013
1.176297928128323
1.176242735036239
1.176189355385913
1.176137982241044
1.176089650615043
1.176047975362721
1.176019634645925
1.176007617422618
1.176005481883785
1.176005862638957
1.17600844149116
1.176014468949739
1.17602531002965
1.176042336844281
1.176066652090116
1.17609882525997
1.176138722169225
1.176185492155537
1.176237713671929
1.176293656824123
1.176351586041453
1.176410018167881
1.17646787368579
1.176524501967145
1.176579634491906
1.17663327326749
1.176685297958071
1.176734642326041
1.176777979060583
1.176808681543703
1.176822293209016
1.17682524292489
1.176825789134982
1.176824106740659
1.176819520402891
1.176810623316313
1.176796108905918
1.176774831902363
1.176746003207515
1.176709351022596
1.176665231287835
1.176614634353992
1.176559059365653
1.176500279245732
1.176440049810971
1.176379836618843
1.176320647321603
1.17626300490627
1.176207062655518
1.176153032963628
1.176102230278868
1.176058713017835
1.176029416539721
1.176017156918076
1.176014772996901
1.176014720362735
1.17601672910742
1.1760216332325
1.176030580737314
1.176044749195917
1.176065209299727
1.176092733149588
1.176127648623807
1.17616974714193
1.176218261822325
1.176271934890143
1.176329181098542
1.176388330527977
1.176447896164264
1.17650677387182
1.176564327109686
1.17662033879121
1.176674600542418
1.17672595998496
1.17677108569783
1.176803557658329
1.176818535786724
1.176822114102991
1.176823014646882
1.176821882993782
1.1768183577243
1.176811185701577
1.176799195223574
1.17678130751712
1.176756650228801
1.176724676752012
1.17668528612665
1.176638900995383
1.176586467865785
1.176529365971209
1.176469223523086
1.176407664737688
1.176346069192239
1.176285428765269
1.176226340578459
1.176169348546299
1.176115985732447
1.176070336674292
1.176039270923793
1.176025995009469
1.176023112001795
1.176022621465315
1.176024120325424
1.176028063948496
1.176035544823235
1.176047585632922
1.176065180234015
1.176089142166677
1.17611998273992
1.176157821100134
1.176202327573147
1.176252714711249
1.176307795228456
1.176366121436532
1.176426196067919
1.17648668921771
1.176546588164254
1.176605255808174
1.176662168469205
1.176715993973842
1.176763392028555
1.176798257848471
1.176815291075061
1.176819672915724
1.17682083830681
1.17682022155816
1.176817552969922
1.176811753274736
1.176801742285847
1.176786510447819
1.176765181160887
1.176737089842379
1.176701890052374
1.176659643216939
1.176610861517992
1.176556491594749
1.176497826356787
1.176436336511494
1.176373466822429
1.176310476499115
1.176248360005091
1.176188063199531
1.176131449903973
1.176082836744963
1.176049216217209
1.176034288592573
1.176030799385899
1.176030008852726
1.176031058638979
1.176034204398055
1.176040455543413
1.176050753458801
1.176066024793428
1.176087079781338
1.176114512952528
1.176148623863701
1.176189358687522
1.176236276418856
1.176288555157321
1.176345058984871
1.176404475213602
1.176465487585395
1.176526919582306
1.176587833377584
1.176647414387511
1.176704149996921
1.176754544780355
1.176792520946376
1.176812289102187
1.176817758308544
1.176819074546759
1.176818946354774
1.176816987080836
1.17681232546432
1.176803951810763
1.176790913697039
1.176772349648001
1.176747542092476
1.176716007400475
1.176677578650819
1.176632457316971
1.176581230503423
1.176524841959264
1.17646449537362
1.176401507446172
1.176337182148571
1.176272735704746
1.176209412164414
1.176149323230698
1.176097029704895
1.176059844454659
1.176042359269924
1.176037983557317
1.176036988274976
1.176037621919795
1.176040099065491
1.176045313403627
1.176054146061561
1.176067464232617
1.176086059167696
1.176110567473893
1.176141398995718
1.176178682192063
1.176222224623747
1.176271495834238
1.17632565098377
1.176383614107502
1.176444206452433
1.176506259513434
1.176568695082064
1.176630501571465
1.176690080650002
1.176743848192
1.176785612897667
1.176809009958983
1.176816178991707
1.176817571987821
1.176817914700735
1.1768165127679
1.17681280910961
1.176805821501557
1.176794650632215
1.176778450040145
1.176756474779724
1.176728160529399
1.176693193088496
1.176651555363898
1.176603557630715
1.17654984125445
1.176491330161044
1.176429134690725
1.176364468170112
1.176298602965043
1.176232924834635
1.176169612200029
1.176113295535888
1.176071677987214
1.176050574591584
1.176044770910587
1.176043633115736
1.176043848157503
1.176045742469008
1.176050052274942
1.176057609264085
1.176069235372926
1.176085702761365
1.176107667273298
1.176135603678625
1.17616976027405
1.176210122412933
1.176256385075852
1.176307951553764
1.176363979133565
1.176423468553972
1.176485347420254
1.176548517118186
1.176611867212874
1.176673833594659
1.176730949355561
1.176776943374423
1.17680489827174
1.176814612057008
1.176816331197388
1.176816974655002
1.176816043832848
1.176813160483026
1.176807372755671
1.176797822226179
1.176783684766085
1.176764202246988
1.176738758053426
1.176706938534477
1.176668571381995
1.176623756529967
1.1765728861428
1.176516630584979
1.176455880735631
1.176391692710552
1.176325278894335
1.17625805555055
1.176192139160386
1.176131957837804
1.176085377108454
1.176059518229228
1.176051441714447
1.176050115882387
1.176049947378365
1.176051342164681
1.176054861398028
1.17606128670148
1.176071402944332
1.176085973832441
1.176105670663524
1.176131011195825
1.17616232364443
1.176199719179221
1.176243063135934
1.176291959755555
1.176345771802314
1.176403680653893
1.176464748281357
1.176527937344818
1.176592118588961
1.176655820141324
1.176715921703987
1.176766266830493
1.176799389991819
1.17681273816604
1.176815209922514
1.176815989190041
1.176815471216766
1.176813292495339
1.176808558202017
1.176800444340336
1.176788147576397
1.176770897041161
1.176748034748058
1.176719078817731
1.176683750334296
1.176641994744587
1.176594007901349
1.176540244844804
1.176481390066819
1.176418323293803
1.176352140052472
1.176284206793186
1.176216477759383
1.176152916128661
1.176101176622907
1.176069638892608
1.176058258116644
1.176056338982567
1.17605591089513
1.176056893421142
1.176059695024234
1.176065106305971
1.176073867647637
1.176086727983563
1.176104370588392
1.176127346244996
1.176156042913978
1.176190666120969
1.176231212078817
1.176277445222849
1.176328900366545
1.176384921494978
1.176444711912451
1.176507339237471
1.176571710275568
1.176636444646461
1.176698898733644
1.176753376820486
1.176791982454921
1.176810109417676
1.176814093062355
1.176814910575264
1.176814737367469
1.176813146112481
1.17680932314866
1.176802481676187
1.176791841520632
1.176776617523629
1.176756110689667
1.176729783101039
1.176697277270476
1.176658425107914
1.176613272151187
1.176562098812927
1.17650541184837
1.176443922751018
1.17637857742859
1.176310630434999
1.176241854186264
1.176175635453751
1.176119010790209
1.176081272362342
1.176065367612654
1.176062215305054
1.176061625490645
1.176062249017393
1.176064427797164
1.176068930866899
1.176076461761981
1.176087754692429
1.176103511042202
1.17612431491731
1.17615059879472
1.176182635619531
1.176220520859394
1.176264147032597
1.176313192657464
1.176367143737702
1.176425334038468
1.176486946363389
1.176550969573357
1.176616122033909
1.176680234907914
1.176738353881094
1.176782372147736
1.176806125985785
1.176812737969903
1.176813541412792
1.17681367367956
1.17681257058019
1.17680954017139
1.176803827583225
1.176794676433349
1.176781297933134
1.176762957314491
1.176739064282756
1.176709197027989
1.176673101691187
1.176630708004051
1.176582155077673
1.176527799815787
1.176468204254774
1.176404162393527
1.176336791528327
1.176267690164405
1.176199654791072
1.176138733975085
1.176094611121266
1.176073039534129
1.176067588268452
1.176066893386827
1.176067217028062
1.176068885990166
1.176072599629669
1.176079034731451
1.176088904149535
1.176102921091399
1.176121701873838
1.176145720061625
1.176175305796032
1.176210636594607
1.176251710861389
1.176298328001103
1.176350095001016
1.176406458579689
1.176466715521948
1.176529960206739
1.17659499993359
1.176660020271249
1.176721016549758
1.176770204151778
1.176800008111543
1.176810462178274
1.176811716115282
1.176811967257355
1.176811215614948
1.176808833809965
1.176804074244334
1.176796233392544
1.176784529413231
1.176768189925859
1.176746567657911
1.176719180969764
1.176685706287526
1.176645981608615
1.17660003171298
1.176548088479207
1.176490587166347
1.17642818085551
1.176361833196711
1.176292962734942
1.176223877628212
1.176159507547749
1.176109122065029
1.176080895326551
1.176071891341934
1.176070832944713
1.176070885572667
1.176072108760367
1.176075129620496
1.176080573378857
1.176089123617623
1.176101500968889
1.176118357065762
1.176140208333809
1.176167434114311
1.176200278442994
1.176238828302511
1.176282988047216
1.176332472910388
1.176386832149009
1.1764454675626
1.176507580413573
1.176572081585346
1.176637416341277
1.176700490449902
1.17675438542845
1.176790382954111
1.176805833059928
1.176808432592149
1.176808654954448
1.17680816210424
1.176806346579486
1.176802452556496
1.176795828841447
1.17678571855289
1.176771334651865
1.176751989415146
1.176727152073114
1.176696444290713
1.176659637411453
1.176616672590862
1.176567685568888
1.176513011128828
1.176453188231613
1.176389043817023
1.176321832134472
1.176253505134428
1.176187987429508
1.17613348257624
1.176099552845794
1.176086543716636
1.176084499731644
1.176084461850416
1.176085358132364
1.176087807708806
1.176092382712522
1.176099711735768
1.176110497073157
1.176125406602345
1.176144984123246
1.176169640867461
1.176199667765017
1.176235221452152
1.176276295676311
1.176322705316231
1.176374097584197
1.176429971424591
1.176489642818576
1.176552162153228
1.176616189586622
1.176679344220954
1.176736118668391
1.176777573968039
1.176798628099407
1.176803765059386
1.176803877852644
1.176803644259602
1.176802242654599
1.176799086934271
1.176793552162046
1.176784937295529
1.17677245850754
1.176755383153762
1.176733117259297
1.176705215858937
1.176671375236479
1.176631444357904
1.176585449122323
1.1765336071735
1.176476332880736
1.176414295943565
1.176348556323797
1.176280764407899
1.176213959680772
1.176154779599986
1.176113487564764
1.176094526314119
1.176090222758355
1.176089997256368
1.176090621699063
1.176092552379226
1.176096380493736
1.176102673276709
1.176112107979734
1.176125378289205
1.17614307069839
1.176165636815049
1.17619341252177
1.176226615526373
1.176265318428548
1.176309425792788
1.176358672522182
1.176412641815163
1.176470754390181
1.176532178602876
1.17659570716348
1.176659410411011
1.176719120929304
1.176766380916668
1.176793650399287
1.176802534133275
1.176803322665398
1.176803036787891
1.176801898558595
1.176799295360345
1.176794603988754
1.176787170667764
1.176776221377121
1.176760993426887
1.176740841601847
1.17671526131004
1.17668388127932
1.176646473828137
1.176602978716703
1.176553523323109
1.17649842824868
1.176438239003025
1.176373861157743
1.176306744153873
1.176239323683027
1.176176783995631
1.176128981217806
1.176103606679392
1.176095935469804
1.17609528205594
1.176095747051262
1.176097262993335
1.176100484721007
1.176105910893029
1.176114175275319
1.1761259793328
1.176141946979895
1.176162569066119
1.176188221846963
1.1762191748932
1.176255568373033
1.176297386408341
1.176344447262255
1.176396415588272
1.176452801993978
1.176512880481394
1.176575577775368
1.176639293253938
1.1767008519791
1.176753077638737
1.1767868060631
1.176800776990594
1.17680291196972
1.176802535691562
1.176801650293068
1.176799463055545
1.17679544385554
1.176789006292136
1.176779415612255
1.17676589012385
1.176747735404169
1.176724385459035
1.176695402141267
1.176660485681879
1.176619496536236
1.176572475945141
1.176519654862666
1.176461470973753
1.176398681297751
1.1763325429879
1.176265083481024
1.176200358265042
1.176146859169715
1.176114444417826
1.176102319140062
1.17610050728625
1.176100882435338
1.176102046206694
1.176104759686664
1.17610944290389
1.176116675300463
1.176127143849675
1.176141506465871
1.176160296620713
1.176183927796846
1.176212711172616
1.176246841936766
1.17628637359998
1.176331203121048
1.176381072729153
1.176435574116145
1.176494100772815
1.176555729213276
1.176619050539302
1.176681544393334
1.17673766643296
1.17677797704228
1.176797728822687
1.176802312249129
1.176802295833611
1.176801462130002
1.176799547083304
1.176796061919448
1.176790446329851
1.176782034165441
1.176770047509451
1.176753750634142
1.176732523079332
1.176705863675306
1.17667340005407
1.176634915642292
1.176590371098753
1.176539914961551
1.17648389350094
1.176422921840061
1.176358068919118
1.176291085020799
1.176225144963555
1.176167006496794
1.176127272849604
1.176109682270737
1.176105771737581
1.17610585700839
1.176106796128726
1.176109085200196
1.176113156758945
1.176119506355189
1.176128784327226
1.176141668370377
1.176158734698103
1.176180440832121
1.176207142472505
1.176239084536424
1.176276377272936
1.176318980777106
1.176366703318276
1.176419210980889
1.176476004633433
1.176536295525508
1.176598844407945
1.176661638104532
1.176720493136417
1.176766914747346
1.176792976593936
1.17680160055219
1.176802290673626
1.176801479173861
1.176799848562627
1.176796740387999
1.176791746134181
1.176784296763647
1.176773651264979
1.176759054876384
1.176739833411684
1.176715414282589
1.176685347912134
1.176649342489843
1.176607286802893
1.176559258111587
1.176505523121726
1.17644657151552
1.176383284008338
1.176317169250368
1.176250770577603
1.17618932786132
1.176142723320526
1.17611867573405
1.176111385514129
1.17611075648272
1.176111620286296
1.176113499915287
1.176117094599574
1.176122729872137
1.176130977793839
1.176142510456352
1.176157945980339
1.176177798084447
1.176202482121749
1.176232300816181
1.17626741601167
1.176307834806999
1.176353412090219
1.17640386394205
1.176458767615302
1.176517475962578
1.176578955497589
1.176641545235955
1.176701997274683
1.176753420606669
1.176786474346543
1.176800041729436
1.176802335750361
1.176801832585698
1.176800384023536
1.176797567542195
1.176793033286772
1.176786318781749
1.176776783986924
1.176763689977921
1.176746331047414
1.176724072697515
1.176696371182009
1.176662825575462
1.176623234140693
1.17657761501233
1.17652619094746
1.176469379925674
1.176407904990579
1.17634303128169
1.176276843321533
1.176213383286507
1.176160926670234
1.176129360589843
1.176117745357685
1.176115740502846
1.176116201763845
1.176117778719143
1.176120977402033
1.176126077241022
1.176133537601748
1.176143949133586
1.176157913891657
1.176175984171328
1.176198654746342
1.176226328779025
1.176259261405667
1.176297525926776
1.176341014378255
1.176389458080012
1.176442457897366
1.176499456073817
1.176559578224117
1.176621428601805
1.176682538202944
1.176737630981354
1.17677760425134
1.176796892629934
1.1768021554655
1.176802361507266
1.176801147111366
1.176798715506111
1.176794486307533
1.17678823503201
1.176779479659405
1.176767595447612
1.176751906045654
1.176731720853199
1.176706381337572
1.176675346244649
1.17663827834197
1.17659509058167
1.176545952457546
1.176491266782073
1.17643168132037
1.176368271811459
1.176302810048383
1.176238427649431
1.17618163746922
1.176142582053971
1.176125374511586
1.176121120077488
1.176120682206991
1.176121874722531
1.1761245693161
1.1761292354366
1.176136154781845
1.1761457729424
1.176158587559889
1.176175097784251
1.176195823845976
1.176221284412263
1.176251900402004
1.176287896854565
1.176329262366699
1.176375758750537
1.1764269634315
1.176482312954436
1.176541014445609
1.176601858928771
1.176662926864481
1.176720210582336
1.176765822256179
1.176792025822916
1.176801022239404
1.176802459246129
1.17680207477863
1.176800196421184
1.176796458895255
1.176790583204943
1.176782251119592
1.176771067581933
1.176756561905883
1.176738156593903
1.176715151101275
1.176686805790532
1.176652512261505
1.176611953572162
1.17656517308827
1.176512557525482
1.176454774634701
1.176392832800662
1.17632830422591
1.176263694242034
1.176204066214783
1.176158758972979
1.176134749581992
1.176127262996568
1.176126077124704
1.176126308697938
1.176128149041152
1.17613202694363
1.176138334183163
1.176147437548988
1.176159647406268
1.176175215001595
1.176194433117203
1.176217757135552
1.176245791996606
1.17627911456333
1.176318044418382
1.176362506577461
1.176412037825667
1.176465926944863
1.176523318350551
1.176583096178389
1.176643696382843
1.176702180768897
1.17675205180714
1.176784958767328
1.176798810108996
1.176801709789814
1.176802092660586
1.176801184765574
1.176798670639793
1.176793893539826
1.176786330724644
1.176775558092626
1.176761349397264
1.176743603491049
1.176722105841639
1.176696346937457
1.176665517743811
1.176628639228976
1.176584890798511
1.176534214705379
1.176477953002935
1.176417083644877
1.176353564323225
1.176276855599425
)
;

boundaryField
{
    inlet
    {
        type            calculated;
        value           uniform 1.176427481426743;
    }
    outlet
    {
        type            calculated;
        value           uniform 1.176242423085533;
    }
    frontAndBack
    {
        type            empty;
    }
}


// ************************************************************************* //
