/*--------------------------------*- C++ -*----------------------------------*\
| =========                 |                                                 |
| \\      /  F ield         | OpenFOAM: The Open Source CFD Toolbox           |
|  \\    /   O peration     | Version:  v2012                                 |
|   \\  /    A nd           | Website:  www.openfoam.com                      |
|    \\/     M anipulation  |                                                 |
\*---------------------------------------------------------------------------*/
FoamFile
{
    version     2.0;
    format      ascii;
    class       volScalarField;
    location    "0.0185";
    object      T;
}
// * * * * * * * * * * * * * * * * * * * * * * * * * * * * * * * * * * * * * //

dimensions      [0 0 0 1 0 0 0];


internalField   nonuniform List<scalar> 
1000
(
300.0077313011075
300.0063728220695
300.0131324678396
300.018273749812
300.0233024414258
300.0279185900378
300.0323053988304
300.0363394695527
300.0398283417931
300.0422430839919
300.0431812940784
300.0434154989767
300.0433297250993
300.0426019622606
300.0409415695295
300.0383403334417
300.0348959584481
300.0307626683629
300.0260831118325
300.0209572889579
300.0154634917322
300.0096872461012
300.0037324071404
299.9977149669847
299.9917514336101
299.9859522943592
299.980417686903
299.9752219831001
299.9703925436987
299.9659374302684
299.9620016085365
299.9590565479413
299.9576003980467
299.957341725111
299.9574386972774
299.9577982471568
299.9586025906805
299.9600472435031
299.9622926098208
299.9654033120932
299.9693308094355
299.9739353915864
299.979039202028
299.9844784104101
299.990128129978
299.9958976725373
300.0017115000608
300.0074931836969
300.0131628340111
300.0186513408784
300.0239193342173
300.0289497452902
300.0336867745781
300.0378841057677
300.040940068581
300.0423581948889
300.0426517190015
300.0426688723795
300.0424372719424
300.0418296430748
300.0406770733146
300.038823164234
300.0361557710639
300.032638144289
300.028321063817
300.0233325829208
300.017847380551
300.0120480504976
300.00609476515
300.0001120453295
299.9941901181613
299.9883924564543
299.9827600298286
299.9773122944429
299.97206896521
299.9671357206057
299.9628816097829
299.9599884228305
299.9587613963894
299.9585431686201
299.9585817721997
299.9588447029089
299.9594598450063
299.9605664629536
299.9623045335364
299.9647865843137
299.9680707059554
299.9721431420737
299.9769170011097
299.9822471316596
299.9879569284965
299.9938692296338
299.9998326571545
300.0057370457852
300.0115160124017
300.0171421742249
300.0226157554018
300.027924492454
300.0329596006831
300.0373815905541
300.0405143534284
300.0419032294548
300.0422042180166
300.0422599657105
300.042088322069
300.0416203721288
300.0407125645049
300.0392315809029
300.037060550443
300.0341189328452
300.0303789608918
300.0258769122872
300.0207137975082
300.0150425514778
300.0090440606452
300.0028974842894
299.996752379138
299.9907115858393
299.9848284908987
299.9791187527186
299.9736040644005
299.9684186089116
299.9639766695431
299.9609862299199
299.9597348179618
299.9594914794097
299.9594861118283
299.9596911644017
299.9601917635015
299.9611050906609
299.9625513416499
299.9646397942647
299.9674492385569
299.971013111243
299.9753100831438
299.9802618354302
299.9857399480775
299.9915825881326
299.9976192968222
300.0036983005713
300.0097069169323
300.0155801942085
300.0212959916255
300.0268330593084
300.0320738227802
300.0366783750249
300.03999169032
300.0415199843753
300.0418851022289
300.0419769947575
300.0418615341254
300.0415018416402
300.0407700493622
300.0395465994351
300.0377214087812
300.0352054477866
300.0319429152523
300.0279234730463
300.0231902043546
300.0178396473801
300.0120125038249
300.0058748960807
299.9995925563904
299.9933062689553
299.9871172661868
299.9810865023232
299.9752695077652
299.9698227814245
299.9651632750889
299.9619922566033
299.9606371135217
299.9603428348402
299.9602927700774
299.960445776535
299.9608483334253
299.9616119530851
299.9628410233763
299.964636982518
299.9670828551859
299.9702308076431
299.9740929684848
299.9786356484121
299.983778431963
299.9894000979626
299.9953528580715
300.0014838787063
300.0076574232594
300.0137701399725
300.0197570209302
300.0255646393502
300.0310570747994
300.0358935169649
300.0394511075448
300.0411890993984
300.0416362071921
300.0417551246846
300.041692204076
300.0414199259357
300.0408281615076
300.0398066924954
300.0382525016262
300.0360761303142
300.0332097452614
300.0296179663887
300.025307023402
300.0203291365277
300.0147808598641
300.0087940897681
300.0025188791636
299.9961026494803
299.9896739023958
299.9833341353813
299.9771798979766
299.9714014470562
299.9664394242988
299.9630076491571
299.9614839147634
299.9611277607919
299.9610470747522
299.9611542426598
299.9614753585913
299.9621134531548
299.9631646169771
299.9647234305718
299.9668725844325
299.9696727440946
299.973154458374
299.9773121984949
299.9821009121932
299.9874366701963
299.9932034983199
299.999267391237
300.0054939931539
300.0117632246249
300.0179793790026
300.0240593375872
300.0298487632584
300.034991014309
300.0388659885707
300.0408830446614
300.041441103251
300.0415754127204
300.0415623424772
300.0413624407631
300.0408868013741
300.0400323999041
300.0387020508955
300.0368078421913
300.0342765382096
300.031058765757
300.0271374593813
300.0225331376577
300.0173056665693
300.0115513076605
300.0053928559751
299.9989646512337
299.9923997492821
299.9858222671911
299.9793591784587
299.9732260330527
299.967888390981
299.9640927732082
299.9623079830262
299.9618613411972
299.9617597560212
299.9618244455825
299.9620773120916
299.9626095730405
299.9635111690611
299.964870613424
299.9667686615078
299.9692702774837
299.9724172719497
299.9762227266465
299.9806669634798
299.9856958009506
299.9912229713112
299.9971386234347
300.0033224255635
300.0096551046477
300.0160266169894
300.0223337316266
300.0284133578081
300.0338997961321
300.0381613587628
300.0405486954177
300.0412801943322
300.0414223364903
300.0414573139437
300.0413142785985
300.0409363846362
300.040223408612
300.0390835864295
300.0374305404297
300.0351882453127
300.032299098796
300.028731012083
300.0244822052845
300.019584298123
300.0141026942544
300.0081316343926
300.0017843900824
299.9951847544655
299.9884625612501
299.9817592350218
299.9752971242102
299.9695488887538
299.9653008793819
299.9631467688487
299.9625543668405
299.9624382333807
299.9624601924967
299.9626535650999
299.9630934945666
299.9638648749903
299.9650516014203
299.9667324825946
299.9689744491002
299.9718259423486
299.975312280167
299.9794319352719
299.9841537380672
299.9894167459805
299.9951349108213
300.0012062133409
300.007521180392
300.0139676757939
300.0204323714959
300.0267556594595
300.0325837905883
300.037276924108
300.0401293286011
300.041120479403
300.0412958987527
300.0413615608916
300.0412665936437
300.0409723997285
300.0403818535411
300.0394073640699
300.0379648345839
300.0359768974562
300.0333806182297
300.0301337647463
300.026218723239
300.0216456529616
300.0164545290289
300.0107137149479
300.0045140806916
299.997963366514
299.9911852730526
299.9843243255545
299.9775965374359
299.971453898824
299.9666993213438
299.9640598101487
299.9632354086056
299.9631000812836
299.9630828884578
299.963225269171
299.9635845001495
299.9642403621361
299.9652729680437
299.96676026531
299.968770764278
299.9713572973775
299.9745533433989
299.978370220632
299.9827941499763
299.9877847001188
299.9932767934749
299.9991868431225
300.0054190824167
300.0118676198102
300.0184171971341
300.0249176090576
300.0310504630691
300.0361876057169
300.0395673695541
300.0409293535621
300.0411815645112
300.0412610825285
300.0412082381508
300.0409859396606
300.0405028798689
300.0396749811118
300.0384202700818
300.0366600814851
300.0343272626242
300.0313726232621
300.0277676754513
300.0235068178446
300.0186099953129
300.0131235983446
300.0071174325869
300.0006812314754
299.9939267604898
299.9869934495248
299.9800807404932
299.9735931515415
299.9683120563633
299.9650929010843
299.9639312198013
299.9637353303183
299.9636916387209
299.9637919358141
299.9640779133527
299.9646302680463
299.9655245717549
299.966837265596
299.9686380843148
299.9709832338319
299.9739122944198
299.9774462185989
299.9815845885639
299.9863033252368
299.9915549112138
299.9972723536143
300.0033743058419
300.0097655813389
300.0163345936967
300.0229404648829
300.0293134322225
300.0348723368421
300.0388115295762
300.0406611187761
300.0410675928884
300.0411510115183
300.0411333435082
300.0409709863425
300.0405809140505
300.0398828442403
300.0387971678788
300.0372437635216
300.0351512966665
300.032464862405
300.0291479591952
300.0251834038662
300.0205758054116
300.0153537355815
300.0095688615526
300.003293745125
299.9966248761444
299.9896902551179
299.9826707542148
299.9759120432929
299.9701323751478
299.9662803219096
299.964656863815
299.9643350980521
299.9642748969067
299.9643385476883
299.9645609499696
299.9650205988671
299.9657893051098
299.9669420077768
299.9685502915927
299.9706737659964
299.9733565579032
299.9766265045025
299.9804933217803
299.9849460059134
299.9899517076875
299.9954579283969
300.0013966337885
300.0076843880527
300.0142179719253
300.0208665757975
300.0274088744336
300.0333393432677
300.0378308500572
300.0402545843351
300.0409292383662
300.0410112201214
300.0410247201149
300.0409121708878
300.0406029663946
300.0400200825047
300.039086338533
300.0377212441139
300.0358498168294
300.0334118102392
300.0303641628179
300.026680943065
300.0223549459294
300.0174003260815
300.0118534592347
300.0057716536559
299.9992358923831
299.9923601605805
299.9853075705832
299.9783635304095
299.9721454254923
299.9676417357514
299.9654398506149
299.9648834200586
299.9648124929925
299.964845531563
299.9650158932196
299.9653949607913
299.9660518142625
299.9670592135485
299.9684899515607
299.9704069273995
299.972858464253
299.9758782401504
299.9794843487196
299.9836765961018
299.9884344729916
299.9937178289574
299.9994701565881
300.0056196495713
300.0120738518866
300.018711022418
300.0253459918704
300.0315701221165
300.0365891319802
300.0396302062234
300.0406968856929
300.0408248324788
300.0408504605354
300.0407737706745
300.0405307466107
300.0400451049606
300.0392450588828
300.0380508279908
300.0363835937634
300.0341772983851
300.0313827785288
300.0279669923996
300.0239133774003
300.0192244238345
300.0139237503374
300.0080557275033
300.0016869552724
299.9949157333487
299.9878867990727
299.9808357070226
299.9742656177536
299.9691227392453
299.9662415551385
299.9653224850224
299.965214451428
299.9652198256357
299.9653446846625
299.9656530376626
299.9662087015896
299.9670814488207
299.968344831095
299.9700653538627
299.9722957173352
299.9750746241292
299.9784269602912
299.9823615756644
299.9868686746332
299.991919155614
299.9974669760626
300.0034510455022
300.0097898121207
300.0163720996061
300.0230392311185
300.029475457841
300.0349748519274
300.0386479157552
300.0402243696407
300.0404896128626
300.0405123032793
300.0404620183624
300.0402767744387
300.0398794486715
300.0392035939982
300.0381719776973
300.0367042870616
300.0347303390394
300.0321959601487
300.0290625243676
300.0253066714812
300.0209223620677
300.0159234071168
300.0103439257535
300.0042388723842
299.9976925931166
299.9908330525876
299.9838594408345
299.977172318065
299.9716090505413
299.9681457838553
299.966817903357
299.9666092674855
299.9666054020653
299.9666968908656
299.9669469289379
299.9674139134863
299.9681620038059
299.9692628804242
299.9707847080683
299.9727829829332
299.9752996652707
299.9783644308077
299.9819932423414
299.9861854317287
299.9909220704923
299.9961671154988
300.0018693914631
300.0079590532457
300.0143391578104
300.0208729518482
300.0273174671301
300.0331107410612
300.0373407319514
300.0394890040829
300.040013153631
300.0400246630193
300.0400008302371
300.0398578200407
300.0395358270711
300.038971083352
300.0380920542628
300.0368187559631
300.0350764236595
300.0328044372267
300.0299573751927
300.0265042220529
300.0224295348492
300.0177359188642
300.0124455412574
300.0066006422542
300.0002695194774
299.9935603043857
299.9866414002278
299.9798230111272
299.9737826237443
299.9695679132373
299.9676324912673
299.9671932143871
299.9671701970898
299.9672339370763
299.9674310093269
299.9678217567761
299.96846407569
299.9694270908213
299.9707816021194
299.9725874648868
299.9748907624728
299.9777257612711
299.9811146601588
299.9850648415768
299.9895665325725
299.9945926408686
300.0001005900814
300.0060312228121
300.0122996316476
300.0187825843404
300.0252831502034
300.031376081976
300.0361984049924
300.0389808758889
300.0398873283663
300.0399677862256
300.0399386176728
300.0398224805166
300.0395568647157
300.0390781789715
300.0383197118535
300.0372024810811
300.0356486575421
300.0335923946615
300.0309821893051
300.0277801356544
300.023962972793
300.0195245189296
300.0144777318241
300.0088552834362
300.0027127967384
299.9961426435576
299.9892927121287
299.9824115698746
299.9760283560533
299.9711491391536
299.9685591132349
299.9677760922703
299.9677093961522
299.96775685964
299.9679115969186
299.9682404478368
299.9687943090508
299.9696378669469
299.9708427162209
299.9724725329605
299.9745774074992
299.9771957290948
299.9803549926179
299.9840694795699
299.9883375392474
299.9931405887804
299.9984443655331
300.0041988852086
300.0103300196902
300.0167282084588
300.0232300906379
300.0295116802331
300.0348407384083
300.0382822725667
300.0397078003978
300.0399256423277
300.039887248659
300.0397969079796
300.0395737345494
300.0391636348558
300.0385067723315
300.0375281720038
300.0361480669931
300.0342955914124
300.0319129790346
300.02895550296
300.0253925495187
300.021209847418
300.0164115668381
300.0110212326589
300.0050834642157
299.9986754710193
299.9919255117578
299.9850404771949
299.9784342805686
299.9729737047269
299.9696650964088
299.9684274418131
299.9682425008178
299.9682807928687
299.9683995821866
299.9686765543415
299.9691545803752
299.9698928018424
299.9709613347543
299.9724273265445
299.9743452193405
299.9767572039042
299.9796950240664
299.9831785795308
299.9872133042123
299.9917886491987
299.9968782705035
300.0024404592474
300.0084132803036
300.0147024556783
300.0211641832178
300.0275412623114
300.0332679592741
300.0373811451809
300.0393965300129
300.0398641992259
300.0398625236925
300.0397774564587
300.0395820550983
300.0392264458688
300.0386534547933
300.0377951074805
300.0365720233057
300.0349091232949
300.0327430856827
300.0300227553478
300.0267101134911
300.0227830316825
300.0182374599094
300.0130885146968
300.0073714872926
300.0011491053085
299.9945304151673
299.9876940134779
299.9809639144921
299.9750298786096
299.9709742599814
299.9691787585481
299.9687796012894
299.9687883041725
299.9688841612625
299.9691178113961
299.9695334028487
299.9701815144815
299.9711285234293
299.972443597064
299.9741855413956
299.9764010438094
299.9791263943572
299.9823865705984
299.9861927997204
299.9905409787274
299.9954115052943
300.0007702637168
300.006566276934
300.0127190146402
300.0191019822371
300.025509725789
300.0315153585028
300.0362521333432
300.0389113808234
300.039791327246
300.0398617428014
300.0397789403455
300.0396125604489
300.0392954172119
300.0387858252286
300.0380257193369
300.0369394853857
300.0354501035275
300.0334887717756
300.0309970499252
300.0279290435433
300.024254949832
300.0199633875671
300.0150622019331
300.0095785660575
300.0035624061153
299.997103556947
299.9903559484532
299.9835791327086
299.9773079225425
299.9725510419586
299.9700964782148
299.9693523515902
299.9692881442767
299.9693763134117
299.9695681699802
299.9699350851791
299.9705102843671
299.9713521551004
299.9725292934426
299.9741047839152
299.9761310512797
299.9786504760181
299.9816939379087
299.985277932397
299.9894031559758
299.9940547660882
299.999203750888
300.0048069293372
300.010798221164
300.017072126169
300.0234591230896
300.0296277800638
300.0348749696585
300.0382476615038
300.0396320135954
300.0398660831814
300.0398147417086
300.039666936198
300.0393795549742
300.0389168989606
300.0382317764557
300.0372588766532
300.0359227968804
300.0341515205665
300.0318802926911
300.0290536126105
300.0256305462248
300.0215904776426
300.016935220801
300.0116874655428
300.0058898214767
299.9996160315084
299.9929951692309
299.986239950707
299.9797629279605
299.9744087953977
299.9711868362349
299.9700012521006
299.9697966124487
299.9698436927546
299.9700046530269
299.9703311455307
299.9708516904356
299.9716131727047
299.9726758761456
299.9741012465496
299.9759456476684
299.9782595681544
299.981084141273
299.9844453864054
299.9883507585831
299.9927892079948
299.9977332791337
300.0031422015313
300.0089590175975
300.0150944615692
300.0214060741119
300.0276418950507
300.0332635665754
300.0373423339288
300.0393104361802
300.039847429832
300.0398684525675
300.0397445405519
300.0394964305069
300.0390649018605
300.0384270468836
300.0375336788853
300.0363210467732
300.0347201308961
300.0326604538436
300.0300748050034
300.0269079340365
300.0231254016642
300.0187182909548
300.0137038580104
300.0081231653392
300.0020422732065
299.9955709233351
299.9888899084092
299.9823188326803
299.9765224555734
299.972536096874
299.9707797074678
299.9703454512218
299.9703007563247
299.9704224764074
299.9706975148428
299.9711737882363
299.9718800472913
299.9728617700417
299.9741697455863
299.9758549145055
299.9779703658324
299.9805690247178
299.9836938339332
299.9873677376214
299.9915895422184
299.9963349044981
300.0015606618005
300.0072092750682
300.0131997961257
300.0194088220115
300.0256404553584
300.0314857490014
300.0361398833173
300.0388135942158
300.0397315448935
300.0398781692403
300.0398389389523
300.0396472787253
300.0392659175688
300.0386663861479
300.0378162103936
300.0366750758881
300.0351949494316
300.033316896294
300.030969421931
300.028077036384
300.0245776329957
300.0204388375679
300.0156650362186
300.0102956487533
300.0043987744058
299.9980772797568
299.9914915848553
299.9848973673671
299.9788114247514
299.9741870089671
299.9717363883947
299.9709722572568
299.9708512380321
299.9708749062015
299.9710627921179
299.9714586277794
299.9721023915727
299.9730315096222
299.974277641961
299.9758664148944
299.9778277001799
299.9802079777676
299.9830690157541
299.9864697490137
299.9904428701403
299.9949807782116
300.000036220865
300.0055366665978
300.0113948969491
300.0174970480147
300.0236833108741
300.0296535071948
300.0347442265946
300.0381029538798
300.039516081444
300.0398100729597
300.0398457321896
300.039745504315
300.0394763105126
300.0389740233712
300.0381854677321
300.0370651907984
300.0355863360431
300.0337394727999
300.0315174506537
300.0288963117972
300.025812976845
300.0221452388407
300.0177330007212
300.0124701663229
300.006460532857
300.0000883493549
299.9943033648678
299.9885654228013
)
;

boundaryField
{
    inlet
    {
        type            fixedValue;
        value           uniform 300;
    }
    outlet
    {
        type            temperatureOutletNSCBC;
        pInf            101325;
        gamma           1.4;
        etaAc           1;
        fieldInf        1;
        lInf            2.25;
        value           uniform 299.9859738559146;
    }
    frontAndBack
    {
        type            empty;
    }
}


// ************************************************************************* //
