/*--------------------------------*- C++ -*----------------------------------*\
| =========                 |                                                 |
| \\      /  F ield         | OpenFOAM: The Open Source CFD Toolbox           |
|  \\    /   O peration     | Version:  v2012                                 |
|   \\  /    A nd           | Website:  www.openfoam.com                      |
|    \\/     M anipulation  |                                                 |
\*---------------------------------------------------------------------------*/
FoamFile
{
    version     2.0;
    format      ascii;
    class       volVectorField;
    location    "0.0185";
    object      U;
}
// * * * * * * * * * * * * * * * * * * * * * * * * * * * * * * * * * * * * * //

dimensions      [0 1 -1 0 0 0 0];


internalField   nonuniform List<vector> 
1000
(
(-0.003163144890694145 0 0)
(0.02827711278650067 0 0)
(0.03609751386611425 0 0)
(0.05119092252834995 0 0)
(0.06514045669794145 0 0)
(0.07820160811829072 0 0)
(0.08938950069647067 0 0)
(0.09898404799806891 0 0)
(0.1071013812409878 0 0)
(0.1125243669275806 0 0)
(0.1141622441992433 0 0)
(0.114114141076181 0 0)
(0.1133020356794374 0 0)
(0.110903212127769 0 0)
(0.1061882641809037 0 0)
(0.09893762061956542 0 0)
(0.0894075742981565 0 0)
(0.07803104543331638 0 0)
(0.06517695653230132 0 0)
(0.05109896160188873 0 0)
(0.03600628565731902 0 0)
(0.02013768270690602 0 0)
(0.003782080217991862 0 0)
(-0.01274473148028626 0 0)
(-0.0291292489819771 0 0)
(-0.04507016425867587 0 0)
(-0.06028901114057427 0 0)
(-0.07457869362440965 0 0)
(-0.08786498060274263 0 0)
(-0.1001473023717024 0 0)
(-0.1110624020849012 0 0)
(-0.1192315049483505 0 0)
(-0.1232007729733021 0 0)
(-0.1238968425350464 0 0)
(-0.1237932867397647 0 0)
(-0.1231300455027998 0 0)
(-0.1213102272761547 0 0)
(-0.1177220411420646 0 0)
(-0.1118845638596278 0 0)
(-0.1035706859757586 0 0)
(-0.09288626921521814 0 0)
(-0.08021074577463994 0 0)
(-0.06604206272436783 0 0)
(-0.0508461828040993 0 0)
(-0.03498665005813218 0 0)
(-0.01873866403830452 0 0)
(-0.002341607996639201 0 0)
(0.01395932477128358 0 0)
(0.02991091424936889 0 0)
(0.04529829017371557 0 0)
(0.06000164055737244 0 0)
(0.07397293551565087 0 0)
(0.08707332460150129 0 0)
(0.09863050549353462 0 0)
(0.106886405503563 0 0)
(0.1104717453402404 0 0)
(0.1110826577143607 0 0)
(0.1107611826720116 0 0)
(0.1100984391752369 0 0)
(0.1084904980629753 0 0)
(0.1054672153818764 0 0)
(0.1005434791324945 0 0)
(0.09335818490617477 0 0)
(0.08377077493145796 0 0)
(0.07189905976433263 0 0)
(0.05809117918801869 0 0)
(0.04283781551030513 0 0)
(0.02666059588302477 0 0)
(0.01002385898323111 0 0)
(-0.006705206045274944 0 0)
(-0.02325528854588136 0 0)
(-0.03943281134794931 0 0)
(-0.05511439583499082 0 0)
(-0.07024565178463545 0 0)
(-0.08477409422513538 0 0)
(-0.09841693715395004 0 0)
(-0.1101615856546388 0 0)
(-0.1180317997907617 0 0)
(-0.1211547210429773 0 0)
(-0.1215930841469512 0 0)
(-0.1214057545977078 0 0)
(-0.1208213611467683 0 0)
(-0.1194003792650337 0 0)
(-0.116705362245814 0 0)
(-0.1122963880533396 0 0)
(-0.1058064992204893 0 0)
(-0.09702803164177519 0 0)
(-0.08596495779266025 0 0)
(-0.0728395296348337 0 0)
(-0.05805171443393544 0 0)
(-0.04210296629830414 0 0)
(-0.02550706485563187 0 0)
(-0.008713199995520343 0 0)
(0.007940674655840365 0 0)
(0.02423904099831126 0 0)
(0.04008006179152772 0 0)
(0.0554460709416683 0 0)
(0.07029099747109807 0 0)
(0.08431101927317015 0 0)
(0.09654283557158821 0 0)
(0.1050168215785003 0 0)
(0.1085170740646552 0 0)
(0.1090854253065183 0 0)
(0.1087712926015885 0 0)
(0.1081757845929632 0 0)
(0.1068610911224598 0 0)
(0.1044551068358369 0 0)
(0.1005459938165112 0 0)
(0.09476092866991029 0 0)
(0.08682994890665334 0 0)
(0.07663855498353951 0 0)
(0.06426262125852616 0 0)
(0.04997198253129893 0 0)
(0.03419462160226947 0 0)
(0.01744779146126963 0 0)
(0.0002515101423043958 0 0)
(-0.01695396659770947 0 0)
(-0.03386064150102029 0 0)
(-0.05030469194976604 0 0)
(-0.06623466659143465 0 0)
(-0.08158510474461068 0 0)
(-0.09598360690630456 0 0)
(-0.1082647891276631 0 0)
(-0.1163691789935103 0 0)
(-0.1195244023892515 0 0)
(-0.1200175582307325 0 0)
(-0.1197607581179827 0 0)
(-0.1192576257244497 0 0)
(-0.1180633578176239 0 0)
(-0.1158514642764188 0 0)
(-0.1122403930347078 0 0)
(-0.1068727064303521 0 0)
(-0.09947854197179634 0 0)
(-0.08992130314499605 0 0)
(-0.07822718295069314 0 0)
(-0.06459416627121972 0 0)
(-0.04937452597646843 0 0)
(-0.03302828203670349 0 0)
(-0.01605218323444174 0 0)
(0.001100234186605078 0 0)
(0.01808073482545388 0 0)
(0.03467595338860603 0 0)
(0.05079711033555317 0 0)
(0.06636450114003531 0 0)
(0.08103592274329328 0 0)
(0.09382727049686447 0 0)
(0.1028420715147072 0 0)
(0.106748765300637 0 0)
(0.1074307935522165 0 0)
(0.1071760286343504 0 0)
(0.1066237231747122 0 0)
(0.1055091829045126 0 0)
(0.1035081063085995 0 0)
(0.1002606653169075 0 0)
(0.09542195443293391 0 0)
(0.08869800642280673 0 0)
(0.07988928867585694 0 0)
(0.06893063404518325 0 0)
(0.05591680965096574 0 0)
(0.04110447715297688 0 0)
(0.02488663457854468 0 0)
(0.007738668292695089 0 0)
(-0.009857253836480975 0 0)
(-0.02748529996872484 0 0)
(-0.04484132672916434 0 0)
(-0.06173735955308313 0 0)
(-0.07800478318736161 0 0)
(-0.09319847290543987 0 0)
(-0.1061204175049806 0 0)
(-0.1147333805176456 0 0)
(-0.1181885056269651 0 0)
(-0.1187705569689651 0 0)
(-0.118517052761614 0 0)
(-0.1180585917705236 0 0)
(-0.1170278758666098 0 0)
(-0.1151484125001196 0 0)
(-0.1120906551902692 0 0)
(-0.1075257615594891 0 0)
(-0.1011728401269152 0 0)
(-0.09283858278862338 0 0)
(-0.08244658079532879 0 0)
(-0.07005764717278125 0 0)
(-0.05587604600577294 0 0)
(-0.04023473613002409 0 0)
(-0.02355520007695633 0 0)
(-0.006285229733457462 0 0)
(0.0111662126751686 0 0)
(0.02847571741759757 0 0)
(0.04542641123050712 0 0)
(0.06183780904411699 0 0)
(0.0773010762746715 0 0)
(0.09081533408207609 0 0)
(0.1005816340457212 0 0)
(0.1051097083386257 0 0)
(0.105976578769193 0 0)
(0.1058141959548925 0 0)
(0.1052912331198345 0 0)
(0.1043216292078333 0 0)
(0.1026081190029057 0 0)
(0.09983925320111657 0 0)
(0.09570441025393728 0 0)
(0.08991311172313192 0 0)
(0.08222999607878231 0 0)
(0.07251366252278062 0 0)
(0.06074654237154749 0 0)
(0.0470496167929997 0 0)
(0.03167962654014052 0 0)
(0.01500428173331226 0 0)
(-0.00254713677255966 0 0)
(-0.02054448780336918 0 0)
(-0.0386059711394517 0 0)
(-0.05642435435611994 0 0)
(-0.07370859987740334 0 0)
(-0.08990586237410497 0 0)
(-0.1037333557734279 0 0)
(-0.1131236749816317 0 0)
(-0.117072035370546 0 0)
(-0.1177746128008046 0 0)
(-0.1175726919349486 0 0)
(-0.1171305622358658 0 0)
(-0.1162201024965352 0 0)
(-0.1145904305681467 0 0)
(-0.1119502447611284 0 0)
(-0.1080012470966357 0 0)
(-0.1024682034311207 0 0)
(-0.09513404236011729 0 0)
(-0.08586695200313721 0 0)
(-0.07464097389318858 0 0)
(-0.06154962667238941 0 0)
(-0.04680767910425451 0 0)
(-0.03073407053773538 0 0)
(-0.01371232071507637 0 0)
(0.003861148378576864 0 0)
(0.02162027024147026 0 0)
(0.03926036588018193 0 0)
(0.05651035161140001 0 0)
(0.07289668488166194 0 0)
(0.08736172215914635 0 0)
(0.09811055399619541 0 0)
(0.1034763672141117 0 0)
(0.1046355051234033 0 0)
(0.1045802968345794 0 0)
(0.104081552036025 0 0)
(0.1032330059926115 0 0)
(0.1017382765522553 0 0)
(0.09933416441152711 0 0)
(0.09574336351336954 0 0)
(0.09069130887311487 0 0)
(0.08393190507631493 0 0)
(0.07528268747668147 0 0)
(0.0646543945477713 0 0)
(0.05206955445951816 0 0)
(0.03767045256714264 0 0)
(0.02171268758949794 0 0)
(0.004538014273183865 0 0)
(-0.01346837578428593 0 0)
(-0.03191597140475137 0 0)
(-0.05043384834726657 0 0)
(-0.06864185876660958 0 0)
(-0.08590577900019343 0 0)
(-0.1008599821731438 0 0)
(-0.1113446578273047 0 0)
(-0.1160663983314039 0 0)
(-0.1169915499422426 0 0)
(-0.1168656664062603 0 0)
(-0.1164379606202989 0 0)
(-0.115620016369519 0 0)
(-0.1141774493228185 0 0)
(-0.1118566341215739 0 0)
(-0.1083903065088924 0 0)
(-0.1035167196120619 0 0)
(-0.09701086546431571 0 0)
(-0.08871001207367182 0 0)
(-0.07853238868519298 0 0)
(-0.06649227873033867 0 0)
(-0.05270939443597521 0 0)
(-0.03740563242781822 0 0)
(-0.02088302341909288 0 0)
(-0.003487318094772002 0 0)
(0.01442531761459292 0 0)
(0.03251447052634657 0 0)
(0.05045314908951617 0 0)
(0.06773519144998065 0 0)
(0.08326578136263205 0 0)
(0.09520825528381839 0 0)
(0.101691262738708 0 0)
(0.1033456912570337 0 0)
(0.1034042646842629 0 0)
(0.1029569911225825 0 0)
(0.1022146301307664 0 0)
(0.1008990363557344 0 0)
(0.0987831447530312 0 0)
(0.09562307027919771 0 0)
(0.09116740167292335 0 0)
(0.08517285551731785 0 0)
(0.07743603321614177 0 0)
(0.06782249270551526 0 0)
(0.05628588161611048 0 0)
(0.04287971505948473 0 0)
(0.02776122484880332 0 0)
(0.01118007993095508 0 0)
(-0.006548130192996496 0 0)
(-0.02506682342883758 0 0)
(-0.0439935521476363 0 0)
(-0.06290800821268296 0 0)
(-0.08115131019825332 0 0)
(-0.09733255760603395 0 0)
(-0.1091777161462626 0 0)
(-0.1149967847590997 0 0)
(-0.1163153154963635 0 0)
(-0.1162982026940558 0 0)
(-0.1158998478665459 0 0)
(-0.1151759847627341 0 0)
(-0.1138917219252584 0 0)
(-0.1118293580056147 0 0)
(-0.1087506846598371 0 0)
(-0.1044128937650128 0 0)
(-0.09859470624096434 0 0)
(-0.09111947409084951 0 0)
(-0.08187125350239266 0 0)
(-0.07080887015035331 0 0)
(-0.05797845160178624 0 0)
(-0.04351868458557627 0 0)
(-0.0276516485529136 0 0)
(-0.0106588179590827 0 0)
(0.007143533295920892 0 0)
(0.02541911907425383 0 0)
(0.04381611065098338 0 0)
(0.06183658478815045 0 0)
(0.07842006660545012 0 0)
(0.09169215504187343 0 0)
(0.09957530138877059 0 0)
(0.1020350174186494 0 0)
(0.1022343527973787 0 0)
(0.1018851785352033 0 0)
(0.1012315468601882 0 0)
(0.1000743487379031 0 0)
(0.09819902461027398 0 0)
(0.09539147549778605 0 0)
(0.09142627824041646 0 0)
(0.08607052531018997 0 0)
(0.07911339811873207 0 0)
(0.07039422797355538 0 0)
(0.05982003249157793 0 0)
(0.04737789424623313 0 0)
(0.03314432768583931 0 0)
(0.01728499197695891 0 0)
(4.036696507198444e-05 0 0)
(-0.01828924051678783 0 0)
(-0.03734676087349349 0 0)
(-0.05670699206836688 0 0)
(-0.07572897603139993 0 0)
(-0.09308422002168439 0 0)
(-0.1064473763080449 0 0)
(-0.1136969406753667 0 0)
(-0.115690766581301 0 0)
(-0.1158243806972682 0 0)
(-0.1154695333144569 0 0)
(-0.1148539732621734 0 0)
(-0.1137157552246556 0 0)
(-0.1118772329749925 0 0)
(-0.1091268189109822 0 0)
(-0.1052399805369191 0 0)
(-0.1000027287721628 0 0)
(-0.09323394806714981 0 0)
(-0.08479954544541594 0 0)
(-0.07462312261971334 0 0)
(-0.06269779494497583 0 0)
(-0.04909578113607136 0 0)
(-0.03396818341874214 0 0)
(-0.01753088703987191 0 0)
(-4.775981398000228e-05 0 0)
(0.01817419581423749 0 0)
(0.03678625428849638 0 0)
(0.05532540635788231 0 0)
(0.07283612902921967 0 0)
(0.08745924445785369 0 0)
(0.09694148667915996 0 0)
(0.1005567917764653 0 0)
(0.1010085421875458 0 0)
(0.1007735597961302 0 0)
(0.1002122806725053 0 0)
(0.09921245126910702 0 0)
(0.09755767908698725 0 0)
(0.09505544277940535 0 0)
(0.0915040560760387 0 0)
(0.08668679094108982 0 0)
(0.08039603230990715 0 0)
(0.07245859921133203 0 0)
(0.06275167220730135 0 0)
(0.05121495812504777 0 0)
(0.03786230999513478 0 0)
(0.02278803616720542 0 0)
(0.006161942346675669 0 0)
(-0.01177778402057823 0 0)
(-0.03071802258371303 0 0)
(-0.05025543884628624 0 0)
(-0.06980181716771025 0 0)
(-0.08817262934578825 0 0)
(-0.1030931050310044 0 0)
(-0.112046911786691 0 0)
(-0.1150709070109843 0 0)
(-0.1154169119190102 0 0)
(-0.1151515900408733 0 0)
(-0.1146351834228644 0 0)
(-0.113648028032983 0 0)
(-0.1120178025975634 0 0)
(-0.1095569421542017 0 0)
(-0.1060593568417366 0 0)
(-0.1013206041063841 0 0)
(-0.09516156779994338 0 0)
(-0.08744038243029337 0 0)
(-0.07805930954787738 0 0)
(-0.06697464668183099 0 0)
(-0.05420793443335865 0 0)
(-0.03985122899919443 0 0)
(-0.02406100898370942 0 0)
(-0.007047331610499106 0 0)
(0.01092607199474938 0 0)
(0.02953422876430033 0 0)
(0.04835277467120884 0 0)
(0.06657029067039705 0 0)
(0.0824581398795968 0 0)
(0.09363974988473835 0 0)
(0.09875340801757902 0 0)
(0.09967756605236573 0 0)
(0.09957132095106332 0 0)
(0.09911201846569379 0 0)
(0.09827233055372211 0 0)
(0.09682568778662008 0 0)
(0.09459763223282544 0 0)
(0.09140902110086378 0 0)
(0.08706020645230897 0 0)
(0.08135003828514573 0 0)
(0.0741004318682069 0 0)
(0.06517121437572873 0 0)
(0.05447056281810406 0 0)
(0.04196636516523564 0 0)
(0.02769610908450228 0 0)
(0.01176888836905769 0 0)
(-0.005637185961867549 0 0)
(-0.02426454651100163 0 0)
(-0.04375205384537483 0 0)
(-0.0635727116578927 0 0)
(-0.08271859287254066 0 0)
(-0.09908907307912998 0 0)
(-0.1099044024638368 0 0)
(-0.1143238511706311 0 0)
(-0.1150459957146417 0 0)
(-0.1148948169129453 0 0)
(-0.114483357274096 0 0)
(-0.1136529915294946 0 0)
(-0.1122278824524427 0 0)
(-0.1100363413532642 0 0)
(-0.1068893141472316 0 0)
(-0.1025915765891197 0 0)
(-0.0969677427132255 0 0)
(-0.08987429713682962 0 0)
(-0.08120294583364328 0 0)
(-0.07088701540996287 0 0)
(-0.05891185956365394 0 0)
(-0.04532318861877097 0 0)
(-0.03022709592455926 0 0)
(-0.01378340045257073 0 0)
(0.003792016647879979 0 0)
(0.02221129997852177 0 0)
(0.0410901116292404 0 0)
(0.05976838846599891 0 0)
(0.0767482597721664 0 0)
(0.08959755847205959 0 0)
(0.09645396249540299 0 0)
(0.09818135685593928 0 0)
(0.09822802318890585 0 0)
(0.09788544655256244 0 0)
(0.09721180625268022 0 0)
(0.09597166252053387 0 0)
(0.09400437728790839 0 0)
(0.09114616633684189 0 0)
(0.08721174782941601 0 0)
(0.08200927733854173 0 0)
(0.07536360388526166 0 0)
(0.06712779752505968 0 0)
(0.05719037809572677 0 0)
(0.04548622323006762 0 0)
(0.03200873980227123 0 0)
(0.01681652159787904 0 0)
(3.391826104606244e-05 0 0)
(-0.01813657197892595 0 0)
(-0.03738363295115195 0 0)
(-0.05724361370769808 0 0)
(-0.07689066948919145 0 0)
(-0.09451467138026533 0 0)
(-0.1072385190563616 0 0)
(-0.1133741552418011 0 0)
(-0.1147689629281228 0 0)
(-0.1147500062204565 0 0)
(-0.1144442915393343 0 0)
(-0.1137725628599738 0 0)
(-0.1125507158982103 0 0)
(-0.1106163700483424 0 0)
(-0.1077952165170052 0 0)
(-0.1039012553563127 0 0)
(-0.09876244748437304 0 0)
(-0.09223523702157105 0 0)
(-0.084206186257287 0 0)
(-0.07459481356898001 0 0)
(-0.06336202566101785 0 0)
(-0.05051934561499195 0 0)
(-0.03613252976284411 0 0)
(-0.02031797487540015 0 0)
(-0.003246303431560665 0 0)
(0.01483703635649569 0 0)
(0.03358967749975912 0 0)
(0.05247355728758245 0 0)
(0.0702814502682636 0 0)
(0.08467745937521849 0 0)
(0.09337090392023684 0 0)
(0.09633204089210327 0 0)
(0.09660034429322731 0 0)
(0.09638253485884242 0 0)
(0.09586817490275704 0 0)
(0.09483203094510161 0 0)
(0.09311199801475192 0 0)
(0.09055690200320428 0 0)
(0.08699468506104978 0 0)
(0.08224348113041496 0 0)
(0.07613363387416706 0 0)
(0.06851670419948147 0 0)
(0.0592701194168764 0 0)
(0.04830697673782924 0 0)
(0.03558854566961269 0 0)
(0.0211334313651327 0 0)
(0.005021075694784671 0 0)
(-0.01259731757808496 0 0)
(-0.03146711543878281 0 0)
(-0.05118936291093526 0 0)
(-0.07108711189117121 0 0)
(-0.08969319421967668 0 0)
(-0.1042724181008314 0 0)
(-0.1123788761468319 0 0)
(-0.1148246017641561 0 0)
(-0.1150193044125848 0 0)
(-0.1148169818544049 0 0)
(-0.114312135837743 0 0)
(-0.113296192736506 0 0)
(-0.1116192078572787 0 0)
(-0.1091172659443006 0 0)
(-0.1056100930620904 0 0)
(-0.1009270276002129 0 0)
(-0.09492508767854799 0 0)
(-0.08748941682802934 0 0)
(-0.07853195598267598 0 0)
(-0.06799742943987598 0 0)
(-0.0558725218478839 0 0)
(-0.04219164223134109 0 0)
(-0.02703651444488005 0 0)
(-0.01053845935202542 0 0)
(0.007103177669559734 0 0)
(0.0255937362667736 0 0)
(0.04447930224726462 0 0)
(0.06282890660061394 0 0)
(0.07858458159404849 0 0)
(0.08914142220988033 0 0)
(0.09366493724762744 0 0)
(0.09438933996167863 0 0)
(0.09428658575439375 0 0)
(0.09393649461949569 0 0)
(0.09311246050697336 0 0)
(0.09165060841132129 0 0)
(0.08940762878166615 0 0)
(0.08622396107625711 0 0)
(0.08192541033383832 0 0)
(0.07634918524435155 0 0)
(0.06935309201867479 0 0)
(0.06081504526175893 0 0)
(0.05063850647916437 0 0)
(0.03876475125758109 0 0)
(0.02518438299561501 0 0)
(0.009943295439968896 0 0)
(-0.006849088158948163 0 0)
(-0.02499028745752268 0 0)
(-0.04413969434197742 0 0)
(-0.06373337026135763 0 0)
(-0.08262102964671646 0 0)
(-0.09838397931730937 0 0)
(-0.1081496316520123 0 0)
(-0.1118008848496125 0 0)
(-0.1123281995209018 0 0)
(-0.1122046491301851 0 0)
(-0.1118468645267645 0 0)
(-0.1110311385315956 0 0)
(-0.1096090021378163 0 0)
(-0.1074292299921073 0 0)
(-0.104319727462119 0 0)
(-0.1001139601922163 0 0)
(-0.09467233701453452 0 0)
(-0.08788272007856894 0 0)
(-0.07965579412629871 0 0)
(-0.06992827879717663 0 0)
(-0.05867106991131248 0 0)
(-0.04589583136079439 0 0)
(-0.0316563500118393 0 0)
(-0.01604810236233116 0 0)
(0.0007752776692640654 0 0)
(0.01856676010104797 0 0)
(0.03694683060746715 0 0)
(0.05522807167346271 0 0)
(0.07178510718291696 0 0)
(0.08393009867380602 0 0)
(0.09011174430086138 0 0)
(0.0916399978074954 0 0)
(0.09169013540778768 0 0)
(0.09147786989478331 0 0)
(0.090872579380315 0 0)
(0.08967477334901822 0 0)
(0.08775220081111677 0 0)
(0.08495434586621826 0 0)
(0.08111361336758945 0 0)
(0.07607186601991217 0 0)
(0.06969193564692133 0 0)
(0.06185232675845294 0 0)
(0.05244761651816663 0 0)
(0.04140014097174812 0 0)
(0.02867338704136148 0 0)
(0.01428006794237418 0 0)
(-0.001712642503383755 0 0)
(-0.01915951388006734 0 0)
(-0.03778742481471319 0 0)
(-0.05713632751976481 0 0)
(-0.07633197507753582 0 0)
(-0.09340597029507135 0 0)
(-0.1052994833187277 0 0)
(-0.1107276619805415 0 0)
(-0.1119268793710547 0 0)
(-0.111897364091809 0 0)
(-0.1116865260789823 0 0)
(-0.1110722071715385 0 0)
(-0.1098967728495726 0 0)
(-0.1080165367628657 0 0)
(-0.1052641147966273 0 0)
(-0.1014695115023317 0 0)
(-0.09648858414592235 0 0)
(-0.09020764692287875 0 0)
(-0.08253620304168938 0 0)
(-0.07340604587216662 0 0)
(-0.06277760174319198 0 0)
(-0.05064667371235093 0 0)
(-0.03704679818319757 0 0)
(-0.02204831417683617 0 0)
(-0.005770464317397763 0 0)
(0.01158535550872629 0 0)
(0.02970361471268946 0 0)
(0.04804268350272795 0 0)
(0.0653564933378266 0 0)
(0.0791255894150977 0 0)
(0.08714476595507165 0 0)
(0.08984220639573894 0 0)
(0.09012595164042392 0 0)
(0.09004192769331415 0 0)
(0.0896324470774264 0 0)
(0.08868016868560867 0 0)
(0.08704654299366885 0 0)
(0.08458290101463434 0 0)
(0.08112567371330992 0 0)
(0.07651634369790848 0 0)
(0.07061931411999853 0 0)
(0.06331719298216627 0 0)
(0.0545049786520317 0 0)
(0.04409703752827914 0 0)
(0.03204070421213182 0 0)
(0.01832676199738838 0 0)
(0.002994469523290602 0 0)
(-0.01385215766183461 0 0)
(-0.03199744592951034 0 0)
(-0.05105886267738401 0 0)
(-0.07034355039484953 0 0)
(-0.08831751032690514 0 0)
(-0.1020893388663044 0 0)
(-0.1093959701914554 0 0)
(-0.1115480202839292 0 0)
(-0.1116828288194686 0 0)
(-0.1115900678979028 0 0)
(-0.1111491188868837 0 0)
(-0.1102000322799449 0 0)
(-0.1085951223455678 0 0)
(-0.1061737145453052 0 0)
(-0.1027635793562776 0 0)
(-0.09821482514666401 0 0)
(-0.092410510692319 0 0)
(-0.08525799986752926 0 0)
(-0.07668457431463271 0 0)
(-0.0666426149506595 0 0)
(-0.05511658962837127 0 0)
(-0.0421264047894658 0 0)
(-0.02772678451476805 0 0)
(-0.01201120064806904 0 0)
(0.00486163946480275 0 0)
(0.02262517697964569 0 0)
(0.04083272607593315 0 0)
(0.058561388006411 0 0)
(0.07372379215452085 0 0)
(0.08360311285859032 0 0)
(0.08774582074406341 0 0)
(0.08843274014155426 0 0)
(0.08850283501758219 0 0)
(0.088257137863817 0 0)
(0.08754987918627413 0 0)
(0.08619755918634295 0 0)
(0.08406200680416429 0 0)
(0.08098195996501871 0 0)
(0.07679482767033695 0 0)
(0.07136412160308887 0 0)
(0.06457640254653715 0 0)
(0.05632886151270805 0 0)
(0.04653094789082302 0 0)
(0.0351179343257721 0 0)
(0.02206372487448154 0 0)
(0.007387560223752383 0 0)
(-0.008837422909094067 0 0)
(-0.02644802557165351 0 0)
(-0.04512748568034037 0 0)
(-0.06431125269375539 0 0)
(-0.0828338582085465 0 0)
(-0.09822111586649508 0 0)
(-0.1075260721195089 0 0)
(-0.1109457706266319 0 0)
(-0.1114351762603613 0 0)
(-0.1114283264452891 0 0)
(-0.1111386439910937 0 0)
(-0.1104044625411881 0 0)
(-0.1090611847202659 0 0)
(-0.1069569000141512 0 0)
(-0.1039189668421764 0 0)
(-0.0997907674284772 0 0)
(-0.09444982058870334 0 0)
(-0.08780031641811449 0 0)
(-0.07976513968541939 0 0)
(-0.07028923294109959 0 0)
(-0.0593470606732614 0 0)
(-0.04694729289614288 0 0)
(-0.03313267252624607 0 0)
(-0.0179790272787298 0 0)
(-0.001614385980749534 0 0)
(0.01573551851346007 0 0)
(0.03370127622720549 0 0)
(0.05159231613853233 0 0)
(0.06778624617994408 0 0)
(0.07946328116300283 0 0)
(0.08524016725716341 0 0)
(0.08671442785066794 0 0)
(0.08688745791086606 0 0)
(0.08678826969503045 0 0)
(0.08630545406774057 0 0)
(0.08523246322412453 0 0)
(0.08342083031858649 0 0)
(0.08070963738719868 0 0)
(0.07693586355347155 0 0)
(0.07195922067895442 0 0)
(0.06566638730757086 0 0)
(0.05795780517078848 0 0)
(0.04874286315245301 0 0)
(0.03794905859818063 0 0)
(0.02553603753394745 0 0)
(0.01150594694353847 0 0)
(-0.004091092418021267 0 0)
(-0.02113172823955905 0 0)
(-0.03935519474736859 0 0)
(-0.05829789501757852 0 0)
(-0.07707691243069142 0 0)
(-0.09371127917585657 0 0)
(-0.1050579466474765 0 0)
(-0.1100483407323907 0 0)
(-0.1111660427504972 0 0)
(-0.1112053218603473 0 0)
(-0.1110673789837628 0 0)
(-0.1105310208330715 0 0)
(-0.1094342387300329 0 0)
(-0.1076290543364988 0 0)
(-0.1049425409626746 0 0)
(-0.1012134371182382 0 0)
(-0.09631612483511399 0 0)
(-0.09015359688892856 0 0)
(-0.08264497225109493 0 0)
(-0.07372658478117733 0 0)
(-0.06336092840757186 0 0)
(-0.05154357872858913 0 0)
(-0.03830532160653207 0 0)
(-0.02371120212143531 0 0)
(-0.007869456753023103 0 0)
(0.009033776377340347 0 0)
(0.02668734583585677 0 0)
(0.04453869306144734 0 0)
(0.06137086116000819 0 0)
(0.07471748025539415 0 0)
(0.08228204475888903 0 0)
(0.08486824201147303 0 0)
(0.08515552457472542 0 0)
(0.08523269116749625 0 0)
(0.08494505237102264 0 0)
(0.08413843476164809 0 0)
(0.08264198419036765 0 0)
(0.08029421274058418 0 0)
(0.0769234307176369 0 0)
(0.07238300355942603 0 0)
(0.0665615938598479 0 0)
(0.05936667487215513 0 0)
(0.05071121323309342 0 0)
(0.04051763038566465 0 0)
(0.0287323162637423 0 0)
(0.01533953932540326 0 0)
(0.000370167629861657 0 0)
(-0.01608265396932213 0 0)
(-0.03381359627005474 0 0)
(-0.05243571027634783 0 0)
(-0.07124111387912936 0 0)
(-0.08870748395703529 0 0)
(-0.1019801314847039 0 0)
(-0.1088126639836825 0 0)
(-0.110825574551986 0 0)
(-0.1109606120720566 0 0)
(-0.1109662636217316 0 0)
(-0.1106085989113542 0 0)
(-0.1097560584178497 0 0)
(-0.1082447476003703 0 0)
(-0.1059018813409968 0 0)
(-0.1025564681250394 0 0)
(-0.09807701946397371 0 0)
(-0.09236924966428418 0 0)
(-0.08535691460863527 0 0)
(-0.07697504653931171 0 0)
(-0.06717664962560198 0 0)
(-0.0559416977089609 0 0)
(-0.04328357504451533 0 0)
(-0.02925193601643747 0 0)
(-0.01393643164034769 0 0)
(0.002506918273400195 0 0)
(0.01980447271335753 0 0)
(0.03749958069394174 0 0)
(0.05469160474217234 0 0)
(0.06939467371794886 0 0)
(0.07883359443212457 0 0)
(0.08269300560568199 0 0)
(0.08342494228407131 0 0)
(0.08356829038267108 0 0)
(0.08343421186379534 0 0)
(0.08289037990911273 0 0)
(0.08171559898868146 0 0)
(0.07973752777238434 0 0)
(0.07677284041217432 0 0)
(0.07266330760288851 0 0)
(0.06729367989903157 0 0)
(0.06057843802789709 0 0)
(0.05244362850449857 0 0)
(0.04282084410530364 0 0)
(0.03165170419256302 0 0)
(0.01890082884562669 0 0)
(0.004573300237964983 0 0)
(-0.01126956389429579 0 0)
(-0.02847076151343777 0 0)
(-0.04670191975035584 0 0)
(-0.06538282720131407 0 0)
(-0.08336892551763825 0 0)
(-0.09826011786868701 0 0)
(-0.1071255276876864 0 0)
(-0.1102690242287599 0 0)
(-0.1107761142331699 0 0)
(-0.1107876265579527 0 0)
(-0.1105820902899183 0 0)
(-0.1099610140413206 0 0)
(-0.1087492450803939 0 0)
(-0.1067611453568698 0 0)
(-0.1038056404409814 0 0)
(-0.09973505938136236 0 0)
(-0.09445362082605466 0 0)
(-0.08789634724957326 0 0)
(-0.08001067581630257 0 0)
(-0.07075328674052286 0 0)
(-0.06009549523014335 0 0)
(-0.04803131434492575 0 0)
(-0.0345862921541598 0 0)
(-0.01982442135373619 0 0)
(-0.003868750093073367 0 0)
(0.01304916552504356 0 0)
(0.03053785436310666 0 0)
(0.04788373733388934 0 0)
(0.06353333182658155 0 0)
(0.07485108238144003 0 0)
(0.08028560579047951 0 0)
(0.08174617384572354 0 0)
(0.0817869253273304 0 0)
(0.0818260025178702 0 0)
(0.08148343999917239 0 0)
(0.08061491693547342 0 0)
(0.07902573519893434 0 0)
(0.07650178187368589 0 0)
(0.07284836890325645 0 0)
(0.06792992577416253 0 0)
(0.06166526422210444 0 0)
(0.05400139786420532 0 0)
(0.04489287357946597 0 0)
(0.03429550839280875 0 0)
(0.02217147712432087 0 0)
(0.008503886168785101 0 0)
(-0.006684016419656107 0 0)
(-0.0232949472505071 0 0)
(-0.04107918268237588 0 0)
(-0.05955156116777126 0 0)
(-0.07780221785250334 0 0)
(-0.09389632393101614 0 0)
(-0.1048619128175997 0 0)
(-0.1095718869327412 0 0)
(-0.1106206815663842 0 0)
(-0.110565713527225 0 0)
(-0.1104586557047259 0 0)
(-0.1100026767930308 0 0)
(-0.1090654247291501 0 0)
(-0.1074479538118604 0 0)
(-0.1049295749046745 0 0)
(-0.1013155648800939 0 0)
(-0.09647605199361312 0 0)
(-0.09034260905224212 0 0)
(-0.08288598830060243 0 0)
(-0.07409422990031392 0 0)
(-0.06395916544372354 0 0)
(-0.05247414317770776 0 0)
(-0.03964289646374178 0 0)
(-0.02549378335300383 0 0)
(-0.01009984524618239 0 0)
(0.006368352337767655 0 0)
(0.02357832198960623 0 0)
(0.04095386321353073 0 0)
(0.0572945720779228 0 0)
(0.07027456967889076 0 0)
(0.0775950730305921 0 0)
(0.07992638375899896 0 0)
(0.08021289642176412 0 0)
(0.08013336861767366 0 0)
(0.07988433769460765 0 0)
(0.07924999595049713 0 0)
(0.07803462907244518 0 0)
(0.07599800531611449 0 0)
(0.07288975792275061 0 0)
(0.06850607879124584 0 0)
(0.06272075829382134 0 0)
(0.05548275925522991 0 0)
(0.04679070195764854 0 0)
(0.03665802236698559 0 0)
(0.0250854376012336 0 0)
(0.01205588328335956 0 0)
(-0.002442316364817183 0 0)
(-0.0183760154832368 0 0)
(-0.03559302317990971 0 0)
(-0.05372259847081701 0 0)
(-0.07205067724046749 0 0)
(-0.08905016652446643 0 0)
(-0.1019379234116271 0 0)
(-0.1086211268557958 0 0)
(-0.1104693901450079 0 0)
(-0.1106072544544686 0 0)
(-0.1103879206148242 0 0)
(-0.1099640025624376 0 0)
(-0.1091689923505818 0 0)
(-0.1078523167001828 0 0)
(-0.1057951547035963 0 0)
(-0.102745755815666 0 0)
(-0.09848097306986735 0 0)
(-0.09285098336502093 0 0)
(-0.08579925284636043 0 0)
(-0.07735471039160387 0 0)
(-0.06759203178373366 0 0)
(-0.05657710009092105 0 0)
(-0.0443315446564224 0 0)
(-0.03084258234492971 0 0)
(-0.01610671615015839 0 0)
(-0.0002006990950046529 0 0)
(0.01662399995963772 0 0)
(0.0338887267247165 0 0)
(0.05066393493716954 0 0)
(0.06496575670793198 0 0)
(0.07429415232887192 0 0)
(0.07809474300908074 0 0)
(0.07878521677101523 0 0)
(0.07865501138659226 0 0)
(0.07837119087137884 0 0)
(0.07773255688322754 0 0)
(0.07663657769911739 0 0)
(0.07494425388122952 0 0)
(0.07243241595766348 0 0)
(0.06881707837167957 0 0)
(0.06381715021235317 0 0)
(0.05721852488432177 0 0)
(0.04891898259670017 0 0)
(0.03895657325103027 0 0)
(0.0275181997976877 0 0)
(0.01487751649422888 0 0)
(0.001182010677050232 0 0)
(-0.01368098513908235 0 0)
(-0.03022666815675505 0 0)
(-0.0473956617915638 0 0)
(-0.06806268049589359 0 0)
)
;

boundaryField
{
    inlet
    {
        type            zeroGradient;
    }
    outlet
    {
        type            velocityOutletNSCBCx;
        pInf            101325;
        gamma           1.4;
        etaAc           1;
        fieldInf        (-1 0 0);
        lInf            2.25;
        value           uniform (-0.07583833708743144 0 0);
    }
    frontAndBack
    {
        type            empty;
    }
}


// ************************************************************************* //
