/*--------------------------------*- C++ -*----------------------------------*\
| =========                 |                                                 |
| \\      /  F ield         | OpenFOAM: The Open Source CFD Toolbox           |
|  \\    /   O peration     | Version:  v2012                                 |
|   \\  /    A nd           | Website:  www.openfoam.com                      |
|    \\/     M anipulation  |                                                 |
\*---------------------------------------------------------------------------*/
FoamFile
{
    version     2.0;
    format      ascii;
    class       volVectorField;
    location    "0.0185";
    object      UMean;
}
// * * * * * * * * * * * * * * * * * * * * * * * * * * * * * * * * * * * * * //

dimensions      [0 1 -1 0 0 0 0];


internalField   nonuniform List<vector> 
1000
(
(0.0002619740321175249 0 0)
(0.0002306355252242578 0 0)
(0.0002298362622643583 0 0)
(0.0002114859937167151 0 0)
(0.0001902371265950582 0 0)
(0.0001548056331687868 0 0)
(0.0001193827714021858 0 0)
(7.661407629402169e-05 0 0)
(3.399155805979359e-05 0 0)
(-1.264542469981801e-05 0 0)
(-6.044916010910418e-05 0 0)
(-0.0001094982518808103 0 0)
(-0.0001583714201891382 0 0)
(-0.0002065492812852017 0 0)
(-0.0002534139040283989 0 0)
(-0.0002977360962656753 0 0)
(-0.0003388033201435223 0 0)
(-0.0003755325153183826 0 0)
(-0.0004074925122720639 0 0)
(-0.0004339005371914359 0 0)
(-0.0004545088440003997 0 0)
(-0.000468563390990925 0 0)
(-0.000476846118648903 0 0)
(-0.0004782581148107808 0 0)
(-0.0004728199168341673 0 0)
(-0.0004609867963545318 0 0)
(-0.0004426725115618354 0 0)
(-0.0004184081696938061 0 0)
(-0.000388466361182033 0 0)
(-0.0003532803195239835 0 0)
(-0.0003132213188781237 0 0)
(-0.0002691582822965333 0 0)
(-0.0002223822328738284 0 0)
(-0.0001747026977092976 0 0)
(-0.000126513876826976 0 0)
(-7.864543614629599e-05 0 0)
(-3.158254336447958e-05 0 0)
(1.437830368795225e-05 0 0)
(5.822456541299034e-05 0 0)
(9.91746495594602e-05 0 0)
(0.0001363320314851487 0 0)
(0.0001687104676594565 0 0)
(0.0001957965765078607 0 0)
(0.0002168912709699809 0 0)
(0.000232294939065276 0 0)
(0.0002403423108880059 0 0)
(0.0002422541746404896 0 0)
(0.0002377736647866433 0 0)
(0.0002266883401108212 0 0)
(0.0002094225906594805 0 0)
(0.0001860537464658875 0 0)
(0.000156860357795582 0 0)
(0.0001221199777528072 0 0)
(8.226701261566543e-05 0 0)
(3.805177758673853e-05 0 0)
(-8.768550467799637e-06 0 0)
(-5.707710182359363e-05 0 0)
(-0.0001046309346476509 0 0)
(-0.0001524042425842981 0 0)
(-0.0001998896829876483 0 0)
(-0.000246364711453197 0 0)
(-0.0002914022390637999 0 0)
(-0.0003339545683869847 0 0)
(-0.0003730384596603306 0 0)
(-0.0004078174321308936 0 0)
(-0.0004373401034805806 0 0)
(-0.0004610719534380749 0 0)
(-0.0004781157081577298 0 0)
(-0.0004892329733399282 0 0)
(-0.0004935109602084613 0 0)
(-0.0004907811303775416 0 0)
(-0.0004816765096913998 0 0)
(-0.0004659386244590762 0 0)
(-0.0004440609484265948 0 0)
(-0.0004160472957702984 0 0)
(-0.0003823536744907687 0 0)
(-0.0003432284358643027 0 0)
(-0.0003000326457019437 0 0)
(-0.0002541421715401394 0 0)
(-0.0002081059628751795 0 0)
(-0.0001607777364734758 0 0)
(-0.0001143666685846784 0 0)
(-6.831751039690748e-05 0 0)
(-2.323379877022485e-05 0 0)
(2.027517278717638e-05 0 0)
(6.136895470143957e-05 0 0)
(9.945302422043916e-05 0 0)
(0.000133406609267443 0 0)
(0.000162606907407775 0 0)
(0.0001860961352100639 0 0)
(0.0002037581154746341 0 0)
(0.0002147047603622279 0 0)
(0.0002185357728817346 0 0)
(0.0002161373684070063 0 0)
(0.0002070258557721736 0 0)
(0.0001915368212202178 0 0)
(0.0001697778915569449 0 0)
(0.0001419789895318146 0 0)
(0.0001082057339463014 0 0)
(6.910723821335852e-05 0 0)
(2.540722996138522e-05 0 0)
(-2.083123526607377e-05 0 0)
(-6.879793708261482e-05 0 0)
(-0.0001155964914633051 0 0)
(-0.0001632501463170016 0 0)
(-0.0002102366192154217 0 0)
(-0.0002566612937756132 0 0)
(-0.0003018372652900503 0 0)
(-0.0003451162973677965 0 0)
(-0.0003855496252374467 0 0)
(-0.000422252191893658 0 0)
(-0.0004543671309086902 0 0)
(-0.0004810219826981309 0 0)
(-0.0005016698909134735 0 0)
(-0.0005153659161019947 0 0)
(-0.0005233191975329145 0 0)
(-0.0005236599379475158 0 0)
(-0.0005172462231473231 0 0)
(-0.0005040694611527022 0 0)
(-0.000484416198981161 0 0)
(-0.0004582783858580893 0 0)
(-0.0004262318490759772 0 0)
(-0.0003884474060591321 0 0)
(-0.0003464110356951786 0 0)
(-0.000301612898669035 0 0)
(-0.0002566465220434144 0 0)
(-0.0002103579405732583 0 0)
(-0.0001651437056401955 0 0)
(-0.0001196942625424485 0 0)
(-7.550215916096666e-05 0 0)
(-3.232424749691916e-05 0 0)
(8.631996103237887e-06 0 0)
(4.704843131227738e-05 0 0)
(8.195295709426826e-05 0 0)
(0.0001125823987753776 0 0)
(0.000138125895677304 0 0)
(0.0001578195329128081 0 0)
(0.000171859340315649 0 0)
(0.0001779413198430962 0 0)
(0.0001778621587825546 0 0)
(0.000171071736056023 0 0)
(0.0001574282480771825 0 0)
(0.0001373496166547128 0 0)
(0.0001108738693099051 0 0)
(7.828587548639768e-05 0 0)
(4.004140551901173e-05 0 0)
(-2.869084413849294e-06 0 0)
(-4.86902523499676e-05 0 0)
(-9.588469317674457e-05 0 0)
(-0.0001430479245576312 0 0)
(-0.0001901474998793938 0 0)
(-0.000236724359840342 0 0)
(-0.0002832331645315107 0 0)
(-0.0003284604158188581 0 0)
(-0.0003722458960726723 0 0)
(-0.0004137225401299597 0 0)
(-0.0004518477519041948 0 0)
(-0.0004860241794931289 0 0)
(-0.0005151313237229285 0 0)
(-0.0005388678233602837 0 0)
(-0.0005555026944619986 0 0)
(-0.0005669660650568076 0 0)
(-0.0005706305505364637 0 0)
(-0.0005671776842780877 0 0)
(-0.0005568129097729046 0 0)
(-0.0005395674144365954 0 0)
(-0.0005155817627713811 0 0)
(-0.0004852108872734645 0 0)
(-0.0004490012873301528 0 0)
(-0.000408129707774353 0 0)
(-0.0003645571787814316 0 0)
(-0.0003200738482790514 0 0)
(-0.0002757963188209373 0 0)
(-0.0002307036577384675 0 0)
(-0.0001861070434106973 0 0)
(-0.0001426030177229038 0 0)
(-9.985009007282388e-05 0 0)
(-5.90310866299516e-05 0 0)
(-2.051156207427907e-05 0 0)
(1.496913284142363e-05 0 0)
(4.6641987494937e-05 0 0)
(7.374936301555586e-05 0 0)
(9.537815750049864e-05 0 0)
(0.0001117192181596891 0 0)
(0.0001203758438489214 0 0)
(0.0001227373888216863 0 0)
(0.0001184567514554119 0 0)
(0.0001070113181099573 0 0)
(8.883888523125839e-05 0 0)
(6.388943559080385e-05 0 0)
(3.27101833036223e-05 0 0)
(-4.584699857727494e-06 0 0)
(-4.66258376466831e-05 0 0)
(-9.208897276835488e-05 0 0)
(-0.0001384708752239437 0 0)
(-0.0001863705299652263 0 0)
(-0.0002323429516527446 0 0)
(-0.0002791266648669091 0 0)
(-0.0003254777960900974 0 0)
(-0.0003709404176560182 0 0)
(-0.000415035221311039 0 0)
(-0.0004573049644841016 0 0)
(-0.000496679404135312 0 0)
(-0.0005324827405873866 0 0)
(-0.0005637279124504961 0 0)
(-0.0005899638868652387 0 0)
(-0.0006097772567124027 0 0)
(-0.0006238263749054229 0 0)
(-0.0006311278852862723 0 0)
(-0.0006308818525669424 0 0)
(-0.0006235356276946157 0 0)
(-0.0006090411076750069 0 0)
(-0.0005874669513978527 0 0)
(-0.0005590594410546692 0 0)
(-0.0005245355523459069 0 0)
(-0.0004849471902162413 0 0)
(-0.0004424991267844998 0 0)
(-0.0003986613419787788 0 0)
(-0.0003557745914983783 0 0)
(-0.0003108409935911289 0 0)
(-0.0002674702078598184 0 0)
(-0.0002243433398227495 0 0)
(-0.0001822450319581522 0 0)
(-0.000141530351120984 0 0)
(-0.0001029762668501654 0 0)
(-6.72134524633717e-05 0 0)
(-3.472035871936475e-05 0 0)
(-6.455395785936797e-06 0 0)
(1.696787843868098e-05 0 0)
(3.476453297287214e-05 0 0)
(4.684634699268893e-05 0 0)
(5.104820210927053e-05 0 0)
(4.918061010206177e-05 0 0)
(4.01325844955932e-05 0 0)
(2.413795641108627e-05 0 0)
(1.046650848577455e-06 0 0)
(-2.861376726122894e-05 0 0)
(-6.465708755411041e-05 0 0)
(-0.0001058501672047014 0 0)
(-0.0001507661770523124 0 0)
(-0.0001968179890119537 0 0)
(-0.0002444654492024331 0 0)
(-0.00029027358945286 0 0)
(-0.0003372582926030241 0 0)
(-0.0003832097084404482 0 0)
(-0.0004290350687443995 0 0)
(-0.000473317114575635 0 0)
(-0.0005162162692355936 0 0)
(-0.0005566670213320614 0 0)
(-0.0005938631141165271 0 0)
(-0.0006270013731089819 0 0)
(-0.0006553140106377531 0 0)
(-0.0006782449651151919 0 0)
(-0.0006942847006425435 0 0)
(-0.0007052452771568392 0 0)
(-0.0007083276838049867 0 0)
(-0.0007040461271297868 0 0)
(-0.0006924699522624716 0 0)
(-0.0006735588335673713 0 0)
(-0.0006475337239125948 0 0)
(-0.0006147886139784523 0 0)
(-0.0005767542341994396 0 0)
(-0.0005353079951900349 0 0)
(-0.0004924804230026425 0 0)
(-0.0004498806687038516 0 0)
(-0.0004066734172764976 0 0)
(-0.000363674940863339 0 0)
(-0.0003208835681403113 0 0)
(-0.0002794355203435597 0 0)
(-0.0002389100809286816 0 0)
(-0.0002003494847286832 0 0)
(-0.0001643914405782817 0 0)
(-0.000131347844503406 0 0)
(-0.0001021503561157795 0 0)
(-7.726075431542772e-05 0 0)
(-5.797334745815969e-05 0 0)
(-4.338614003365107e-05 0 0)
(-3.711139291823403e-05 0 0)
(-3.665616019469642e-05 0 0)
(-4.315838225163272e-05 0 0)
(-5.683430889784698e-05 0 0)
(-7.781575253522615e-05 0 0)
(-0.0001057360257124733 0 0)
(-0.0001402389439106284 0 0)
(-0.0001804435293938065 0 0)
(-0.0002246305263640029 0 0)
(-0.0002706678005904806 0 0)
(-0.0003172873282146658 0 0)
(-0.000364549043389808 0 0)
(-0.0004104357003473629 0 0)
(-0.0004564409565891921 0 0)
(-0.000502374142994013 0 0)
(-0.0005469937920169267 0 0)
(-0.0005903056016289825 0 0)
(-0.0006315903384399122 0 0)
(-0.0006701153287787304 0 0)
(-0.0007048297204125696 0 0)
(-0.0007350946613689479 0 0)
(-0.0007604390677697434 0 0)
(-0.0007790417357038758 0 0)
(-0.0007929717175755718 0 0)
(-0.0007992935408068566 0 0)
(-0.000798017648711008 0 0)
(-0.0007895169251660897 0 0)
(-0.0007734287036400074 0 0)
(-0.000749991904262197 0 0)
(-0.0007193721146502045 0 0)
(-0.0006830383836684385 0 0)
(-0.0006427062665874071 0 0)
(-0.0006009488724137027 0 0)
(-0.0005584071690786173 0 0)
(-0.0005173294684488027 0 0)
(-0.0004738590312549984 0 0)
(-0.0004320324435832125 0 0)
(-0.0003908904344120267 0 0)
(-0.000350834079458187 0 0)
(-0.0003122031372657301 0 0)
(-0.0002760608435986484 0 0)
(-0.0002427093574415855 0 0)
(-0.0002127060736191793 0 0)
(-0.0001867134702077991 0 0)
(-0.0001657675016411868 0 0)
(-0.0001497056408691236 0 0)
(-0.000140537567387304 0 0)
(-0.0001382363948900981 0 0)
(-0.0001422846804596867 0 0)
(-0.000153649082283859 0 0)
(-0.0001722682359172522 0 0)
(-0.0001982124982073562 0 0)
(-0.0002310435042594862 0 0)
(-0.0002699085697361499 0 0)
(-0.0003133115410310245 0 0)
(-0.0003591268687468159 0 0)
(-0.0004051735298180204 0 0)
(-0.000453037197166678 0 0)
(-0.0004980878355253976 0 0)
(-0.0005445873746889649 0 0)
(-0.0005902877626755367 0 0)
(-0.000635373925533342 0 0)
(-0.0006789907847438713 0 0)
(-0.0007209401893666264 0 0)
(-0.0007606124758298852 0 0)
(-0.0007967594624028084 0 0)
(-0.0008288654939416475 0 0)
(-0.0008560801481164166 0 0)
(-0.0008778461780404977 0 0)
(-0.0008930638984172047 0 0)
(-0.0009031337226093187 0 0)
(-0.0009050210409674991 0 0)
(-0.0008996393712110235 0 0)
(-0.0008864261566521875 0 0)
(-0.000865814682958204 0 0)
(-0.0008376755791955732 0 0)
(-0.0008031888608217888 0 0)
(-0.0007642246892224422 0 0)
(-0.0007233566171022152 0 0)
(-0.0006815417491125514 0 0)
(-0.0006410197905755046 0 0)
(-0.0005985144919517094 0 0)
(-0.0005574517482120142 0 0)
(-0.0005163953079070498 0 0)
(-0.0004768650745182629 0 0)
(-0.0004383372629748571 0 0)
(-0.0004019993698466295 0 0)
(-0.0003683394378322386 0 0)
(-0.0003378313499013905 0 0)
(-0.0003109043879521772 0 0)
(-0.0002884357694587009 0 0)
(-0.0002713576180241004 0 0)
(-0.0002590759905266159 0 0)
(-0.0002551757864130138 0 0)
(-0.0002570875458290492 0 0)
(-0.0002659980834776168 0 0)
(-0.0002822376187860972 0 0)
(-0.0003059686765719922 0 0)
(-0.0003369256471816412 0 0)
(-0.0003742277816830521 0 0)
(-0.0004166424002149188 0 0)
(-0.0004619414204957411 0 0)
(-0.0005080688577835993 0 0)
(-0.0005549115606314582 0 0)
(-0.0006014342727777428 0 0)
(-0.0006472095399042149 0 0)
(-0.0006927760673886369 0 0)
(-0.0007381252401703902 0 0)
(-0.0007821585143311019 0 0)
(-0.0008245516919597258 0 0)
(-0.0008650769900817494 0 0)
(-0.0009026694701040016 0 0)
(-0.000936352347035997 0 0)
(-0.000965388294598099 0 0)
(-0.0009896699720615819 0 0)
(-0.001006847078647405 0 0)
(-0.001020021323128402 0 0)
(-0.001025032850712763 0 0)
(-0.001022529009719971 0 0)
(-0.001012411259902009 0 0)
(-0.0009945942429243327 0 0)
(-0.0009691856669938489 0 0)
(-0.0009368873797459324 0 0)
(-0.0008994627777123621 0 0)
(-0.0008594832868209076 0 0)
(-0.0008187428619016818 0 0)
(-0.0007778612963810806 0 0)
(-0.0007379619245422891 0 0)
(-0.0006962255868625212 0 0)
(-0.0006558188808174723 0 0)
(-0.0006165850063365151 0 0)
(-0.0005783906894911439 0 0)
(-0.0005418578737961106 0 0)
(-0.0005078563145320941 0 0)
(-0.0004769969091960811 0 0)
(-0.0004493228616354389 0 0)
(-0.0004256604595557042 0 0)
(-0.0004071215689961094 0 0)
(-0.0003930853235597015 0 0)
(-0.0003868732221119773 0 0)
(-0.0003868800665822986 0 0)
(-0.0003932990140823329 0 0)
(-0.0004072807619664254 0 0)
(-0.0004285325953114896 0 0)
(-0.00045744861160947 0 0)
(-0.0004930201817252507 0 0)
(-0.0005341592334561326 0 0)
(-0.0005787672049171424 0 0)
(-0.0006249374893667184 0 0)
(-0.0006708785359414309 0 0)
(-0.0007187185439269554 0 0)
(-0.0007633041057110397 0 0)
(-0.0008093051374902705 0 0)
(-0.0008545874435411551 0 0)
(-0.0008990809705361146 0 0)
(-0.000941910193271605 0 0)
(-0.0009830444843155889 0 0)
(-0.001021796664638752 0 0)
(-0.001057070897657241 0 0)
(-0.001087805653631665 0 0)
(-0.001113941639264731 0 0)
(-0.001134053041407786 0 0)
(-0.00114849505675885 0 0)
(-0.001157081768829551 0 0)
(-0.001157554374677554 0 0)
(-0.001150554004999117 0 0)
(-0.001135593475815691 0 0)
(-0.0011130370723785 0 0)
(-0.001083185183361855 0 0)
(-0.001047506542477919 0 0)
(-0.001008558520099487 0 0)
(-0.0009686609475885001 0 0)
(-0.0009281367330755675 0 0)
(-0.0008893343416131479 0 0)
(-0.0008478467485880451 0 0)
(-0.0008083383484203369 0 0)
(-0.0007690641122183256 0 0)
(-0.0007312507431574827 0 0)
(-0.0006947504363984687 0 0)
(-0.0006603445775783177 0 0)
(-0.0006290258825945797 0 0)
(-0.0006009027433357401 0 0)
(-0.000576232364952723 0 0)
(-0.0005561073009169033 0 0)
(-0.0005412796529935883 0 0)
(-0.0005314871301417984 0 0)
(-0.0005302021400487248 0 0)
(-0.0005345215969837252 0 0)
(-0.0005461170258778442 0 0)
(-0.0005649777447472344 0 0)
(-0.0005915202772295956 0 0)
(-0.0006252090658635754 0 0)
(-0.0006648761194178817 0 0)
(-0.0007086048814429566 0 0)
(-0.000754423910493977 0 0)
(-0.0008003640512767269 0 0)
(-0.0008473726866544519 0 0)
(-0.0008931152496708697 0 0)
(-0.0009386884061237576 0 0)
(-0.0009837081512733582 0 0)
(-0.001028510456002588 0 0)
(-0.001071822459262892 0 0)
(-0.001113370670244553 0 0)
(-0.001152931340100234 0 0)
(-0.001189689073947592 0 0)
(-0.001222103470859563 0 0)
(-0.001249818643069265 0 0)
(-0.001272662267529175 0 0)
(-0.001288318654622594 0 0)
(-0.001300211437344983 0 0)
(-0.001303686904856168 0 0)
(-0.001299473645486293 0 0)
(-0.001287563603780678 0 0)
(-0.001267726184183656 0 0)
(-0.001240557188260245 0 0)
(-0.001206881046883419 0 0)
(-0.001169188840964582 0 0)
(-0.001129876813303656 0 0)
(-0.00109033932334163 0 0)
(-0.001050932223499414 0 0)
(-0.001012160883324994 0 0)
(-0.0009718552272173325 0 0)
(-0.0009329623839405423 0 0)
(-0.000895364981177014 0 0)
(-0.0008589987352761676 0 0)
(-0.0008243135964927097 0 0)
(-0.0007923887822508963 0 0)
(-0.0007637868099241936 0 0)
(-0.0007384597516740208 0 0)
(-0.0007167944016173867 0 0)
(-0.000700777870047295 0 0)
(-0.00068872058743537 0 0)
(-0.0006854953272539341 0 0)
(-0.0006878389975063144 0 0)
(-0.0006968590672220329 0 0)
(-0.0007134198206205643 0 0)
(-0.0007373841335288006 0 0)
(-0.000768937151259652 0 0)
(-0.0008068972968586731 0 0)
(-0.0008494856724757269 0 0)
(-0.0008946561985192235 0 0)
(-0.0009406936591053903 0 0)
(-0.0009865439753908628 0 0)
(-0.001033882257409082 0 0)
(-0.001078037290298846 0 0)
(-0.001123353377279769 0 0)
(-0.001168102529931489 0 0)
(-0.001211763030680548 0 0)
(-0.00125378333472048 0 0)
(-0.001293748316427362 0 0)
(-0.001331599614643383 0 0)
(-0.001365647948802687 0 0)
(-0.001394775910724506 0 0)
(-0.001419567821921713 0 0)
(-0.001437766089365888 0 0)
(-0.001450899896730496 0 0)
(-0.001457732092008862 0 0)
(-0.001456282223544145 0 0)
(-0.00144736035469875 0 0)
(-0.001430301048460906 0 0)
(-0.001405714988464411 0 0)
(-0.00137428898266649 0 0)
(-0.001337849786271519 0 0)
(-0.001299288566221244 0 0)
(-0.00126030732494816 0 0)
(-0.001220852146979125 0 0)
(-0.001183283602614579 0 0)
(-0.001142732179627124 0 0)
(-0.001104497224740329 0 0)
(-0.001066617079933003 0 0)
(-0.001030330038567084 0 0)
(-0.0009954612173733801 0 0)
(-0.0009627564265750604 0 0)
(-0.0009333961216258664 0 0)
(-0.0009073646824256998 0 0)
(-0.0008844927228334165 0 0)
(-0.0008666178351787925 0 0)
(-0.0008536406288443763 0 0)
(-0.0008463404097368712 0 0)
(-0.0008473490690677649 0 0)
(-0.000854031987306741 0 0)
(-0.0008679878293469938 0 0)
(-0.0008893467911128028 0 0)
(-0.0009181868478598901 0 0)
(-0.0009542035227660595 0 0)
(-0.000995108291347262 0 0)
(-0.001039704045122847 0 0)
(-0.001085080496443791 0 0)
(-0.001130566620624242 0 0)
(-0.001177084783100811 0 0)
(-0.00122203982240487 0 0)
(-0.001266728855578464 0 0)
(-0.001310980830640045 0 0)
(-0.00135477441935207 0 0)
(-0.001397081994297021 0 0)
(-0.001437350596174342 0 0)
(-0.001475656812056241 0 0)
(-0.001511215063174966 0 0)
(-0.001541893551912103 0 0)
(-0.001567924867948695 0 0)
(-0.001589193413611439 0 0)
(-0.00160303877822434 0 0)
(-0.001613496456659609 0 0)
(-0.001615137845341865 0 0)
(-0.001609258250940743 0 0)
(-0.00159562357194081 0 0)
(-0.001574225241483205 0 0)
(-0.001545990587708211 0 0)
(-0.001512091366768232 0 0)
(-0.001475567180774141 0 0)
(-0.001438003711523554 0 0)
(-0.001400421289676682 0 0)
(-0.001363264402644689 0 0)
(-0.001326432119313049 0 0)
(-0.001288286252117419 0 0)
(-0.001251681526117974 0 0)
(-0.001216563679459654 0 0)
(-0.001182690954522541 0 0)
(-0.001150686103330954 0 0)
(-0.001121243066232804 0 0)
(-0.001095972442223151 0 0)
(-0.001072731207033189 0 0)
(-0.001054012492104804 0 0)
(-0.001040971027243959 0 0)
(-0.001031450200526902 0 0)
(-0.001031243642014558 0 0)
(-0.001036250707984077 0 0)
(-0.001047848746702009 0 0)
(-0.001066967518200826 0 0)
(-0.001093246389100276 0 0)
(-0.001126843297321433 0 0)
(-0.001166233743318698 0 0)
(-0.001209070420752173 0 0)
(-0.001254338835038444 0 0)
(-0.001299282530806896 0 0)
(-0.001344253826659016 0 0)
(-0.00139056033947177 0 0)
(-0.001433450510421646 0 0)
(-0.001477702342703548 0 0)
(-0.001521163122461465 0 0)
(-0.001563558081627813 0 0)
(-0.001604151615816047 0 0)
(-0.001642450501884467 0 0)
(-0.001679266692398491 0 0)
(-0.001710936660707817 0 0)
(-0.001738546679267418 0 0)
(-0.001761956412968517 0 0)
(-0.001778137486657455 0 0)
(-0.001789904472590301 0 0)
(-0.001795069160863042 0 0)
(-0.00179211874628162 0 0)
(-0.001781656035969197 0 0)
(-0.001763364315577713 0 0)
(-0.001737676729801868 0 0)
(-0.001706352109278392 0 0)
(-0.001670304636394949 0 0)
(-0.001634644660913362 0 0)
(-0.001597254829031957 0 0)
(-0.001560139599474056 0 0)
(-0.001524802219030079 0 0)
(-0.001486595311656909 0 0)
(-0.00145078154292961 0 0)
(-0.001415532315729045 0 0)
(-0.001381897764415275 0 0)
(-0.001349893944861343 0 0)
(-0.001319856133210817 0 0)
(-0.001293872032773178 0 0)
(-0.001270302197986823 0 0)
(-0.001250301590653403 0 0)
(-0.001235830080496857 0 0)
(-0.001225697652746685 0 0)
(-0.001221495113424252 0 0)
(-0.001225565073515492 0 0)
(-0.001235087326101955 0 0)
(-0.001251842341509496 0 0)
(-0.001275864261795522 0 0)
(-0.00130703231287368 0 0)
(-0.001345020283140605 0 0)
(-0.00138649461949848 0 0)
(-0.001431924174184447 0 0)
(-0.001476619337633338 0 0)
(-0.001521351830262066 0 0)
(-0.001567169426758958 0 0)
(-0.001611331949386333 0 0)
(-0.001655060108369058 0 0)
(-0.001698376360562737 0 0)
(-0.001741196881449742 0 0)
(-0.001782374219607815 0 0)
(-0.001821388051500361 0 0)
(-0.001858397327714637 0 0)
(-0.001892769517208031 0 0)
(-0.001921054994306884 0 0)
(-0.001946447812638391 0 0)
(-0.001965748365240341 0 0)
(-0.001978062850672367 0 0)
(-0.001986925388747406 0 0)
(-0.001986843602604529 0 0)
(-0.001979140568580355 0 0)
(-0.001963882262077529 0 0)
(-0.001940890852021423 0 0)
(-0.001911708435118122 0 0)
(-0.00187740524184251 0 0)
(-0.001842128276368234 0 0)
(-0.001805966679984332 0 0)
(-0.001769339563738906 0 0)
(-0.001733417163900218 0 0)
(-0.001698128728758652 0 0)
(-0.001661142295983032 0 0)
(-0.001626308753515974 0 0)
(-0.001592873574906929 0 0)
(-0.001560892372375325 0 0)
(-0.001530811264199841 0 0)
(-0.001503294570701101 0 0)
(-0.001480715512989656 0 0)
(-0.001458645156605982 0 0)
(-0.001443277535784954 0 0)
(-0.001432205113679563 0 0)
(-0.001425379843490583 0 0)
(-0.001427741696604951 0 0)
(-0.00143540641028017 0 0)
(-0.00144971597643219 0 0)
(-0.001471494720004109 0 0)
(-0.001500443948464103 0 0)
(-0.001536244947251718 0 0)
(-0.00157715736017071 0 0)
(-0.001620871416100626 0 0)
(-0.001666501718189218 0 0)
(-0.001711035012752953 0 0)
(-0.001755801970535131 0 0)
(-0.00180194625685799 0 0)
(-0.001844120635098271 0 0)
(-0.001888121328463843 0 0)
(-0.001930985974466037 0 0)
(-0.001972717109827631 0 0)
(-0.002012585327584426 0 0)
(-0.002049711743937735 0 0)
(-0.002086061007111371 0 0)
(-0.00211555817647392 0 0)
(-0.002142433965123094 0 0)
(-0.002164319194368712 0 0)
(-0.002179192644416953 0 0)
(-0.002189087372209235 0 0)
(-0.002192677514840617 0 0)
(-0.002187835548953539 0 0)
(-0.002175586362292598 0 0)
(-0.002155567493280843 0 0)
(-0.002128511634423437 0 0)
(-0.00209661520865818 0 0)
(-0.002061094215184547 0 0)
(-0.002026458565500079 0 0)
(-0.001990652777125602 0 0)
(-0.001954523599834604 0 0)
(-0.001920600728082491 0 0)
(-0.001883706322072477 0 0)
(-0.001849496939781468 0 0)
(-0.001815823911686557 0 0)
(-0.001784093626295993 0 0)
(-0.001753997247889388 0 0)
(-0.001725828638398993 0 0)
(-0.001702420137396189 0 0)
(-0.001680302358327654 0 0)
(-0.001662708807090588 0 0)
(-0.001651558758132175 0 0)
(-0.001643540293339391 0 0)
(-0.001641837835377678 0 0)
(-0.001648684823862947 0 0)
(-0.001660864563031329 0 0)
(-0.001680276914700193 0 0)
(-0.00170701125274085 0 0)
(-0.001740564062351918 0 0)
(-0.001780269743720597 0 0)
(-0.001822815973018025 0 0)
(-0.001868296247411805 0 0)
(-0.001913525123984683 0 0)
(-0.00195754679731876 0 0)
(-0.002003274060086543 0 0)
(-0.002047129363917377 0 0)
(-0.002090264047497104 0 0)
(-0.002133142193577579 0 0)
(-0.002175393970652944 0 0)
(-0.002215889854904637 0 0)
(-0.00225384948295067 0 0)
(-0.00229022830843096 0 0)
(-0.002322771950790443 0 0)
(-0.002349953656353906 0 0)
(-0.002374679782610309 0 0)
(-0.002391978580324348 0 0)
(-0.002402750125023873 0 0)
(-0.002409970005223775 0 0)
(-0.002408101387222306 0 0)
(-0.002398516749567915 0 0)
(-0.002381532285176035 0 0)
(-0.002357156570367377 0 0)
(-0.002327022072220996 0 0)
(-0.002293058725653285 0 0)
(-0.00225847036985991 0 0)
(-0.002224059061970853 0 0)
(-0.002188084302256706 0 0)
(-0.002153682989626805 0 0)
(-0.002119858697108159 0 0)
(-0.002084054422402198 0 0)
(-0.0020510044948195 0 0)
(-0.002019364567088779 0 0)
(-0.001989280167738666 0 0)
(-0.001961174349627741 0 0)
(-0.001935751903159181 0 0)
(-0.001915265488016727 0 0)
(-0.00189570940300095 0 0)
(-0.001882520618955857 0 0)
(-0.00187432365274313 0 0)
(-0.001870128406800362 0 0)
(-0.001874648797096354 0 0)
(-0.001885284988081221 0 0)
(-0.001902136080285221 0 0)
(-0.00192666021346493 0 0)
(-0.001958106701047803 0 0)
(-0.001995852401827925 0 0)
(-0.002037919979429793 0 0)
(-0.002082296616275884 0 0)
(-0.00212761936706116 0 0)
(-0.002172479449002873 0 0)
(-0.002216677715975415 0 0)
(-0.002262879548095397 0 0)
(-0.00230423586655364 0 0)
(-0.002348037854850111 0 0)
(-0.002390242607926921 0 0)
(-0.002431416384495896 0 0)
(-0.002470424445442235 0 0)
(-0.002506562334108741 0 0)
(-0.002541719703259898 0 0)
(-0.002570280984772042 0 0)
(-0.002595117617456885 0 0)
(-0.002616997668623679 0 0)
(-0.002629588843230681 0 0)
(-0.00263737506509155 0 0)
(-0.002639561043816874 0 0)
(-0.002632886585459063 0 0)
(-0.00261889039115177 0 0)
(-0.002597440563319166 0 0)
(-0.002569396610222191 0 0)
(-0.002537244917612533 0 0)
(-0.002502826374151338 0 0)
(-0.002468673236312852 0 0)
(-0.002434974721085104 0 0)
(-0.002399224465599519 0 0)
(-0.002366980635320725 0 0)
(-0.002331809910854812 0 0)
(-0.002298815538923461 0 0)
(-0.002266982164750558 0 0)
(-0.002237183188257885 0 0)
(-0.002209063683743634 0 0)
(-0.002182848788583317 0 0)
(-0.002161661597509245 0 0)
(-0.002141572226810808 0 0)
(-0.002126509693311138 0 0)
(-0.002118086153452402 0 0)
(-0.002112706395514301 0 0)
(-0.00211308608922898 0 0)
(-0.002123001848611148 0 0)
(-0.002137886183793037 0 0)
(-0.002159832067500476 0 0)
(-0.002189138904807553 0 0)
(-0.002224983325034017 0 0)
(-0.002265809515095594 0 0)
(-0.0023096256337279 0 0)
(-0.00235438492694944 0 0)
(-0.002400155919932724 0 0)
(-0.002443885808956922 0 0)
(-0.002489183474915219 0 0)
(-0.002533725665329144 0 0)
(-0.002575372794885048 0 0)
(-0.002618115569097788 0 0)
(-0.002659822520722648 0 0)
(-0.002699595497598551 0 0)
(-0.002736708420970894 0 0)
(-0.002771797171039318 0 0)
(-0.002803252174719903 0 0)
(-0.002829575677336917 0 0)
(-0.002851968435384092 0 0)
(-0.002869257436293707 0 0)
(-0.002877517979478998 0 0)
(-0.002882885028081465 0 0)
(-0.002879613345244291 0 0)
(-0.002868098083690052 0 0)
(-0.002849680358068484 0 0)
(-0.002824311988454747 0 0)
(-0.002793567924238204 0 0)
(-0.002760652592446393 0 0)
(-0.002726363906044603 0 0)
(-0.002692997451070237 0 0)
(-0.002659428950247792 0 0)
(-0.002624944331446685 0 0)
(-0.002594265667898605 0 0)
(-0.002558255203030176 0 0)
(-0.002527672900885717 0 0)
(-0.002497703649028218 0 0)
(-0.002469727522673831 0 0)
(-0.002443692293821052 0 0)
(-0.002420169536483897 0 0)
(-0.002401745433665165 0 0)
(-0.002385181566537674 0 0)
(-0.002373361896474229 0 0)
(-0.002369602285389796 0 0)
(-0.002367173331009009 0 0)
(-0.002373060447222141 0 0)
(-0.002387258089108576 0 0)
(-0.002406870985597347 0 0)
(-0.002433850365049011 0 0)
(-0.002467764664061994 0 0)
(-0.00250705836493707 0 0)
(-0.00255019170112332 0 0)
(-0.002594529484314131 0 0)
(-0.002639562066020268 0 0)
(-0.002685480536098248 0 0)
(-0.00272820620940474 0 0)
(-0.002774807232055328 0 0)
(-0.002816501655472253 0 0)
(-0.00285919391721763 0 0)
(-0.002900940819437915 0 0)
(-0.00294158124515164 0 0)
(-0.002979796288020998 0 0)
(-0.003014894672768391 0 0)
(-0.003048431898460711 0 0)
(-0.00307619538252375 0 0)
(-0.003099801253203402 0 0)
(-0.003119756088939277 0 0)
(-0.00313180992267149 0 0)
(-0.003136244272672318 0 0)
(-0.003137654559223116 0 0)
(-0.003129595503895092 0 0)
(-0.003113651963191925 0 0)
(-0.00309116210784974 0 0)
(-0.003062700415290245 0 0)
(-0.003030407326258532 0 0)
(-0.002997788762662225 0 0)
(-0.002963743688599021 0 0)
(-0.002931218833501407 0 0)
(-0.002897886481899301 0 0)
(-0.002864777074375342 0 0)
(-0.002834681498337971 0 0)
(-0.002800064947229343 0 0)
(-0.002771153082980317 0 0)
(-0.002743325113484411 0 0)
(-0.002717243078318228 0 0)
(-0.002693493185311562 0 0)
(-0.002673079217766324 0 0)
(-0.002656738295848486 0 0)
(-0.002644194574499114 0 0)
(-0.002636189218900251 0 0)
(-0.002636734831802854 0 0)
(-0.002637911811182764 0 0)
(-0.002649774609049357 0 0)
(-0.002668204687957565 0 0)
(-0.002692336768760468 0 0)
(-0.002724149275176146 0 0)
(-0.002762031463052279 0 0)
(-0.002803640090484735 0 0)
(-0.002848414656790034 0 0)
(-0.002892440892696286 0 0)
(-0.002937532075722906 0 0)
(-0.002983504700299891 0 0)
(-0.003025952137923005 0 0)
(-0.003073674794430577 0 0)
(-0.003111247280598889 0 0)
(-0.003155760065580537 0 0)
(-0.003196203657408962 0 0)
(-0.003235337286228184 0 0)
(-0.003272084810718649 0 0)
(-0.003304838073938131 0 0)
(-0.003335881257633908 0 0)
(-0.003361234356657386 0 0)
(-0.003381270690012319 0 0)
(-0.00339847346529666 0 0)
(-0.00340507606474398 0 0)
(-0.003405687656563568 0 0)
(-0.003402497261904492 0 0)
(-0.003390007549025708 0 0)
(-0.003369911654140571 0 0)
(-0.003344003724694866 0 0)
(-0.0033134604338015 0 0)
(-0.003280921459209983 0 0)
(-0.003248861859749782 0 0)
(-0.003215270044882537 0 0)
(-0.003183173803081469 0 0)
(-0.003151256130236014 0 0)
(-0.003118229581139859 0 0)
(-0.003089659783445287 0 0)
(-0.003055819563223532 0 0)
(-0.003030222936045068 0 0)
(-0.003003912469188695 0 0)
(-0.002980515938486809 0 0)
(-0.002958497482507836 0 0)
(-0.002941576498540352 0 0)
(-0.00292778859408297 0 0)
(-0.002919362990377852 0 0)
(-0.002915215688565433 0 0)
(-0.002919872166962591 0 0)
(-0.002925351550382037 0 0)
(-0.002943180266696508 0 0)
(-0.002965914716938079 0 0)
(-0.002994479065478333 0 0)
(-0.003030748257707792 0 0)
(-0.003071358548645623 0 0)
(-0.003114767896945892 0 0)
(-0.003160087851973874 0 0)
(-0.003204282999536135 0 0)
(-0.003248664020396995 0 0)
(-0.003294650690263413 0 0)
(-0.003337206232217876 0 0)
(-0.003384767539790953 0 0)
(-0.003418206313371538 0 0)
(-0.003466452274737905 0 0)
(-0.003504635050645812 0 0)
(-0.003542775804645856 0 0)
(-0.003574799602766369 0 0)
(-0.003607942779313047 0 0)
(-0.003634070085297522 0 0)
(-0.00365793360781701 0 0)
(-0.003674170286941485 0 0)
(-0.003688093016026059 0 0)
(-0.003686980517175606 0 0)
(-0.00368654955553208 0 0)
(-0.003676292719399933 0 0)
)
;

boundaryField
{
    inlet
    {
        type            calculated;
        value           uniform (0.0002619740321175249 0 0);
    }
    outlet
    {
        type            calculated;
        value           uniform (-0.003668767988287981 0 0);
    }
    frontAndBack
    {
        type            empty;
    }
}


// ************************************************************************* //
