/*--------------------------------*- C++ -*----------------------------------*\
| =========                 |                                                 |
| \\      /  F ield         | OpenFOAM: The Open Source CFD Toolbox           |
|  \\    /   O peration     | Version:  v2012                                 |
|   \\  /    A nd           | Website:  www.openfoam.com                      |
|    \\/     M anipulation  |                                                 |
\*---------------------------------------------------------------------------*/
FoamFile
{
    version     2.0;
    format      ascii;
    class       volScalarField;
    location    "0.0085";
    object      p;
}
// * * * * * * * * * * * * * * * * * * * * * * * * * * * * * * * * * * * * * //

dimensions      [1 -1 -2 0 0 0 0];


internalField   nonuniform List<scalar> 
1000
(
101339.0551128818
101336.4477052481
101343.1423232548
101348.3934232414
101354.2177710506
101359.4902827586
101364.0654382494
101367.9710368702
101371.2505708093
101373.4308674974
101374.0568958624
101374.0356304044
101373.6742961672
101372.6634814894
101370.7015166289
101367.7135270698
101363.8054342108
101359.155876197
101353.9150688199
101348.1832723499
101342.0402034288
101335.5750292869
101328.8965572635
101322.130357987
101315.4125119087
101308.8805578111
101302.6559516005
101296.8158117467
101291.3700576455
101286.3001992674
101281.7573317573
101278.3961171202
101276.9755190539
101276.820066595
101276.8860461122
101277.1615915258
101277.9171355384
101279.3948248291
101281.7980779796
101285.2154579754
101289.5993928402
101294.7919186134
101300.5884734156
101306.7998996915
101313.2803544447
101319.919319373
101326.6193140853
101333.2803185671
101339.8000889625
101346.0926117532
101352.1164370118
101357.8760513772
101363.3251479437
101368.1059964027
101371.3390650148
101372.4835555533
101372.571629165
101372.5321402945
101372.2845703166
101371.6629854591
101370.4433939258
101368.4306497215
101365.482688074
101361.548994533
101356.6844962335
101351.0370059733
101344.8099173098
101338.214891702
101331.4355172596
101324.614932616
101317.8609654898
101311.2499090404
101304.8206595028
101298.5758687349
101292.5238845489
101286.8066676965
101281.948358822
101278.9121387295
101277.9722716686
101277.9116731084
101277.9741619942
101278.1938460509
101278.7635245013
101279.8590167661
101281.6634180167
101284.3226670772
101287.9194508395
101292.4511575723
101297.8259525714
101303.878978126
101310.4031534433
101317.1857348259
101324.0421295951
101330.8387282719
101337.4995324129
101343.9990584742
101350.3450967549
101356.5330668957
101362.4139738503
101367.4348778136
101370.5944000958
101371.5908842626
101371.6566332196
101371.6260788185
101371.4342319261
101370.9560566395
101370.0154754203
101368.4450499291
101366.0941420456
101362.855346862
101358.6852427984
101353.6193112045
101347.7733728342
101341.3269803916
101334.4922441611
101327.4780738839
101320.4580843135
101313.5462841865
101306.7877929391
101300.1799211973
101293.7452810717
101287.6903897497
101282.6557603324
101279.6504398755
101278.7780154669
101278.7251441288
101278.7737342358
101278.9488438011
101279.4044959289
101280.285496037
101281.7495971374
101283.9383313561
101286.9598452787
101290.8692904848
101295.6553495962
101301.2357875409
101307.4639903682
101314.1486742632
101321.0861800394
101328.0969159038
101335.0526812607
101341.8860265499
101348.5766772519
101355.0964737292
101361.2648902681
101366.4931281441
101369.7737787846
101370.8332295744
101370.916698928
101370.8955574349
101370.7482930044
101370.3725050235
101369.6191245909
101368.3418187332
101366.3985939837
101363.6708168726
101360.0794598368
101355.6012385164
101350.2792582212
101344.22277459
101337.594330426
101330.5865033732
101323.391071302
101316.165474152
101309.0098657623
101301.9768612338
101295.1397975764
101288.7528083228
101283.4962614712
101280.3799197363
101279.464621162
101279.4034965754
101279.4401925304
101279.578907892
101279.9490615359
101280.6746337178
101281.8945408391
101283.7407372132
101286.3259848443
101289.7283502271
101293.9782070626
101299.0491625384
101304.8550514049
101311.2569629145
101318.0828861494
101325.1560131977
101332.3225524518
101339.4703951459
101346.5283319152
101353.4209496314
101359.9312577099
101365.4530243012
101368.9713419301
101370.1687906118
101370.2824190241
101370.2694228496
101370.1576662273
101369.8599763336
101369.2465741566
101368.1881766364
101366.5537511983
101364.2248069473
101361.1077173498
101357.1478151625
101352.3413417439
101346.7410155982
101340.4532371193
101333.6268195135
101326.432396126
101319.0340013958
101311.5642294273
101304.1256640892
101296.8484390016
101290.0431110809
101284.4418956155
101281.0930932467
101280.07327677
101279.9938320605
101280.0215718192
101280.1307245306
101280.4331264352
101281.0372892148
101282.0676164281
101283.6461909694
101285.8837970787
101288.867826882
101292.6514741461
101297.2442900967
101302.6056701843
101308.6452477884
101315.2333695842
101322.219697876
101329.4545160437
101336.8074058518
101344.1728500491
101351.43464147
101358.3391088877
101364.2560722878
101368.1359750267
101369.5565004879
101369.7219516589
101369.7156920707
101369.6306801821
101369.3947441442
101368.8921123989
101368.0070468683
101366.6184905781
101364.6118630346
101361.8884000693
101358.3766292031
101354.0431090223
101348.8995997171
101343.0052415611
101336.4629149501
101329.4074499266
101321.9853177344
101314.3345877551
101306.5849322937
101298.9068607941
101291.6532334187
101285.5970588578
101281.8585005579
101280.6352325868
101280.5197504948
101280.5397637648
101280.6238575315
101280.8710798251
101281.3776021166
101282.2555741272
101283.6173747663
101285.5693866094
101288.2024378518
101291.5827809124
101295.7431855576
101300.6755552602
101306.3284159533
101312.6117724737
101319.408202077
101326.5873826378
101334.0212307691
101341.5902643986
101349.1542318566
101356.4391974946
101362.8113473439
101367.1860364828
101368.955386537
101369.2128003063
101369.2128801201
101369.1503188422
101368.9643456494
101368.5516256285
101367.8076778802
101366.6207810362
101364.8816114011
101362.4904409844
101359.3666339111
101355.4578363154
101350.7470145008
101345.2567469218
101339.0499473704
101332.2241522523
101324.8982964975
101317.198946607
101309.2619806584
101301.2750813112
101293.6050162103
101287.032331327
101282.7523963736
101281.1932007347
101281.0064238829
101281.0192230352
101281.0803970521
101281.2791572309
101281.7016887998
101282.4511788476
101283.6316368017
101285.3441667409
101287.6794106226
101290.7103227234
101294.4843658108
101299.0163980495
101304.2849353438
101310.2334936299
101316.776319556
101323.8074696668
101331.2120293576
101338.871395534
101346.6388513479
101354.2424213214
101361.0758054682
101366.0470530236
101368.3131247659
101368.7332290964
101368.7423330947
101368.6997440038
101368.5569388543
101368.2210793364
101367.5967407632
101366.5799705665
101365.0670019639
101362.9596418886
101360.172941023
101356.642710382
101352.3318818019
101347.2356852612
101341.3847339416
101334.8431082883
101327.7005268269
101320.0642952239
101312.0629959604
101303.8822208941
101295.874566065
101288.7852211944
101283.8472231914
101281.7910747544
101281.4685880953
101281.4732454638
101281.5140534509
101281.670544018
101282.0192690149
101282.6567263302
101283.6802140027
101285.1860879194
101287.2635579823
101289.9887622217
101293.4181823305
101297.5824965502
101302.4825658958
101308.0885115977
101314.3418844746
101321.1611108434
101328.4493241641
101336.0975756898
101343.9646943708
101351.7979204496
101359.047365393
101364.6616774668
101367.572306159
101368.2602038468
101368.29153997
101368.2661244096
101368.1610181165
101367.8928512446
101367.3730174576
101366.5039578349
101365.1868299464
101363.325961933
101360.8348944222
101357.6423390629
101353.6976918428
101348.9763671406
101343.483924779
101337.2564086311
101330.356514293
101322.8700821673
101314.9110473988
101306.65024633
101298.4065927486
101290.854352215
101285.2018617311
101282.4827859739
101281.9227628566
101281.9079046795
101281.9330304428
101282.0524818547
101282.3359553136
101282.8740653714
101283.7587983904
101285.0824729609
101286.9324642435
101289.3864948313
101292.5068653746
101296.3349650772
101300.887666437
101306.155688302
101312.1032871021
101318.6704080474
101325.778129672
101333.3314199262
101341.2027783521
101349.1680190981
101356.7493856092
101362.9875020843
101366.663917249
101367.7714972861
101367.8641052591
101367.8466054962
101367.7740261768
101367.5633239175
101367.1345466753
101366.3948645928
101365.249978636
101363.6068272525
101361.3786608934
101358.4897949818
101354.8805239199
101350.5121665193
101345.3712250699
101339.4710581038
101332.8511673345
101325.5767903091
101317.7437804732
101309.5011395445
101301.1249381991
101293.1998890713
101286.8493111708
101283.3357430669
101282.3955341572
101282.3344916726
101282.3491990606
101282.4352680769
101282.6596208777
101283.107430856
101283.8663850162
101285.0257410085
101286.6713547276
101288.8815340353
101291.7221362188
101295.2420224839
101299.4697534392
101304.4112593399
101310.0483614851
101316.3395472141
101323.2233739973
101330.6195333618
101338.4159334192
101346.4203256071
101354.2340092612
101361.0239049282
101365.5248666807
101367.223192044
101367.4463215069
101367.4384868879
101367.3904585824
101367.2290795864
101366.8800882714
101366.2550535127
101365.2636936677
101363.8154469216
101361.8238059883
101359.210417655
101355.9094997927
101351.8722479639
101347.0706995627
101341.50047725
101335.1822540969
101328.1628325278
101320.5193473094
101312.3771275551
101303.9681802815
101295.7812649901
101288.8058980772
101284.4127096054
101282.9122694711
101282.748130961
101282.7557563486
101282.8138251433
101282.9872126562
101283.3549243738
101284.0014791227
101285.0132592291
101286.4745178185
101288.463459539
101291.0482875244
101294.2834027723
101298.2060323571
101302.8335290947
101308.1617782036
101314.1652173063
101320.7980348808
101327.9938103875
101335.6565259663
101343.625594326
101351.5759181001
101358.8087522689
101364.1104351309
101366.5505279909
101367.0155867867
101367.0254148932
101366.9964840348
101366.8792133996
101366.6022473586
101366.0822508373
101365.2314963671
101363.9614106031
101362.1860920138
101359.8255667287
101356.8096182687
101353.0822134911
101348.6052813592
101343.3610814387
101337.3543411142
101330.6154317949
101323.2051055676
101315.2269659309
101306.8707470678
101298.5331747844
101291.0497659341
101285.7738399126
101283.5314658635
101283.1591544829
101283.1527965072
101283.1920485575
101283.3209395278
101283.6184872275
101284.1640328179
101285.0418696496
101286.3347778878
101288.1209546643
101290.4701833108
101293.440667057
101297.0762376986
101301.403414429
101306.4290062512
101312.1397015983
101318.5030093347
101325.4661127487
101332.9480133768
101340.8146219849
101348.8054741258
101356.3579999653
101362.3902616533
101365.7025294535
101366.5764396145
101366.6313576047
101366.6175663331
101366.5335469335
101366.3175720821
101365.8879102244
101365.160915115
101364.0500332704
101362.4701779389
101360.3407045459
101357.5888172101
101354.1531066338
101349.9870344095
101345.062142219
101339.3708959557
101332.9294307709
101325.781728217
101318.0106344373
101309.7710786119
101301.3815877186
101293.524366062
101287.4407739751
101284.3223178772
101283.5953640005
101283.5609126966
101283.5812085886
101283.6732640576
101283.9065604465
101284.3588407653
101285.1121102359
101286.2481802918
101287.8451954232
101289.9744381017
101292.6972564677
101296.0621810407
101300.1023668159
101304.833631094
101310.2533088749
101316.3397186461
101323.0511410083
101330.3210400818
101338.040086639
101346.0005117524
101353.7555071748
101360.387961522
101364.6041750904
101366.0699576413
101366.2357262803
101366.2290471208
101366.1749317511
101366.0120124384
101365.6646120442
101365.0511024042
101364.0869136567
101362.6877476981
101360.7725670775
101358.2667043768
101355.1050726745
101351.2352594691
101346.6205402812
101341.2430242836
101335.1069000675
101328.2423386049
101320.7139805231
101312.6457738234
101304.2899989923
101296.1902842104
101289.4191239004
101285.3466408787
101284.0725602298
101283.9545502105
101283.9654733057
101284.0266645955
101284.2052895879
101284.5752206155
101285.2165671525
101286.2098923871
101287.6330558005
101289.5581156624
101292.048796256
101295.1577784199
101298.9238647882
101303.3699273235
101308.5019837666
101314.3083015863
101320.7574365283
101327.7943909237
101335.3289904974
101343.1962602558
101351.0471793119
101358.1346190349
101363.2123807929
101365.4418733111
101365.8339521738
101365.8412404158
101365.8073667195
101365.6890272866
101365.4123699536
101364.900083277
101364.0693609134
101362.8371368344
101361.122354732
101358.8488648934
101355.9483410008
101352.3633020685
101348.0502164714
101342.9826426557
101337.1544124715
101330.583486109
101323.319121855
101315.4602447036
101307.2059043444
101298.9824458788
101291.6762917347
101286.6637810942
101284.6481574573
101284.3461631865
101284.3463119372
101284.3848316874
101284.5177441732
101284.8152236632
101285.3550886883
101286.2167398184
101287.4779739276
101289.211935581
101291.4843421264
101294.3508800125
101297.8548233456
101302.0250786698
101306.8747038954
101312.3996950042
101318.5776576965
101325.3650887269
101332.6885102332
101340.4158102809
101348.2759208008
101355.6792646426
101361.5178854604
101364.6341003992
101365.4156392801
101365.459914242
101365.4422146742
101365.3599306614
101365.1455203717
101364.7239937539
101364.0146863708
101362.9354169577
101361.405241359
101359.3471388798
101356.6906756417
101353.3747498825
101349.3505594822
101344.5847321575
101339.0624417637
101332.7909825738
101325.8058456795
101318.1847228663
101310.0843202674
101301.8364460505
101294.1520165586
101288.2960801737
101285.3966770319
101284.7624994489
101284.7374273844
101284.7580188642
101284.8516686306
101285.0844155671
101285.5315688837
101286.2713409525
101287.3812394651
101288.9349817178
101290.999919872
101293.6345017367
101296.8859719369
101300.7884664367
101305.3613920859
101310.6079211981
101316.5135905034
101323.0442792217
101330.139989972
101337.6944732104
101345.4967255457
101353.0886829502
101359.5397209452
101363.5743968461
101364.9337260614
101365.0786899973
101365.0706113572
101365.0169792683
101364.8556749783
101364.5148102609
101363.9157211294
101362.9775215953
101361.6196392464
101359.7645013115
101357.3400012376
101354.2820839716
101350.5375308159
101346.0669260291
101340.8477913678
101334.8781771161
101328.1818937757
101320.8190825895
101312.9130101151
101304.721258265
101296.8014474611
101290.2409295479
101286.3773980696
101285.2150452451
101285.1151863907
101285.1258673509
101285.1893507815
101285.3677926874
101285.7337535749
101286.3635643154
101287.3341094766
101288.7196963445
101290.5893208752
101293.0039732536
101296.0143481403
101299.6591212373
101303.9632250919
101308.935911396
101314.5693595936
101320.8376335366
101327.6924456974
101335.0479806856
101342.7386033953
101350.4114754923
101357.3174057923
101362.223427014
101364.3370495367
101364.6970855665
101364.7008773767
101364.6692901087
101364.546297526
101364.2687949598
101363.760649998
101362.945168725
101361.7456487938
101360.0871120326
101357.897450659
101355.109158904
101351.6619118313
101347.5054811478
101342.602998367
101336.9358227035
101330.5119372016
101323.3762249118
101315.6282069561
101307.4789443272
101299.3690115472
101292.2021012223
101287.4163220004
101285.507053347
101285.2090754179
101285.2294336794
101285.3407359547
101285.526450733
101285.8412346941
101286.3505174951
101287.1360735843
101288.2882958288
101289.8953658243
101292.0378049914
101294.7848703192
101298.1907300223
101302.290406624
101307.0968162032
101312.6004380299
101318.7716628633
101325.5622390689
101332.8918981362
101340.614723785
101348.4561608384
101355.8046873896
101361.480650437
101364.4633762435
101365.4139601162
101365.5055755641
101365.4113310378
101365.2069915186
101364.8675938473
101364.3654962118
101363.6437923794
101362.6135928006
101361.1739827403
101359.2287727035
101356.6900769269
101353.4798025092
101349.5354897183
101344.8178319037
101339.3147246785
101333.0400591223
101326.0343803123
101318.3891121669
101310.2943878152
101302.1003002661
101294.5163940734
101288.81023955
101285.93099003
101285.0566049331
101284.935499234
101285.0244548569
101285.2322715648
101285.603842825
101286.1506386988
101286.9241888946
101288.0012215021
101289.4676787438
101291.4104013741
101293.912644235
101297.0455840533
101300.8586077302
101305.374700091
101310.5919886619
101316.4872114302
101323.0176708359
101330.1120463121
101337.637179443
101345.3540945132
101352.8156763848
101359.1383349705
101363.1541429706
101364.730949635
101365.0738555865
101365.0619183494
101364.8969478414
101364.5802867257
101364.0833184668
101363.3795218231
101362.4109871771
101361.1001561721
101359.3569351323
101357.0825186987
101354.1789121706
101350.5628702835
101346.1772665435
101340.9966139524
101335.0293777344
101328.3177817756
101320.94532741
101313.0735210716
101304.9891906049
101297.2187873219
101290.7736364477
101286.8596733084
101285.4204089204
101285.1148972211
101285.0972388031
101285.2608250866
101285.597395531
101286.1331852053
101286.893744179
101287.9295359925
101289.3032128507
101291.0868059581
101293.3624978335
101296.2160901088
101299.7231705516
101303.9346113401
101308.8671754562
101314.5014591178
101320.7874764156
101327.6496876129
101334.9671191215
101342.5395501097
101350.0352412605
101356.7870900937
101361.6774088751
101364.0459138032
101364.7181713017
101364.8203154131
101364.7473655897
101364.5011565468
101364.0487290887
101363.3662014385
101362.4178544614
101361.1577298021
101359.5278559709
101357.4511040535
101354.8288076237
101351.5532435195
101347.5307214306
101342.7032505317
101337.0597210808
101330.6381437514
101323.5231155456
101315.8621947253
101307.903255566
101300.0545163965
101293.1057216488
101288.2727366166
101286.0652479412
101285.4771902133
101285.3684422708
101285.4276479374
101285.6665587606
101286.1290747224
101286.8505908342
101287.8673704446
101289.2130337933
101290.9219920429
101293.0428127305
101295.6488673369
101298.8331480522
101302.6875523128
101307.2761319796
101312.6139464587
101318.6574321528
101325.3141620054
101332.4522808635
101339.8851879253
101347.3496598729
101354.3579903983
101359.9448216575
101363.1833361102
101364.320246328
101364.5184700404
101364.5371884708
101364.4021359979
101364.075820685
101363.5022916479
101362.625641968
101361.3955833186
101359.7781438198
101357.7481218258
101355.2697686904
101352.2818223102
101348.6904741538
101344.3675075193
101339.1736565303
101333.0334023166
101326.0610484656
101318.4848065
101310.8842868451
101302.1748467804
)
;

boundaryField
{
    inlet
    {
        type            uniformFixedValue;
        uniformValue    sine;
        uniformValueCoeffs
        {
            frequency       constant 3000;
            scale           constant 50;
            level           constant 101325;
        }
        value           uniform 101326.3578702043;
    }
    outlet
    {
        type            pressureOutletNSCBC;
        pInf            101325;
        gamma           1.4;
        etaAc           1;
        fieldInf        1;
        lInf            2.25;
        value           uniform 101298.4558015578;
    }
    frontAndBack
    {
        type            empty;
    }
}


// ************************************************************************* //
