/*--------------------------------*- C++ -*----------------------------------*\
| =========                 |                                                 |
| \\      /  F ield         | OpenFOAM: The Open Source CFD Toolbox           |
|  \\    /   O peration     | Version:  v2012                                 |
|   \\  /    A nd           | Website:  www.openfoam.com                      |
|    \\/     M anipulation  |                                                 |
\*---------------------------------------------------------------------------*/
FoamFile
{
    version     2.0;
    format      ascii;
    class       volScalarField;
    location    "0.0085";
    object      pMean;
}
// * * * * * * * * * * * * * * * * * * * * * * * * * * * * * * * * * * * * * //

dimensions      [1 -1 -2 0 0 0 0];


internalField   nonuniform List<scalar> 
1000
(
101325.6106458658
101325.6156469121
101325.601403348
101325.5896500738
101325.5667774013
101325.540805365
101325.5084270995
101325.474689208
101325.4368434015
101325.3972903489
101325.3560456467
101325.3145361634
101325.2731442913
101325.2323041989
101325.1926658209
101325.1550376656
101325.1202423773
101325.0890045303
101325.0618607028
101325.0393548831
101325.0217993269
101325.0095898092
101325.0028956128
101325.0019178455
101325.0066264295
101325.0169808173
101325.0327453779
101325.0536686251
101325.0793753566
101325.1095869022
101325.1439497525
101325.1818706791
101325.2219951108
101325.2627801628
101325.3035613206
101325.3442322467
101325.3844592735
101325.4238413205
101325.4616057217
101325.49702558
101325.5291789454
101325.5573901688
101325.5809634572
101325.5995374901
101325.6127224437
101325.6204087228
101325.6224107022
101325.618790817
101325.6095377142
101325.5948904022
101325.5749702091
101325.550077652
101325.5203472939
101325.4862151484
101325.4484375167
101325.4086843111
101325.3683857702
101325.3281321597
101325.2879717604
101325.2481608509
101325.2090792667
101325.171305468
101325.1355516811
101325.1026385271
101325.0733675002
101325.0484841466
101325.0285690866
101325.0140512955
101325.0051725825
101325.0020473472
101325.0046648056
101325.0129548629
101325.0267781431
101325.0459902546
101325.0704238937
101325.0999011957
101325.1339980812
101325.1716836071
101325.2111762324
101325.2510572386
101325.2909091162
101325.3306819736
101325.370101335
101325.4089028829
101325.4464844574
101325.4822912164
101325.5154769318
101325.5453443619
101325.5710382592
101325.5919973851
101325.607625028
101325.6176921915
101325.6219485702
101325.620469751
101325.6132394983
101325.6004765741
101325.5822189299
101325.5586764131
101325.5299188125
101325.4964540925
101325.4592513848
101325.4201940213
101325.3806651498
101325.3411862717
101325.3017670306
101325.2626301226
101325.2240431176
101325.1864812072
101325.1505040153
101325.1168334426
101325.0862095688
101325.0594360724
101325.0372005832
101325.0201340222
101325.0086384489
101325.0030054632
101325.0032871565
101325.0094912904
101325.0214739654
101325.0391496658
101325.0623540745
101325.0909291725
101325.1243506717
101325.1614361797
101325.2002671624
101325.2394642097
101325.2786303488
101325.3177436571
101325.3565626815
101325.3948985191
101325.4322357551
101325.4681364068
101325.5018459457
101325.5327460635
101325.5599829952
101325.582945495
101325.6009119865
101325.6134992129
101325.620294688
101325.6212414437
101325.6162283094
101325.6054208312
101325.5888304266
101325.5666705339
101325.539025637
101325.5064619614
101325.4700084318
101325.4316263609
101325.392728877
101325.3538775891
101325.3150546393
101325.2764652373
101325.238299944
101325.2009768059
101325.1649387092
101325.1308380052
101325.099317762
101325.0711645354
101325.0470661077
101325.0277471723
101325.0137255251
101325.0054685711
101325.0031775077
101325.0070131576
101325.0169125574
101325.032859007
101325.0546755457
101325.0821933809
101325.1147882367
101325.151208397
101325.1894291135
101325.2280555731
101325.2666480611
101325.3052122048
101325.3435278163
101325.3814574809
101325.4185514976
101325.4544481452
101325.4884776656
101325.5200885349
101325.5484772164
101325.5730365683
101325.5929993435
101325.6078944366
101325.6171732526
101325.6206415951
101325.6180406293
101325.6094364424
101325.5947590904
101325.5742053058
101325.5478600952
101325.5163266786
101325.4806704184
101325.4429122119
101325.4045614026
101325.3662450491
101325.3279353815
101325.2898212952
101325.252037578
101325.2149566735
101325.1789384302
101325.1445703403
101325.1124137151
101325.083213236
101325.0576233577
101325.0364045853
101325.0201299027
101325.0093937828
101325.0045268877
101325.0058511415
101325.0134294043
101325.027356663
101325.0475049164
101325.0737257498
101325.1053485848
101325.1410545799
101325.1787111231
101325.2168333178
101325.254929606
101325.2930116125
101325.3308857932
101325.3684470397
101325.4053021319
101325.4411439879
101325.475374731
101325.5075043786
101325.5367833018
101325.5626314658
101325.5842765558
101325.6012022932
101325.612774414
101325.6186853422
101325.6185462212
101325.612297943
101325.5997675353
101325.5810786623
101325.5562808086
101325.5259611366
101325.4911929282
101325.454053341
101325.4161969606
101325.3783529554
101325.340501779
101325.3028125906
101325.2653825715
101325.228543017
101325.1925911941
101325.1580602621
101325.1254384409
101325.095425321
101325.0686301745
101325.0458152608
101325.0275756254
101325.0145824414
101325.0072654826
101325.006081795
101325.0112236427
101325.0229157981
101325.0411196221
101325.0657550646
101325.0961695544
101325.1310396724
101325.1681284776
101325.2057968938
101325.2434487901
101325.2811035298
101325.3185773892
101325.3558048864
101325.3924219271
101325.4281830963
101325.4625353434
101325.495055294
101325.5250360022
101325.551940546
101325.5750050246
101325.5936997754
101325.6073397367
101325.6155365426
101325.617798235
101325.6139483067
101325.6037066802
101325.5870993567
101325.5641059067
101325.5352421172
101325.5015293351
101325.4650559198
101325.4276664212
101325.3902491827
101325.3528155089
101325.3155154698
101325.2784188908
101325.2418184693
101325.2059667169
101325.1713411677
101325.1383779209
101325.1077210927
101325.0799438128
101325.0557815627
101325.0358412382
101325.0208248777
101325.011241095
101325.0076382538
101325.0103340445
101325.0196637613
101325.0357099466
101325.0584782458
101325.0874158231
101325.1212559119
101325.1577262325
101325.194955356
101325.2322037579
101325.2694566296
101325.3065663235
101325.3434732447
101325.3798657222
101325.4155194443
101325.4499476786
101325.4827565739
101325.5133058766
101325.5410784168
101325.5653517119
101325.5855804144
101325.601070231
101325.6113656584
101325.6159100797
101325.6144212952
101325.6065285723
101325.5921528063
101325.5711859338
101325.5440333666
101325.5115921302
101325.4758948225
101325.43897452
101325.4019584414
101325.3649142663
101325.3279825914
101325.2912028287
101325.2548430282
101325.2191098609
101325.1844435279
101325.1512242159
101325.1200571507
101325.0914654979
101325.0661657887
101325.0447462411
101325.0279350003
101325.0162747806
101325.0103949689
101325.0106946121
101325.0176231105
101325.0313604259
101325.052034624
101325.0792138089
101325.1117930711
101325.1475268282
101325.1843185056
101325.2211793766
101325.2580572232
101325.2948133137
101325.3314163681
101325.367577601
101325.4031128649
101325.4375705285
101325.4706028149
101325.5016095033
101325.530112067
101325.5554156864
101325.5769849243
101325.5941206515
101325.6063310631
101325.6130121323
101325.6138013679
101325.6082544421
101325.5961918907
101325.5774201222
101325.5522036062
101325.5212767409
101325.4865135095
101325.4501070628
101325.4134726036
101325.3768065424
101325.3402266573
101325.3037611698
101325.2676412923
101325.2320496352
101325.1973784368
101325.1639761785
101325.1323953978
101325.1031307795
101325.0768569426
101325.0541555243
101325.0357451235
101325.0222029834
101325.0141946679
101325.0121969419
101325.0167326246
101325.0280863364
101325.0464887578
101325.0716683091
101325.1027243279
101325.1375593047
101325.1738741467
101325.210364645
101325.2468785352
101325.2832945069
101325.3195960935
101325.355524191
101325.3909230197
101325.4253769753
101325.4585754891
101325.4899552816
101325.5190748995
101325.5452650666
101325.5680114759
101325.5866125136
101325.6005664329
101325.6092281755
101325.6121904595
101325.6089354161
101325.5992171423
101325.582742444
101325.5596570749
101325.5304795366
101325.4968690622
101325.4610516207
101325.424801399
101325.3884914506
101325.3522555742
101325.3160980166
101325.2802254227
101325.244791976
101325.2101537289
101325.1766242877
101325.1447152883
101325.1148875127
101325.0877807202
101325.0639581093
101325.0441261933
101325.0288756658
101325.0188953482
101325.0147140299
101325.0169128924
101325.0258616778
101325.0418865484
101325.064875188
101325.0941603019
101325.1278858739
101325.1636431623
101325.1997617627
101325.235914532
101325.2719949178
101325.3079882517
101325.3436782615
101325.3789179574
101325.4133419892
101325.4466537762
101325.4783431437
101325.5079815714
101325.5349467722
101325.5587253431
101325.5786440225
101325.5941770975
101325.6046782238
101325.6096858681
101325.608652721
101325.6012534293
101325.5871348723
101325.5663055031
101325.5390976185
101325.5068714031
101325.4717871157
101325.4359299462
101325.3999715964
101325.3640697246
101325.328221949
101325.2926023688
101325.2573473647
101325.2227726582
101325.1891671654
101325.1569987225
101325.1267020928
101325.0988778741
101325.0740727736
101325.0529717668
101325.0361714556
101325.024368028
101325.0181270749
101325.0180698604
101325.0246338006
101325.0382259879
101325.0588794
101325.0861646021
101325.1185341949
101325.1536090798
101325.1893443094
101325.2251483962
101325.2608982995
101325.2965849304
101325.3320292397
101325.367093869
101325.4014579484
101325.4348394199
101325.4667751789
101325.4968512742
101325.5244883367
101325.5491793318
101325.5702797119
101325.587250896
101325.5994514459
101325.6063823075
101325.6074755446
101325.6023430845
101325.5905801383
101325.5720785783
101325.5469983164
101325.516389945
101325.4822256607
101325.4468193589
101325.4112170842
101325.3756575162
101325.340126672
101325.3047795611
101325.2697221996
101325.235247256
101325.2016065535
101325.169242457
101325.1385511869
101325.1101109866
101325.0844363134
101325.0622017649
101325.0439893026
101325.0305062785
101325.0223288296
101325.0201158751
101325.0243465172
101325.0355036385
101325.0537343554
101325.0788341787
101325.1095877784
101325.1437985174
101325.1791113995
101325.2145753475
101325.2499936946
101325.2853795794
101325.3205614452
101325.3554414024
101325.389710056
101325.4231281936
101325.4552483584
101325.4856981343
101325.5139124415
101325.539417843
101325.5615750858
101325.5798633989
101325.5936292731
101325.6023693027
101325.6054832378
101325.6025559234
101325.5931234972
101325.5769997769
101325.5541767703
101325.5254227405
101325.4924041067
101325.4575377785
101325.4222782218
101325.3870465461
101325.3518263705
101325.3167480738
101325.2819033684
101325.2475476961
101325.2139150644
101325.1814064531
101325.150398407
101325.121429201
101325.0949977557
101325.0717483387
101325.0522590135
101325.0372257196
101325.0272407988
101325.0229775668
101325.0249552797
101325.0337091051
101325.0494886833
101325.0722788716
101325.1011871222
101325.1343059171
101325.1691060047
101325.2042209761
101325.2393011684
101325.2743691581
101325.3092759318
101325.3439431807
101325.3780892436
101325.4115018733
101325.4437587788
101325.4745183977
101325.5032349492
101325.5294645808
101325.5525759503
101325.5720691776
101325.5872818814
101325.5977174468
101325.6027458344
101325.6019399017
101325.5947799496
101325.5810282181
101325.5605271599
101325.5338056484
101325.5021714019
101325.467996087
101325.4331036587
101325.3982090808
101325.3632987417
101325.3285136984
101325.2938908346
101325.2596932689
101325.2260955427
101325.1935015083
101325.1622289315
101325.1328170607
101325.1057116575
101325.0815613145
101325.0609037001
101325.0444491345
101325.032769944
101325.0265701029
101325.0263767698
101325.0327825995
101325.0461034546
101325.0664919269
101325.0933444406
101325.1251178371
101325.1592809619
101325.1940365942
101325.2287882137
101325.2635414136
101325.2981688443
101325.3326101962
101325.3666132627
101325.3999838625
101325.432335504
101325.4633413161
101325.4924934189
101325.5193554877
101325.5433309044
101325.56391499
101325.5804704334
101325.592479204
101325.5993230316
101325.6005340271
101325.5955842183
101325.5841592565
101325.5660216865
101325.5414620142
101325.5114670774
101325.4781700659
101325.4437058833
101325.4091367426
101325.3745543774
101325.3400561029
101325.3056908396
101325.2716636096
101325.2381562002
101325.2055122471
101325.1740522085
101325.1442580045
101325.1165772902
101325.0916100143
101325.0698998521
101325.0521241363
101325.038871529
101325.0308337669
101325.0285705757
101325.0326928348
101325.0435906957
101325.0615308067
101325.0861704199
101325.1163363763
101325.1496770531
101325.1840357626
101325.2184631039
101325.2529004399
101325.2872421457
101325.3214420519
101325.3552780548
101325.388574723
101325.4209770639
101325.4521777547
101325.4816987053
101325.5091200184
101325.5338694105
101325.5554510587
101325.5732432087
101325.5867242589
101325.595278631
101325.5984184075
101325.5956011501
101325.586462187
101325.5706906187
101325.5483919642
101325.5202466741
101325.4880625714
101325.4541130541
101325.4198713793
101325.3856074558
101325.3514038625
101325.3172968964
101325.2834626669
101325.2500646001
101325.2174125496
101325.1858087419
101325.1556989614
101325.1275161703
101325.1018254968
101325.0791641579
101325.0601809539
101325.0454713126
101325.0357118206
101325.0314874256
101325.0334170669
101325.0419535175
101325.0574458141
101325.0797722388
101325.1080992455
101325.1403878626
101325.1742610499
101325.2083558158
101325.2424650695
101325.2765078332
101325.3104439745
101325.3440867571
101325.3772724786
101325.4096829981
101325.4410241149
101325.4708529256
101325.4987608166
101325.5242053766
101325.5466963154
101325.5656321816
101325.5804875082
101325.5906540265
101325.5956272507
101325.5948553843
101325.5879344727
101325.5744977572
101325.5545073022
101325.5283794656
101325.4975571445
101325.4642674166
101325.4303780901
101325.3964338863
101325.3625325797
101325.3286988714
101325.2950804197
101325.2618232988
101325.2292051482
101325.1975085245
101325.167146442
101325.1385329087
101325.1122029785
101325.0886798077
101325.0685894241
101325.0525232216
101325.0411472867
101325.0350584085
101325.0348847081
101325.0411217546
101325.0541861793
101325.0741262456
101325.1004149137
101325.1313925868
101325.1646585535
101325.1984130898
101325.2322047407
101325.2659488156
101325.299616102
101325.333048288
101325.366098869
101325.3984799974
101325.4299171746
101325.4599953964
101325.4883253414
101325.5143863129
101325.5377031826
101325.5576868952
101325.5738204332
101325.5854953685
101325.5922056496
101325.5933829935
101325.58860513
101325.5774506154
101325.5597845086
101325.5357947291
101325.5065780327
101325.4741407561
101325.4406630382
101325.4070391827
101325.3734521572
101325.3399014946
101325.3065174973
101325.2734178864
101325.2408584045
101325.2090960938
101325.1785255448
101325.1495403725
101325.122660061
101325.0983909826
101325.0773425154
101325.0600918004
101325.0472911522
101325.0394913779
101325.0373395274
101325.0413531215
101325.0519318737
101325.0693337408
101325.0932906837
101325.1225079785
101325.1546461897
101325.1877520989
101325.2210493362
101325.2543517442
101325.2876236586
101325.3207306921
101325.3534967352
101325.3856251805
101325.416942245
101325.4469489612
101325.4753130773
101325.5015265609
101325.5252494014
101325.5458074972
101325.5628152158
101325.5758236827
101325.5841622149
101325.5872848372
101325.5849476693
101325.5763922544
101325.5615789733
101325.5405258562
101325.5139867423
101325.4836803562
101325.4516744632
101325.419271094
101325.3867306174
101325.3542390464
101325.3218772182
101325.2896473117
101325.2577938186
101325.2267063291
101325.1966863943
101325.1680870977
101325.1414270361
101325.1172045037
101325.0958967831
101325.0780615371
101325.0644482613
101325.0552969154
101325.0514991367
101325.0535102755
101325.0618535099
101325.0767311086
101325.098177494
101325.1252369125
101325.1559916334
101325.1881260235
101325.2207775435
101325.2534607494
101325.2860378241
101325.3186416293
101325.3508694597
101325.3826487499
101325.413688702
101325.4436806582
101325.4721754563
101325.4987548144
101325.522924439
101325.5442400449
101325.5621281412
101325.5761402418
101325.5858439804
101325.5905123644
101325.5898027494
101325.5832345382
101325.570428476
101325.5514511728
101325.5267556524
101325.4976586252
101325.4661596546
101325.4338598763
101325.4015250003
101325.3690329472
101325.3367907428
101325.3046979499
101325.2727194203
101325.2414872379
101325.2112302786
101325.1822058271
101325.1549532974
101325.129969471
101325.1076739069
101325.0887539822
101325.0736205886
101325.0630814007
101325.0573695284
101325.0573139367
101325.0633768444
101325.07584508
101325.094832805
101325.1197866311
101325.1491813104
101325.1807507337
101325.2128942897
101325.2452322202
101325.2775262596
101325.3096770289
101325.3417884396
101325.3732357978
101325.4042898427
101325.4343585142
101325.4630860381
101325.4900769145
101325.5148821485
101325.5368777767
101325.555851564
101325.5709374707
101325.5819571006
101325.5882917561
101325.5893543562
101325.5849117069
101325.5742659272
101325.557530856
101325.5349223854
101325.5073763404
101325.4767861021
101325.4448322149
101325.4126782601
101325.3806485609
101325.3483940544
101325.3167816223
101325.2849811541
101325.2537874476
101325.2233748086
101325.1940894758
101325.1663876933
101325.1408111867
101325.1177661756
101325.0977783786
101325.0815960686
101325.0695522752
101325.0623681207
101325.0603789406
101325.0643148276
101325.0744592793
101325.0910757519
101325.1138705429
101325.1416972646
101325.1725254753
101325.2044229899
101325.2364455463
101325.2685226957
101325.3005030275
101325.3321916232
101325.3638709789
101325.3943381908
101325.4246716597
101325.4537637193
101325.4811804638
101325.5066588937
101325.5294723724
101325.5492298384
101325.565630996
101325.5778504543
101325.5856115169
101325.5885794264
101325.5860119708
101325.577791799
101325.5632207185
101325.5428394101
101325.5171555441
101325.4876803228
101325.4563341854
101325.4244291357
101325.3924911383
101325.3607985129
101325.3288919835
101325.2980797384
101325.2666827288
101325.2365122816
101325.2071420821
101325.1789214217
101325.1529043575
101325.1288973095
101325.1080422018
101325.0907813871
101325.0776219214
101325.069097349
101325.065453718
101325.067270236
101325.0752082928
101325.0889587515
)
;

boundaryField
{
    inlet
    {
        type            calculated;
        value           uniform 101325.6240986621;
    }
    outlet
    {
        type            calculated;
        value           uniform 101325.1010243763;
    }
    frontAndBack
    {
        type            empty;
    }
}


// ************************************************************************* //
