/*--------------------------------*- C++ -*----------------------------------*\
| =========                 |                                                 |
| \\      /  F ield         | OpenFOAM: The Open Source CFD Toolbox           |
|  \\    /   O peration     | Version:  v2012                                 |
|   \\  /    A nd           | Website:  www.openfoam.com                      |
|    \\/     M anipulation  |                                                 |
\*---------------------------------------------------------------------------*/
FoamFile
{
    version     2.0;
    format      ascii;
    class       volScalarField;
    location    "0.0085";
    object      rho;
}
// * * * * * * * * * * * * * * * * * * * * * * * * * * * * * * * * * * * * * //

dimensions      [1 -3 0 0 0 0 0];


internalField   nonuniform List<scalar> 
1000
(
1.176537700375401
1.17651424665595
1.176566815513872
1.176608463257685
1.176657261471678
1.176701720863502
1.176739250588857
1.17677044339164
1.176796400284975
1.176813558702442
1.176818238400262
1.176817702090801
1.176814418481135
1.176805974545733
1.176789720053819
1.1767649919415
1.176732716445947
1.176694357037807
1.176651113543675
1.176603784873463
1.176553014664286
1.176499533566231
1.176444240094113
1.176388175555301
1.176332472157143
1.176278277764794
1.176226609375838
1.176178117441819
1.176132894667635
1.176090795698092
1.176053079248759
1.176025178484511
1.176013387754764
1.176012098806945
1.176012657651458
1.176014966435683
1.176021256033189
1.176033529295515
1.176053473569044
1.176081822837655
1.176118181849235
1.176161240883707
1.176209304584131
1.176260805678871
1.17631453614333
1.176369580706222
1.176425131860332
1.17648036062625
1.176534419217041
1.176586594163228
1.17663654137194
1.176684297611147
1.176729478537333
1.17676911798244
1.176795924003673
1.17680541321876
1.176806143425958
1.176805815577979
1.176803762123662
1.176798607835074
1.176788495839652
1.176771808130978
1.176747366717979
1.176714752569715
1.176674420770574
1.176627596490021
1.176575965776159
1.176521283336879
1.176465071241088
1.176408516286757
1.176352512577562
1.17629769280339
1.176244379595281
1.176192595046946
1.17614240848048
1.176094997238088
1.176054708105053
1.176029528994596
1.176021734728646
1.176021232199987
1.176021750433753
1.176023572276305
1.176028296595876
1.176037381445552
1.176052345178721
1.17607439795393
1.176104225315037
1.176141805368457
1.176186376276282
1.176236570658064
1.176290671064927
1.17634691319605
1.176403766303141
1.176460122494679
1.176515351651328
1.176569242541729
1.176621859832035
1.176673165616775
1.176721924651962
1.176763552713718
1.176789747867734
1.176798009528789
1.176798554634793
1.176798301306847
1.176796710735574
1.176792746274009
1.176784948082205
1.176771927921573
1.176752436795223
1.176725584081262
1.176691009565584
1.176649007158833
1.176600536852407
1.176547087087044
1.176490416336955
1.176432256658154
1.176374047573225
1.176316734456411
1.176260691504613
1.176205896490216
1.176152536999342
1.176102325712635
1.176060574497049
1.176035651685359
1.176028416719282
1.176027978254076
1.176028381202988
1.176029833372486
1.176033612068466
1.176040918141584
1.176053059794906
1.176071210672717
1.176096267498755
1.176128687450676
1.17616837643445
1.176214652226186
1.176266298749026
1.17632172956863
1.176379255734511
1.176437387982816
1.176495063283593
1.176551722406865
1.176607197309627
1.176661254585137
1.176712397573524
1.176755744761522
1.176782944243501
1.176791727969565
1.176792419993471
1.176792244705485
1.176791023755395
1.176787908160168
1.176781662006104
1.176771072046344
1.176754960979469
1.176732345127917
1.176702569119456
1.176665439682004
1.176621313935309
1.176571097449607
1.176516137650113
1.176458031076161
1.176398367747204
1.176338453073792
1.176279117541669
1.176220797493462
1.176164101145755
1.176111136060123
1.176067544642937
1.176041701199709
1.17603411069327
1.176033603783624
1.176033908092554
1.176035058440952
1.176038128094425
1.176044145203192
1.176054261767422
1.176069572022398
1.176091010998414
1.176119225943886
1.176154468540714
1.17619651967381
1.176244664538129
1.176297750958041
1.176354352343835
1.176413002422875
1.176472425877096
1.17653169310511
1.176590213693445
1.176647362422908
1.176701340297553
1.176747121275982
1.176776291300245
1.176786219161881
1.176787161229264
1.176787053470542
1.176786126903906
1.176783658799253
1.176778573172275
1.176769798139892
1.176756247290949
1.176736938156344
1.176711094361897
1.176678262482194
1.176638411119192
1.176591977095927
1.176539842321117
1.176483240402511
1.176423585947381
1.176362238946427
1.176300298789741
1.176238616104042
1.176178270046885
1.176121836063331
1.176075386530462
1.176047615384795
1.176039158134369
1.176038499296701
1.176038729330173
1.176039634513774
1.176042142300865
1.176047152562723
1.176055696950804
1.176068787849992
1.176087343910897
1.176112089748997
1.176143466324572
1.176181552629044
1.176226011692116
1.176276093880641
1.176330723807487
1.176388654626898
1.176448644726811
1.176509612604733
1.176570683311333
1.176630893338741
1.176688139533129
1.176737197282196
1.176769365265304
1.176781142647675
1.176782514370739
1.176782462462717
1.176781757629921
1.176779801512531
1.176775634259873
1.176768296292213
1.176756783914653
1.176740147097048
1.176717566897133
1.176688450592604
1.176652520719749
1.176609874536128
1.176561002108419
1.176506756170223
1.176448254404501
1.176386711089253
1.176323270922624
1.176259009065769
1.176195339415963
1.176135188169617
1.17608496596805
1.176053962717593
1.176043818283154
1.176042860592753
1.176043026552158
1.176043723922978
1.176045774107227
1.17604997464075
1.17605725555783
1.176068548777633
1.176084736464081
1.176106571751197
1.176134603922123
1.176169104544951
1.176210006251737
1.176256881935771
1.176308985055815
1.176365341662967
1.176424870901765
1.176486510554326
1.176549269803737
1.176611985709868
1.176672387041998
1.17672521900762
1.17676148935145
1.176776158827045
1.176778293003109
1.176778293655942
1.176777774958071
1.176776233073691
1.176772811263144
1.176766643280502
1.176756802837779
1.176742383501581
1.17672255835964
1.176696658744545
1.176664250421138
1.17662519194301
1.176579670252103
1.176528206700919
1.17647160972086
1.176410865209646
1.176347022407484
1.176281207848045
1.176214977748114
1.17615137355079
1.176096868331936
1.176061375652408
1.176048445436868
1.176046896510075
1.176047002645443
1.176047509946104
1.176049158237678
1.176052662242136
1.17605887766962
1.176068667037918
1.176082868748499
1.176102234408999
1.176127368904113
1.176158665675346
1.17619624773693
1.176239936693653
1.176289263894393
1.176343517982067
1.176401820210287
1.17646321749668
1.176526726243582
1.176591129831931
1.176654173206845
1.176710829614242
1.176752046163213
1.17677083395322
1.176774316981218
1.176774392454883
1.176774039346791
1.176772855362261
1.176770070790293
1.176764894470047
1.17675646452821
1.176743920612793
1.176726448553395
1.176703343942638
1.17667407444796
1.176638332544165
1.176596078445139
1.176547565699026
1.176493325328383
1.176434100945549
1.176370782027359
1.176304434539273
1.176236597275839
1.176170194065967
1.176111404680252
1.176070454974094
1.176053403637425
1.17605072929015
1.176050767908704
1.176051106318091
1.176052404072373
1.176055296005667
1.176060582356942
1.17606906999143
1.176081557943052
1.176098785957612
1.176121385341691
1.17614982435263
1.176184357220884
1.176224990871443
1.17627147728812
1.176323331524856
1.176379876890872
1.176440309917469
1.176503727003548
1.176568957446768
1.176633905436202
1.176694011831352
1.176740560241254
1.176764692067937
1.176770395350042
1.176770655150348
1.176770444428407
1.176769573000693
1.176767349659003
1.176763039773905
1.176755834484164
1.176744914272239
1.176729485883131
1.176708832407736
1.176682362676019
1.176649656962494
1.176610511211777
1.176564971265488
1.176513335687448
1.176456124012776
1.176394047698457
1.176328051200188
1.176259550883692
1.176191191173689
1.176128563564382
1.1760816889551
1.176059140128545
1.176054495929648
1.176054372709954
1.176054581071091
1.176055571664297
1.176057922473324
1.176062384948513
1.176069721909125
1.176080698914919
1.176096040507504
1.176116391149871
1.176142267374961
1.17617401225893
1.176211765525817
1.176255449981692
1.176304768969775
1.176359224230269
1.176418161071718
1.176480791248929
1.176546057356866
1.176612100428408
1.176674959276586
1.176726679949199
1.176757160970061
1.176766343814219
1.17676711161489
1.176766966524168
1.176766364774747
1.176764617864777
1.176761062917842
1.176754930283118
1.176745438117268
1.176731814816774
1.176713341081318
1.176689389311439
1.176659464343399
1.176623245278119
1.176580619967951
1.176531698896946
1.17647680928687
1.176416491744357
1.1763515407571
1.17628319157781
1.176213733273663
1.176148014582121
1.176095351207673
1.176066213895321
1.176058416884133
1.176057910665784
1.176058032630507
1.176058746388306
1.176060606916336
1.176064320543144
1.176070614436372
1.176080228776965
1.176093875516331
1.176112203984035
1.176135760224612
1.176164949297695
1.176200007873647
1.176240984918185
1.176287729441694
1.176339896942455
1.176396977654995
1.176458305395549
1.176522950481826
1.176589318692188
1.176654104212961
1.176710400074524
1.176747717537855
1.176761798234023
1.176763648178444
1.17676358322162
1.176763185023024
1.176761847046437
1.176758953594742
1.176753771488381
1.176745552195924
1.176733544846603
1.176717032160626
1.176695364429462
1.176667996129261
1.176634522450994
1.176594711337961
1.176548526237943
1.176496138264123
1.176437935161429
1.176374556184925
1.176307040251822
1.176237310969316
1.176169421260266
1.17611157706488
1.176075145388317
1.176062702494614
1.176061341317913
1.17606140455383
1.176061886110128
1.176063323989096
1.176066373370389
1.176071735150181
1.176080125668751
1.176092243593121
1.176108737407771
1.17613017262554
1.17615700026403
1.176189528881369
1.176227902184701
1.176272085824126
1.176321867570863
1.176376867272239
1.176436533888918
1.176500070992623
1.176566146833888
1.176632065781693
1.176692034505195
1.176735990961116
1.17675622165921
1.176760077424298
1.176760158908297
1.176759919045492
1.176758946766465
1.176756650467706
1.176752339221863
1.176745285677121
1.176734755455064
1.176720036308002
1.176700465104556
1.176675459573552
1.176644554993098
1.17660743551772
1.176563953818031
1.176514148809194
1.176458272001844
1.176396826801377
1.176330671950735
1.176261380468153
1.176192241988584
1.176130185212325
1.176086433413512
1.176067837840902
1.176064750323109
1.176064697597762
1.176065023109911
1.176066091984747
1.176068559504323
1.176073083628564
1.176080363377319
1.176091085208377
1.176105897552953
1.176125379040729
1.176150012236124
1.176180160486271
1.176216043530059
1.176257717619788
1.176305072127119
1.176357837359887
1.176415575077468
1.176477613372715
1.176542840172527
1.176609095674403
1.176671715472408
1.176721729467815
1.176749191423653
1.176756436957256
1.176756892278513
1.17675677793709
1.176756081340789
1.176754290713113
1.176750728422295
1.17674470095598
1.17673549068707
1.176722392131224
1.176704736608128
1.176681920476569
1.176653434459819
1.176618892529407
1.176578058512256
1.176530869676751
1.176477459504552
1.176418192345533
1.176353754809679
1.176285431268141
1.176215862819459
1.176150706650216
1.176100257381449
1.176074396716839
1.176068368218102
1.17606808251986
1.176068250831589
1.176069014234679
1.176070948926307
1.1760746996142
1.176080946345601
1.176090367549512
1.176103611228245
1.176121268454391
1.176143847886292
1.176171751852664
1.17620525513842
1.176244488714668
1.176289430253092
1.176339899706903
1.176395550857183
1.17645583171058
1.176519835471738
1.176585839207793
1.176650138213639
1.176705128802708
1.17674008550195
1.176752238239943
1.176753612617363
1.176753557242016
1.176753108577296
1.176751757827475
1.176748877557894
1.176743790989814
1.176735796946033
1.176724196487497
1.176708317686635
1.176687541399069
1.17666132787394
1.176629242399842
1.176590980288124
1.176546392955801
1.176495514845338
1.176438595801891
1.176376171473598
1.176309269308671
1.176239981007309
1.176172814479241
1.176116663782776
1.176082891719614
1.176072326019359
1.176071347383957
1.176071437968541
1.176071945419565
1.176073426728722
1.17607649450536
1.176081813077522
1.176090050526521
1.176101852497514
1.176117816505993
1.17613847092749
1.176164252523168
1.176195482928588
1.176232351633188
1.176274908325448
1.176323055470572
1.176376532058704
1.176434881768597
1.176497356618192
1.176562588464076
1.176627683302853
1.176686446638377
1.176728546653113
1.176747031327378
1.176750282033102
1.176750342460689
1.176750061617865
1.176749080475566
1.176746786729683
1.176742539392452
1.176735651910889
1.176725435566501
1.176711218284015
1.176692368641515
1.176668320045827
1.176638595780785
1.176602834738723
1.176560817460264
1.176512492533314
1.17645800856818
1.176397773668278
1.176332607777095
1.17626416114853
1.176195969024269
1.176135382242855
1.176093814967847
1.17607709984096
1.176074595460247
1.176074596695071
1.176074916134554
1.176076018356427
1.176078485302848
1.176082962304853
1.176090107805425
1.176100566935881
1.176114946228203
1.176133790596872
1.176157561741373
1.176186618393385
1.176221200101286
1.176261414950187
1.176307229506798
1.176358457815019
1.176414738868523
1.176475463121063
1.176539534890103
1.176604706445204
1.176666089446194
1.176714498056987
1.176740334613801
1.176746814323775
1.176747181406339
1.176747034661842
1.176746352451946
1.176744574790611
1.17674107993749
1.176735199100363
1.176726250900703
1.176713564200319
1.176696500366451
1.176674475345921
1.176646982419371
1.176613616799912
1.176574101583914
1.176528313591646
1.176476313011896
1.176418393802249
1.176355199836658
1.176288030219932
1.17621963617911
1.176155912991658
1.176107351702274
1.176083307661494
1.176078048556901
1.176077840640204
1.176078011403083
1.176078788025381
1.176080718154439
1.176084426313024
1.176090561093076
1.176099765232205
1.176112650018903
1.176129773934513
1.176151621590145
1.176178584658349
1.176210946069011
1.176248866571989
1.176292372257587
1.176341342947188
1.176395495440676
1.176454331968028
1.176516971272038
1.176581663599237
1.176644610912568
1.17669809746923
1.176731549125766
1.17674281929829
1.176744021189361
1.176743954211074
1.176743509552084
1.176742172188189
1.176739346096463
1.176734379072132
1.176726600479332
1.176715342268081
1.176699961237488
1.17667985947861
1.17665450580175
1.17662345881982
1.176586391541293
1.176543117359872
1.17649361983507
1.176438096084601
1.176377044457119
1.176311486755772
1.176243558643839
1.176177884058977
1.176123480252157
1.176091441054954
1.176081801920769
1.176080973812492
1.176081062388997
1.17608158884672
1.176083068632727
1.176086103475771
1.176091326366708
1.176099374879344
1.176110865200784
1.176126369452541
1.176146393340146
1.176171357159713
1.176201581502608
1.176237272956502
1.176278508039595
1.176325221669505
1.176377198523055
1.176434037929832
1.176495028057638
1.176558795292616
1.176622413977406
1.176679672500808
1.176720348708381
1.176737872758456
1.17674085780789
1.176740889246789
1.176740627359873
1.176739607635271
1.176737306874149
1.176733093862012
1.176726332722025
1.176716387495957
1.176702636503139
1.176684481836659
1.176661363712795
1.176632781844971
1.17659831961332
1.176557671117173
1.176510681537984
1.176457416765294
1.176398248624924
1.176334002000055
1.17626642673898
1.176199176075197
1.176139744058871
1.176100057076286
1.17608422396081
1.176081752891899
1.17608192172001
1.176082844729981
1.176084384827845
1.176086995269426
1.176091218646275
1.176097733088096
1.176107288184366
1.176120615169286
1.176138381727683
1.176161162098608
1.176189405355734
1.176223401762786
1.176263258224318
1.176308895554769
1.176360067964293
1.176416375066889
1.176477151004893
1.17654118563567
1.176606202323941
1.176667130795249
1.176714190791486
1.176738920593726
1.17674680184542
1.176747561424916
1.176746780050794
1.176745085885673
1.176742271958951
1.176738109090857
1.176732125468184
1.176723584097045
1.176711648268023
1.176695520425028
1.176674471825514
1.176647854878246
1.176615151559111
1.176576035757697
1.176530406854548
1.176478379726703
1.176420290227274
1.17635689608693
1.176289773591316
1.17622182560859
1.176158936065416
1.176111616925383
1.176087740044274
1.176080488951581
1.176079484646777
1.176080222341362
1.176081945728651
1.176085027097673
1.176089561563596
1.176095976445142
1.176104908017544
1.176117068952596
1.176133179351793
1.176153929549503
1.176179909682111
1.176211529148466
1.176248978364467
1.176292241580637
1.176341125649889
1.176395276246159
1.176454101704844
1.176516497652299
1.1765804824208
1.176642348782831
1.176694770974553
1.176728066232042
1.176741139512647
1.176743982532496
1.176743883564208
1.176742515805995
1.176739890384741
1.176735770039077
1.176729934877418
1.176721904762023
1.176711036636725
1.176696583496889
1.176677726081239
1.176653651810633
1.176623670346021
1.176587307848715
1.176544352756784
1.176494874972295
1.176439224277465
1.176378092711694
1.176312819170882
1.176245781859877
1.176181346285353
1.176127899240754
1.176095441868828
1.176083506374495
1.176080972828603
1.176080826393764
1.176082182987495
1.176084974102081
1.176089417295328
1.176095724442702
1.176104314015071
1.176115705550321
1.176130496347692
1.176149367864132
1.176173031534769
1.176202114052084
1.176237037105624
1.176277939490354
1.176324660058587
1.176376784050561
1.176433684815994
1.176494359007362
1.17655714626883
1.176619295924405
1.17667527699413
1.176715823069113
1.176735460366761
1.176741034037034
1.176741880912115
1.176741276091505
1.176739234786071
1.176735483726598
1.176729824904792
1.176721962164283
1.176711514446404
1.176698001078485
1.176680782532982
1.176659040682422
1.176631882264356
1.17659853030834
1.176558503774946
1.176511710275085
1.176458464661141
1.176399468052841
1.176335943670487
1.176269946665337
1.176204862015558
1.176147238860234
1.176107160504243
1.176088854351743
1.176083977716362
1.176083075893545
1.176083566877399
1.176085548120537
1.176089383671481
1.176095367047062
1.17610379895728
1.176114958182311
1.176129130048918
1.17614671726521
1.176168328213338
1.176194733955879
1.176226696433035
1.176264746613304
1.176309009131475
1.176359122450408
1.176414319825888
1.176473507586874
1.176535138188987
1.17659702894427
1.17665513624629
1.17670145675445
1.17672830727206
1.176737734038571
1.17673937889798
1.176739536830612
1.176738422023526
1.176735720692444
1.176730963521366
1.176723685039344
1.176713474556139
1.176700064693671
1.176683252676468
1.176662716032723
1.176637891904394
1.176607979196781
1.176572004197785
1.17652902292915
1.176478646616716
1.176421899000811
1.176359976048255
1.176295595970079
1.176217865992919
)
;

boundaryField
{
    inlet
    {
        type            calculated;
        value           uniform 1.176427481426743;
    }
    outlet
    {
        type            calculated;
        value           uniform 1.17618444742052;
    }
    frontAndBack
    {
        type            empty;
    }
}


// ************************************************************************* //
