/*--------------------------------*- C++ -*----------------------------------*\
| =========                 |                                                 |
| \\      /  F ield         | OpenFOAM: The Open Source CFD Toolbox           |
|  \\    /   O peration     | Version:  v2012                                 |
|   \\  /    A nd           | Website:  www.openfoam.com                      |
|    \\/     M anipulation  |                                                 |
\*---------------------------------------------------------------------------*/
FoamFile
{
    version     2.0;
    format      ascii;
    class       volScalarField;
    location    "0.0085";
    object      T;
}
// * * * * * * * * * * * * * * * * * * * * * * * * * * * * * * * * * * * * * //

dimensions      [0 0 0 1 0 0 0];


internalField   nonuniform List<scalar> 
1000
(
300.0094853584303
300.0077467630426
300.0141610644123
300.019086331471
300.0238849239872
300.0281559496094
300.0321293684298
300.0357364322807
300.0388252397472
300.0409037046713
300.0415634571886
300.0416372542996
300.0414049848973
300.0405660849462
300.0389033562715
300.0363641714846
300.0330257800076
300.0290436812443
300.0245564806218
300.0196571534431
300.0144174694058
300.0089150057247
300.0032427042873
299.9975067584126
299.9918213389621
299.9863009852307
299.9810460291514
299.9761190217949
299.9715257753638
299.967248680501
299.9634142524794
299.9605757202547
299.959375641474
299.9592439914396
299.959296866416
299.9595240800264
299.9601575709572
299.9614036465189
299.9634343543439
299.9663246962469
299.9700344727083
299.9744297755533
299.9793370720439
299.984595818183
299.9900821555761
299.9957022018212
300.001373228905
300.0070104963142
300.0125275075162
300.0178515948191
300.0229478472407
300.0278202285686
300.0324297228492
300.0364738288851
300.0392085990443
300.0401766608902
300.0402511645087
300.0402178748413
300.0400086741012
300.0394830619446
300.03845148981
300.036748862828
300.0342549742783
300.0309270441598
300.0268114873032
300.0220333017676
300.0167645192395
300.0111841854058
300.0054476146381
299.9996759148573
299.9939603304075
299.9883654323754
299.9829241516663
299.9776387482747
299.9725163045612
299.967677002901
299.963564556772
299.9609943876729
299.9601987727666
299.9601474715706
299.9602003656424
299.9603863294557
299.9608685706859
299.9617959157737
299.9633233421389
299.9655743603294
299.9686189199904
299.9724547497746
299.9770040452402
299.9821271965263
299.9876488737156
299.9933889813697
299.999191278825
300.0049426970046
300.010578936449
300.0160784511402
300.0214478508652
300.026683277229
300.0316586948246
300.0359063580417
300.038579219211
300.0394222027014
300.0394778246838
300.0394519789891
300.0392896869292
300.0388851716954
300.0380894758578
300.0367609429565
300.0347721169242
300.0320320994339
300.028504102971
300.0242180776478
300.0192719382556
300.0138175296968
300.0080342660477
300.0020988836301
299.9961582836207
299.9903089512799
299.9845890864097
299.9789964309557
299.9735501413319
299.968425044026
299.964163365407
299.9616193659259
299.9608808500943
299.9608360952769
299.960877229102
299.9610254628737
299.9614111773963
299.9621569487489
299.9633963069548
299.9652490406839
299.9678066634497
299.9711158126267
299.9751668469935
299.9798900897565
299.9851613766522
299.9908187524125
299.996689814562
300.0026225585407
300.0085084952595
300.0142905602327
300.0199516140781
300.0254678486125
300.0306865542917
300.0351096528111
300.0378850016022
300.0387812568848
300.0388518698346
300.038833986987
300.0387094092341
300.0383915082459
300.037754175469
300.0366736116763
300.0350296800747
300.0327219931147
300.0296836532092
300.0258949051351
300.0213921486315
300.0162677468823
300.0106591576339
300.0047292727424
299.9986403357861
299.992525562201
299.9864697112849
299.9805173236319
299.9747304872235
299.9693243360577
299.9648748401261
299.9622368761006
299.9614620713746
299.9614103307374
299.9614413963111
299.9615588223445
299.9618721610784
299.9624863606851
299.9635190082413
299.9650817896073
299.9672701331712
299.9701500837244
299.9737473004137
299.9780393802271
299.9829533223874
299.9883714882566
299.9941482411254
300.0001339086797
300.0061983228131
300.012246611029
300.018218524922
300.0240502708148
300.029558287964
300.0342297518548
300.0372061808465
300.0382191828629
300.0383153099456
300.0383043181304
300.038209779072
300.0379579457929
300.0374390288431
300.0365436544677
300.0351609622778
300.033190692008
300.0305536048848
300.027203406153
300.0231368560757
300.0183984873273
300.0130782503764
300.0073019912725
300.0012140387971
299.9949531632032
299.9886315538865
299.9823360238527
299.9761767218943
299.9704165362733
299.9656753267487
299.9628406027247
299.9619773271508
299.9619100790384
299.9619335635014
299.9620259646986
299.9622819507839
299.9627933761122
299.9636655439933
299.9650017873175
299.9668958658802
299.9694217263738
299.9726243535959
299.9765117775503
299.9810495653575
299.9861611631998
299.9917367732741
299.9976491076928
300.0037714255092
300.0099933394873
300.0162255537824
300.0223697460121
300.0282113133798
300.0332171664491
300.0364995129287
300.0377012362351
300.0378412041018
300.037835911448
300.0377639974624
300.0375644053067
300.0371391956244
300.0363904543328
300.0352157626729
300.0335181731911
300.0312141077967
300.0282430633326
300.0245766968185
300.0202248948015
300.0152376230142
300.0097018562936
300.0037316132292
299.9974507808498
299.9909761583906
299.984417461794
299.9779189941576
299.9717794365064
299.9666531714626
299.96348854425
299.962453050946
299.962355297113
299.962372240653
299.9624434290533
299.9626527047581
299.9630814762087
299.9638246748774
299.9649774214561
299.9666297537313
299.9688585329702
299.971719805358
299.9752412623029
299.9794159930024
299.9842003645055
299.9895181403701
299.9952698787632
300.001345235622
300.0076357802437
300.0140403807287
300.0204403527312
300.0266039332856
300.0319949452686
300.0356959054037
300.037192731313
300.0374104967668
300.0374105665536
300.0373576445502
300.037200318642
300.0368511703976
300.0362218097487
300.0352177174135
300.0337463964446
300.0317234586951
300.0290806559477
300.0257736531324
300.021787983498
300.0171426834411
300.0118909110278
300.0061151212655
299.9999158855889
299.9934002493361
299.9866831583755
299.9799234284594
299.973431491178
299.9678680907063
299.9642452264233
299.9629253764776
299.9627672714689
299.9627781076578
299.962829893781
299.9629981454634
299.9633558176978
299.9639902557628
299.9649894972201
299.966439114584
299.9684158160722
299.9709813269991
299.9741757828894
299.9780117093477
299.9824708616881
299.9875053667955
299.9930425807341
299.9989927803009
300.0052586637432
300.011739825391
300.0183120920581
300.024745340078
300.03052664891
300.0347323363719
300.0366493870466
300.0370047846228
300.0370124879695
300.0369764607505
300.0368556530412
300.0365715254971
300.0360433499083
300.0351831805135
300.0339032238701
300.0321203944128
300.0297628005122
300.0267761014868
300.0231288880798
300.0188170641987
300.0138664612285
300.0083312235561
300.0022871918914
299.9958250983871
299.9890536963306
299.9821300105669
299.9753524537368
299.9693518155674
299.9651719584904
299.963431449803
299.9631584668269
299.9631624104183
299.963196955948
299.9633294256496
299.9636246197765
299.9641642216262
299.9650305888026
299.9663052767435
299.9680637850183
299.9703705388958
299.9732733141688
299.9767980336146
299.9809453712141
299.985689975028
299.9909823088817
299.9967532680897
300.0029208138882
300.0093926961648
300.016049417571
300.0226770928293
300.0288105022612
300.0335602816709
300.0360226322085
300.0366045771212
300.0366310876026
300.0366095878804
300.0365206716957
300.0362938094264
300.0358540412458
300.0351188312511
300.0340045537669
300.0324302592647
300.0303227832201
300.0276217847685
300.0242844096556
300.0202898031412
300.0156426039565
300.0103732353111
300.0045346685312
299.9981994628346
299.9914639622737
299.9844726854557
299.9774955131071
299.97110317035
299.9663185771083
299.9640169228388
299.9635428672888
299.9635302906024
299.9635515603715
299.9636526758984
299.9638926340509
299.9643481381658
299.9650970504525
299.9662175105399
299.9677834677373
299.9698606926638
299.9725018918142
299.9757420600181
299.9795954293086
299.9840540855928
299.9890877112848
299.9946454114241
300.0006603275927
300.0070519763947
300.0137124144835
300.0204519149251
300.026866259373
300.0321438605555
300.0352540841075
300.036191073548
300.0362694181797
300.0362546143397
300.0361932145185
300.036014965184
300.0356522278582
300.0350264680192
300.0340579050561
300.0326678001855
300.0307827471211
300.0283386907625
300.0252850826739
300.0215891488816
300.0172394094971
300.0122470967926
300.0066455565223
300.0004899094959
299.9938611891081
299.9868854209308
299.9797962034839
299.9730884300948
299.9677130130602
299.9647388600365
299.9639429825219
299.9638913108598
299.9639037609761
299.9639766179337
299.9641665301934
299.9645455952826
299.9651880367093
299.96616940441
299.9675623639183
299.9694331845935
299.9718375878758
299.9748168984187
299.9783952467505
299.9825775984383
299.9873485053223
299.9926727656921
299.9984983105372
300.0047571097851
300.0113542484846
300.0181270075253
300.0247380311822
300.030482543812
300.0342903715527
300.035727126806
300.0359158896945
300.035909261976
300.0358686312367
300.0357321077103
300.035436866901
300.0349080959611
300.0340694140259
300.0328441990192
300.0311592526503
300.0289482663535
300.0261555560843
300.0227397890749
300.018677252917
300.0139641781532
300.0086179812149
300.0026781825018
299.9962099700688
299.9893193255988
299.9822025371746
299.9752732535443
299.9693690836745
299.9656503938465
299.9643802925654
299.9642413510552
299.9642478059511
299.9642969605354
299.9644437306656
299.9647549928093
299.96530228912
299.9661587366732
299.9673956461136
299.9690792021967
299.9712671157887
299.9740054052834
299.9773255418097
299.9812421639511
299.985751730867
299.990832542355
299.9964457574869
300.0025350954342
300.0090192361429
300.0157622385932
300.022489001046
300.0286083637237
300.0330936637275
300.0351579571691
300.0355513881698
300.0355597025458
300.0355352275048
300.0354360183607
300.0352017090287
300.0347617981176
300.0340420663993
300.0329675755954
300.0314656423862
300.0294685906874
300.0269169895026
300.0237633956817
300.0199755501296
300.015538382206
300.0104558200672
300.0047534820892
299.9984826911297
299.9917310369046
299.9846590179559
299.977602362204
299.9712682838156
299.9668024450227
299.9649043203767
299.9645891634618
299.9645837814213
299.9646170075455
299.9647261115176
299.964977980237
299.9654397733434
299.966182840451
299.9672772468644
299.9687891732874
299.9707776713805
299.9732919820007
299.9763691713927
299.9800316414697
299.9842851014489
299.9891182228121
299.9945034392017
300.0003959811615
300.0067272340905
300.0133836700374
300.0201448570915
300.0265348153711
300.0316382735504
300.0344404444255
300.0351797589498
300.0352262184974
300.0352145510855
300.0351434715891
300.0349607593777
300.0345972697562
300.0339822367676
300.0330424321621
300.0317058639782
300.0299042917357
300.0275761062602
300.0246693209262
300.0211445182411
300.0169775647764
300.012162018711
300.0067114553788
300.0006630068015
299.9940866932682
299.9871135482111
299.980013094959
299.9733627424968
299.9682133284593
299.9655736416606
299.96495828667
299.9649291239586
299.9649463038178
299.9650242267872
299.9652217073595
299.9656045525517
299.9662421757476
299.9672038234676
299.968555633809
299.9703579301701
299.9726626189957
299.9755107479309
299.9789303401282
299.9829347338141
299.9875216150393
299.9926725682984
299.9983522161257
300.0045041806185
300.0110358793369
300.0177714545062
300.0243328426108
300.0299441742237
300.0335111222172
300.0347511585362
300.0348913961795
300.0348857454304
300.034839964098
300.0347021358007
300.0344082378981
300.0338892121385
300.0330735093893
300.0318898065867
300.030269533442
300.0281495009449
300.0254746155077
300.0222004949811
300.0182960175613
300.0137459836561
300.0085538641602
300.0027451069123
299.9963743251549
299.9895463274211
299.9824745546372
299.9756190927124
299.9698877887371
299.9664405830748
299.965362099417
299.9652622057151
299.9652714516097
299.9653232483859
299.9654744502747
299.9657875879614
299.9663304705632
299.9671712889702
299.9683759416608
299.9700054111091
299.9721136182289
299.9747451275211
299.9779327467405
299.981695789593
299.9860392949951
299.9909532707408
299.9964110367886
300.0023659789634
300.0087417201498
300.0153986032673
300.0220412812106
300.0280376569153
300.032333539236
300.0342196798701
300.0345513736665
300.0345575391181
300.0345288818968
300.0344287673926
300.0341947169785
300.0337613245857
300.0330585337704
300.0320160652132
300.0305653348778
300.0286419028182
300.0261879388371
300.0231547773909
300.0195055426067
300.0152178053967
300.0102862781094
300.0047260793562
299.9985788063277
299.9919280880826
299.9849423043116
299.9779822494592
299.9717982247886
299.9675553772118
299.9658492039876
299.9655935715542
299.9655936971469
299.9656263027929
299.9657388097343
299.9659906183795
299.9664475989319
299.9671769589349
299.9682445452456
299.969712261909
299.9716357196741
299.9740620306111
299.9770277912821
299.98055742739
299.9846619406763
299.9893378835533
299.9945662375824
300.0003101167428
300.0065072708462
300.0130458438939
300.0196964297821
300.0259601959526
300.0308998550394
300.03353618337
300.0341973583018
300.0342348141821
300.034219840094
300.0341502279492
300.0339688376912
300.0336122273105
300.0330121529765
300.0320990850217
300.0308045361392
300.0290633321917
300.0268158634775
300.024010405486
300.0206056281546
300.0165732436216
300.011900643506
300.0065939253902
300.0006830387956
299.9942336430346
299.9873782750744
299.9803976978129
299.9738936209478
299.9689369297809
299.9664826817366
299.9659458645883
299.9659246413461
299.9659420711545
299.9660213428761
299.9662183566169
299.9665968586793
299.9672230514188
299.9681625380516
299.9694777092027
299.971225561907
299.9734555487543
299.9762076308343
299.9795106642065
299.9833810284235
299.9878213534207
299.9928193359218
299.9983460317085
300.0043505977156
300.0107430580771
300.0173448176987
300.0237682879841
300.0292261626702
300.0326395508732
300.0337895375916
300.0339121757112
300.0339053408962
300.0338599679563
300.0337235047708
300.0334351335889
300.0329283033514
300.0321345811102
300.030985795619
300.0294163080085
300.0273650966309
300.0247779423853
300.0216097832331
300.0178272231755
300.0134111844075
300.0083599472335
300.002693580295
299.9964628915418
299.9897721141965
299.9828391765148
299.9761360066932
299.9705830242219
299.9673127095463
299.9663288088749
299.966244280506
299.9662533213141
299.9663070578824
299.9664581035513
299.966767878061
299.9673009915729
299.968122520777
299.9692953572262
299.9708778915438
299.9729217311668
299.9754697608724
299.9785546831204
299.9821975584381
299.9864061660319
299.9911738279084
299.996478528768
300.0022793356108
300.0085035616108
300.0150109918947
300.0215030488963
300.0273458871691
300.0314965001926
300.0332846285995
300.0335892170293
300.0335924245907
300.0335657014168
300.0334616495753
300.0332268822222
300.0327969902567
300.0321070879059
300.0310922793265
300.0296891228475
300.027836598907
300.0254775731236
300.0225609762009
300.0190442693382
300.014896204292
300.0101009424713
300.0046651615439
299.9986267564508
299.9920698599327
299.9851730158626
299.9783090615715
299.9722429142656
299.9681920011014
299.9665758646252
299.9663236337236
299.9663408661904
299.9664350800314
299.9665922818118
299.9668587364218
299.9672898269906
299.9679547705468
299.9689300765538
299.970290378221
299.9721038183224
299.9744289965039
299.9773117307412
299.9807816228807
299.984849553372
299.9895074038643
299.9947300482384
300.0004765809679
300.0066790048025
300.0132137830163
300.0198485606795
300.026065940598
300.0308679835957
300.0333913821936
300.034195569696
300.034273075277
300.0341933447752
300.0340204744531
300.0337333453558
300.0333085715485
300.0326980084889
300.0318264517814
300.0306085199344
300.0289628232167
300.026814988845
300.0240989184101
300.0207617269554
300.0167701045674
300.0121137437127
300.0068043215571
300.0008760621448
299.9944062435956
299.9875556918706
299.9806206494187
299.9742016697815
299.9693717745633
299.966934596092
299.9661944520731
299.966091938707
299.9661672367764
299.9663431473323
299.9666576713763
299.9671205166763
299.9677752991072
299.968686962204
299.9699282454805
299.9715726437515
299.97369060916
299.976342360946
299.9795696639238
299.983391924941
299.987807502379
299.9927966444548
299.9983231471746
300.0043265847385
300.0106942121738
300.0172237704001
300.0235369413995
300.0288862142267
300.0322836505741
300.0336176264339
300.0339077224997
300.0338976229692
300.0337580577255
300.0334901630516
300.0330697282745
300.0324743142027
300.0316549256903
300.0305459420826
300.0290711333747
300.0271468926263
300.0246902890788
300.0216308580004
300.0179202181864
300.0135367436038
300.0084875235111
300.0028082045405
299.9965693612951
299.9899075903061
299.9830655784
299.9764888813757
299.971033567436
299.9677205777347
299.9665022831745
299.966243675047
299.9662287268827
299.9663671972293
299.966652093924
299.9671056230367
299.9677494092936
299.9686261644255
299.9697889148995
299.9712986221625
299.9732248344015
299.9756401548793
299.9786085307856
299.9821729774707
299.9863476288226
299.9911159996881
299.9964357183421
300.0022427886669
300.0084347751607
300.0148422049542
300.0211843624761
300.026896857533
300.0310342026149
300.0330379695137
300.0336066964317
300.0336931092343
300.0336313931858
300.0334231001689
300.0330403465594
300.0324629261482
300.0316606167842
300.030594531993
300.0292156190431
300.0274586129883
300.0252400201613
300.0224686734081
300.0190652633419
300.0149806684333
300.0102054182433
300.0047715948867
299.9987506988369
299.9922675189348
299.9855317652216
299.9788889030709
299.9730074050532
299.9689165624981
299.9670480026803
299.9665502280992
299.966458175444
299.9665082906233
299.9667105207649
299.9671020254274
299.9677127629702
299.9685734253177
299.9697124653715
299.9711590028502
299.9729541356479
299.97515994907
299.9778551246005
299.981117403518
299.9850009460043
299.9895184376794
299.99463294693
300.0002661958706
300.0063065575951
300.0125961040811
300.0189120972059
300.0248418859284
300.029568744194
300.0323086031297
300.0332702614141
300.0334376029282
300.0334527403478
300.0333372348762
300.0330601171239
300.0325754342223
300.0318363796544
300.0307988051323
300.0294303116689
300.0277079809138
300.0256081857351
300.0230930577653
300.020089113107
300.0164649959977
300.0120490127423
300.0067165553781
300.0005447642956
299.993904135607
299.9878175536566
299.9818512545647
)
;

boundaryField
{
    inlet
    {
        type            fixedValue;
        value           uniform 300;
    }
    outlet
    {
        type            temperatureOutletNSCBC;
        pInf            101325;
        gamma           1.4;
        etaAc           1;
        fieldInf        1;
        lInf            2.25;
        value           uniform 299.9793611835984;
    }
    frontAndBack
    {
        type            empty;
    }
}


// ************************************************************************* //
