/*--------------------------------*- C++ -*----------------------------------*\
| =========                 |                                                 |
| \\      /  F ield         | OpenFOAM: The Open Source CFD Toolbox           |
|  \\    /   O peration     | Version:  v2012                                 |
|   \\  /    A nd           | Website:  www.openfoam.com                      |
|    \\/     M anipulation  |                                                 |
\*---------------------------------------------------------------------------*/
FoamFile
{
    version     2.0;
    format      ascii;
    class       volVectorField;
    location    "0.0085";
    object      U;
}
// * * * * * * * * * * * * * * * * * * * * * * * * * * * * * * * * * * * * * //

dimensions      [0 1 -1 0 0 0 0];


internalField   nonuniform List<vector> 
1000
(
(0.00291503893314703 0 0)
(0.03442746096953992 0 0)
(0.04257313439631108 0 0)
(0.05763195694294475 0 0)
(0.07145147797357985 0 0)
(0.08443492305141072 0 0)
(0.0956079172736852 0 0)
(0.1051475241986086 0 0)
(0.1131794427844656 0 0)
(0.1185516099076265 0 0)
(0.1200696523321149 0 0)
(0.1199671920729625 0 0)
(0.1191334022586835 0 0)
(0.1166420564168962 0 0)
(0.111845158767745 0 0)
(0.104534458049499 0 0)
(0.09497168520048892 0 0)
(0.08359278954024131 0 0)
(0.07076790843210146 0 0)
(0.05674319146574294 0 0)
(0.04170974815522861 0 0)
(0.02588326618766742 0 0)
(0.009535198528433186 0 0)
(-0.007022191991557449 0 0)
(-0.02346251916340596 0 0)
(-0.03945853522723827 0 0)
(-0.05470550509635281 0 0)
(-0.06899781524758293 0 0)
(-0.08231640008233904 0 0)
(-0.09473387856545333 0 0)
(-0.1058811655798657 0 0)
(-0.1141136239750937 0 0)
(-0.1175638610082462 0 0)
(-0.1179293738585433 0 0)
(-0.1178196163211641 0 0)
(-0.1171107306673328 0 0)
(-0.1152713806996353 0 0)
(-0.1116512166581021 0 0)
(-0.1057655746601133 0 0)
(-0.09739747785258528 0 0)
(-0.08666490445140237 0 0)
(-0.07395189490752412 0 0)
(-0.0597577423693526 0 0)
(-0.04454964872925047 0 0)
(-0.02868838137492882 0 0)
(-0.01243957812300435 0 0)
(0.003964872008359801 0 0)
(0.02027429668900961 0 0)
(0.03622651854629319 0 0)
(0.05161654795423948 0 0)
(0.06636293081119676 0 0)
(0.08047461518046445 0 0)
(0.09380711452606159 0 0)
(0.1054795963531375 0 0)
(0.1133844243313874 0 0)
(0.1162147396074688 0 0)
(0.1164503285839494 0 0)
(0.1162983975572993 0 0)
(0.1157269586282663 0 0)
(0.1141956588339813 0 0)
(0.1112130787710507 0 0)
(0.1062890409577945 0 0)
(0.09907620773133645 0 0)
(0.08944904719647 0 0)
(0.07754459867049342 0 0)
(0.0637266343787785 0 0)
(0.0484889532465117 0 0)
(0.03234513625919775 0 0)
(0.01574885994815098 0 0)
(-0.0009420108422496725 0 0)
(-0.01746818935646517 0 0)
(-0.03365579853764217 0 0)
(-0.0494063038078024 0 0)
(-0.0646922367222979 0 0)
(-0.07949177210360664 0 0)
(-0.09348879739767442 0 0)
(-0.1054098604076559 0 0)
(-0.1128556444667416 0 0)
(-0.1151290216159472 0 0)
(-0.1152515601201658 0 0)
(-0.1151534356937744 0 0)
(-0.1145842760077102 0 0)
(-0.1131984084061982 0 0)
(-0.1105145973314074 0 0)
(-0.1060955147144831 0 0)
(-0.09958359469458616 0 0)
(-0.09077803338942876 0 0)
(-0.07968291301024383 0 0)
(-0.06652144219833667 0 0)
(-0.05170082942321217 0 0)
(-0.03573160547820199 0 0)
(-0.01913052506175753 0 0)
(-0.002343597761473453 0 0)
(0.01429731614909097 0 0)
(0.03059591436095166 0 0)
(0.04649428870689013 0 0)
(0.0620287767343309 0 0)
(0.07718633668844375 0 0)
(0.09157562063529721 0 0)
(0.1038398977489072 0 0)
(0.1115657541187533 0 0)
(0.1140289768800178 0 0)
(0.1142060848708539 0 0)
(0.114086333788608 0 0)
(0.1136446914789144 0 0)
(0.1124663349410971 0 0)
(0.1101661047299452 0 0)
(0.1063240992907613 0 0)
(0.1005721848325359 0 0)
(0.09264587550722932 0 0)
(0.0824408852559617 0 0)
(0.07004575371888803 0 0)
(0.05574082590197368 0 0)
(0.03996192153235266 0 0)
(0.02323144647953885 0 0)
(0.006066339467408771 0 0)
(-0.01111226120507098 0 0)
(-0.02803499765796923 0 0)
(-0.04458844128854665 0 0)
(-0.06076323402034078 0 0)
(-0.07650386060599003 0 0)
(-0.09132871925950972 0 0)
(-0.1036753855265944 0 0)
(-0.1110417721225135 0 0)
(-0.1131566043267867 0 0)
(-0.1132678950397344 0 0)
(-0.1131896651407772 0 0)
(-0.1127372900091239 0 0)
(-0.111628534604075 0 0)
(-0.1094702340784233 0 0)
(-0.1058845461032824 0 0)
(-0.1005248656063143 0 0)
(-0.09312762847592705 0 0)
(-0.08355577828200174 0 0)
(-0.07183584173663847 0 0)
(-0.0581723704789709 0 0)
(-0.04292703977084603 0 0)
(-0.02656443855991509 0 0)
(-0.009578809053923594 0 0)
(0.007585360309210215 0 0)
(0.02460631421467003 0 0)
(0.04132409302078551 0 0)
(0.05770275229412081 0 0)
(0.07366945217715816 0 0)
(0.08876065607357406 0 0)
(0.1015364130568381 0 0)
(0.1095624815731011 0 0)
(0.1121750198029003 0 0)
(0.112390799253843 0 0)
(0.1123015017706992 0 0)
(0.1119657111768606 0 0)
(0.1110385957574697 0 0)
(0.1091963827129335 0 0)
(0.1060714052134203 0 0)
(0.1013169547538625 0 0)
(0.09464138324718269 0 0)
(0.08585286681285619 0 0)
(0.07489569998984327 0 0)
(0.06187285516721695 0 0)
(0.04704898777910037 0 0)
(0.0308246026821839 0 0)
(0.013675036891229 0 0)
(-0.003933937354572903 0 0)
(-0.02162419306092143 0 0)
(-0.03914716595393822 0 0)
(-0.05636207382705114 0 0)
(-0.07309118191154326 0 0)
(-0.08873072606029873 0 0)
(-0.1016165015481261 0 0)
(-0.1092504666659615 0 0)
(-0.1114748353041733 0 0)
(-0.1116129076942098 0 0)
(-0.1115543006520759 0 0)
(-0.1111954081932798 0 0)
(-0.1102949200632255 0 0)
(-0.1085172583272922 0 0)
(-0.1055296786587818 0 0)
(-0.1010089250322599 0 0)
(-0.09467965041579213 0 0)
(-0.08634903609619594 0 0)
(-0.07594214239184062 0 0)
(-0.06352633174718182 0 0)
(-0.04931423200518856 0 0)
(-0.03364263651993958 0 0)
(-0.01693006304738548 0 0)
(0.0003858179721059475 0 0)
(0.01792315207426934 0 0)
(0.03541330620497329 0 0)
(0.05269175608186853 0 0)
(0.06956778277261276 0 0)
(0.08549387366566513 0 0)
(0.09899203920008433 0 0)
(0.1076037474077965 0 0)
(0.1105497723560318 0 0)
(0.1108339164562252 0 0)
(0.1107715850549033 0 0)
(0.1105201817984078 0 0)
(0.1097845294243565 0 0)
(0.1082848681764482 0 0)
(0.1056954442122473 0 0)
(0.101696475562525 0 0)
(0.09599694510471954 0 0)
(0.08836918533506279 0 0)
(0.07868033067974972 0 0)
(0.06691888350644594 0 0)
(0.05321181098154058 0 0)
(0.0378220831141548 0 0)
(0.02111681932223527 0 0)
(0.003509843224696382 0 0)
(-0.0146030164770433 0 0)
(-0.03289316880447497 0 0)
(-0.05110003490549383 0 0)
(-0.06890868344016678 0 0)
(-0.08557383385044899 0 0)
(-0.09930071172811199 0 0)
(-0.1075008436299496 0 0)
(-0.1099839552737439 0 0)
(-0.1101709371417893 0 0)
(-0.1101290847744827 0 0)
(-0.1098444928698082 0 0)
(-0.1091096306884101 0 0)
(-0.1076291910123154 0 0)
(-0.1051058763755499 0 0)
(-0.1012405557869571 0 0)
(-0.09576242385102048 0 0)
(-0.08845587555141264 0 0)
(-0.07919048731885521 0 0)
(-0.06794550518007283 0 0)
(-0.05482132351229048 0 0)
(-0.04003589722735266 0 0)
(-0.0239051372346701 0 0)
(-0.00680222042750641 0 0)
(0.01090252972593521 0 0)
(0.02889641803741639 0 0)
(0.04692847103915544 0 0)
(0.06470611176521486 0 0)
(0.0815953885759626 0 0)
(0.09606357922969805 0 0)
(0.1055627934247193 0 0)
(0.1090518624713093 0 0)
(0.1094602975719183 0 0)
(0.1094167947449318 0 0)
(0.1092311119957411 0 0)
(0.1086459903442468 0 0)
(0.1074176549013048 0 0)
(0.1052522121206912 0 0)
(0.1018547425263391 0 0)
(0.09694402648853101 0 0)
(0.09027967136182981 0 0)
(0.08168731746604294 0 0)
(0.07108308215710241 0 0)
(0.05849435363562538 0 0)
(0.04406826391166677 0 0)
(0.02805851150524117 0 0)
(0.01079124680667027 0 0)
(-0.007379253800944076 0 0)
(-0.02611061013497567 0 0)
(-0.04507821820435694 0 0)
(-0.06386979365770032 0 0)
(-0.08163360825845904 0 0)
(-0.09647199460617453 0 0)
(-0.1056238357256036 0 0)
(-0.108607489239952 0 0)
(-0.1088856321464813 0 0)
(-0.1088595457631429 0 0)
(-0.1086370005153664 0 0)
(-0.1080372789634695 0 0)
(-0.1067958028260415 0 0)
(-0.1046457041155818 0 0)
(-0.1013112774536891 0 0)
(-0.09653223714878433 0 0)
(-0.09008488992828975 0 0)
(-0.08180722068632755 0 0)
(-0.07162111616368169 0 0)
(-0.05954666316851687 0 0)
(-0.04570719692718707 0 0)
(-0.03032274016408263 0 0)
(-0.01368526716659903 0 0)
(0.003884335256157674 0 0)
(0.02207853832879844 0 0)
(0.04060880988246245 0 0)
(0.05912347445067361 0 0)
(0.07694408827519281 0 0)
(0.09253048544924597 0 0)
(0.1032415517887186 0 0)
(0.1075799820068313 0 0)
(0.1082113429859989 0 0)
(0.1081880268752117 0 0)
(0.1080556061612674 0 0)
(0.1075927621689636 0 0)
(0.1065845919204195 0 0)
(0.104764382220158 0 0)
(0.1018602215916367 0 0)
(0.09760401135960259 0 0)
(0.09175298351647941 0 0)
(0.08410996117703701 0 0)
(0.07454483654843404 0 0)
(0.06301520953907098 0 0)
(0.04957882363067286 0 0)
(0.03439057118963645 0 0)
(0.01768497415729595 0 0)
(-0.0002496528017541749 0 0)
(-0.01909825055819181 0 0)
(-0.03852322049908204 0 0)
(-0.05807233399643976 0 0)
(-0.07685712165418115 0 0)
(-0.09295769634869892 0 0)
(-0.103432270191979 0 0)
(-0.1072404543141377 0 0)
(-0.1076956433645379 0 0)
(-0.1076862091289686 0 0)
(-0.1075184666202845 0 0)
(-0.1070382648467181 0 0)
(-0.1060021222376821 0 0)
(-0.1041668246623316 0 0)
(-0.101276509844721 0 0)
(-0.09708365079234743 0 0)
(-0.09136536149383476 0 0)
(-0.08394353749083869 0 0)
(-0.07470353231752473 0 0)
(-0.0636086341610832 0 0)
(-0.05070945400098092 0 0)
(-0.0361449651458681 0 0)
(-0.02012873737537219 0 0)
(-0.002920286901978506 0 0)
(0.01520408865806705 0 0)
(0.03395501387733868 0 0)
(0.05296563415503511 0 0)
(0.07156696250092023 0 0)
(0.08828589965820084 0 0)
(0.1004571450203152 0 0)
(0.1060087828328612 0 0)
(0.1070320459346759 0 0)
(0.1070393613257631 0 0)
(0.1069532130854756 0 0)
(0.1065957060934539 0 0)
(0.1057758714366572 0 0)
(0.1042482228638382 0 0)
(0.1017602265836013 0 0)
(0.09805760689404878 0 0)
(0.0929012458476699 0 0)
(0.08608301295819906 0 0)
(0.07744404090307257 0 0)
(0.06689358637185248 0 0)
(0.05442230050888035 0 0)
(0.04010498540402045 0 0)
(0.02409437318621975 0 0)
(0.006608915033492632 0 0)
(-0.01208329909566876 0 0)
(-0.0316651949500347 0 0)
(-0.05169074598607905 0 0)
(-0.07130240099720073 0 0)
(-0.08866465358187381 0 0)
(-0.1007489534417784 0 0)
(-0.1057765107761221 0 0)
(-0.1065652812669162 0 0)
(-0.1065754883196788 0 0)
(-0.1064557728820528 0 0)
(-0.1060801718132723 0 0)
(-0.1052243808951829 0 0)
(-0.1036636655595758 0 0)
(-0.1011576752352131 0 0)
(-0.09747057349116417 0 0)
(-0.09238348916337033 0 0)
(-0.08571056292595552 0 0)
(-0.07731423798912326 0 0)
(-0.06711888823361473 0 0)
(-0.05512161248337196 0 0)
(-0.04139665783651095 0 0)
(-0.02608894524437888 0 0)
(-0.009397348787212791 0 0)
(0.008443376636314379 0 0)
(0.0271652748232403 0 0)
(0.04641856396332966 0 0)
(0.06558533458269492 0 0)
(0.08332607950080456 0 0)
(0.09706886611804842 0 0)
(0.1041919471449931 0 0)
(0.1058696042687437 0 0)
(0.1059431023410274 0 0)
(0.1058901659115604 0 0)
(0.1056272436197886 0 0)
(0.1049727373124692 0 0)
(0.1037007537815254 0 0)
(0.1015740931704319 0 0)
(0.09835082592164383 0 0)
(0.0937977520388187 0 0)
(0.08770272755823838 0 0)
(0.07988990722714766 0 0)
(0.07023598804998379 0 0)
(0.05868263736857416 0 0)
(0.04524245485996779 0 0)
(0.03000021228443692 0 0)
(0.01310975031560641 0 0)
(-0.00521411264356457 0 0)
(-0.02469278382348735 0 0)
(-0.04491590041183361 0 0)
(-0.06510437633489845 0 0)
(-0.08359656812285911 0 0)
(-0.09742910596487003 0 0)
(-0.1040819384180248 0 0)
(-0.1054605845256457 0 0)
(-0.1055081286409347 0 0)
(-0.1054290404197851 0 0)
(-0.1051454377628844 0 0)
(-0.1044487953688637 0 0)
(-0.1031314687541935 0 0)
(-0.1009654086329493 0 0)
(-0.09772440496895794 0 0)
(-0.09319402414189433 0 0)
(-0.087185091248145 0 0)
(-0.07954584948804086 0 0)
(-0.07017356548466992 0 0)
(-0.05902590986682135 0 0)
(-0.04612797886273158 0 0)
(-0.03156963653552208 0 0)
(-0.01549518298223288 0 0)
(0.001905754167001879 0 0)
(0.02039656159309488 0 0)
(0.03965834680698603 0 0)
(0.05914658991660497 0 0)
(0.07770301225317201 0 0)
(0.09297640049034524 0 0)
(0.1019704356630568 0 0)
(0.1046703599044705 0 0)
(0.1048928763772551 0 0)
(0.1048694806385733 0 0)
(0.1046781350452528 0 0)
(0.1041669586440034 0 0)
(0.1031170168468033 0 0)
(0.1013070607584922 0 0)
(0.09850548310128891 0 0)
(0.09448508768488877 0 0)
(0.08903302242482193 0 0)
(0.08196346718052004 0 0)
(0.07313091107627701 0 0)
(0.06244140640514442 0 0)
(0.04986072273135247 0 0)
(0.03541983390057976 0 0)
(0.01921643561528572 0 0)
(0.001412405829777403 0 0)
(-0.01775942653635233 0 0)
(-0.03793870091902998 0 0)
(-0.05844832339074785 0 0)
(-0.07785032305572101 0 0)
(-0.09339455672897902 0 0)
(-0.1019975946263314 0 0)
(-0.10430566579637 0 0)
(-0.1044583586825746 0 0)
(-0.1044117364881167 0 0)
(-0.104207878059836 0 0)
(-0.1036562907505839 0 0)
(-0.1025601745086661 0 0)
(-0.1007020192085223 0 0)
(-0.09786320001626238 0 0)
(-0.09383337977619548 0 0)
(-0.08842176266153214 0 0)
(-0.08146728808746202 0 0)
(-0.07284913704407286 0 0)
(-0.06249725355668796 0 0)
(-0.05039924138229622 0 0)
(-0.03660051122359011 0 0)
(-0.02120008062322788 0 0)
(-0.004347057142503299 0 0)
(0.01375766892956775 0 0)
(0.03283632294804849 0 0)
(0.05242376155352305 0 0)
(0.07155017725737321 0 0)
(0.08817017660275972 0 0)
(0.09917961680007752 0 0)
(0.1033288864815828 0 0)
(0.1038736421348174 0 0)
(0.1038700719193441 0 0)
(0.1037393727967922 0 0)
(0.1033491996400737 0 0)
(0.1024942006914007 0 0)
(0.1009649745643427 0 0)
(0.09853918007387663 0 0)
(0.09499545402246939 0 0)
(0.09012197978374541 0 0)
(0.0837269394945469 0 0)
(0.07564934083642558 0 0)
(0.06576964580021616 0 0)
(0.05401911383288097 0 0)
(0.04038673557260525 0 0)
(0.02492301817894202 0 0)
(0.007742352024851199 0 0)
(-0.01096700003390943 0 0)
(-0.03089876512807282 0 0)
(-0.05148488575781575 0 0)
(-0.07152844475502748 0 0)
(-0.08860686705106262 0 0)
(-0.0993640370996256 0 0)
(-0.1030384193215068 0 0)
(-0.1034404299194488 0 0)
(-0.1034208571844534 0 0)
(-0.1032794199735846 0 0)
(-0.1028545541381431 0 0)
(-0.1019542536929554 0 0)
(-0.1003711284508087 0 0)
(-0.09789365243994658 0 0)
(-0.09431560332416887 0 0)
(-0.08944568415127921 0 0)
(-0.08311687411723666 0 0)
(-0.07519585281328409 0 0)
(-0.06559172966899106 0 0)
(-0.05426253921805563 0 0)
(-0.04121841828233369 0 0)
(-0.02652161667345924 0 0)
(-0.01028464507707731 0 0)
(0.007328775490524518 0 0)
(0.02608339178895281 0 0)
(0.0455873210701244 0 0)
(0.06504509736429029 0 0)
(0.08274498457778239 0 0)
(0.09571672687531854 0 0)
(0.1016866058330738 0 0)
(0.1028256966338221 0 0)
(0.1028518893871435 0 0)
(0.1027777926218878 0 0)
(0.1024926237171558 0 0)
(0.1018144974219122 0 0)
(0.100541909698927 0 0)
(0.09846028184670255 0 0)
(0.09535286785440072 0 0)
(0.09100856560868868 0 0)
(0.08523175216354946 0 0)
(0.07785177890328471 0 0)
(0.06873128542317981 0 0)
(0.05777501929660224 0 0)
(0.04493931561220294 0 0)
(0.03023841699253491 0 0)
(0.01374687685535185 0 0)
(-0.004391301202671225 0 0)
(-0.02392437827258929 0 0)
(-0.04438173898779432 0 0)
(-0.06478870866481501 0 0)
(-0.08310812944153667 0 0)
(-0.09603159475348161 0 0)
(-0.1015281774405952 0 0)
(-0.1024376710267801 0 0)
(-0.10243922802925 0 0)
(-0.102357926164271 0 0)
(-0.1020361450943763 0 0)
(-0.1013091782329135 0 0)
(-0.09997324278158787 0 0)
(-0.09782356197141244 0 0)
(-0.09465759631566809 0 0)
(-0.09028447177937875 0 0)
(-0.08453269574131947 0 0)
(-0.07725906874344296 0 0)
(-0.06835735101497432 0 0)
(-0.05776403221570826 0 0)
(-0.04546132047989761 0 0)
(-0.03147991053836812 0 0)
(-0.01590125255003167 0 0)
(0.001141589835545984 0 0)
(0.01945201410856813 0 0)
(0.03870736283428373 0 0)
(0.05826830824481957 0 0)
(0.07674928772061852 0 0)
(0.09150359936491113 0 0)
(0.09960795651927799 0 0)
(0.1017541389847685 0 0)
(0.1018931632165081 0 0)
(0.1018451613026903 0 0)
(0.1016484853007178 0 0)
(0.1011174194197535 0 0)
(0.1000665893493772 0 0)
(0.09828762463785079 0 0)
(0.09556939966859325 0 0)
(0.09170354376077834 0 0)
(0.0864927141340731 0 0)
(0.07975874468238425 0 0)
(0.07135121434201108 0 0)
(0.06115601827043728 0 0)
(0.04910337026868031 0 0)
(0.0351747065144138 0 0)
(0.01940918630028557 0 0)
(0.001913991842958781 0 0)
(-0.01710832981255262 0 0)
(-0.03727854045545924 0 0)
(-0.0578171036480644 0 0)
(-0.0770541781790136 0 0)
(-0.09194998284094494 0 0)
(-0.0995857734329767 0 0)
(-0.1013654939614749 0 0)
(-0.101449605949893 0 0)
(-0.1014005088950853 0 0)
(-0.1011747363513681 0 0)
(-0.1006036035521263 0 0)
(-0.09949613318844414 0 0)
(-0.09765166978863977 0 0)
(-0.09486992569078286 0 0)
(-0.09095960461224052 0 0)
(-0.0857461543568297 0 0)
(-0.0790794211865854 0 0)
(-0.0708407793488931 0 0)
(-0.06094922595238306 0 0)
(-0.04936606918357386 0 0)
(-0.03609796511256388 0 0)
(-0.02119842153601731 0 0)
(-0.004769954818530234 0 0)
(0.01302459930112516 0 0)
(0.03191767887831864 0 0)
(0.05140021196329339 0 0)
(0.07037817632590398 0 0)
(0.08660794761335931 0 0)
(0.09692515591178306 0 0)
(0.1005122958796143 0 0)
(0.10091803149448 0 0)
(0.1009005453949999 0 0)
(0.1007690941323797 0 0)
(0.1003700758168055 0 0)
(0.09952007398397428 0 0)
(0.09801892882902867 0 0)
(0.09565964680688155 0 0)
(0.09223583957358894 0 0)
(0.08754938142723596 0 0)
(0.08141762520106435 0 0)
(0.07368088957177946 0 0)
(0.06421054307281233 0 0)
(0.05291700600551626 0 0)
(0.03975672793494086 0 0)
(0.02473903433864367 0 0)
(0.007936643958771613 0 0)
(-0.01049161727946417 0 0)
(-0.03024111595384039 0 0)
(-0.05069560697949749 0 0)
(-0.070526843727323 0 0)
(-0.08710758494739308 0 0)
(-0.09707860174319823 0 0)
(-0.1001957697779057 0 0)
(-0.1004837736768764 0 0)
(-0.1004620293191209 0 0)
(-0.1003085040787155 0 0)
(-0.09987245671183553 0 0)
(-0.09896634671525095 0 0)
(-0.09739579756690507 0 0)
(-0.09496367977704165 0 0)
(-0.09147928636227561 0 0)
(-0.08676559540393342 0 0)
(-0.08066683261701442 0 0)
(-0.07305502490147193 0 0)
(-0.06383507586725364 0 0)
(-0.05294973404667787 0 0)
(-0.04038461515100496 0 0)
(-0.02617082685718177 0 0)
(-0.01038567217104228 0 0)
(0.006839268558721035 0 0)
(0.02528375668063717 0 0)
(0.04453892485974421 0 0)
(0.06374849520162669 0 0)
(0.0810907966588606 0 0)
(0.09352033929386989 0 0)
(0.09898002337412891 0 0)
(0.09993588714311083 0 0)
(0.09994543884470335 0 0)
(0.09987303875454356 0 0)
(0.09957884828809424 0 0)
(0.09890302303398719 0 0)
(0.09764930929043487 0 0)
(0.09561661588226048 0 0)
(0.09260139243144368 0 0)
(0.08840535617428462 0 0)
(0.08284210837674094 0 0)
(0.0757442925118687 0 0)
(0.06697112516542814 0 0)
(0.05641603481095533 0 0)
(0.04401413193501833 0 0)
(0.02974991033550804 0 0)
(0.01366700167792174 0 0)
(-0.0041140715526157 0 0)
(-0.02335133932245811 0 0)
(-0.0435581627345218 0 0)
(-0.06369118597329088 0 0)
(-0.08157955678403526 0 0)
(-0.0938524005376276 0 0)
(-0.09878748298293089 0 0)
(-0.09952689878267006 0 0)
(-0.09952746867492009 0 0)
(-0.09943229532347385 0 0)
(-0.09910719035364943 0 0)
(-0.09837868733012235 0 0)
(-0.09705678052230299 0 0)
(-0.09494700450562972 0 0)
(-0.09185884483607008 0 0)
(-0.08761316672941552 0 0)
(-0.0820492049160812 0 0)
(-0.07503080447866971 0 0)
(-0.06645199606319629 0 0)
(-0.05624196068794329 0 0)
(-0.04436907495054962 0 0)
(-0.03084366886980464 0 0)
(-0.01572058162776381 0 0)
(0.0008940013488999755 0 0)
(0.01881975741244217 0 0)
(0.03773219076179352 0 0)
(0.05696786086146013 0 0)
(0.075085340548917 0 0)
(0.08937383635876521 0 0)
(0.09699936457499891 0 0)
(0.09891046547914061 0 0)
(0.09901782677861097 0 0)
(0.09897693548019192 0 0)
(0.09877415033974796 0 0)
(0.09824991435657371 0 0)
(0.09721843770506144 0 0)
(0.09548278442443485 0 0)
(0.09284181257356355 0 0)
(0.08909756222994154 0 0)
(0.08406142199596985 0 0)
(0.07756079688873427 0 0)
(0.06944619570352713 0 0)
(0.05959830859341657 0 0)
(0.04793510780280693 0 0)
(0.03441968920880514 0 0)
(0.01906986366249057 0 0)
(0.001972831021239856 0 0)
(-0.01668177384127765 0 0)
(-0.03651158466345046 0 0)
(-0.05670432389445388 0 0)
(-0.07551811021013724 0 0)
(-0.08985510915694148 0 0)
(-0.0969541619222197 0 0)
(-0.09850827404904268 0 0)
(-0.09857023250091965 0 0)
(-0.0985179383945802 0 0)
(-0.09828979561398103 0 0)
(-0.09771952691556209 0 0)
(-0.09662468983432182 0 0)
(-0.09481336816587277 0 0)
(-0.09209574313275719 0 0)
(-0.08829128610906868 0 0)
(-0.0832353207816823 0 0)
(-0.07678487452425593 0 0)
(-0.06882409992825414 0 0)
(-0.05926943230983527 0 0)
(-0.04807390728655716 0 0)
(-0.03523016594312486 0 0)
(-0.02077328122671298 0 0)
(-0.004786612381082114 0 0)
(0.01258197031034997 0 0)
(0.03107143506159901 0 0)
(0.05016616937692026 0 0)
(0.06874634560369301 0 0)
(0.08453359933322969 0 0)
(0.09440572542699015 0 0)
(0.09773072934649621 0 0)
(0.09808515175329244 0 0)
(0.09806810867890173 0 0)
(0.09793466917733516 0 0)
(0.09754073843081541 0 0)
(0.09670650105992913 0 0)
(0.09524058731295856 0 0)
(0.09294484800192192 0 0)
(0.08962215632692407 0 0)
(0.08508262185055597 0 0)
(0.07914971631583566 0 0)
(0.07166664198051564 0 0)
(0.06250307693652517 0 0)
(0.0515623412619918 0 0)
(0.0387891558690096 0 0)
(0.02417858606712547 0 0)
(0.007788745716943625 0 0)
(-0.01023355932808831 0 0)
(-0.0295870778930953 0 0)
(-0.04964135674361773 0 0)
(-0.06903098057253558 0 0)
(-0.0850935533984197 0 0)
(-0.09455352228215701 0 0)
(-0.09739992976243404 0 0)
(-0.09764457571871876 0 0)
(-0.09761781547019682 0 0)
(-0.09746290870090117 0 0)
(-0.09702568456890123 0 0)
(-0.09612968100283681 0 0)
(-0.09458767663585975 0 0)
(-0.09221109207210154 0 0)
(-0.08881812593668428 0 0)
(-0.08424047251524715 0 0)
(-0.07832879087776741 0 0)
(-0.07095828220957433 0 0)
(-0.06203450169385921 0 0)
(-0.05149770938184026 0 0)
(-0.03932515108248601 0 0)
(-0.02553389055546958 0 0)
(-0.01018709342274028 0 0)
(0.006593824209774843 0 0)
(0.02459704629825873 0 0)
(0.04342048824005366 0 0)
(0.06220188935041918 0 0)
(0.0790997170624769 0 0)
(0.09109247431783583 0 0)
(0.09625304215505641 0 0)
(0.09713079171768095 0 0)
(0.09713905548267342 0 0)
(0.09706143811526796 0 0)
(0.09678512180892032 0 0)
(0.09613852519215968 0 0)
(0.09493466254517557 0 0)
(0.09297176819644887 0 0)
(0.09004616297042746 0 0)
(0.08595973323414062 0 0)
(0.080529226063884 0 0)
(0.07359426155131604 0 0)
(0.06502383340313661 0 0)
(0.05472287229078194 0 0)
(0.04263945469801939 0 0)
(0.02876877584273839 0 0)
(0.01315699554755263 0 0)
(-0.004084367550028968 0 0)
(-0.0227331934782426 0 0)
(-0.04231949292560702 0 0)
(-0.06183193852621428 0 0)
(-0.07910359984237972 0 0)
(-0.09063558262695437 0 0)
(-0.09526717673005877 0 0)
(-0.09609577494636698 0 0)
(-0.09623675570700577 0 0)
(-0.09623428712994281 0 0)
(-0.09597174579789836 0 0)
(-0.09526221271852782 0 0)
(-0.09391285392047255 0 0)
(-0.09173009411423699 0 0)
(-0.08854553429975225 0 0)
(-0.08422596768844283 0 0)
(-0.07866575791410792 0 0)
(-0.07177652495637835 0 0)
(-0.06348424573116176 0 0)
(-0.05373033663067698 0 0)
(-0.04247312557679384 0 0)
(-0.02969463690336734 0 0)
(-0.01541314079324375 0 0)
(0.0003070475799695021 0 0)
(0.01732248671557654 0 0)
(0.03532452607230994 0 0)
(0.05368255646875898 0 0)
(0.07096325504391637 0 0)
(0.08435690649506546 0 0)
(0.09136335869879803 0 0)
(0.09356666322769368 0 0)
(0.09384139740171976 0 0)
(0.09399687473282632 0 0)
(0.09389772400137034 0 0)
(0.09347462905465358 0 0)
(0.09254441353439084 0 0)
(0.09091116738268146 0 0)
(0.08834467980623259 0 0)
(0.0846394280932596 0 0)
(0.07964246304478234 0 0)
(0.07324181387529884 0 0)
(0.06534681524766139 0 0)
(0.05587745779554978 0 0)
(0.04476255260854582 0 0)
(0.03194843086572564 0 0)
(0.0174158966573244 0 0)
(0.001202102733770938 0 0)
(-0.01653253026104366 0 0)
(-0.03537857117879869 0 0)
(-0.0545221837637143 0 0)
(-0.0722849899444806 0 0)
(-0.08563713317035641 0 0)
(-0.0922552575262406 0 0)
(-0.09412067674565774 0 0)
(-0.09432638883703517 0 0)
(-0.09436005895264435 0 0)
(-0.09416158088834113 0 0)
(-0.09362144989076175 0 0)
(-0.09258223640767298 0 0)
(-0.09084424920262536 0 0)
(-0.08818563576115201 0 0)
(-0.08441745936026475 0 0)
(-0.07940232881020315 0 0)
(-0.07304706713077914 0 0)
(-0.0652895537888476 0 0)
(-0.05608699659414187 0 0)
(-0.04540806867922677 0 0)
(-0.03323297531897078 0 0)
(-0.01956261267550001 0 0)
(-0.004433233645023059 0 0)
(0.01204332980544261 0 0)
(0.02958718596539048 0 0)
(0.04764987509590918 0 0)
(0.06517232737311884 0 0)
(0.08000612798268182 0 0)
(0.08931909171360818 0 0)
(0.09287525687606291 0 0)
(0.0936264144054134 0 0)
(0.09362376578495486 0 0)
(0.09360123166556272 0 0)
(0.09327115277136698 0 0)
(0.09251354455838862 0 0)
(0.09114332794051422 0 0)
(0.08893139753417267 0 0)
(0.08565770083527002 0 0)
(0.08114515619076978 0 0)
(0.07526012865865546 0 0)
(0.06790101059953386 0 0)
(0.05898966265679471 0 0)
(0.04846652027384157 0 0)
(0.03628693958580517 0 0)
(0.02242657253385507 0 0)
(0.006900896976734427 0 0)
(-0.01018142391980979 0 0)
(-0.02849886391130034 0 0)
(-0.04739847344095437 0 0)
(-0.06562646388649189 0 0)
(-0.08070922659933925 0 0)
(-0.08969656531677569 0 0)
(-0.09282142187482791 0 0)
(-0.09340425392009764 0 0)
(-0.09328392425649867 0 0)
(-0.09315986102121859 0 0)
(-0.09273084460008538 0 0)
(-0.09189986046013762 0 0)
(-0.09047289072054626 0 0)
(-0.08821506116980248 0 0)
(-0.08491196360823686 0 0)
(-0.0803984964722622 0 0)
(-0.07455877463710472 0 0)
(-0.06732046497812584 0 0)
(-0.05864774039586394 0 0)
(-0.04852791403066734 0 0)
(-0.03695464471723367 0 0)
(-0.02392377714110857 0 0)
(-0.009450444931897138 0 0)
(0.006393690094137822 0 0)
(0.02339800622812875 0 0)
(0.04112205423571071 0 0)
(0.05876415565423068 0 0)
(0.07467309361879029 0 0)
(0.08612386197582039 0 0)
(0.09151712612375235 0 0)
(0.09283375586901468 0 0)
(0.0928998505957556 0 0)
(0.09279724131576871 0 0)
(0.09250264607382992 0 0)
(0.09189614352950884 0 0)
(0.0908010497234986 0 0)
(0.08898488961920462 0 0)
(0.08619306920201669 0 0)
(0.08219796784758866 0 0)
(0.07682573652383314 0 0)
(0.06996415004252497 0 0)
(0.06155545400300235 0 0)
(0.05157458447727238 0 0)
(0.04000417418239819 0 0)
(0.02682485188311205 0 0)
(0.01203502469139633 0 0)
(-0.00430775130368092 0 0)
(-0.02199281748658666 0 0)
(-0.04052628959089118 0 0)
(-0.05895752579294859 0 0)
(-0.0753270009809731 0 0)
(-0.08663073197631158 0 0)
(-0.09162434744822663 0 0)
(-0.0927228663174527 0 0)
(-0.09271325180226039 0 0)
(-0.0924726397590086 0 0)
(-0.09202684819275087 0 0)
(-0.09127785301685923 0 0)
(-0.09008527187329242 0 0)
(-0.08823136455870385 0 0)
(-0.08545634505028434 0 0)
(-0.08151648963984993 0 0)
(-0.0762235849704354 0 0)
(-0.06946853883471243 0 0)
(-0.06122745808945464 0 0)
(-0.05153998739064015 0 0)
(-0.04046602630537901 0 0)
(-0.02804248925118982 0 0)
(-0.01427264707491256 0 0)
(0.0008428177403256296 0 0)
(0.01721054355956043 0 0)
(0.03450384983677721 0 0)
(0.05208510175585745 0 0)
(0.06870217954952225 0 0)
(0.08193943096723076 0 0)
(0.08947758420133438 0 0)
(0.09194290464516414 0 0)
(0.09226947552540748 0 0)
(0.09207931743311212 0 0)
(0.09175147307346897 0 0)
(0.09110409576514814 0 0)
(0.09006875064282481 0 0)
(0.08850802153357884 0 0)
(0.08620225311510155 0 0)
(0.08288051057010069 0 0)
(0.07826132294367376 0 0)
(0.07209363754996179 0 0)
(0.06419985916183407 0 0)
(0.05452406855571075 0 0)
(0.0431722772027588 0 0)
(0.03039071248355271 0 0)
(0.01638571577394255 0 0)
(0.001153823414306591 0 0)
(-0.0157550726740867 0 0)
(-0.03325143928321848 0 0)
(-0.05429624343539891 0 0)
)
;

boundaryField
{
    inlet
    {
        type            zeroGradient;
    }
    outlet
    {
        type            velocityOutletNSCBCx;
        pInf            101325;
        gamma           1.4;
        etaAc           1;
        fieldInf        (-1 0 0);
        lInf            2.25;
        value           uniform (-0.06178694711445665 0 0);
    }
    frontAndBack
    {
        type            empty;
    }
}


// ************************************************************************* //
