/*--------------------------------*- C++ -*----------------------------------*\
| =========                 |                                                 |
| \\      /  F ield         | OpenFOAM: The Open Source CFD Toolbox           |
|  \\    /   O peration     | Version:  v2012                                 |
|   \\  /    A nd           | Website:  www.openfoam.com                      |
|    \\/     M anipulation  |                                                 |
\*---------------------------------------------------------------------------*/
FoamFile
{
    version     2.0;
    format      ascii;
    class       volVectorField;
    location    "0.0085";
    object      UMean;
}
// * * * * * * * * * * * * * * * * * * * * * * * * * * * * * * * * * * * * * //

dimensions      [0 1 -1 0 0 0 0];


internalField   nonuniform List<vector> 
1000
(
(0.001538091610926352 0 0)
(0.001470495557115964 0 0)
(0.001470074417847646 0 0)
(0.00142658479884533 0 0)
(0.001378967854967926 0 0)
(0.00130920469021564 0 0)
(0.001234549974074157 0 0)
(0.001147805036600308 0 0)
(0.001057525032893812 0 0)
(0.0009597646257041977 0 0)
(0.0008593644755517582 0 0)
(0.0007575855565223551 0 0)
(0.0006563230533287174 0 0)
(0.0005563387582562526 0 0)
(0.0004593166006585965 0 0)
(0.0003672660663155281 0 0)
(0.0002821055317982044 0 0)
(0.0002056207026888355 0 0)
(0.0001392353454384274 0 0)
(8.409177178964884e-05 0 0)
(4.120014887547716e-05 0 0)
(1.124860376548236e-05 0 0)
(-5.065080811333977e-06 0 0)
(-7.524546886712293e-06 0 0)
(4.065949749196348e-06 0 0)
(2.936361718062013e-05 0 0)
(6.800391218651211e-05 0 0)
(0.0001191735940152588 0 0)
(0.0001821521133268164 0 0)
(0.0002560899574254391 0 0)
(0.0003402457547749226 0 0)
(0.0004330493465875938 0 0)
(0.0005313036772773335 0 0)
(0.0006311527054615454 0 0)
(0.0007310351797426321 0 0)
(0.0008305299955938818 0 0)
(0.0009291174931149729 0 0)
(0.001025432871236852 0 0)
(0.001117990901823264 0 0)
(0.001204607244411373 0 0)
(0.001283429418671864 0 0)
(0.0013523881351616 0 0)
(0.001410205722793222 0 0)
(0.00145557235241463 0 0)
(0.001487953404822392 0 0)
(0.001506668222603412 0 0)
(0.001511669399309319 0 0)
(0.001502712197261364 0 0)
(0.001480171888471489 0 0)
(0.001444219853349028 0 0)
(0.001395560053860121 0 0)
(0.001334543880883929 0 0)
(0.001261891224120616 0 0)
(0.001178263259412584 0 0)
(0.001085898524647997 0 0)
(0.0009885095196592653 0 0)
(0.0008900028174980382 0 0)
(0.0007914206881272852 0 0)
(0.0006931702073846078 0 0)
(0.0005957348315934301 0 0)
(0.0005000975841125346 0 0)
(0.0004076517872239292 0 0)
(0.0003201620582592693 0 0)
(0.000239603586243524 0 0)
(0.0001679787986957412 0 0)
(0.0001070685864726614 0 0)
(5.834168382039366e-05 0 0)
(2.280039042834771e-05 0 0)
(1.078597029711741e-06 0 0)
(-6.57876067838767e-06 0 0)
(-1.59631007192828e-07 0 0)
(2.012906115247334e-05 0 0)
(5.398063972790096e-05 0 0)
(0.0001009937948953643 0 0)
(0.0001608248464569475 0 0)
(0.0002329883581167529 0 0)
(0.0003164807333415809 0 0)
(0.0004087178901560071 0 0)
(0.0005054156273105372 0 0)
(0.0006030517646225413 0 0)
(0.0007006665495378735 0 0)
(0.0007979524778348006 0 0)
(0.0008945726118868274 0 0)
(0.0009894550003875105 0 0)
(0.001081579904847602 0 0)
(0.001169129264826098 0 0)
(0.001250491144010582 0 0)
(0.001323495998401987 0 0)
(0.001386513732038941 0 0)
(0.00143771001965385 0 0)
(0.00147608394260945 0 0)
(0.001500612714465578 0 0)
(0.001511146767687621 0 0)
(0.001507417638880091 0 0)
(0.001489838764362848 0 0)
(0.001458488010933085 0 0)
(0.001413911137016927 0 0)
(0.001356183237664618 0 0)
(0.001285925873980374 0 0)
(0.001203915528732112 0 0)
(0.001112973522717526 0 0)
(0.001017275499221482 0 0)
(0.000920663030790821 0 0)
(0.0008239572836662128 0 0)
(0.0007275478111926773 0 0)
(0.000631732013569641 0 0)
(0.0005373327827068264 0 0)
(0.000445381759635758 0 0)
(0.0003573654093141174 0 0)
(0.0002749343721468996 0 0)
(0.0002000211498984471 0 0)
(0.0001344610265630998 0 0)
(8.008163432363456e-05 0 0)
(3.827338786003861e-05 0 0)
(1.018051686892343e-05 0 0)
(-3.651920478657516e-06 0 0)
(-2.910967006623258e-06 0 0)
(1.223239675640179e-05 0 0)
(4.161305729475768e-05 0 0)
(8.483553766286368e-05 0 0)
(0.0001416839370324281 0 0)
(0.0002116134157367806 0 0)
(0.0002934705903278169 0 0)
(0.000384223207305435 0 0)
(0.0004793232294308382 0 0)
(0.0005752579474116476 0 0)
(0.0006712130392349625 0 0)
(0.0007668735676012011 0 0)
(0.0008620309717328458 0 0)
(0.0009557639666458651 0 0)
(0.001047302402350682 0 0)
(0.001135067855358689 0 0)
(0.001217726488325723 0 0)
(0.001293247470591066 0 0)
(0.001360053111918296 0 0)
(0.001416147204650775 0 0)
(0.001460250828566368 0 0)
(0.001490947152511284 0 0)
(0.001507697719401498 0 0)
(0.001509905225103186 0 0)
(0.00149775299760056 0 0)
(0.001471185816020215 0 0)
(0.001430695313274391 0 0)
(0.001376343575523275 0 0)
(0.001308818248546913 0 0)
(0.001228997655981314 0 0)
(0.001139906844552344 0 0)
(0.001045846306406482 0 0)
(0.0009507930342579246 0 0)
(0.0008556037692385779 0 0)
(0.0007606760567319715 0 0)
(0.0006661749357569178 0 0)
(0.000572835451659958 0 0)
(0.0004814384860994005 0 0)
(0.0003933030901857859 0 0)
(0.0003097916902422406 0 0)
(0.0002327100805647294 0 0)
(0.000163751439275874 0 0)
(0.0001048333249975204 0 0)
(5.749373736231557e-05 0 0)
(2.323653911535286e-05 0 0)
(2.964506966410265e-06 0 0)
(-2.574118304587895e-06 0 0)
(6.751652481459335e-06 0 0)
(3.105378598601805e-05 0 0)
(7.001887508797659e-05 0 0)
(0.0001234990440000985 0 0)
(0.0001908054143883548 0 0)
(0.0002706719067863274 0 0)
(0.0003597624360436706 0 0)
(0.0004534040609831313 0 0)
(0.0005479092090919937 0 0)
(0.0006424799484805404 0 0)
(0.0007367860114283975 0 0)
(0.0008307144055224647 0 0)
(0.0009234528359722707 0 0)
(0.001014392867803321 0 0)
(0.001102153661883321 0 0)
(0.001185589430333636 0 0)
(0.001262855613095794 0 0)
(0.001332480198889563 0 0)
(0.001392481087694926 0 0)
(0.001441477681052651 0 0)
(0.001477815433733012 0 0)
(0.001500656556830394 0 0)
(0.001509023128965956 0 0)
(0.001502788949581946 0 0)
(0.001481599535200519 0 0)
(0.001445805298363796 0 0)
(0.001395374254381286 0 0)
(0.001331034981899814 0 0)
(0.001253729271050576 0 0)
(0.00116659395318955 0 0)
(0.001074060860406611 0 0)
(0.0009803450178648046 0 0)
(0.0008864571298548342 0 0)
(0.0007927984742249754 0 0)
(0.0006994450062457025 0 0)
(0.0006070548975552872 0 0)
(0.0005162359276590435 0 0)
(0.0004281626454400678 0 0)
(0.0003439837663936367 0 0)
(0.0002653586136701932 0 0)
(0.0001938228022322658 0 0)
(0.0001312708768745943 0 0)
(7.926433526823306e-05 0 0)
(3.951089128526591e-05 0 0)
(1.315466729540435e-05 0 0)
(1.326329601282433e-06 0 0)
(4.490851432021332e-06 0 0)
(2.312269100748937e-05 0 0)
(5.713431995294123e-05 0 0)
(0.000106541530057645 0 0)
(0.0001706598241592418 0 0)
(0.0002481564979976478 0 0)
(0.0003354892872524273 0 0)
(0.0004277599454660075 0 0)
(0.000521022493716493 0 0)
(0.0006143790730342765 0 0)
(0.0007075086432042953 0 0)
(0.0008003500543474569 0 0)
(0.0008921930436496807 0 0)
(0.000982541552267287 0 0)
(0.001070173886872775 0 0)
(0.001154098088786409 0 0)
(0.001232637173218858 0 0)
(0.00130443998321052 0 0)
(0.001367597066362695 0 0)
(0.001420712789628681 0 0)
(0.001462020140720721 0 0)
(0.001490477876115064 0 0)
(0.001504821970316038 0 0)
(0.001504613495092132 0 0)
(0.001489190998314758 0 0)
(0.001458650489406784 0 0)
(0.001412786041725423 0 0)
(0.001352229549941076 0 0)
(0.001277895830239949 0 0)
(0.001192931600550725 0 0)
(0.001101916876864467 0 0)
(0.001009407443695025 0 0)
(0.0009166737970410534 0 0)
(0.0008241410561094509 0 0)
(0.000731822473436367 0 0)
(0.000640304054759351 0 0)
(0.0005500671761347536 0 0)
(0.0004621670847302018 0 0)
(0.0003775777099554819 0 0)
(0.0002978265846636632 0 0)
(0.0002242906481975419 0 0)
(0.0001587998580974763 0 0)
(0.000102877594071032 0 0)
(5.832374944370787e-05 0 0)
(2.643616329395821e-05 0 0)
(8.61842482836865e-06 0 0)
(5.635954307548272e-06 0 0)
(1.831175670689746e-05 0 0)
(4.684370592649358e-05 0 0)
(9.150067835055143e-05 0 0)
(0.0001517252843959878 0 0)
(0.0002262743229100625 0 0)
(0.0003115492432599079 0 0)
(0.0004024439372942733 0 0)
(0.0004945807542596343 0 0)
(0.000586861235510742 0 0)
(0.0006789333242855698 0 0)
(0.0007708066126518505 0 0)
(0.0008618193557747045 0 0)
(0.0009515984069327237 0 0)
(0.001039020073700717 0 0)
(0.00112325362097303 0 0)
(0.001202738324274108 0 0)
(0.001276267764950384 0 0)
(0.001342005076302924 0 0)
(0.001398599420376639 0 0)
(0.001444236469450473 0 0)
(0.001477756208478177 0 0)
(0.001497697719777896 0 0)
(0.001503362179611835 0 0)
(0.001493814287797808 0 0)
(0.001468871408379176 0 0)
(0.001428107646817059 0 0)
(0.001371956942437815 0 0)
(0.001301194746562141 0 0)
(0.001218805680292162 0 0)
(0.001129431226513403 0 0)
(0.001038053810775685 0 0)
(0.0009463691153262695 0 0)
(0.0008548573227716705 0 0)
(0.0007634910939770481 0 0)
(0.000672787583291281 0 0)
(0.0005831377766729856 0 0)
(0.0004954797356488787 0 0)
(0.000410662424405238 0 0)
(0.0003300712746661724 0 0)
(0.0002549658802065051 0 0)
(0.0001870651545693619 0 0)
(0.0001278529664668264 0 0)
(7.912877363879585e-05 0 0)
(4.229912599948403e-05 0 0)
(1.892331570102586e-05 0 0)
(1.002973895736687e-05 0 0)
(1.670615061546886e-05 0 0)
(3.946814633154413e-05 0 0)
(7.882982962516812e-05 0 0)
(0.000134496490530356 0 0)
(0.0002054128625187261 0 0)
(0.0002881828739934301 0 0)
(0.0003775476421129996 0 0)
(0.0004686265399135552 0 0)
(0.0005598966562337667 0 0)
(0.000651008340158298 0 0)
(0.0007419665366841394 0 0)
(0.0008322178622697576 0 0)
(0.0009214230867520933 0 0)
(0.001008605779599286 0 0)
(0.001093001147590739 0 0)
(0.001173217258171121 0 0)
(0.001248115883568132 0 0)
(0.001316000226577614 0 0)
(0.001375533283505028 0 0)
(0.001424945240734955 0 0)
(0.001462976387113483 0 0)
(0.001488070571202374 0 0)
(0.001499308469235758 0 0)
(0.001495552116435482 0 0)
(0.001476349459413956 0 0)
(0.001441054152937005 0 0)
(0.001389856030627576 0 0)
(0.001323285062891149 0 0)
(0.00124400704792189 0 0)
(0.00115653343407499 0 0)
(0.001066301760596526 0 0)
(0.0009755955771089557 0 0)
(0.0008850443743566484 0 0)
(0.0007945709586109607 0 0)
(0.0007046510504060032 0 0)
(0.0006155814206737915 0 0)
(0.0005282224693328564 0 0)
(0.0004432956921416149 0 0)
(0.000362088276871376 0 0)
(0.0002857233763320558 0 0)
(0.0002158413795047334 0 0)
(0.0001538333874446046 0 0)
(0.0001015015205515575 0 0)
(6.026702235064409e-05 0 0)
(3.18215708942438e-05 0 0)
(1.734152496482547e-05 0 0)
(1.816548781030803e-05 0 0)
(3.503741103716475e-05 0 0)
(6.875971466012444e-05 0 0)
(0.000119285092030807 0 0)
(0.0001859085269326742 0 0)
(0.0002655797746861972 0 0)
(0.000353154927343204 0 0)
(0.0004431494972329345 0 0)
(0.0005334793609090085 0 0)
(0.0006236655096482297 0 0)
(0.0007137655090186442 0 0)
(0.0008032651884690415 0 0)
(0.000891910945913209 0 0)
(0.0009787977040486163 0 0)
(0.001063269506033508 0 0)
(0.001144029782918178 0 0)
(0.001220049561490192 0 0)
(0.001289721443777479 0 0)
(0.001351774792852 0 0)
(0.001404473274193382 0 0)
(0.001446527711659504 0 0)
(0.001476317220993573 0 0)
(0.001492775162229894 0 0)
(0.00149460758438635 0 0)
(0.001481133193884447 0 0)
(0.001451513424384974 0 0)
(0.001405668881740056 0 0)
(0.001343856132432269 0 0)
(0.001268265263439708 0 0)
(0.001183097620101324 0 0)
(0.001094097405506468 0 0)
(0.001004348266664754 0 0)
(0.0009147065420044216 0 0)
(0.000825105390361846 0 0)
(0.0007359434034241643 0 0)
(0.0006474721363014411 0 0)
(0.0005604475434454206 0 0)
(0.0004755209995330866 0 0)
(0.0003938532338894462 0 0)
(0.000316489081349639 0 0)
(0.0002449467790992405 0 0)
(0.0001805681908461024 0 0)
(0.0001250860652276918 0 0)
(7.995135953403746e-05 0 0)
(4.688664669441723e-05 0 0)
(2.720905223070025e-05 0 0)
(2.239776643906517e-05 0 0)
(3.342469863460158e-05 0 0)
(6.130039351861583e-05 0 0)
(0.0001062727499820356 0 0)
(0.0001679910127996881 0 0)
(0.0002439426605309947 0 0)
(0.0003293101695024397 0 0)
(0.0004181414146209303 0 0)
(0.0005075572093256191 0 0)
(0.0005968608281003089 0 0)
(0.0006861209868418525 0 0)
(0.0007748870161687136 0 0)
(0.000862958953502489 0 0)
(0.0009495130845821097 0 0)
(0.001033975378129219 0 0)
(0.001115141561981832 0 0)
(0.001192077290765463 0 0)
(0.001263256387000722 0 0)
(0.001327484647292363 0 0)
(0.001383059309093633 0 0)
(0.00142870837101998 0 0)
(0.001462758120904884 0 0)
(0.001484072866081666 0 0)
(0.001491214178405647 0 0)
(0.001483361250381828 0 0)
(0.001459467939390341 0 0)
(0.001419256046348406 0 0)
(0.001362643884328103 0 0)
(0.001291349166483295 0 0)
(0.001208989648407271 0 0)
(0.001121444381129873 0 0)
(0.001032617886688535 0 0)
(0.0009438605222253495 0 0)
(0.0008550964627312879 0 0)
(0.0007666875031132833 0 0)
(0.0006788231816283638 0 0)
(0.0005921830211340681 0 0)
(0.0005073398397326005 0 0)
(0.0004253578093454575 0 0)
(0.0003471938542179497 0 0)
(0.0002742692532913706 0 0)
(0.0002078566523757353 0 0)
(0.0001496262180343022 0 0)
(0.0001010178347383338 0 0)
(6.376558894100985e-05 0 0)
(3.926751710955072e-05 0 0)
(2.91055981587957e-05 0 0)
(3.441971897016775e-05 0 0)
(5.639921595695639e-05 0 0)
(9.55580359772228e-05 0 0)
(0.0001519053441694764 0 0)
(0.0002235311060676183 0 0)
(0.000306171434538252 0 0)
(0.0003936446770984236 0 0)
(0.000482139455565121 0 0)
(0.0005705765528145601 0 0)
(0.0006589926924887649 0 0)
(0.00074702706313919 0 0)
(0.0008344924829163713 0 0)
(0.0009206802301699135 0 0)
(0.001005045708574575 0 0)
(0.001086512766235172 0 0)
(0.001164182770669226 0 0)
(0.001236655396424481 0 0)
(0.001302757780058865 0 0)
(0.001360883103066388 0 0)
(0.001409734416504506 0 0)
(0.001447672839128598 0 0)
(0.00147346723699436 0 0)
(0.00148563895916144 0 0)
(0.001483201462002942 0 0)
(0.00146500542275684 0 0)
(0.001430537060004437 0 0)
(0.001379469782701157 0 0)
(0.001312973325121229 0 0)
(0.001234020908160187 0 0)
(0.00114824661362891 0 0)
(0.001060403406843665 0 0)
(0.0009724906461348534 0 0)
(0.0008845558884462266 0 0)
(0.0007968931163074958 0 0)
(0.0007096593288311584 0 0)
(0.0006234442787220074 0 0)
(0.0005387675645577493 0 0)
(0.0004565887541663687 0 0)
(0.0003777999352496233 0 0)
(0.0003037179347664032 0 0)
(0.0002355593012172651 0 0)
(0.0001749156470378983 0 0)
(0.0001232095999946377 0 0)
(8.215580730630487e-05 0 0)
(5.320382208908941e-05 0 0)
(3.799391340258675e-05 0 0)
(3.779188105228802e-05 0 0)
(5.392555914760295e-05 0 0)
(8.713558509120987e-05 0 0)
(0.0001377616303894792 0 0)
(0.0002044955076692722 0 0)
(0.0002838081190921257 0 0)
(0.0003696145016454755 0 0)
(0.0004571682336559329 0 0)
(0.0005447596392125646 0 0)
(0.0006323508157535547 0 0)
(0.000719653018351987 0 0)
(0.0008064969320799595 0 0)
(0.0008922755065762972 0 0)
(0.0009764747386845088 0 0)
(0.001058131606963367 0 0)
(0.001136385376620443 0 0)
(0.001209948521231011 0 0)
(0.001277677259957418 0 0)
(0.001338055125356698 0 0)
(0.001389780364150541 0 0)
(0.001431257520406628 0 0)
(0.001461194768464606 0 0)
(0.001478092397705532 0 0)
(0.001480840895399441 0 0)
(0.001468209483533071 0 0)
(0.001439490823306172 0 0)
(0.001394138430019612 0 0)
(0.00133283017252731 0 0)
(0.001257849954614582 0 0)
(0.001174312355565958 0 0)
(0.001087590398719717 0 0)
(0.001000536091123235 0 0)
(0.0009134408506868867 0 0)
(0.0008265574636058032 0 0)
(0.0007399842391662933 0 0)
(0.0006542596314445222 0 0)
(0.0005698190666149066 0 0)
(0.0004875622577032013 0 0)
(0.000408286177852612 0 0)
(0.0003332470830254902 0 0)
(0.0002635716638777124 0 0)
(0.0002008090000993128 0 0)
(0.0001463205485363405 0 0)
(0.0001018190468611179 0 0)
(6.87471006450311e-05 0 0)
(4.880522288383899e-05 0 0)
(4.332056041137072e-05 0 0)
(5.374915240604878e-05 0 0)
(8.09899451047307e-05 0 0)
(0.0001256889470643839 0 0)
(0.0001870706869545544 0 0)
(0.0002624311393316383 0 0)
(0.000346116487226846 0 0)
(0.0004326341467221308 0 0)
(0.0005193932359574711 0 0)
(0.0006061822387009153 0 0)
(0.000692730412169114 0 0)
(0.0007789509173274818 0 0)
(0.0008642582927666866 0 0)
(0.0009482414346899528 0 0)
(0.001029971356149471 0 0)
(0.001108692345772524 0 0)
(0.001183155230720815 0 0)
(0.001252311069842471 0 0)
(0.001314669853396599 0 0)
(0.001368995135508972 0 0)
(0.001413684528725123 0 0)
(0.00144746432797908 0 0)
(0.001468780739916641 0 0)
(0.001476485957195577 0 0)
(0.001469241730813011 0 0)
(0.001446234296685541 0 0)
(0.001406693856647165 0 0)
(0.001350919210455578 0 0)
(0.001280468345972241 0 0)
(0.001199738008877448 0 0)
(0.001114330624772693 0 0)
(0.001028123441827031 0 0)
(0.000941828739458753 0 0)
(0.0008556979775579327 0 0)
(0.0007697940898738838 0 0)
(0.0006845765603046681 0 0)
(0.0006004414023849905 0 0)
(0.0005181905275990592 0 0)
(0.000438573879469886 0 0)
(0.000362746504587687 0 0)
(0.000291789389246131 0 0)
(0.0002271626265131701 0 0)
(0.0001702010128107923 0 0)
(0.0001225644006530695 0 0)
(8.570828081984626e-05 0 0)
(6.133441526887948e-05 0 0)
(5.083636551191782e-05 0 0)
(5.574479998912286e-05 0 0)
(7.710764864194217e-05 0 0)
(0.0001158049926485163 0 0)
(0.0001715284790387432 0 0)
(0.000242371371316841 0 0)
(0.0003233806477298001 0 0)
(0.0004086529280470009 0 0)
(0.0004945469737094838 0 0)
(0.0005805089652298239 0 0)
(0.0006662834083620941 0 0)
(0.0007518252781947396 0 0)
(0.0008366143108409016 0 0)
(0.0009202973196127958 0 0)
(0.001002010784669158 0 0)
(0.001081071394463795 0 0)
(0.001156285726886979 0 0)
(0.001226680650818863 0 0)
(0.001290800966148256 0 0)
(0.001347474627430524 0 0)
(0.001395099872259273 0 0)
(0.001432437813418095 0 0)
(0.001457887132823994 0 0)
(0.00147029556122034 0 0)
(0.001468225483341951 0 0)
(0.001450801418191974 0 0)
(0.001417044627741072 0 0)
(0.001366970590548449 0 0)
(0.001301472263001917 0 0)
(0.001224154457208643 0 0)
(0.001140416376731594 0 0)
(0.001055126684805821 0 0)
(0.0009696289579141911 0 0)
(0.0008842932994485184 0 0)
(0.0007990662787964575 0 0)
(0.0007144319147208326 0 0)
(0.000630643949772548 0 0)
(0.0005485166598914546 0 0)
(0.0004686539504087192 0 0)
(0.0003922144100622409 0 0)
(0.0003201402458392772 0 0)
(0.0002538960710758812 0 0)
(0.0001946996539717355 0 0)
(0.00014423154870599 0 0)
(0.0001038711450908566 0 0)
(7.537396678384975e-05 0 0)
(6.011513288700729e-05 0 0)
(5.972682493138692e-05 0 0)
(7.532626979176416e-05 0 0)
(0.0001080170697069628 0 0)
(0.000157851482903148 0 0)
(0.000223666952756564 0 0)
(0.0003013772363279959 0 0)
(0.000385090606996207 0 0)
(0.0004701079914083552 0 0)
(0.0005552610665251112 0 0)
(0.0006402681438665435 0 0)
(0.0007251213879156621 0 0)
(0.0008093637597224487 0 0)
(0.0008926873130653108 0 0)
(0.0009743094550312303 0 0)
(0.001053587878805977 0 0)
(0.00112942080228979 0 0)
(0.001200864000564316 0 0)
(0.001266552845288439 0 0)
(0.001325320001234328 0 0)
(0.001375638621166866 0 0)
(0.001416239182904167 0 0)
(0.001445566092725408 0 0)
(0.001462391220746326 0 0)
(0.00146528493214797 0 0)
(0.001453241566879018 0 0)
(0.001425210206721058 0 0)
(0.001380890361083898 0 0)
(0.001320710415577407 0 0)
(0.001247372502679548 0 0)
(0.00116581620920842 0 0)
(0.001081545499839506 0 0)
(0.000996872901165994 0 0)
(0.0009123037157454007 0 0)
(0.0008278193438259622 0 0)
(0.0007437731139286464 0 0)
(0.0006604429596792326 0 0)
(0.0005784967739469347 0 0)
(0.0004985497735237299 0 0)
(0.0004216152749673771 0 0)
(0.0003486394913362396 0 0)
(0.0002809554042463253 0 0)
(0.0002197890534110861 0 0)
(0.0001667182169061783 0 0)
(0.0001231488547683755 0 0)
(9.077850327994795e-05 0 0)
(7.104050892907312e-05 0 0)
(6.55684923018882e-05 0 0)
(7.559360334748241e-05 0 0)
(0.0001023389598970934 0 0)
(0.0001461897787654646 0 0)
(0.0002065778534157653 0 0)
(0.0002803610277417942 0 0)
(0.0003620540080964617 0 0)
(0.0004461033376739251 0 0)
(0.0005304571133735515 0 0)
(0.0006146980320949228 0 0)
(0.0006988432215665197 0 0)
(0.0007825023685509088 0 0)
(0.0008654090617688833 0 0)
(0.0009468571713002988 0 0)
(0.001026252624198352 0 0)
(0.001102569577948796 0 0)
(0.001174908868418561 0 0)
(0.001241973429560565 0 0)
(0.001302628435914233 0 0)
(0.001355396989934908 0 0)
(0.001399017090666715 0 0)
(0.001431956025522492 0 0)
(0.001452959042780345 0 0)
(0.001460584935597968 0 0)
(0.001453750327317205 0 0)
(0.001431324232638488 0 0)
(0.001392781526987762 0 0)
(0.001338149908057539 0 0)
(0.001269324519078796 0 0)
(0.001190505048483345 0 0)
(0.001107475361261564 0 0)
(0.001023621548310024 0 0)
(0.0009398198053673636 0 0)
(0.0008560639365912823 0 0)
(0.0007726424346629029 0 0)
(0.0006897924197604164 0 0)
(0.0006081044368555053 0 0)
(0.0005281479181321072 0 0)
(0.0004508497119630765 0 0)
(0.0003771146277146042 0 0)
(0.0003081874480255967 0 0)
(0.0002452663076299822 0 0)
(0.0001898506715690754 0 0)
(0.0001433440529308556 0 0)
(0.0001073890415008425 0 0)
(8.345582276824133e-05 0 0)
(7.31640242727109e-05 0 0)
(7.784112502820344e-05 0 0)
(9.87866636065816e-05 0 0)
(0.0001366636446115614 0 0)
(0.000191368790901382 0 0)
(0.0002606683217180444 0 0)
(0.0003397667181777131 0 0)
(0.0004226455464033148 0 0)
(0.0005061661189876835 0 0)
(0.0005896213704906591 0 0)
(0.0006730178912612747 0 0)
(0.0007560467268114493 0 0)
(0.0008384649952786729 0 0)
(0.0009196560146767624 0 0)
(0.0009990570592815333 0 0)
(0.001075731494891091 0 0)
(0.001148811156198629 0 0)
(0.001217079686705233 0 0)
(0.001279424280622658 0 0)
(0.001334430617839031 0 0)
(0.001380839545140867 0 0)
(0.00141715321672292 0 0)
(0.001442092446440279 0 0)
(0.001454215909055143 0 0)
(0.001452378443843513 0 0)
(0.001435390144566132 0 0)
(0.001402552239871126 0 0)
(0.001353578195080633 0 0)
(0.001289681211968919 0 0)
(0.001214202323215064 0 0)
(0.001132778038956163 0 0)
(0.001049794524881479 0 0)
(0.0009667673106741223 0 0)
(0.0008837588650621809 0 0)
(0.0008009976194336852 0 0)
(0.0007186837091681939 0 0)
(0.0006373322746864055 0 0)
(0.0005574666326081563 0 0)
(0.0004799332092823323 0 0)
(0.0004055884965299454 0 0)
(0.0003355991556155562 0 0)
(0.0002711215119251133 0 0)
(0.0002135887301553845 0 0)
(0.0001643804502638658 0 0)
(0.0001250969207105605 0 0)
(9.721584339088745e-05 0 0)
(8.235182076444623e-05 0 0)
(8.188909980579385e-05 0 0)
(9.719645398006992e-05 0 0)
(0.0001291387067955967 0 0)
(0.0001779926186531803 0 0)
(0.0002423101361856231 0 0)
(0.0003181895124150568 0 0)
(0.0003995895376564539 0 0)
(0.0004822692754813378 0 0)
(0.0005649548239251128 0 0)
(0.0006476111915332113 0 0)
(0.0007299899767385496 0 0)
(0.0008118846276393308 0 0)
(0.0008927515812294657 0 0)
(0.0009720743860598714 0 0)
(0.001048989116389597 0 0)
(0.001122675677986259 0 0)
(0.00119198012843096 0 0)
(0.001255832256644307 0 0)
(0.001312860607850039 0 0)
(0.001361835545233866 0 0)
(0.001401274810777422 0 0)
(0.00142990902351108 0 0)
(0.0014462790900709 0 0)
(0.001449221236590644 0 0)
(0.001437472765394043 0 0)
(0.00141023301997738 0 0)
(0.001366940028824036 0 0)
(0.001308290623389319 0 0)
(0.001236726239811209 0 0)
(0.00115739290787059 0 0)
(0.001075383785265678 0 0)
(0.0009931325132871533 0 0)
(0.0009108640500406331 0 0)
(0.0008287945205771244 0 0)
(0.0007470677093251468 0 0)
(0.0006661537011794753 0 0)
(0.0005865073210302229 0 0)
(0.000508910556384948 0 0)
(0.0004341368332867454 0 0)
(0.0003632785807099051 0 0)
(0.000297412598408018 0 0)
(0.0002379118507905664 0 0)
(0.0001860984419148584 0 0)
(0.0001435582888633268 0 0)
(0.0001117970790506422 0 0)
(9.24218270826237e-05 0 0)
(8.697545330803591e-05 0 0)
(9.695594504832835e-05 0 0)
(0.0001232079070331465 0 0)
(0.0001664541525765617 0 0)
(0.0002259284395064116 0 0)
(0.0002985227814643354 0 0)
(0.0003784076351182606 0 0)
(0.0004607720021133133 0 0)
(0.0005432043585685872 0 0)
(0.0006255619024010792 0 0)
(0.0007075832310130738 0 0)
(0.0007892031305717822 0 0)
(0.0008699723378392759 0 0)
(0.0009494465088602079 0 0)
(0.001027102583589987 0 0)
(0.001101862057204137 0 0)
(0.001172810073367817 0 0)
(0.001238749743340792 0 0)
(0.001298687578231277 0 0)
(0.0013508982484356 0 0)
(0.001393838264034932 0 0)
(0.001426437554886074 0 0)
(0.001446760076747601 0 0)
(0.001453745477054286 0 0)
(0.001446643543366771 0 0)
(0.001423783393408213 0 0)
(0.001384617041048965 0 0)
(0.001329651247303406 0 0)
(0.001260613010152771 0 0)
(0.001182145625513604 0 0)
(0.001099278285748135 0 0)
(0.001015502274187134 0 0)
(0.000931660854558323 0 0)
(0.0008480477581421881 0 0)
(0.0007650926313031213 0 0)
(0.0006828604823245208 0 0)
(0.0006018976190282952 0 0)
(0.0005228286400653774 0 0)
(0.0004461683330263988 0 0)
(0.0003728152738180829 0 0)
(0.0003039339440992433 0 0)
(0.0002409846713929085 0 0)
(0.000185198623608789 0 0)
(0.0001382376986295812 0 0)
(0.0001020233238876718 0 0)
(7.74047055341226e-05 0 0)
(6.673134705839191e-05 0 0)
(7.105231153575579e-05 0 0)
(9.176004707338533e-05 0 0)
(0.000129176221824598 0 0)
(0.0001833077916809081 0 0)
(0.0002517869403737953 0 0)
(0.000329751594317921 0 0)
(0.000411588531859853 0 0)
(0.0004947879002260575 0 0)
(0.0005777378164588559 0 0)
(0.0006601457075185068 0 0)
(0.0007425048932479357 0 0)
(0.0008236498251669247 0 0)
(0.0009036541606779958 0 0)
(0.0009816620706981883 0 0)
(0.001057231026272073 0 0)
(0.001129210868619207 0 0)
(0.001196713871933009 0 0)
(0.001258441642951693 0 0)
(0.00131334899442345 0 0)
(0.001359650370431399 0 0)
(0.001395917052171076 0 0)
(0.001420851164868554 0 0)
(0.001432787445473076 0 0)
(0.001430843852716049 0 0)
(0.001414090813511869 0 0)
(0.001381275981496865 0 0)
(0.001332666708998792 0 0)
(0.001269374697586016 0 0)
(0.001194842161861584 0 0)
(0.001114128573037416 0 0)
(0.00103142103924657 0 0)
(0.0009485374406128423 0 0)
(0.000865491081741009 0 0)
(0.000783020715651604 0 0)
(0.000701715431341803 0 0)
(0.0006209299921515167 0 0)
(0.0005426021944599682 0 0)
(0.0004662550237314995 0 0)
(0.0003929069101517391 0 0)
(0.0003235130070537243 0 0)
(0.0002594573738277137 0 0)
(0.0002018791300829057 0 0)
(0.0001526648192459715 0 0)
(0.0001130143720488728 0 0)
(8.512025532567259e-05 0 0)
(6.97836431603813e-05 0 0)
(6.920038487724016e-05 0 0)
(8.433965457241109e-05 0 0)
(0.0001159859345904032 0 0)
(0.0001641405115600682 0 0)
(0.0002275590372803638 0 0)
(0.0003022965368704463 0 0)
(0.0003829248271581229 0 0)
(0.0004653409837445981 0 0)
(0.0005482358796548341 0 0)
(0.0006307314994469594 0 0)
(0.0007124846196157167 0 0)
(0.0007940896736168805 0 0)
(0.0008737036647470673 0 0)
(0.0009522578610572644 0 0)
(0.001027849035636516 0 0)
(0.001100336685194789 0 0)
(0.001168695552491397 0 0)
(0.001231875204187076 0 0)
(0.001288472978776938 0 0)
(0.001337622189296577 0 0)
(0.001377133999763385 0 0)
(0.001405821038973683 0 0)
(0.001422215614879935 0 0)
(0.001424862051442133 0 0)
(0.001413422424842564 0 0)
(0.001386389374258941 0 0)
(0.001343558264092642 0 0)
(0.001285787721286451 0 0)
(0.001215355621746844 0 0)
(0.001137027626642396 0 0)
(0.001055286600854244 0 0)
(0.0009729375752788922 0 0)
(0.0008908229813737702 0 0)
(0.0008080884190726909 0 0)
(0.0007269211895076869 0 0)
(0.0006464658969599643 0 0)
(0.0005680035680705308 0 0)
(0.000491641162174219 0 0)
(0.0004182193589664556 0 0)
(0.0003482665456002736 0 0)
(0.0002830761099083367 0 0)
(0.0002240193230722934 0 0)
(0.0001721345834813371 0 0)
(0.0001296213464098715 0 0)
(9.761982278303951e-05 0 0)
(7.815357864261056e-05 0 0)
(7.240869208845834e-05 0 0)
(8.209023862870993e-05 0 0)
(0.0001077757114546364 0 0)
(0.0001499169395858248 0 0)
(0.0002077944322582769 0 0)
(0.000278416103913947 0 0)
(0.0003568091281145795 0 0)
(0.0004382409926943467 0 0)
(0.000520393603216597 0 0)
(0.0006026163576059712 0 0)
(0.000684431785768324 0 0)
(0.0007649512423709607 0 0)
(0.0008456759154627715 0 0)
(0.0009230545169253989 0 0)
(0.001000034148400422 0 0)
(0.001072203988206067 0 0)
(0.001141046497568181 0 0)
(0.001205026960501693 0 0)
(0.001263381940858616 0 0)
(0.001314205572680016 0 0)
(0.001356937916262088 0 0)
(0.001389191571881853 0 0)
(0.001409690926035217 0 0)
(0.001417257025464427 0 0)
(0.001410071124206471 0 0)
(0.001388706046081337 0 0)
(0.001351533342747992 0 0)
(0.001299094327521086 0 0)
(0.001233271349928591 0 0)
(0.00115758234531366 0 0)
(0.001077401233802517 0 0)
(0.0009955048282131499 0 0)
(0.0009136793962996768 0 0)
(0.0008323286149316868 0 0)
(0.00075022432808672 0 0)
(0.0006701815007240915 0 0)
(0.0005905863932968543 0 0)
(0.0005148951321271996 0 0)
(0.0004404329407710466 0 0)
(0.0003700680596022939 0 0)
(0.0003040031622283223 0 0)
(0.0002439398905464667 0 0)
(0.0001900649856230943 0 0)
(0.0001446697900938596 0 0)
(0.0001088591520329423 0 0)
(8.472763411810837e-05 0 0)
(7.392352467885335e-05 0 0)
(7.819363140800456e-05 0 0)
(9.899947899921301e-05 0 0)
(0.0001346165032033885 0 0)
)
;

boundaryField
{
    inlet
    {
        type            calculated;
        value           uniform (0.001538091610926352 0 0);
    }
    outlet
    {
        type            calculated;
        value           uniform (0.0001600086606573826 0 0);
    }
    frontAndBack
    {
        type            empty;
    }
}


// ************************************************************************* //
