/*--------------------------------*- C++ -*----------------------------------*\
| =========                 |                                                 |
| \\      /  F ield         | OpenFOAM: The Open Source CFD Toolbox           |
|  \\    /   O peration     | Version:  v2012                                 |
|   \\  /    A nd           | Website:  www.openfoam.com                      |
|    \\/     M anipulation  |                                                 |
\*---------------------------------------------------------------------------*/
FoamFile
{
    version     2.0;
    format      ascii;
    class       volScalarField;
    location    "0.003";
    object      p;
}
// * * * * * * * * * * * * * * * * * * * * * * * * * * * * * * * * * * * * * //

dimensions      [1 -1 -2 0 0 0 0];


internalField   nonuniform List<scalar> 
1000
(
101311.584746287
101314.222557739
101307.4528124167
101302.1391121842
101296.2495331578
101290.9247162042
101286.3162062021
101282.3674411694
101278.9457962026
101276.5753775857
101275.8871959465
101275.8763989972
101276.1882427316
101277.0911428073
101278.9462567452
101281.8482474809
101285.6942233287
101290.2969436267
101295.5000064371
101301.1996515802
101307.3142657799
101313.7565398017
101320.4233686306
101327.193156096
101333.9275389453
101340.4845892563
101346.7441007417
101352.6382035367
101358.1733584175
101363.3901662916
101368.1414638768
101371.6993154386
101373.2156738997
101373.3988910827
101373.3314533617
101373.1188917192
101372.465234588
101371.1403996284
101368.9044233148
101365.6273250749
101361.325844835
101356.1539681171
101350.3333334651
101344.0732759617
101337.5305127985
101330.8173082458
101324.0299823832
101317.2699046276
101310.6452005274
101304.2459886604
101298.0999845407
101292.1641766839
101286.4612925489
101281.4433717217
101278.1927252257
101277.1641987209
101277.0988382355
101277.1263452253
101277.3531176007
101277.912553612
101279.0380424885
101280.9388967421
101283.7839818736
101287.6497979528
101292.49529961
101298.1676123714
101304.4431603948
101311.0875013457
101317.9030495954
101324.7436494034
101331.5054597941
101338.1229964168
101344.5819580767
101350.9228711829
101357.1866755303
101363.2390089578
101368.4319233454
101371.5873816559
101372.4981394743
101372.5568165015
101372.5010094703
101372.3279537912
101371.8516692051
101370.9059829764
101369.2929641908
101366.8346475585
101363.4050211264
101358.9663982338
101353.5869122058
101347.4318589065
101340.7319098748
101333.7374025126
101326.6696408959
101319.6823202056
101312.8442010188
101306.1442552856
101299.5183151414
101292.9287034543
101286.5908625942
101281.3572473124
101278.4791485234
101277.7949872981
101277.7752459967
101277.8053968843
101277.9891630372
101278.4295869064
101279.2980982059
101280.7674290278
101283.0059727235
101286.1469686255
101290.2603671173
101295.3281752167
101301.2350535506
101307.7835858557
101314.7320200466
101321.8418893992
101328.924200342
101335.877105825
101342.7021882901
101349.4751746827
101356.2372629483
101362.7533637397
101368.1529416113
101371.17029187
101371.9315083641
101371.9721843269
101371.9282888444
101371.7902458079
101371.4173542986
101370.6777950728
101369.4088696949
101367.4469835268
101364.6458770937
101360.9043191891
101356.1908252308
101350.5600300301
101344.1559873589
101337.1954152698
101329.9255434041
101322.5648642771
101315.2506440317
101308.0182686801
101300.8308282155
101293.6942728306
101286.9378857181
101281.5890392967
101278.8732773363
101278.2994105027
101278.2870207402
101278.3132153781
101278.4631839611
101278.8209761058
101279.5247733855
101280.719820288
101282.5576875722
101285.1769066654
101288.682754361
101293.1237395568
101298.4721176591
101304.6178636628
101311.3809487852
101318.5412191229
101325.883838025
101333.2525530283
101340.5869997019
101347.9060721661
101355.1936849525
101362.1320246984
101367.7399107691
101370.7491575095
101371.4712620544
101371.5085944288
101371.4740861215
101371.364819604
101371.0664219561
101370.4704242448
101369.4392129058
101367.8272346764
101365.4917163373
101362.31229444
101358.2113719985
101353.1728271734
101347.2561225507
101340.5981134623
101333.3922739425
101325.8445881198
101318.1217436088
101310.3173535875
101302.4679690351
101294.6737245892
101287.4073125041
101281.862946546
101279.2218710542
101278.7101558532
101278.7005864089
101278.7226236581
101278.846935856
101279.143282379
101279.727035725
101280.7225102202
101282.2646347786
101284.4858323395
101287.5017056212
101291.3921634737
101296.1825941993
101301.832048988
101308.2329191625
101315.2241960235
101322.6216840829
101330.2636454893
101338.051499763
101345.9435516342
101353.845227667
101361.3289203739
101367.2738037312
101370.3716794113
101371.0903266774
101371.1273255208
101371.099773348
101371.0122025086
101370.7690595694
101370.2794829077
101369.4255395432
101368.0784493601
101366.1048734997
101363.38094094
101359.8077834663
101355.3276814048
101349.9395334049
101343.7077751584
101336.754996202
101329.2344843931
101321.2918714165
101313.0362306389
101304.5552922408
101296.043889705
101288.1383645072
101282.2395230731
101279.5477297832
101279.0545131985
101279.0448879615
101279.0631408656
101279.1672277447
101279.4162398152
101279.9083671691
101280.7510866222
101282.0641638389
101283.9705531859
101286.5862685165
101290.0057632226
101294.285980706
101299.4341461917
101305.4025140511
101312.0922239907
101319.371084017
101327.1069427661
101335.2008544518
101343.5802562383
101352.0897128875
101360.1998927835
101366.6388914095
101369.9826125623
101370.7612016301
101370.8036177089
101370.7818775223
101370.7118701034
101370.5119495252
101370.1048549155
101369.3884262485
101368.2487920003
101366.5637633862
101364.2127955699
101361.0883899107
101357.1088805799
101352.2322538365
101346.4666465251
101339.8695020525
101332.5317051582
101324.5528925397
101316.0236456286
101307.0476711579
101297.8796075841
101289.2805323905
101282.8442047186
101279.903889325
101279.3580176193
101279.3433916088
101279.3574734114
101279.4437444649
101279.6532538318
101280.0713561643
101280.7920453688
101281.9219044327
101283.5736699108
101285.8591607724
101288.878180931
101292.7058096287
101297.38173815
101302.9036379286
101309.2262438651
101316.2709930431
101323.9487814445
101332.1831866261
101340.898963855
101349.9140593927
101358.6461355715
101365.7179144655
101369.5168916786
101370.4582562383
101370.5179861674
101370.501433614
101370.4470470973
101370.2833622418
101369.9437637877
101369.3384957012
101368.3663660454
101366.916157618
101364.8736460394
101362.1296039951
101358.5893962464
101354.1843123376
101348.8812942806
101342.6848422177
101335.6286086327
101327.7614844267
101319.1399543219
101309.8561213815
101300.1773041147
101290.9092123953
101283.767869676
101280.3383648115
101279.641207588
101279.6132327654
101279.6228616191
101279.6924447263
101279.8667128367
101280.2215698887
101280.8403059796
101281.8185639283
101283.2594992232
101285.2689049364
101287.9468927233
101291.3782087094
101295.6237042875
101300.7138628111
101306.6456327037
101313.3870775599
101320.8922695016
101329.1159285993
101337.9983109348
101347.3642211345
101356.6416022247
101364.4329769399
101368.9099047367
101370.1569964957
101370.2569049514
101370.2450321477
101370.2049280858
101370.072932182
101369.7910552819
101369.2791398408
101368.4464733447
101367.1916909461
101365.4077497396
101362.9872693737
101359.8294665535
101355.8490444327
101350.9843090147
101345.1999049776
101338.4830751058
101330.8373192922
101322.2816462408
101312.8800335874
101302.8723517762
101293.0257467893
101285.0727759389
101280.9071407319
101279.9232953993
101279.865339793
101279.8706978286
101279.9248489917
101280.0668373491
101280.3657076656
101280.8961612873
101281.7449996937
101283.0070053449
101284.781625909
101287.1668041037
101290.2518142685
101294.1107686661
101298.7969816723
101304.3391071032
101310.7429792287
101318.0010872072
101326.1009552255
101335.0084275557
101344.5767116072
101354.2850904644
101362.7836159077
101368.0620243149
101369.7414027842
101369.9111192943
101369.9029377748
101369.8706386743
101369.7537609804
101369.4954049748
101369.0154604725
101368.2225482638
101367.0121336619
101365.2696773681
101362.8751805724
101359.7110509294
101355.6754394714
101350.7078398573
101344.8474497935
101338.3747634408
101332.0882165303
101327.4314065176
101325.3935698921
101325.0199257619
101325.0002044664
101325.0000002849
101324.9999999987
101324.9999999987
101324.999999999
101324.9999999991
101324.9999999991
101324.9999999996
101324.9999999996
101324.9999999998
101324.9999999996
101324.9999999997
101325.0000000001
101324.9999999999
101324.9999999999
101325
101324.9999999996
101325.0000000001
101324.9999999996
101324.9999999998
101324.9999999995
101324.9999999995
101324.9999999998
101324.9999999993
101324.9999999995
101324.9999999997
101324.9999999999
101324.9999999995
101324.9999999996
101324.9999999997
101324.9999999993
101324.9999999998
101324.9999999994
101324.9999999993
101324.9999999994
101324.9999999994
101324.9999999993
101324.9999999996
101324.9999999995
101324.9999999995
101324.9999999993
101324.9999999997
101324.9999999995
101324.9999999997
101324.9999999995
101324.9999999996
101324.9999999995
101324.9999999995
101324.9999999995
101324.9999999997
101324.9999999996
101324.9999999998
101324.9999999997
101324.9999999997
101324.9999999997
101324.9999999995
101325.0000000001
101324.9999999998
101324.9999999998
101324.9999999998
101324.9999999997
101324.9999999994
101324.9999999998
101324.9999999993
101324.9999999998
101324.9999999997
101324.9999999993
101324.9999999993
101324.9999999998
101324.9999999992
101324.9999999997
101324.9999999999
101324.9999999998
101324.9999999997
101325.0000000001
101324.9999999998
101324.9999999999
101324.9999999994
101324.9999999994
101324.9999999993
101324.9999999998
101325
101324.9999999996
101325.0000000002
101324.9999999998
101325.0000000001
101325.0000000001
101325
101325.0000000002
101325.0000000002
101324.9999999999
101324.9999999998
101324.9999999999
101324.9999999997
101324.9999999997
101325.0000000002
101324.9999999997
101325.0000000003
101324.9999999997
101325.0000000002
101325
101325.0000000002
101324.9999999999
101325.0000000001
101324.9999999995
101325.0000000001
101324.9999999994
101325
101325.0000000002
101324.9999999994
101324.9999999999
101324.9999999998
101324.9999999999
101324.9999999999
101324.9999999995
101324.9999999999
101324.9999999996
101324.9999999995
101324.9999999996
101324.9999999998
101324.9999999993
101325
101324.9999999998
101324.9999999995
101324.9999999996
101324.9999999995
101324.9999999997
101324.9999999996
101324.9999999998
101324.9999999996
101324.9999999995
101324.9999999998
101324.9999999996
101324.9999999997
101324.9999999997
101324.9999999999
101325
101324.9999999999
101325.0000000001
101325
101325.0000000001
101325.0000000001
101325.0000000004
101325.0000000001
101325.0000000003
101325.0000000002
101325.0000000001
101324.9999999998
101324.9999999999
101324.9999999998
101324.9999999997
101325.0000000001
101325
101324.9999999997
101325
101324.9999999998
101324.9999999998
101324.9999999998
101324.9999999997
101324.9999999998
101324.9999999995
101324.9999999998
101324.9999999998
101324.9999999999
101324.9999999998
101325.0000000001
101324.9999999999
101325.0000000001
101325.0000000003
101325.0000000003
101325.0000000002
101325.0000000003
101325.0000000003
101325.0000000003
101325.0000000003
101325.0000000001
101325.0000000001
101325.0000000003
101325.0000000001
101325.0000000003
101325.0000000003
101325.0000000004
101325.0000000003
101325.0000000001
101325.0000000005
101324.9999999999
101325.0000000003
101324.9999999999
101325.0000000002
101324.9999999999
101325
101325
101325.0000000002
101324.9999999999
101325.0000000003
101325
101325
101325
101325.0000000002
101325.0000000001
101325.0000000003
101325.0000000006
101325.0000000001
101325.0000000005
101324.9999999998
101325.0000000001
101325.0000000002
101325.0000000001
101324.9999999998
101325
101324.9999999996
101325
101324.9999999999
101325
101324.9999999999
101325.0000000002
101325
101325.0000000001
101324.9999999998
101325
101324.9999999998
101325
101324.9999999998
101324.9999999998
101325.0000000001
101324.9999999998
101325.0000000001
101325
101325.0000000002
101324.9999999999
101325
101324.9999999999
101324.9999999999
101324.9999999999
101325.0000000001
101324.9999999999
101325.0000000002
101324.9999999998
101324.9999999998
101324.9999999999
101324.9999999997
101324.9999999996
101324.9999999995
101324.9999999994
101324.9999999995
101324.9999999991
101324.9999999993
101324.9999999992
101324.9999999994
101324.9999999997
101324.9999999996
101324.9999999999
101324.9999999999
101324.9999999998
101324.9999999998
101325.0000000001
101325
101325.0000000001
101325.0000000002
101325.0000000003
101325.0000000003
101325.0000000002
101325.0000000005
101325.0000000004
101325.0000000003
101325.0000000005
101325.0000000001
101325.0000000002
101324.9999999998
101325.0000000001
101324.9999999997
101324.9999999997
101324.9999999998
101324.9999999997
101324.9999999997
101324.9999999998
101324.9999999999
101324.9999999998
101324.9999999997
101324.9999999997
101324.9999999998
101324.9999999997
101324.9999999996
101324.9999999996
101324.9999999997
101324.9999999996
101324.9999999998
101324.9999999998
101324.9999999999
101324.9999999999
101324.9999999999
101324.9999999999
101324.9999999998
101324.9999999998
101325.0000000001
101324.9999999996
101324.9999999999
101324.9999999999
101324.9999999999
101324.9999999999
101324.9999999997
101325.0000000002
101324.9999999996
101324.9999999998
101324.9999999999
101324.9999999996
101324.9999999999
101324.9999999997
101324.9999999998
101324.9999999996
101324.9999999997
101324.9999999993
101324.9999999996
101325
101324.9999999994
101324.9999999996
101324.9999999997
101324.9999999998
101324.9999999998
101324.9999999999
101325
101324.9999999998
101324.9999999998
101324.9999999999
101324.9999999996
101325
101324.9999999999
101324.9999999997
101324.9999999998
101324.9999999999
101324.9999999999
101324.9999999999
101324.9999999999
101324.9999999999
101324.9999999998
101324.9999999995
101324.9999999996
101324.9999999996
101324.9999999994
101324.9999999996
101324.9999999994
101324.9999999993
101324.9999999997
101324.9999999995
101324.9999999997
101324.9999999997
101325
101325.0000000003
101325
101325.0000000007
101325.0000000004
101325.0000000002
101325.0000000003
101325.0000000002
101325.0000000003
101325.0000000003
101325.0000000006
101325.0000000001
101325.0000000006
101325.0000000005
101325.0000000004
101325.0000000006
101325.0000000007
101325.0000000003
101325.0000000005
101325.0000000006
101325.0000000003
101325.0000000002
101325
101325.0000000001
101324.9999999998
101324.9999999999
101324.9999999999
101324.9999999995
101324.9999999997
101324.9999999996
101324.9999999996
101325
101324.9999999999
101324.9999999999
101325
101324.9999999999
101325.0000000003
101325
101325.0000000003
101325
101325
101325
101325.0000000002
101325.0000000006
101325.0000000001
101325.0000000003
101325.0000000003
101325.0000000002
101325.0000000006
101325.0000000003
101325.0000000003
101325.0000000001
101325.0000000006
101325
101325.0000000002
101324.9999999998
101325.0000000001
101324.9999999999
101324.9999999998
101324.9999999999
101324.9999999998
101324.9999999999
101324.9999999998
101324.9999999997
101325
101324.9999999997
101324.9999999999
101324.9999999998
101324.9999999999
101325
101324.9999999999
101324.9999999999
101324.9999999999
101325
101324.9999999997
101324.9999999997
101325
101325
101325.0000000001
101324.9999999998
101325.0000000001
101325.0000000001
101324.9999999999
101325
101324.9999999998
101325.0000000003
101324.9999999998
101325
101325
101324.9999999999
101324.9999999999
101324.9999999999
101324.9999999998
101325
101325
101325.0000000002
101324.9999999997
101325.0000000002
101325
101325
101325
101325.0000000001
101325.0000000005
101324.9999999998
101325.0000000002
101324.9999999998
101325
101324.9999999998
101325
101324.9999999998
101324.9999999999
101325
101324.9999999998
101324.9999999999
101324.9999999999
101324.9999999997
101324.9999999998
101324.9999999998
101324.9999999998
101324.9999999998
101324.9999999998
101324.9999999999
101324.9999999998
101324.9999999999
101324.9999999998
101324.9999999997
101324.9999999994
101324.9999999998
101324.9999999998
101325.0000000001
101324.9999999996
101324.9999999998
101324.9999999998
101324.9999999998
101324.9999999999
101324.9999999998
101325
101324.9999999999
101324.9999999999
101324.9999999999
101325
101324.9999999999
101324.9999999999
101324.9999999996
101324.9999999998
101324.9999999995
101324.9999999995
101324.9999999997
101324.9999999993
101324.9999999996
101324.9999999997
101324.9999999995
101324.9999999995
101324.9999999997
101324.9999999996
101324.9999999996
101324.9999999995
101324.9999999996
101324.9999999996
101324.9999999996
101324.9999999996
101324.9999999995
101324.9999999996
101324.9999999995
101324.9999999996
101324.9999999998
101324.9999999996
101324.9999999996
101324.9999999996
101324.9999999995
101324.9999999996
101324.9999999996
101324.9999999996
101324.9999999995
101324.9999999996
101324.9999999996
101324.9999999998
101324.9999999992
101324.9999999995
101324.9999999997
101324.9999999995
101324.9999999996
101324.9999999996
101324.9999999996
101324.9999999996
101324.9999999996
101324.9999999996
101324.9999999995
101324.9999999997
101324.9999999998
101324.9999999996
101324.9999999998
101324.9999999998
101324.9999999997
101324.9999999995
101324.9999999999
101324.9999999996
101324.9999999999
101324.9999999995
101324.9999999999
101324.9999999999
101324.9999999999
101324.9999999998
101324.9999999996
101324.9999999996
101324.9999999996
101324.9999999997
101324.9999999996
101324.9999999996
101324.9999999996
101324.9999999996
101324.9999999995
101324.9999999995
101324.9999999995
101324.9999999998
101324.9999999994
101324.9999999999
101324.9999999997
101324.9999999998
101324.9999999998
101324.9999999998
101324.9999999999
101324.9999999999
101324.9999999996
101324.9999999998
101324.9999999996
101324.9999999997
101324.9999999995
101324.9999999995
101324.9999999996
101324.9999999995
101324.9999999995
101324.9999999996
101324.9999999995
)
;

boundaryField
{
    inlet
    {
        type            uniformFixedValue;
        uniformValue    sine;
        uniformValueCoeffs
        {
            frequency       constant 3000;
            scale           constant 50;
            level           constant 101325;
        }
        value           uniform 101325;
    }
    outlet
    {
        type            characteristicVelocityInletOutletPressure;
        UName           U;
        pName           p;
        TName           T;
        phiName         phi;
        rhoName         rho;
        U               (0 0 0);
        p               101325;
        T               300;
        value           uniform 101324.9999999995;
    }
    frontAndBack
    {
        type            empty;
    }
}


// ************************************************************************* //
