/*--------------------------------*- C++ -*----------------------------------*\
| =========                 |                                                 |
| \\      /  F ield         | OpenFOAM: The Open Source CFD Toolbox           |
|  \\    /   O peration     | Version:  v2012                                 |
|   \\  /    A nd           | Website:  www.openfoam.com                      |
|    \\/     M anipulation  |                                                 |
\*---------------------------------------------------------------------------*/
FoamFile
{
    version     2.0;
    format      ascii;
    class       volScalarField;
    location    "0.003";
    object      pMean;
}
// * * * * * * * * * * * * * * * * * * * * * * * * * * * * * * * * * * * * * //

dimensions      [1 -1 -2 0 0 0 0];


internalField   nonuniform List<scalar> 
1000
(
101325.0376411543
101325.0141230554
101325.0583382998
101325.0997464935
101325.1618946162
101325.2365669811
101325.3228316596
101325.4207208951
101325.5266756712
101325.6408046277
101325.7580353185
101325.8762214216
101325.9934306941
101326.1097905249
101326.2222529064
101326.3295905045
101326.4283547783
101326.5175512777
101326.5945458679
101326.6589752948
101326.7088002951
101326.7440119304
101326.7630652704
101326.7664170029
101326.7531730181
101326.7243602715
101326.679771261
101326.6209645191
101326.548128191
101326.4627140177
101326.3648097062
101326.2568807199
101326.1424305875
101326.0265684082
101325.9104115631
101325.7947646999
101325.6800933
101325.5678090173
101325.4597481848
101325.3582872396
101325.2658602655
101325.1847609433
101325.1167918763
101325.0632814947
101325.0250876076
101325.0027750717
101324.9966522262
101325.0067981374
101325.0330129318
101325.0748372823
101325.1317001607
101325.2030858069
101325.2885470772
101325.3871110958
101325.4959330443
101325.6098763684
101325.7248648975
101325.8398262529
101325.9543660384
101326.0681330456
101326.1797108952
101326.2878618209
101326.3901713261
101326.4846374652
101326.5685102677
101326.6399710576
101326.6969642911
101326.7386545511
101326.7640479879
101326.7732372489
101326.7659581168
101326.742798438
101326.7037868657
101326.6495792632
101326.5800827751
101326.4958662214
101326.3976881548
101326.2892913574
101326.1759852344
101326.0619901455
101325.9479086098
101325.834168088
101325.7211898966
101325.6099041626
101325.501665032
101325.3982803051
101325.3019228882
101325.214963351
101325.1397441298
101325.0783297596
101325.0323053394
101325.0026802978
101324.9899013576
101324.9939756607
101325.0146218736
101325.0514926108
101325.1043400458
101325.1731026556
101325.2575522053
101325.3562285496
101325.4649127237
101325.5776782153
101325.6910446931
101325.8043786981
101325.9173650713
101326.0297261185
101326.1404014787
101326.2484191279
101326.3518890244
101326.4490618682
101326.5374366625
101326.6149539443
101326.6792125351
101326.7286764128
101326.7618427951
101326.7782843081
101326.7776024565
101326.7602279815
101326.7262161515
101326.6760115467
101326.6094193981
101326.5268678328
101326.4295456455
101326.3219264424
101326.2098608598
101326.0972414757
101325.9845622341
101325.8721535433
101325.7603394767
101325.6498553136
101325.5417542802
101325.4375101125
101325.3389398364
101325.2481865989
101325.1675312197
101325.0992578972
101325.0453837268
101325.0075191442
101324.9866937592
101324.9834094041
101324.9977007984
101325.0294238994
101325.0784321907
101325.1447017364
101325.2278459421
101325.3259021326
101325.433861118
101325.5455171995
101325.6576497241
101325.7697579357
101325.8815792401
101325.9928916957
101326.1028377684
101326.2106254591
101326.3146960379
101326.4135492447
101326.5049823021
101326.5870150841
101326.6572355162
101326.7137941906
101326.754785878
101326.7791950484
101326.7861318517
101326.7755456418
101326.7472399245
101326.7014576972
101326.638015418
101326.5574336899
101326.4613230523
101326.3546781472
101326.2436975306
101326.1321789752
101326.0206055185
101325.9092511167
101325.7983671797
101325.6885556441
101325.5806712724
101325.4759437382
101325.3759142258
101325.2824732276
101325.1977200571
101325.1239038902
101325.0631862964
101325.0175284984
101324.9884643286
101324.9770844281
101324.9839901537
101325.0095033391
101325.0537815799
101325.1169166517
101325.1983551817
101325.2955831406
101325.4028197671
101325.5135452037
101325.6246821125
101325.7358014751
101325.8466803838
101325.9571393475
101326.0664644671
101326.1739960703
101326.2784176097
101326.3784353654
101326.4721119543
101326.5576200983
101326.6326615348
101326.6952931583
101326.7434077892
101326.7755656578
101326.7904061086
101326.7873169893
101326.765653814
101326.7252695072
101326.6658100258
101326.5877838776
101326.4931610205
101326.3874931957
101326.277434095
101326.1668236359
101326.0561606097
101325.945677021
101325.8355732591
101325.7263493233
101325.6187151103
101325.5137099564
101325.412654589
101325.3172104031
101325.2292766182
101325.1509762346
101325.0844689714
101325.0318716599
101324.9950479421
101324.9755659537
101324.9745957747
101324.9930353192
101325.0315416701
101325.0905324484
101325.1694841841
101325.2654501228
101325.3718828379
101325.4817996762
101325.5921089818
101325.7024045115
101325.8124986236
101325.9222406713
101326.031027794
101326.1382988741
101326.2429291592
101326.3437917644
101326.439182194
101326.5274340196
101326.6064093299
101326.6741760697
101326.7285627715
101326.7678644336
101326.7903701092
101326.7949651589
101326.7805230048
101326.7463970075
101326.6918912219
101326.6173088743
101326.5247739632
101326.4202877919
101326.3110815976
101326.2012451683
101326.0913557239
101325.9816127906
101325.8721796061
101325.7634750128
101325.6560998843
101325.5509410839
101325.4491415514
101325.3521610141
101325.2617095493
101325.1797517391
101325.1083738988
101325.049728884
101325.0058693087
101324.9786977052
101324.9698581577
101324.9807944375
101325.0127207937
101325.0665151051
101325.1419093033
101325.2358241685
101325.3411573832
101325.4503023932
101325.5598931065
101325.6694741212
101325.7788903452
101325.8880105707
101325.9963233597
101326.1033416777
101326.2080951701
101326.3095917687
101326.4063278045
101326.4967881304
101326.5790058832
101326.651112836
101326.7109560268
101326.7566817272
101326.7863476472
101326.7984449187
101326.7914216469
101326.764135165
101326.7154731786
101326.6453685014
101326.5558010046
101326.4529294657
101326.3446081688
101326.2354621021
101326.1262545161
101326.0171646757
101325.9083255721
101325.800089336
101325.6929725195
101325.5877372378
101325.4853837686
101325.3871977246
101325.2947196546
101325.2097508199
101325.1342721448
101325.0704019272
101325.0202816416
101324.9860238452
101324.9696236362
101324.9729687253
101324.9977821316
101325.045435757
101325.1161024622
101325.2069582776
101325.3107229978
101325.4190568933
101325.5279938984
101325.6369285016
101325.7457335202
101325.8542936874
101325.9621738685
101326.0689462064
101326.1737661963
101326.2757519764
101326.3735694301
101326.4658397588
101326.550760447
101326.6265517303
101326.6911245559
101326.7425591066
101326.7787784626
101326.7979925847
101326.7983197536
101326.7781936424
101326.7360908244
101326.6714754434
101326.585890432
101326.4852528315
101326.3779523947
101326.2694537193
101326.1608677961
101326.0523750213
101325.9440806722
101325.8362803249
101325.7294226284
101325.624166043
101325.5213945938
101325.4222455605
101325.3281115708
101325.2406387547
101325.1616915921
101325.0933148682
101325.0376699652
101324.9969803229
101324.9734742938
101324.9693615964
101324.9867753631
101325.0275453669
101325.0923928442
101325.1790986039
101325.2806684134
101325.3880645052
101325.4963798761
101325.6047102385
101325.712943451
101325.8209796429
101325.9284488435
101326.0349741746
101326.1398145147
101326.2421809865
101326.3408815264
101326.4346584574
101326.5218584964
101326.6007997473
101326.6694788348
101326.725965182
101326.7681173927
101326.7939599954
101326.801371765
101326.788448004
101326.7532947785
101326.6948861289
101326.6141668617
101326.5165101823
101326.4106364915
101326.3030104506
101326.1952488781
101326.0875669374
101325.9800568514
101325.8729947344
101325.7668099682
101325.6621392876
101325.5598538271
101325.4610873191
101325.3672548918
101325.2800573765
101325.2014610584
101325.1336333911
101325.0787855973
101325.0387918883
101325.0143115438
101325.0032871161
101325.0003527711
101325.0000121386
101325.0000000882
101324.9999999997
101324.9999999995
101324.9999999996
101324.9999999996
101324.9999999995
101324.9999999995
101324.9999999995
101324.9999999995
101324.9999999994
101324.9999999994
101324.9999999994
101324.9999999994
101324.9999999994
101324.9999999994
101324.9999999994
101324.9999999993
101324.9999999995
101324.9999999993
101324.9999999994
101324.9999999993
101324.9999999993
101324.9999999993
101324.9999999993
101324.9999999993
101324.9999999993
101324.9999999993
101324.9999999993
101324.9999999993
101324.9999999993
101324.9999999992
101324.9999999993
101324.9999999993
101324.9999999993
101324.9999999993
101324.9999999993
101324.9999999993
101324.9999999994
101324.9999999993
101324.9999999993
101324.9999999993
101324.9999999993
101324.9999999993
101324.9999999993
101324.9999999993
101324.9999999994
101324.9999999993
101324.9999999993
101324.9999999993
101324.9999999993
101324.9999999992
101324.9999999994
101324.9999999993
101324.9999999992
101324.9999999994
101324.9999999992
101324.9999999993
101324.9999999993
101324.9999999993
101324.9999999993
101324.9999999993
101324.9999999994
101324.9999999993
101324.9999999993
101324.9999999994
101324.9999999993
101324.9999999994
101324.9999999992
101324.9999999995
101324.9999999993
101324.9999999994
101324.9999999994
101324.9999999993
101324.9999999993
101324.9999999994
101324.9999999993
101324.9999999995
101324.9999999993
101324.9999999994
101324.9999999994
101324.9999999994
101324.9999999994
101324.9999999993
101324.9999999994
101324.9999999994
101324.9999999994
101324.9999999994
101324.9999999994
101324.9999999993
101324.9999999994
101324.9999999994
101324.9999999993
101324.9999999995
101324.9999999994
101324.9999999994
101324.9999999995
101324.9999999994
101324.9999999995
101324.9999999994
101324.9999999995
101324.9999999995
101324.9999999995
101324.9999999995
101324.9999999995
101324.9999999995
101324.9999999995
101324.9999999995
101324.9999999995
101324.9999999997
101324.9999999994
101324.9999999996
101324.9999999995
101324.9999999996
101324.9999999996
101324.9999999995
101324.9999999996
101324.9999999996
101324.9999999995
101324.9999999996
101324.9999999996
101324.9999999995
101324.9999999996
101324.9999999996
101324.9999999995
101324.9999999995
101324.9999999996
101324.9999999995
101324.9999999995
101324.9999999994
101324.9999999996
101324.9999999994
101324.9999999995
101324.9999999994
101324.9999999995
101324.9999999995
101324.9999999993
101324.9999999995
101324.9999999994
101324.9999999995
101324.9999999994
101324.9999999994
101324.9999999995
101324.9999999994
101324.9999999995
101324.9999999994
101324.9999999995
101324.9999999995
101324.9999999995
101324.9999999995
101324.9999999996
101324.9999999994
101324.9999999996
101324.9999999997
101324.9999999996
101324.9999999996
101324.9999999996
101324.9999999997
101324.9999999996
101324.9999999997
101324.9999999996
101324.9999999997
101324.9999999997
101324.9999999996
101324.9999999997
101324.9999999997
101324.9999999997
101324.9999999997
101324.9999999996
101324.9999999997
101324.9999999996
101324.9999999997
101324.9999999996
101324.9999999995
101324.9999999996
101324.9999999996
101324.9999999996
101324.9999999996
101324.9999999996
101324.9999999996
101324.9999999996
101324.9999999996
101324.9999999996
101324.9999999996
101324.9999999997
101324.9999999996
101324.9999999997
101324.9999999997
101324.9999999997
101324.9999999997
101324.9999999997
101324.9999999997
101324.9999999997
101324.9999999997
101324.9999999997
101324.9999999996
101324.9999999997
101324.9999999996
101324.9999999997
101324.9999999997
101324.9999999996
101324.9999999996
101324.9999999997
101324.9999999995
101324.9999999997
101324.9999999995
101324.9999999996
101324.9999999997
101324.9999999997
101324.9999999995
101324.9999999997
101324.9999999996
101324.9999999995
101324.9999999995
101324.9999999995
101324.9999999995
101324.9999999995
101324.9999999995
101324.9999999996
101324.9999999994
101324.9999999995
101324.9999999995
101324.9999999995
101324.9999999994
101324.9999999995
101324.9999999995
101324.9999999994
101324.9999999994
101324.9999999994
101324.9999999994
101324.9999999994
101324.9999999994
101324.9999999995
101324.9999999994
101324.9999999995
101324.9999999994
101324.9999999995
101324.9999999995
101324.9999999995
101324.9999999994
101324.9999999995
101324.9999999995
101324.9999999995
101324.9999999995
101324.9999999994
101324.9999999995
101324.9999999995
101324.9999999994
101324.9999999995
101324.9999999995
101324.9999999994
101324.9999999995
101324.9999999995
101324.9999999995
101324.9999999994
101324.9999999994
101324.9999999994
101324.9999999994
101324.9999999994
101324.9999999994
101324.9999999994
101324.9999999994
101324.9999999994
101324.9999999993
101324.9999999994
101324.9999999993
101324.9999999994
101324.9999999994
101324.9999999994
101324.9999999993
101324.9999999994
101324.9999999994
101324.9999999995
101324.9999999994
101324.9999999995
101324.9999999994
101324.9999999995
101324.9999999995
101324.9999999995
101324.9999999996
101324.9999999996
101324.9999999995
101324.9999999996
101324.9999999995
101324.9999999996
101324.9999999996
101324.9999999995
101324.9999999995
101324.9999999996
101324.9999999996
101324.9999999996
101324.9999999996
101324.9999999995
101324.9999999996
101324.9999999995
101324.9999999996
101324.9999999994
101324.9999999995
101324.9999999995
101324.9999999995
101324.9999999994
101324.9999999995
101324.9999999995
101324.9999999993
101324.9999999994
101324.9999999995
101324.9999999994
101324.9999999994
101324.9999999994
101324.9999999995
101324.9999999994
101324.9999999995
101324.9999999994
101324.9999999993
101324.9999999995
101324.9999999994
101324.9999999994
101324.9999999994
101324.9999999995
101324.9999999994
101324.9999999994
101324.9999999994
101324.9999999994
101324.9999999994
101324.9999999994
101324.9999999994
101324.9999999995
101324.9999999994
101324.9999999995
101324.9999999996
101324.9999999995
101324.9999999995
101324.9999999995
101324.9999999995
101324.9999999996
101324.9999999996
101324.9999999996
101324.9999999996
101324.9999999995
101324.9999999996
101324.9999999995
101324.9999999996
101324.9999999995
101324.9999999996
101324.9999999996
101324.9999999996
101324.9999999997
101324.9999999996
101324.9999999996
101324.9999999995
101324.9999999995
101324.9999999996
101324.9999999995
101324.9999999996
101324.9999999996
101324.9999999996
101324.9999999996
101324.9999999995
101324.9999999996
101324.9999999995
101324.9999999996
101324.9999999995
101324.9999999995
101324.9999999996
101324.9999999995
101324.9999999995
101324.9999999995
101324.9999999995
101324.9999999995
101324.9999999996
101324.9999999996
101324.9999999996
101324.9999999996
101324.9999999996
101324.9999999995
101324.9999999996
101324.9999999997
101324.9999999995
101324.9999999995
101324.9999999995
101324.9999999996
101324.9999999996
101324.9999999996
101324.9999999995
101324.9999999995
101324.9999999995
101324.9999999995
101324.9999999995
101324.9999999995
101324.9999999995
101324.9999999995
101324.9999999995
101324.9999999995
101324.9999999995
101324.9999999995
101324.9999999996
101324.9999999996
101324.9999999996
101324.9999999996
101324.9999999997
101324.9999999996
101324.9999999996
101324.9999999997
101324.9999999996
101324.9999999997
101324.9999999997
101324.9999999997
101324.9999999996
101324.9999999997
101324.9999999997
101324.9999999997
101324.9999999997
101324.9999999996
101324.9999999997
101324.9999999996
101324.9999999996
101324.9999999996
101324.9999999996
101324.9999999996
101324.9999999995
101324.9999999996
101324.9999999996
101324.9999999997
101324.9999999996
101324.9999999996
101324.9999999997
101324.9999999995
101324.9999999995
101324.9999999996
101324.9999999996
101324.9999999995
101324.9999999994
101324.9999999997
101324.9999999995
101324.9999999996
101324.9999999995
101324.9999999996
101324.9999999995
101324.9999999994
101324.9999999996
101324.9999999996
101324.9999999995
101324.9999999996
101324.9999999995
101324.9999999995
101324.9999999995
101324.9999999994
101324.9999999995
101324.9999999995
101324.9999999995
101324.9999999994
101324.9999999996
101324.9999999994
101324.9999999996
101324.9999999994
101324.9999999995
101324.9999999995
101324.9999999994
101324.9999999996
101324.9999999994
101324.9999999996
101324.9999999995
101324.9999999996
101324.9999999995
101324.9999999995
101324.9999999995
101324.9999999996
101324.9999999995
101324.9999999995
101324.9999999996
101324.9999999995
101324.9999999995
101324.9999999995
101324.9999999994
101324.9999999995
101324.9999999994
101324.9999999995
101324.9999999993
101324.9999999994
101324.9999999994
101324.9999999994
101324.9999999994
101324.9999999994
101324.9999999994
101324.9999999994
101324.9999999994
101324.9999999993
101324.9999999993
101324.9999999993
101324.9999999993
101324.9999999993
101324.9999999994
101324.9999999993
101324.9999999993
101324.9999999994
101324.9999999993
101324.9999999994
101324.9999999994
101324.9999999993
101324.9999999993
101324.9999999993
101324.9999999994
101324.9999999993
101324.9999999994
101324.9999999993
101324.9999999994
101324.9999999994
101324.9999999994
101324.9999999993
101324.9999999994
101324.9999999993
101324.9999999994
101324.9999999994
101324.9999999994
101324.9999999994
101324.9999999995
101324.9999999994
101324.9999999994
101324.9999999994
101324.9999999995
101324.9999999994
101324.9999999994
101324.9999999994
101324.9999999995
101324.9999999993
101324.9999999993
101324.9999999994
101324.9999999994
101324.9999999993
101324.9999999993
101324.9999999993
101324.9999999994
101324.9999999994
101324.9999999993
101324.9999999993
101324.9999999994
101324.9999999993
101324.9999999993
101324.9999999994
101324.9999999994
101324.9999999993
101324.9999999994
101324.9999999995
101324.9999999994
101324.9999999995
101324.9999999995
101324.9999999995
101324.9999999995
101324.9999999996
101324.9999999995
101324.9999999996
101324.9999999996
101324.9999999996
101324.9999999995
101324.9999999995
101324.9999999995
101324.9999999995
101324.9999999996
101324.9999999995
101324.9999999996
101324.9999999996
101324.9999999994
101324.9999999994
101324.9999999996
101324.9999999994
101324.9999999994
101324.9999999995
101324.9999999994
101324.9999999994
101324.9999999994
101324.9999999994
101324.9999999993
101324.9999999994
101324.9999999993
101324.9999999993
101324.9999999993
101324.9999999994
101324.9999999993
101324.9999999993
101324.9999999994
101324.9999999993
)
;

boundaryField
{
    inlet
    {
        type            calculated;
        value           uniform 101325.0000002025;
    }
    outlet
    {
        type            calculated;
        value           uniform 101324.9999999993;
    }
    frontAndBack
    {
        type            empty;
    }
}


// ************************************************************************* //
