/*--------------------------------*- C++ -*----------------------------------*\
| =========                 |                                                 |
| \\      /  F ield         | OpenFOAM: The Open Source CFD Toolbox           |
|  \\    /   O peration     | Version:  v2012                                 |
|   \\  /    A nd           | Website:  www.openfoam.com                      |
|    \\/     M anipulation  |                                                 |
\*---------------------------------------------------------------------------*/
FoamFile
{
    version     2.0;
    format      ascii;
    class       volScalarField;
    location    "0.003";
    object      rho;
}
// * * * * * * * * * * * * * * * * * * * * * * * * * * * * * * * * * * * * * //

dimensions      [1 -3 0 0 0 0 0];


internalField   nonuniform List<scalar> 
1000
(
1.176300337458925
1.176323878389591
1.176270065976119
1.176226802222348
1.176176231065803
1.176129984266163
1.176090775169288
1.176057906956846
1.176029665071429
1.176010065423618
1.176004336307915
1.176004163964137
1.176006660427497
1.17601417656692
1.176029678722107
1.176053858077597
1.176085818115342
1.176124012901903
1.176167163175277
1.176214419659521
1.176265110410842
1.176318513998452
1.176373778198661
1.176429897844251
1.176485728120735
1.176540093132001
1.176591995452698
1.176640870505515
1.176686769671815
1.176730027835214
1.176769424035161
1.176798922994467
1.176811494188732
1.176813012036886
1.176812451208834
1.176810686664865
1.176805266170451
1.176794282046481
1.176775744179728
1.176748574555702
1.176712911585206
1.176670031522298
1.176621771620731
1.176569867285949
1.176515617802103
1.176459953977226
1.176403674478881
1.176347619884505
1.176292686830652
1.1762396226735
1.176188657326118
1.176139434196501
1.176092141831747
1.176050529043916
1.176023571666058
1.176015042113419
1.176014500064287
1.176014728152167
1.17601660874868
1.176021248135355
1.176030581777213
1.176046345434303
1.176069939376694
1.176101997810364
1.176142180082159
1.176189218145502
1.176241257700281
1.176296354438201
1.17635286979987
1.176409591798328
1.17646565940166
1.176520529679365
1.176574084120907
1.176626658813808
1.176678593249967
1.176728773476529
1.176771827552996
1.176797988945209
1.17680553984701
1.176806026320068
1.176805563631
1.17680412885939
1.176800180084231
1.176792339588362
1.176778966326371
1.176758584730224
1.176730149890716
1.176693349109755
1.176648746980063
1.176597713673149
1.176542161470666
1.176484165834226
1.176425561638655
1.176367623289511
1.176310921000513
1.17625536339521
1.17620041842891
1.176145773697419
1.176093215845297
1.176049814331455
1.176025946479529
1.176020272754923
1.176020109038326
1.176020359074938
1.176021883040556
1.176025535462029
1.176032737988842
1.176044923047819
1.176063487040128
1.176089534770144
1.176123646115026
1.176165671584894
1.176214654395359
1.176268957167364
1.176326574969672
1.176385530253363
1.176444255843939
1.176501907277653
1.176558497738649
1.176614655165044
1.17667072116446
1.176724746628863
1.176769514198529
1.176794530593517
1.176800841691388
1.176801178925099
1.176800814994491
1.176799670506392
1.176796578938699
1.176790447396326
1.176779926953447
1.176763661218369
1.176740437465
1.176709416215681
1.176670336179209
1.176623650026116
1.176570551806063
1.176512838110664
1.176452558639248
1.176391524960919
1.176330875254544
1.176270902974686
1.176211302090274
1.176152121972585
1.176096093332993
1.176051736272035
1.176029214692378
1.176024455641704
1.176024352891922
1.176024570119976
1.17602581380194
1.176028780957275
1.176034617512412
1.176044527950894
1.176059769188805
1.176081489958067
1.176110563146422
1.176147390800965
1.176191742557327
1.17624270570793
1.176298787074786
1.17635816084272
1.176419045417593
1.176480145109148
1.176540959391515
1.176601644941795
1.176662068406265
1.176719594821578
1.176766089534253
1.176791038776242
1.176797025611352
1.176797335123797
1.176797049019119
1.176796143108878
1.176793669150598
1.176788727843654
1.176780178243491
1.176766813554418
1.176747449987413
1.176721089489197
1.176687088506138
1.176645313102541
1.176596255972078
1.176541051488271
1.176481303530819
1.176418719814899
1.176354682340192
1.176289967273435
1.176224877667656
1.176160243881415
1.17609998588898
1.176054007473982
1.176032105284958
1.17602786165844
1.176027782296687
1.176027965046154
1.176028995958119
1.176031453543594
1.176036294575346
1.176044549970108
1.176057338648673
1.176075758712446
1.176100768720459
1.17613303116125
1.176172756329042
1.176219604355729
1.176272682580002
1.176330655562918
1.176391995678098
1.176455361623964
1.176519935882363
1.176585372663931
1.176650887790293
1.176712935968004
1.176762224802414
1.176787908888493
1.176793867066055
1.176794173812948
1.176793945379198
1.176793219341783
1.176791203486693
1.176787144492975
1.176780064588494
1.176768896052141
1.176752533335617
1.176729949339385
1.176700324196567
1.176663179129826
1.176618504721703
1.176566834893234
1.176509185739405
1.176446827937837
1.176380968762046
1.17631251243097
1.176242186256068
1.176171605781333
1.17610604803178
1.176057130102339
1.176034807342557
1.176030717128176
1.176030637303712
1.176030788669478
1.176031651852768
1.176033716893886
1.176037798073478
1.176044786679487
1.176055675894298
1.176071485315438
1.176093176940487
1.176121533912235
1.17615702824581
1.176199719596863
1.176249211728249
1.176304684528562
1.176365041521526
1.176429186629455
1.176496299181664
1.176565777326379
1.176636332152165
1.176703574885506
1.176756960552293
1.176784682956665
1.176791138109363
1.176791489770402
1.176791309523138
1.176790729100665
1.176789071593017
1.176785696441262
1.176779756646726
1.176770308100237
1.17675633771197
1.176736845984452
1.17671094153231
1.176677947083429
1.17663751405214
1.176589709596367
1.176535009649687
1.176474167416018
1.176408008690232
1.176337284223069
1.176262853655422
1.176186828310975
1.176115519498536
1.176062144441286
1.176037760753355
1.176033233879366
1.176033112584652
1.176033229360899
1.176033944798837
1.176035682245661
1.176039149539115
1.176045126156628
1.176054495963899
1.176068193835759
1.176087147003414
1.176112183011258
1.176143924308051
1.176182699816816
1.176228489948988
1.176280919026595
1.176339335243528
1.176402999400389
1.176471277483374
1.176543545280805
1.176618293045331
1.176690692397198
1.176749324645643
1.17678082159181
1.176788626301003
1.176789121509761
1.176788984273421
1.176788533362026
1.176787176278256
1.176784360724709
1.176779342543871
1.176771282755835
1.176759259244909
1.176742324933963
1.176719574132854
1.176690222076294
1.176653698873865
1.176609730163012
1.176558352921511
1.176499845794025
1.176434613748434
1.176363124709275
1.176286141963022
1.176205881818631
1.17612902553635
1.176069804158949
1.176041363740839
1.176035582276085
1.176035350281793
1.176035430131604
1.176036007178407
1.176037452371777
1.17604039517594
1.176045526304028
1.176053638900163
1.176065588393374
1.176082252058573
1.176104460015936
1.176132914910679
1.176168121174966
1.176210331347038
1.176259519819715
1.176315421420339
1.176377654932308
1.176445844501827
1.176519494344842
1.176597151451496
1.176674072525174
1.176738671252015
1.176775789120458
1.176786128584389
1.176786956908529
1.176786858472386
1.176786525975572
1.176785431619757
1.1767830946256
1.176778850416329
1.176771946898643
1.176761543648673
1.176746753143381
1.176726685026695
1.176700503589203
1.176667501457257
1.176627166878592
1.17657920640502
1.176523513884944
1.1764601178981
1.176389175564697
1.176311216853426
1.176228230318141
1.176146577224958
1.176080625529611
1.176046080575906
1.176037921644722
1.176037441023293
1.176037485456797
1.176037934528507
1.176039112028226
1.176041590538092
1.176045989546572
1.176053028880452
1.176063494538714
1.176078211186413
1.176097990975458
1.17612357412794
1.176155575075299
1.176194435716271
1.176240393385777
1.176293496128993
1.176353681277513
1.176420844948117
1.176494703456308
1.176574039184784
1.176654534348176
1.176724996491584
1.176768759526597
1.176782683048104
1.176784090142335
1.176784022310857
1.176783754524613
1.17678278551136
1.176780643524026
1.176776664378538
1.176770090454393
1.176760055047805
1.176745608484991
1.176725755791265
1.176699521890533
1.176666062165023
1.176624874692567
1.176576284153667
1.176522615923973
1.1764704901488
1.176431876998312
1.176414979599741
1.176411881394102
1.176411717867594
1.176411716174546
1.176411716172174
1.176411716172172
1.176411716172172
1.176411716172173
1.176411716172172
1.176411716172176
1.176411716172178
1.176411716172181
1.176411716172179
1.176411716172179
1.176411716172181
1.176411716172177
1.176411716172179
1.176411716172183
1.176411716172182
1.176411716172186
1.176411716172182
1.176411716172183
1.176411716172182
1.176411716172181
1.176411716172181
1.176411716172173
1.176411716172175
1.176411716172179
1.176411716172181
1.176411716172176
1.176411716172178
1.176411716172179
1.176411716172177
1.17641171617218
1.176411716172178
1.176411716172176
1.17641171617218
1.17641171617218
1.176411716172178
1.176411716172182
1.176411716172182
1.17641171617218
1.17641171617218
1.176411716172181
1.176411716172182
1.176411716172182
1.176411716172181
1.176411716172182
1.176411716172181
1.176411716172179
1.176411716172177
1.17641171617218
1.176411716172179
1.176411716172181
1.176411716172181
1.176411716172179
1.17641171617218
1.176411716172179
1.176411716172185
1.17641171617218
1.17641171617218
1.176411716172179
1.176411716172181
1.176411716172178
1.176411716172183
1.176411716172178
1.176411716172181
1.17641171617218
1.176411716172178
1.176411716172178
1.176411716172183
1.176411716172176
1.176411716172178
1.176411716172181
1.176411716172181
1.17641171617218
1.176411716172185
1.176411716172181
1.176411716172183
1.176411716172178
1.176411716172176
1.176411716172175
1.176411716172179
1.176411716172183
1.176411716172179
1.176411716172185
1.176411716172181
1.176411716172185
1.176411716172183
1.176411716172184
1.176411716172187
1.176411716172183
1.176411716172181
1.176411716172183
1.176411716172184
1.176411716172181
1.17641171617218
1.176411716172184
1.176411716172181
1.176411716172187
1.176411716172181
1.176411716172187
1.176411716172186
1.176411716172186
1.176411716172182
1.176411716172185
1.176411716172179
1.176411716172183
1.176411716172178
1.176411716172183
1.176411716172184
1.176411716172178
1.17641171617218
1.17641171617218
1.17641171617218
1.176411716172181
1.176411716172176
1.176411716172181
1.176411716172177
1.176411716172176
1.176411716172177
1.176411716172179
1.176411716172173
1.17641171617218
1.176411716172178
1.176411716172173
1.176411716172176
1.176411716172176
1.17641171617218
1.176411716172179
1.176411716172183
1.176411716172181
1.17641171617218
1.176411716172182
1.176411716172181
1.176411716172181
1.176411716172177
1.176411716172179
1.176411716172179
1.176411716172179
1.176411716172181
1.176411716172183
1.176411716172185
1.176411716172185
1.176411716172188
1.176411716172187
1.176411716172188
1.176411716172185
1.176411716172181
1.176411716172177
1.176411716172177
1.176411716172179
1.17641171617218
1.176411716172184
1.176411716172183
1.176411716172179
1.176411716172179
1.176411716172179
1.176411716172181
1.176411716172181
1.176411716172181
1.176411716172182
1.176411716172179
1.176411716172181
1.17641171617218
1.17641171617218
1.176411716172181
1.176411716172183
1.17641171617218
1.176411716172182
1.176411716172184
1.176411716172185
1.176411716172181
1.176411716172181
1.176411716172182
1.176411716172183
1.176411716172182
1.17641171617218
1.176411716172181
1.176411716172183
1.17641171617218
1.17641171617218
1.176411716172179
1.176411716172181
1.176411716172179
1.17641171617218
1.176411716172184
1.176411716172178
1.176411716172182
1.17641171617218
1.176411716172184
1.176411716172179
1.176411716172182
1.17641171617218
1.176411716172183
1.176411716172179
1.176411716172184
1.176411716172183
1.176411716172184
1.176411716172183
1.176411716172183
1.176411716172184
1.176411716172183
1.176411716172184
1.176411716172182
1.176411716172187
1.176411716172181
1.176411716172183
1.176411716172184
1.176411716172184
1.176411716172183
1.176411716172183
1.176411716172179
1.176411716172183
1.176411716172182
1.176411716172184
1.176411716172183
1.176411716172187
1.176411716172184
1.176411716172183
1.176411716172181
1.176411716172183
1.17641171617218
1.176411716172181
1.176411716172181
1.176411716172181
1.176411716172183
1.176411716172181
1.176411716172185
1.176411716172182
1.176411716172184
1.17641171617218
1.17641171617218
1.17641171617218
1.176411716172179
1.176411716172177
1.17641171617218
1.17641171617218
1.176411716172184
1.176411716172181
1.176411716172183
1.176411716172183
1.176411716172181
1.176411716172177
1.176411716172175
1.176411716172175
1.176411716172176
1.176411716172173
1.176411716172178
1.176411716172178
1.17641171617218
1.176411716172184
1.176411716172181
1.176411716172184
1.176411716172186
1.176411716172183
1.176411716172181
1.176411716172182
1.176411716172179
1.176411716172182
1.176411716172185
1.176411716172187
1.176411716172188
1.176411716172187
1.176411716172186
1.176411716172186
1.176411716172183
1.176411716172184
1.176411716172181
1.176411716172181
1.176411716172179
1.176411716172181
1.176411716172178
1.176411716172179
1.176411716172179
1.176411716172179
1.17641171617218
1.176411716172183
1.176411716172184
1.176411716172181
1.176411716172179
1.176411716172181
1.176411716172181
1.176411716172179
1.176411716172177
1.176411716172177
1.176411716172179
1.176411716172181
1.176411716172183
1.17641171617218
1.17641171617218
1.17641171617218
1.17641171617218
1.17641171617218
1.176411716172181
1.176411716172183
1.176411716172186
1.176411716172181
1.176411716172182
1.17641171617218
1.17641171617218
1.17641171617218
1.176411716172178
1.176411716172186
1.176411716172181
1.17641171617218
1.17641171617218
1.176411716172176
1.17641171617218
1.176411716172181
1.176411716172183
1.17641171617218
1.176411716172182
1.176411716172178
1.176411716172181
1.176411716172184
1.176411716172179
1.176411716172181
1.176411716172181
1.176411716172183
1.176411716172183
1.176411716172184
1.176411716172184
1.176411716172183
1.176411716172183
1.176411716172182
1.176411716172179
1.176411716172185
1.176411716172184
1.176411716172179
1.176411716172179
1.176411716172178
1.176411716172178
1.17641171617218
1.17641171617218
1.176411716172182
1.176411716172183
1.176411716172179
1.176411716172181
1.17641171617218
1.176411716172179
1.176411716172179
1.176411716172176
1.176411716172177
1.17641171617218
1.176411716172179
1.17641171617218
1.176411716172182
1.176411716172184
1.176411716172187
1.176411716172183
1.17641171617219
1.176411716172186
1.176411716172186
1.176411716172187
1.176411716172186
1.176411716172187
1.176411716172187
1.176411716172188
1.176411716172183
1.176411716172188
1.176411716172187
1.176411716172187
1.176411716172189
1.176411716172191
1.176411716172189
1.176411716172192
1.17641171617219
1.176411716172185
1.176411716172186
1.176411716172184
1.176411716172186
1.176411716172183
1.176411716172185
1.176411716172187
1.17641171617218
1.17641171617218
1.176411716172176
1.176411716172176
1.176411716172177
1.176411716172178
1.176411716172178
1.17641171617218
1.17641171617218
1.176411716172185
1.176411716172183
1.176411716172187
1.176411716172183
1.176411716172181
1.176411716172181
1.176411716172182
1.176411716172186
1.176411716172183
1.176411716172187
1.176411716172188
1.176411716172186
1.176411716172189
1.176411716172189
1.176411716172187
1.176411716172183
1.176411716172187
1.176411716172184
1.176411716172186
1.176411716172181
1.176411716172183
1.17641171617218
1.176411716172181
1.176411716172184
1.176411716172183
1.176411716172182
1.176411716172181
1.17641171617218
1.176411716172184
1.176411716172181
1.176411716172184
1.176411716172183
1.176411716172182
1.176411716172181
1.17641171617218
1.17641171617218
1.176411716172179
1.176411716172181
1.176411716172179
1.17641171617218
1.176411716172184
1.176411716172184
1.176411716172186
1.176411716172183
1.176411716172184
1.176411716172183
1.17641171617218
1.176411716172182
1.176411716172181
1.176411716172184
1.17641171617218
1.176411716172181
1.176411716172182
1.17641171617218
1.17641171617218
1.17641171617218
1.17641171617218
1.176411716172184
1.176411716172186
1.176411716172187
1.17641171617218
1.176411716172182
1.176411716172181
1.176411716172183
1.176411716172183
1.176411716172182
1.176411716172186
1.176411716172181
1.176411716172185
1.176411716172181
1.176411716172184
1.176411716172183
1.176411716172184
1.176411716172183
1.176411716172184
1.176411716172185
1.176411716172181
1.176411716172182
1.17641171617218
1.176411716172179
1.17641171617218
1.17641171617218
1.176411716172179
1.176411716172179
1.17641171617218
1.17641171617218
1.176411716172179
1.17641171617218
1.176411716172179
1.176411716172179
1.176411716172175
1.17641171617218
1.176411716172181
1.176411716172186
1.176411716172181
1.176411716172181
1.17641171617218
1.17641171617218
1.17641171617218
1.176411716172179
1.176411716172179
1.17641171617218
1.17641171617218
1.17641171617218
1.176411716172179
1.17641171617218
1.17641171617218
1.176411716172178
1.176411716172179
1.176411716172179
1.176411716172181
1.176411716172182
1.176411716172179
1.17641171617218
1.176411716172182
1.176411716172181
1.17641171617218
1.176411716172181
1.176411716172177
1.176411716172177
1.176411716172176
1.176411716172177
1.176411716172177
1.176411716172177
1.176411716172177
1.176411716172176
1.176411716172177
1.176411716172177
1.176411716172178
1.176411716172179
1.176411716172178
1.176411716172177
1.176411716172177
1.176411716172175
1.176411716172177
1.176411716172177
1.176411716172177
1.176411716172176
1.176411716172177
1.176411716172177
1.176411716172179
1.176411716172176
1.176411716172181
1.176411716172182
1.176411716172181
1.176411716172179
1.176411716172177
1.176411716172177
1.176411716172177
1.176411716172177
1.176411716172179
1.176411716172181
1.176411716172182
1.176411716172183
1.176411716172181
1.176411716172183
1.176411716172183
1.17641171617218
1.176411716172176
1.176411716172179
1.176411716172177
1.17641171617218
1.176411716172176
1.17641171617218
1.17641171617218
1.176411716172179
1.176411716172179
1.176411716172178
1.176411716172177
1.176411716172177
1.176411716172178
1.176411716172178
1.176411716172177
1.176411716172177
1.176411716172177
1.176411716172175
1.176411716172176
1.176411716172177
1.176411716172181
1.176411716172178
1.176411716172182
1.17641171617218
1.176411716172181
1.176411716172179
1.176411716172179
1.17641171617218
1.17641171617218
1.17641171617218
1.176411716172183
1.17641171617218
1.176411716172182
1.176411716172179
1.176411716172181
1.17641171617218
1.176411716172181
1.176411716172181
1.17641171617218
1.176411716172181
)
;

boundaryField
{
    inlet
    {
        type            calculated;
        value           uniform 1.176411716172193;
    }
    outlet
    {
        type            calculated;
        value           uniform 1.17641171617218;
    }
    frontAndBack
    {
        type            empty;
    }
}


// ************************************************************************* //
