/*--------------------------------*- C++ -*----------------------------------*\
| =========                 |                                                 |
| \\      /  F ield         | OpenFOAM: The Open Source CFD Toolbox           |
|  \\    /   O peration     | Version:  v2012                                 |
|   \\  /    A nd           | Website:  www.openfoam.com                      |
|    \\/     M anipulation  |                                                 |
\*---------------------------------------------------------------------------*/
FoamFile
{
    version     2.0;
    format      ascii;
    class       volScalarField;
    location    "0.003";
    object      T;
}
// * * * * * * * * * * * * * * * * * * * * * * * * * * * * * * * * * * * * * //

dimensions      [0 0 0 1 0 0 0];


internalField   nonuniform List<scalar> 
1000
(
299.9886824436415
299.9904895197979
299.9841675181767
299.9794663631031
299.9749231735378
299.9709492028648
299.9673013222469
299.9639898420813
299.9610593639874
299.9590379215056
299.9584609724289
299.9584729530752
299.9587598074644
299.9595168945977
299.9610572462148
299.9634848674173
299.9667235883224
299.9706130571967
299.9750162513145
299.9798423949883
299.985021085542
299.9904776918546
299.9961241904476
300.0018568432441
300.0075579208485
300.0131071109228
300.0184029395465
300.0233885232176
300.0280699624084
300.0324821199211
300.0365007748795
300.0395102374615
300.0407931526594
300.0409484403085
300.0408918298562
300.0407125871178
300.040159926545
300.0390392264097
300.0371476083733
300.0343751275345
300.030735921147
300.0263602291221
300.0214355212902
300.0161388576278
300.0106027858955
300.0049222528853
299.9991787299362
299.9934579819334
299.9878515150958
299.9824356188357
299.9772337821517
299.9722096322819
299.9673824331743
299.9631348587752
299.9603831655065
299.9595124992414
299.9594571740001
299.9594804662654
299.9596724402068
299.9601460148733
299.9610987554375
299.9627078346028
299.9651161679502
299.9683884618913
299.9724899042391
299.9772910181688
299.9826024948497
299.9882258538561
299.9939938390193
299.9997827469477
300.0055047045894
300.0111043114575
300.0165694842612
300.0219345299359
300.0272340981419
300.0323545243467
300.0367476806282
300.0394170837355
300.0401875407365
300.0402371798124
300.0401899712868
300.0400435761772
300.0396406626726
300.0388406529822
300.0374760956603
300.0353964156081
300.0324949691084
300.028739812759
300.0241885118909
300.0189808331444
300.0133118718377
300.0073933938066
300.001412635084
299.9954996533413
299.9897126510994
299.9840423129828
299.9784343445025
299.9728568624938
299.9674922325958
299.9630620802374
299.9606257507389
299.960046596414
299.9600298856638
299.9600554099608
299.9602109718514
299.9605837973787
299.9613190013235
299.9625627945658
299.9644577038767
299.9671164812525
299.970598285127
299.9748878146688
299.979887362994
299.9854297608198
299.991310339286
299.9973272454783
300.003320530477
300.0092040179663
300.0149790629903
300.0207097525674
300.0264309473682
300.031943758243
300.0365117588614
300.0390643313723
300.0397082851145
300.0397426956022
300.0397055627088
300.0395887852639
300.0392733357953
300.0386476988365
300.0375742316952
300.0359145244465
300.0335448177385
300.0303794261151
300.0263916494173
300.0216276314541
300.0162091667867
300.010319545441
300.0041679051633
299.9979391048583
299.9917492999287
299.9856284448225
299.9795453098196
299.973504935485
299.9677860504413
299.9632583639793
299.9609594573313
299.9604736705444
299.9604631829099
299.960485357875
299.9606123089732
299.9609151846084
299.961510955185
299.9625225656748
299.9640783084411
299.9662954254899
299.9692629920652
299.9730220118739
299.9775489279548
299.9827505332631
299.9884743790049
299.9945340802445
300.0007477851671
300.0069832514261
300.0131893987549
300.0193822175386
300.0255480991974
300.0314181704161
300.0361624142341
300.0387081382424
300.0393190071536
300.0393505894
300.0393213977216
300.0392289638734
300.0389765325173
300.0384723421148
300.0375999727015
300.0362362812878
300.0342604661274
300.0315706682848
300.0281011901326
300.0238383241613
300.0188322974442
300.0131988161254
300.0071015067086
300.0007146084795
299.994179138975
299.9875743007985
299.9809310175671
299.9743340364273
299.9681834755444
299.9634902962686
299.9612546162599
299.960821443156
299.9608133432075
299.9608319991566
299.96093723181
299.9611880926801
299.9616822444937
299.9625249161992
299.9638303164097
299.9657105230294
299.9682633621054
299.9715564285841
299.9756111505844
299.98039279316
299.9858101966437
299.9917270145567
299.9979872979686
300.0044541301849
300.0110440632844
300.0177217977247
300.0244073020804
300.030738807809
300.035768170794
300.0383888788831
300.0389968247779
300.0390281251195
300.0390048181509
300.0389307379562
300.0387250495183
300.0383108867047
300.0375884797281
300.0364488779481
300.0347792663322
300.0324748273568
300.0294518795059
300.0256615347955
300.0211027889198
300.0158300750426
300.0099470301478
300.0035832782559
299.9968619848177
299.9898753991646
299.9826977253135
299.9754938350573
299.9688023532205
299.9638091356106
299.9615305271662
299.9611130142894
299.9611048671575
299.9611203196109
299.961208431139
299.9614192225441
299.9618358117295
299.9625491755419
299.9636606892297
299.9652744201588
299.96748854974
299.9703829943754
299.9740059029666
299.9783633250993
299.9834147713823
299.989076487741
299.9952365180991
300.0017829564892
300.0086320143697
300.0157222422713
300.0229220859729
300.0297836940658
300.0352311101944
300.0380598048872
300.0387184602998
300.0387543433347
300.038735952871
300.0386767303487
300.0385076058838
300.0381632191853
300.037557144529
300.0365930453147
300.0351675429168
300.0331786400245
300.0305353628911
300.0271685757024
300.0230426711604
300.0181644558571
300.0125824437923
300.0063734427084
299.9996216717535
299.9924036973057
299.9848072058685
299.9770476479379
299.9697691991154
299.9643210447195
299.9618320685709
299.961369983209
299.9613576026911
299.9613695239053
299.9614425537757
299.9616199053052
299.9619738311943
299.9625838955857
299.9635403161853
299.9649385142188
299.9668731255545
299.969428603438
299.9726684575173
299.9766262272593
299.981299871035
299.9866509962671
299.9926130257933
299.9991104653025
300.0060785598534
300.0134535594368
300.0210813539713
300.028469213419
300.0344520153762
300.0376658584005
300.0384622166854
300.0385127463018
300.038498744003
300.0384527356998
300.0383142647546
300.0380269766929
300.0375149395941
300.0366925446524
300.0354656975155
300.0337377524414
300.0314162802067
300.028421181924
300.0246942741979
300.0202075190115
300.0149646391231
300.0089940114772
300.0023369000679
299.9950409920252
299.9871841193291
299.9789924228544
299.9711478120428
299.9651029378377
299.9621998753715
299.9616097261518
299.9615860455
299.9615941968132
299.9616530997276
299.9618006187742
299.962101006572
299.9626247669003
299.9634528577476
299.9646725922992
299.9663735095407
299.9686403292192
299.9715447515401
299.9751382356325
299.9794465203058
299.9844669461281
299.9901723960681
299.9965239057794
300.0034830564774
300.0109991893667
300.0189239650031
300.0267733114893
300.0333649765881
300.0371523742479
300.0382073683193
300.0382918871705
300.0382818434113
300.0382479170755
300.0381362533404
300.0378977950977
300.0374647307214
300.0367603175658
300.0356987979754
300.0341896049566
300.032141877119
300.0294703217059
300.0261027318372
300.0219868511542
300.0170926883317
300.0114093539033
300.0049396976692
299.9976996787641
299.9897433020234
299.9812734408696
299.9729393128153
299.9662075091577
299.9626813380067
299.9618485065811
299.9617994467747
299.9618039824597
299.9618498217167
299.9619700153567
299.9622230096405
299.9626720382617
299.9633905758534
299.9644588495614
299.9659610300398
299.967980005727
299.97059131623
299.9738576530868
299.9778240878344
299.9825148026819
299.9879346506288
299.9940771769194
300.0009317133983
300.0084692361477
300.0165654111527
300.0247795632795
300.0319695961009
300.0364350713466
300.037855769507
300.0379993433146
300.0379924219928
300.0379650979903
300.0378662232488
300.0376476621816
300.0372416431681
300.036570859648
300.0355468725666
300.0340727733712
300.0320470255828
300.0293701150986
300.0259558290941
300.0217529115384
300.0167944452331
300.0113176768543
300.0059981637104
300.0020575317921
300.0003330532571
300.0000168618963
300.0000001730289
300.0000000002433
300.0000000000009
300.0000000000014
300.0000000000023
300.0000000000023
300.0000000000026
300.0000000000032
300.0000000000024
300.0000000000023
300.0000000000023
300.0000000000025
300.0000000000032
300.0000000000035
300.0000000000033
300.0000000000025
300.0000000000015
300.0000000000021
300.0000000000015
300.0000000000019
300.0000000000013
300.0000000000016
300.0000000000023
300.0000000000027
300.0000000000029
300.0000000000025
300.0000000000026
300.0000000000028
300.0000000000026
300.0000000000027
300.000000000002
300.0000000000027
300.000000000002
300.000000000002
300.0000000000016
300.0000000000016
300.0000000000015
300.0000000000014
300.0000000000013
300.0000000000017
300.0000000000013
300.0000000000018
300.0000000000014
300.0000000000016
300.0000000000016
300.0000000000014
300.0000000000016
300.000000000002
300.0000000000025
300.0000000000023
300.0000000000023
300.0000000000023
300.0000000000022
300.0000000000023
300.0000000000023
300.0000000000018
300.0000000000022
300.0000000000027
300.0000000000027
300.0000000000026
300.0000000000022
300.0000000000021
300.0000000000019
300.0000000000016
300.0000000000023
300.0000000000023
300.0000000000017
300.0000000000016
300.0000000000019
300.0000000000019
300.0000000000026
300.0000000000026
300.0000000000023
300.0000000000023
300.0000000000023
300.0000000000023
300.000000000002
300.0000000000021
300.0000000000026
300.0000000000023
300.0000000000027
300.0000000000023
300.0000000000023
300.0000000000023
300.0000000000023
300.0000000000023
300.0000000000026
300.0000000000022
300.0000000000022
300.0000000000027
300.0000000000025
300.0000000000018
300.0000000000019
300.000000000002
300.0000000000023
300.0000000000026
300.0000000000019
300.0000000000023
300.0000000000021
300.0000000000022
300.0000000000016
300.0000000000023
300.0000000000024
300.0000000000022
300.0000000000018
300.0000000000026
300.0000000000021
300.0000000000024
300.0000000000026
300.0000000000021
300.0000000000028
300.0000000000025
300.0000000000029
300.0000000000026
300.0000000000026
300.0000000000027
300.0000000000028
300.0000000000027
300.0000000000028
300.0000000000028
300.0000000000028
300.0000000000031
300.0000000000031
300.0000000000034
300.0000000000031
300.0000000000029
300.0000000000023
300.0000000000021
300.0000000000016
300.0000000000016
300.0000000000016
300.0000000000021
300.0000000000018
300.0000000000021
300.000000000003
300.0000000000034
300.0000000000036
300.0000000000031
300.0000000000034
300.0000000000025
300.000000000002
300.0000000000022
300.0000000000023
300.0000000000018
300.0000000000019
300.0000000000026
300.0000000000034
300.0000000000032
300.0000000000035
300.0000000000031
300.0000000000022
300.0000000000024
300.0000000000023
300.0000000000027
300.0000000000034
300.0000000000031
300.0000000000023
300.0000000000024
300.0000000000019
300.0000000000019
300.0000000000021
300.0000000000024
300.0000000000026
300.0000000000029
300.0000000000024
300.0000000000025
300.0000000000029
300.0000000000029
300.0000000000031
300.0000000000029
300.0000000000035
300.0000000000039
300.0000000000034
300.0000000000033
300.0000000000036
300.0000000000033
300.0000000000033
300.0000000000033
300.0000000000033
300.0000000000043
300.0000000000042
300.0000000000043
300.0000000000042
300.0000000000036
300.0000000000035
300.0000000000035
300.0000000000036
300.0000000000031
300.000000000003
300.000000000003
300.0000000000028
300.0000000000031
300.000000000003
300.000000000003
300.000000000003
300.0000000000026
300.0000000000023
300.0000000000026
300.0000000000028
300.0000000000024
300.0000000000032
300.0000000000038
300.0000000000029
300.000000000003
300.0000000000024
300.0000000000029
300.0000000000028
300.0000000000026
300.0000000000019
300.0000000000023
300.0000000000023
300.0000000000023
300.0000000000023
300.0000000000022
300.0000000000023
300.000000000002
300.0000000000021
300.0000000000026
300.0000000000023
300.0000000000023
300.0000000000027
300.000000000003
300.0000000000024
300.0000000000023
300.0000000000026
300.0000000000024
300.0000000000024
300.0000000000027
300.0000000000027
300.000000000003
300.0000000000031
300.0000000000031
300.0000000000031
300.0000000000035
300.0000000000034
300.0000000000031
300.0000000000027
300.0000000000023
300.0000000000019
300.000000000002
300.000000000002
300.0000000000028
300.0000000000029
300.0000000000024
300.000000000003
300.0000000000023
300.0000000000017
300.0000000000014
300.0000000000015
300.0000000000014
300.0000000000017
300.0000000000021
300.0000000000015
300.0000000000019
300.0000000000024
300.0000000000029
300.0000000000034
300.0000000000031
300.0000000000024
300.0000000000024
300.0000000000019
300.0000000000021
300.0000000000031
300.000000000003
300.0000000000033
300.0000000000035
300.0000000000033
300.0000000000035
300.0000000000028
300.0000000000032
300.0000000000027
300.0000000000024
300.0000000000028
300.0000000000025
300.0000000000023
300.0000000000019
300.0000000000021
300.0000000000024
300.0000000000026
300.000000000002
300.0000000000024
300.0000000000025
300.0000000000028
300.0000000000028
300.0000000000027
300.0000000000017
300.0000000000019
300.0000000000024
300.0000000000031
300.0000000000031
300.0000000000031
300.0000000000031
300.0000000000024
300.0000000000017
300.0000000000021
300.0000000000019
300.0000000000023
300.0000000000031
300.0000000000031
300.0000000000031
300.0000000000027
300.0000000000023
300.0000000000016
300.0000000000024
300.0000000000031
300.0000000000031
300.0000000000031
300.000000000002
300.0000000000019
300.0000000000021
300.0000000000018
300.0000000000016
300.0000000000016
300.0000000000021
300.0000000000016
300.0000000000016
300.000000000002
300.0000000000018
300.0000000000019
300.0000000000021
300.0000000000021
300.0000000000019
300.0000000000019
300.0000000000024
300.0000000000023
300.0000000000021
300.000000000002
300.0000000000024
300.0000000000028
300.0000000000034
300.0000000000034
300.0000000000031
300.000000000003
300.0000000000022
300.0000000000019
300.000000000002
300.0000000000017
300.0000000000021
300.0000000000016
300.0000000000022
300.0000000000024
300.0000000000021
300.0000000000023
300.0000000000019
300.0000000000023
300.0000000000019
300.0000000000021
300.0000000000023
300.0000000000025
300.0000000000027
300.0000000000028
300.0000000000022
300.0000000000024
300.0000000000022
300.0000000000023
300.0000000000024
300.000000000003
300.0000000000028
300.0000000000031
300.000000000003
300.0000000000024
300.0000000000024
300.0000000000026
300.0000000000018
300.0000000000018
300.0000000000026
300.0000000000028
300.0000000000023
300.0000000000021
300.0000000000021
300.0000000000019
300.0000000000015
300.0000000000013
300.0000000000015
300.0000000000023
300.0000000000029
300.0000000000031
300.0000000000039
300.0000000000035
300.0000000000034
300.0000000000031
300.0000000000031
300.0000000000028
300.0000000000025
300.0000000000024
300.0000000000023
300.0000000000029
300.0000000000029
300.0000000000033
300.0000000000035
300.0000000000026
300.0000000000024
300.0000000000019
300.0000000000022
300.0000000000026
300.0000000000019
300.0000000000024
300.0000000000026
300.0000000000032
300.0000000000021
300.0000000000022
300.0000000000024
300.0000000000026
300.000000000003
300.0000000000024
300.0000000000019
300.0000000000019
300.0000000000024
300.0000000000024
300.0000000000023
300.0000000000021
300.0000000000022
300.0000000000019
300.0000000000019
300.0000000000024
300.0000000000029
300.0000000000031
300.0000000000031
300.0000000000029
300.000000000003
300.0000000000025
300.0000000000023
300.0000000000021
300.0000000000021
300.000000000002
300.0000000000019
300.0000000000026
300.0000000000028
300.0000000000031
300.0000000000028
300.0000000000023
300.000000000003
300.0000000000026
300.0000000000029
300.0000000000026
300.0000000000031
300.0000000000031
300.0000000000031
300.0000000000026
300.0000000000021
300.0000000000018
300.0000000000022
300.0000000000023
300.0000000000032
300.000000000003
300.0000000000023
300.0000000000022
300.0000000000028
300.0000000000032
300.0000000000024
300.0000000000024
300.0000000000024
300.0000000000021
300.0000000000018
300.0000000000021
300.0000000000019
300.000000000002
300.0000000000019
300.0000000000024
300.0000000000025
300.0000000000029
300.0000000000025
300.0000000000026
300.0000000000026
300.0000000000029
300.000000000003
300.0000000000026
300.0000000000031
300.0000000000028
300.0000000000031
300.0000000000028
300.0000000000025
300.0000000000024
300.0000000000026
300.0000000000024
300.0000000000019
300.0000000000018
300.0000000000024
300.0000000000026
300.0000000000026
300.0000000000031
300.0000000000028
300.0000000000032
300.0000000000031
300.0000000000031
300.0000000000031
300.0000000000032
300.0000000000031
300.0000000000031
300.0000000000027
300.0000000000028
300.0000000000018
300.0000000000016
300.0000000000018
300.0000000000016
300.0000000000022
300.0000000000018
300.0000000000016
300.0000000000018
300.0000000000021
300.0000000000028
300.0000000000028
300.0000000000028
300.0000000000028
300.0000000000028
300.0000000000028
300.0000000000028
300.0000000000028
300.0000000000028
300.0000000000026
300.0000000000026
300.0000000000029
300.0000000000026
300.0000000000028
300.0000000000028
300.0000000000028
300.0000000000028
300.0000000000028
300.0000000000028
300.0000000000028
300.0000000000028
300.0000000000028
300.0000000000028
300.0000000000019
300.0000000000016
300.0000000000018
300.0000000000016
300.0000000000023
300.0000000000028
300.0000000000028
300.0000000000028
300.0000000000028
300.0000000000021
300.0000000000016
300.0000000000018
300.0000000000019
300.0000000000016
300.0000000000018
300.0000000000019
300.0000000000023
300.0000000000028
300.000000000003
300.0000000000028
300.0000000000031
300.0000000000028
300.0000000000031
300.0000000000031
300.000000000003
300.0000000000029
300.0000000000027
300.0000000000028
300.0000000000028
300.0000000000028
300.0000000000026
300.0000000000028
300.0000000000028
300.0000000000028
300.0000000000028
300.0000000000027
300.0000000000026
300.0000000000024
300.0000000000021
300.0000000000022
300.0000000000023
300.0000000000024
300.000000000003
300.0000000000028
300.0000000000031
300.0000000000031
300.0000000000022
300.0000000000019
300.000000000002
300.0000000000018
300.0000000000019
300.0000000000016
300.0000000000021
300.0000000000016
300.0000000000016
300.000000000002
300.0000000000016
)
;

boundaryField
{
    inlet
    {
        type            fixedValue;
        value           uniform 300;
    }
    outlet
    {
        type            characteristicVelocityInletOutletTemperature;
        UName           U;
        pName           p;
        TName           T;
        phiName         phi;
        rhoName         rho;
        U               (0 0 0);
        p               101325;
        T               300;
        value           uniform 300.0000000000016;
    }
    frontAndBack
    {
        type            empty;
    }
}


// ************************************************************************* //
