/*--------------------------------*- C++ -*----------------------------------*\
| =========                 |                                                 |
| \\      /  F ield         | OpenFOAM: The Open Source CFD Toolbox           |
|  \\    /   O peration     | Version:  v2012                                 |
|   \\  /    A nd           | Website:  www.openfoam.com                      |
|    \\/     M anipulation  |                                                 |
\*---------------------------------------------------------------------------*/
FoamFile
{
    version     2.0;
    format      ascii;
    class       volVectorField;
    location    "0.003";
    object      U;
}
// * * * * * * * * * * * * * * * * * * * * * * * * * * * * * * * * * * * * * //

dimensions      [0 1 -1 0 0 0 0];


internalField   nonuniform List<vector> 
1000
(
(-0.001031000756969953 0 0)
(-0.03287139741684052 0 0)
(-0.04108810182303927 0 0)
(-0.05633192816293144 0 0)
(-0.07033338837669269 0 0)
(-0.08346490941450685 0 0)
(-0.09469898751356942 0 0)
(-0.1043216137832834 0 0)
(-0.1127375133288932 0 0)
(-0.1186058140250491 0 0)
(-0.1202953367707367 0 0)
(-0.1201781943944615 0 0)
(-0.1195393337806235 0 0)
(-0.1172842573250021 0 0)
(-0.1127501400568101 0 0)
(-0.1056460206055214 0 0)
(-0.09622829820689752 0 0)
(-0.08495414786012674 0 0)
(-0.07221497285024245 0 0)
(-0.05826688724283019 0 0)
(-0.04329841580665598 0 0)
(-0.02751814526909182 0 0)
(-0.01119430872671772 0 0)
(0.005363836460316398 0 0)
(0.02183782292094185 0 0)
(0.03790253221734839 0 0)
(0.05324040539192709 0 0)
(0.06764608399000914 0 0)
(0.08115760578698669 0 0)
(0.0939405575696874 0 0)
(0.1056208526714865 0 0)
(0.1143178405405088 0 0)
(0.1179636397203903 0 0)
(0.1183868824718532 0 0)
(0.1183434525315305 0 0)
(0.1177349342227702 0 0)
(0.1161652458242677 0 0)
(0.1129186906194538 0 0)
(0.1074459941984431 0 0)
(0.09942652407525293 0 0)
(0.08890450779929153 0 0)
(0.076250018885897 0 0)
(0.0620011454922385 0 0)
(0.04667805298805521 0 0)
(0.03067164984514462 0 0)
(0.01424655444272698 0 0)
(-0.002375050395073903 0 0)
(-0.01893351491397893 0 0)
(-0.03514127155136054 0 0)
(-0.050788480803623 0 0)
(-0.06584402362013883 0 0)
(-0.08040784185607212 0 0)
(-0.09436752683571423 0 0)
(-0.1066103108919802 0 0)
(-0.1145610965937594 0 0)
(-0.117129589552888 0 0)
(-0.117323430441333 0 0)
(-0.1171626923032499 0 0)
(-0.1166664283097546 0 0)
(-0.1152780261149554 0 0)
(-0.1125246453866966 0 0)
(-0.1078714278030675 0 0)
(-0.1009058058842919 0 0)
(-0.09143740306586265 0 0)
(-0.0795718917284771 0 0)
(-0.06568770240947439 0 0)
(-0.05032630992562816 0 0)
(-0.03405531240966904 0 0)
(-0.01736597994336602 0 0)
(-0.0006274662896318802 0 0)
(0.01591413651603248 0 0)
(0.03211754147889548 0 0)
(0.04794093926780961 0 0)
(0.06345311613769526 0 0)
(0.07875633847262853 0 0)
(0.09356810947331015 0 0)
(0.1063097109454148 0 0)
(0.1140402180816127 0 0)
(0.1162297223484443 0 0)
(0.1163434030788862 0 0)
(0.116281275555229 0 0)
(0.1158122367849391 0 0)
(0.1146607302331436 0 0)
(0.1123452447986858 0 0)
(0.1083975103955617 0 0)
(0.102381114688481 0 0)
(0.09399111412803222 0 0)
(0.08313156675437226 0 0)
(0.06996466393103377 0 0)
(0.05489895287917039 0 0)
(0.0385053392481686 0 0)
(0.02139138288053461 0 0)
(0.004087987437449327 0 0)
(-0.01302410702319353 0 0)
(-0.02975960886349157 0 0)
(-0.04614750295383457 0 0)
(-0.06237111655760644 0 0)
(-0.07852650880274092 0 0)
(-0.09404767090667111 0 0)
(-0.106835045520982 0 0)
(-0.1138681475154966 0 0)
(-0.1155715528174871 0 0)
(-0.1156531483656417 0 0)
(-0.1155181981959824 0 0)
(-0.1151020214737576 0 0)
(-0.1140136077647722 0 0)
(-0.1118878901893091 0 0)
(-0.1082909236287453 0 0)
(-0.102810458206296 0 0)
(-0.09511763002498604 0 0)
(-0.08504458918151594 0 0)
(-0.07263901331536975 0 0)
(-0.05817940353471436 0 0)
(-0.04214404165538644 0 0)
(-0.02513005551161221 0 0)
(-0.007730026487537357 0 0)
(0.009598699674174135 0 0)
(0.02662101223404487 0 0)
(0.04333681316459551 0 0)
(0.05990884281069058 0 0)
(0.07643814263731816 0 0)
(0.09238351118995294 0 0)
(0.1056209304572622 0 0)
(0.1130125887252093 0 0)
(0.1148478782457148 0 0)
(0.1149235400465504 0 0)
(0.1148697317728646 0 0)
(0.114500255033865 0 0)
(0.1135972274994699 0 0)
(0.1117867944105063 0 0)
(0.1086813293479509 0 0)
(0.1038797761189084 0 0)
(0.09702714165671421 0 0)
(0.08787322434780523 0 0)
(0.07633710874487068 0 0)
(0.06255518331394934 0 0)
(0.0468851869716115 0 0)
(0.02985380088602489 0 0)
(0.01205736914654792 0 0)
(-0.005966321235540176 0 0)
(-0.02386802270961973 0 0)
(-0.04156213799556344 0 0)
(-0.05915935465671585 0 0)
(-0.07664872541945601 0 0)
(-0.09319451387107128 0 0)
(-0.1062710477670517 0 0)
(-0.1129089577092742 0 0)
(-0.1143340810062963 0 0)
(-0.1143919278745581 0 0)
(-0.114281363874974 0 0)
(-0.1139390231036274 0 0)
(-0.1130556626216103 0 0)
(-0.1113329206301747 0 0)
(-0.1084073978569486 0 0)
(-0.1039078825368828 0 0)
(-0.09749300616826961 0 0)
(-0.08890770754318827 0 0)
(-0.0780361970442619 0 0)
(-0.06494323730381925 0 0)
(-0.0498941626515005 0 0)
(-0.03333430636081727 0 0)
(-0.01580983064583219 0 0)
(0.00215803757918952 0 0)
(0.02019814177331688 0 0)
(0.03815851544040964 0 0)
(0.05606715293381368 0 0)
(0.0738864250234323 0 0)
(0.09086620868687256 0 0)
(0.1046086566138612 0 0)
(0.1119775673029647 0 0)
(0.1137220626779394 0 0)
(0.1137953794193161 0 0)
(0.1137541556619969 0 0)
(0.1134607050235431 0 0)
(0.1127383015213852 0 0)
(0.1112793048223921 0 0)
(0.1087556747058703 0 0)
(0.1048104193903346 0 0)
(0.09909673470742329 0 0)
(0.09131824123090627 0 0)
(0.08128169894215831 0 0)
(0.06894967804821601 0 0)
(0.05447216303789675 0 0)
(0.03818110986401137 0 0)
(0.02054246929219143 0 0)
(0.002062673634072297 0 0)
(-0.01683920712374929 0 0)
(-0.03593505198031362 0 0)
(-0.05515246188177245 0 0)
(-0.07424896059304714 0 0)
(-0.09204276128049202 0 0)
(-0.1056018268106391 0 0)
(-0.1120589422498388 0 0)
(-0.113327846131191 0 0)
(-0.1133742978870975 0 0)
(-0.1132823639339687 0 0)
(-0.1129981730935379 0 0)
(-0.1122666397050188 0 0)
(-0.1108377103944286 0 0)
(-0.1084007496800299 0 0)
(-0.104625279236679 0 0)
(-0.09918521345016022 0 0)
(-0.09179976102637991 0 0)
(-0.08227576172210696 0 0)
(-0.07054833297091756 0 0)
(-0.05671438308510028 0 0)
(-0.04104146127256142 0 0)
(-0.02392982069007919 0 0)
(-0.005826099902224231 0 0)
(0.01288310217615616 0 0)
(0.03195193744533042 0 0)
(0.05126301918494772 0 0)
(0.07058790933762986 0 0)
(0.08890335137170731 0 0)
(0.1034672443770834 0 0)
(0.1110506051330778 0 0)
(0.1127899439594728 0 0)
(0.1128667802375643 0 0)
(0.1128355671903438 0 0)
(0.1125987774440535 0 0)
(0.1120105738463407 0 0)
(0.1108120286326299 0 0)
(0.1087222755531139 0 0)
(0.1054252826163733 0 0)
(0.1005970223708115 0 0)
(0.09393295888079949 0 0)
(0.08518826630766693 0 0)
(0.07422328562592864 0 0)
(0.06103917019498788 0 0)
(0.04579116414506171 0 0)
(0.0287727336993557 0 0)
(0.0103608664273766 0 0)
(-0.009078648176542019 0 0)
(-0.02928006945336112 0 0)
(-0.05004334386146442 0 0)
(-0.07089316810798457 0 0)
(-0.09025079074435344 0 0)
(-0.1046803790830238 0 0)
(-0.1112637331842149 0 0)
(-0.1124851012574597 0 0)
(-0.1125272652635809 0 0)
(-0.1124509629609737 0 0)
(-0.1122131002756281 0 0)
(-0.1115983701881546 0 0)
(-0.1103937526325061 0 0)
(-0.108330747380706 0 0)
(-0.1051160027884834 0 0)
(-0.1004469400656429 0 0)
(-0.09404145099298716 0 0)
(-0.08567028441877625 0 0)
(-0.0751915975054369 0 0)
(-0.06258500614387076 0 0)
(-0.04797114712049234 0 0)
(-0.03159705786753183 0 0)
(-0.01378230558249195 0 0)
(0.005157134483945599 0 0)
(0.02497406269320979 0 0)
(0.04547803392084945 0 0)
(0.06629293540073407 0 0)
(0.08614281277347949 0 0)
(0.1019132157775521 0 0)
(0.1100955655398416 0 0)
(0.1119842410154558 0 0)
(0.112078328464803 0 0)
(0.1120558065560227 0 0)
(0.1118644519496579 0 0)
(0.1113814294868609 0 0)
(0.1103846755209757 0 0)
(0.1086314648605065 0 0)
(0.105842230594711 0 0)
(0.1017198985858388 0 0)
(0.09596827125137818 0 0)
(0.08832189874528491 0 0)
(0.07858236654334604 0 0)
(0.06665006437787513 0 0)
(0.05254262941489933 0 0)
(0.03639510886565273 0 0)
(0.01843180198737335 0 0)
(-0.001095660451471944 0 0)
(-0.0219675959596301 0 0)
(-0.04394285403395255 0 0)
(-0.06639810173891485 0 0)
(-0.0874521582000465 0 0)
(-0.1031994360645232 0 0)
(-0.1103939976915771 0 0)
(-0.1117435483787106 0 0)
(-0.1117928635518507 0 0)
(-0.1117317050710661 0 0)
(-0.1115355923514283 0 0)
(-0.1110180210875967 0 0)
(-0.1099947187524335 0 0)
(-0.1082304643483059 0 0)
(-0.1054642016035267 0 0)
(-0.1014187220992865 0 0)
(-0.09582201675816036 0 0)
(-0.08843120469140886 0 0)
(-0.07906017853913273 0 0)
(-0.0676097848624055 0 0)
(-0.05408931301530621 0 0)
(-0.03861343327351008 0 0)
(-0.02137036486594493 0 0)
(-0.002572516443048243 0 0)
(0.01758729702878486 0 0)
(0.03891453410152596 0 0)
(0.06096955378489322 0 0)
(0.08234309201304839 0 0)
(0.09965949968851423 0 0)
(0.108952874066208 0 0)
(0.1112423549921594 0 0)
(0.111382505130395 0 0)
(0.1113685110095953 0 0)
(0.1112166036929809 0 0)
(0.1108221871662593 0 0)
(0.1099904443093741 0 0)
(0.1085092469205201 0 0)
(0.106130031910829 0 0)
(0.1025822445438742 0 0)
(0.09758515971239612 0 0)
(0.09086961566319826 0 0)
(0.08220553956784861 0 0)
(0.07142730975853512 0 0)
(0.05845160497577433 0 0)
(0.04328496208214275 0 0)
(0.02601210407125808 0 0)
(0.006758930137237079 0 0)
(-0.01433963014722099 0 0)
(-0.03706893056291348 0 0)
(-0.06077236753000136 0 0)
(-0.08346211659804277 0 0)
(-0.1009368337821596 0 0)
(-0.1093327172852239 0 0)
(-0.1110521341413848 0 0)
(-0.1111291432419784 0 0)
(-0.1110824933919903 0 0)
(-0.110926568283646 0 0)
(-0.1104952577036604 0 0)
(-0.1096269838077019 0 0)
(-0.1081123281120504 0 0)
(-0.1057171108871297 0 0)
(-0.1021879526255589 0 0)
(-0.09726750742670887 0 0)
(-0.09071156470237679 0 0)
(-0.08231040817117952 0 0)
(-0.07191387371061043 0 0)
(-0.05945086185214832 0 0)
(-0.04493142068979138 0 0)
(-0.02842942314475086 0 0)
(-0.01005350900493869 0 0)
(0.01007891209876248 0 0)
(0.03181393316432698 0 0)
(0.05473042559437172 0 0)
(0.0774403691223103 0 0)
(0.09651496793009857 0 0)
(0.1074644522731323 0 0)
(0.1105047699977606 0 0)
(0.1107462119875075 0 0)
(0.1107407991905917 0 0)
(0.1106238809761048 0 0)
(0.1103074921438713 0 0)
(0.1096167064507575 0 0)
(0.1083639412163249 0 0)
(0.1063261391453987 0 0)
(0.1032565443133303 0 0)
(0.09889190783312786 0 0)
(0.09296812613240792 0 0)
(0.08524027131706471 0 0)
(0.07550140572610888 0 0)
(0.06359783749807997 0 0)
(0.04943970009121684 0 0)
(0.032998832062936 0 0)
(0.01428843489462739 0 0)
(-0.006649751459094523 0 0)
(-0.0296678309838757 0 0)
(-0.05417391823932351 0 0)
(-0.0782774069270705 0 0)
(-0.09774089017001428 0 0)
(-0.1079429673545442 0 0)
(-0.1103629634709562 0 0)
(-0.1105094430589054 0 0)
(-0.1104755569704742 0 0)
(-0.1103578111252616 0 0)
(-0.1100050835846551 0 0)
(-0.1092741402984364 0 0)
(-0.1079755677010433 0 0)
(-0.1058971340387047 0 0)
(-0.1028062123423907 0 0)
(-0.09846083312733148 0 0)
(-0.09262165778547948 0 0)
(-0.08506807303114999 0 0)
(-0.07561805917992777 0 0)
(-0.06414434311983143 0 0)
(-0.05057832590744066 0 0)
(-0.03490160287743535 0 0)
(-0.01713035376354579 0 0)
(0.00269825047573614 0 0)
(0.02449532453791338 0 0)
(0.04790974667935453 0 0)
(0.07167538592219443 0 0)
(0.09247794145815352 0 0)
(0.1053874749708909 0 0)
(0.1094881999356956 0 0)
(0.1099020691495196 0 0)
(0.1099031219221603 0 0)
(0.1098059802507383 0 0)
(0.1095266478999315 0 0)
(0.108892922839995 0 0)
(0.1077188660782959 0 0)
(0.1057786872889962 0 0)
(0.1028169702454814 0 0)
(0.09855335866849452 0 0)
(0.09269417048617459 0 0)
(0.08495155630490613 0 0)
(0.07507612901170486 0 0)
(0.06291959646087719 0 0)
(0.04857759587307642 0 0)
(0.03273629433652096 0 0)
(0.01734970010611135 0 0)
(0.005951422862058367 0 0)
(0.0009633596851782902 0 0)
(4.877330272337385e-05 0 0)
(5.004924064721448e-07 0 0)
(7.07523694046447e-10 0 0)
(7.803688952924967e-12 0 0)
(8.008860494693891e-12 0 0)
(9.962238601123898e-12 0 0)
(1.097408539869279e-11 0 0)
(1.022904043732601e-11 0 0)
(1.046902725966268e-11 0 0)
(1.21937936457376e-11 0 0)
(1.341942490820452e-11 0 0)
(1.272910450488892e-11 0 0)
(1.088362859600329e-11 0 0)
(1.051768250063048e-11 0 0)
(1.085932885855087e-11 0 0)
(1.036297250262529e-11 0 0)
(1.056725260355008e-11 0 0)
(9.142481072655228e-12 0 0)
(8.759946993095314e-12 0 0)
(9.278067638292368e-12 0 0)
(8.837310785144703e-12 0 0)
(8.2775045967863e-12 0 0)
(7.153494301584992e-12 0 0)
(7.381276763348876e-12 0 0)
(7.345563931194484e-12 0 0)
(5.763402285167808e-12 0 0)
(5.334880510950414e-12 0 0)
(6.355500727393268e-12 0 0)
(6.741501041423397e-12 0 0)
(5.518331252992951e-12 0 0)
(4.628969160634799e-12 0 0)
(3.334630730523002e-12 0 0)
(3.084309627406495e-12 0 0)
(4.058794070021073e-12 0 0)
(3.021721936294268e-12 0 0)
(2.131478289681034e-12 0 0)
(1.612428453315375e-12 0 0)
(7.136592846972207e-13 0 0)
(1.443593672588435e-13 0 0)
(4.477808799852871e-13 0 0)
(2.904067964383281e-13 0 0)
(-7.832617594237389e-13 0 0)
(-1.347519552642718e-12 0 0)
(-4.025358847458095e-13 0 0)
(1.023972815830135e-12 0 0)
(2.25660144759001e-12 0 0)
(3.365017098943906e-12 0 0)
(4.011848271621458e-12 0 0)
(3.199069624340137e-12 0 0)
(1.944594019319366e-12 0 0)
(9.109200845778661e-13 0 0)
(-3.217778762746497e-13 0 0)
(-1.431807262628238e-12 0 0)
(-2.124563605857122e-12 0 0)
(-3.578047357298909e-12 0 0)
(-5.071551249648462e-12 0 0)
(-6.431990631834076e-12 0 0)
(-6.607538801715779e-12 0 0)
(-5.362687990404566e-12 0 0)
(-4.664676232724836e-12 0 0)
(-3.818887955189476e-12 0 0)
(-2.553185785389742e-12 0 0)
(-1.600398818906572e-12 0 0)
(-6.659017296682647e-13 0 0)
(-8.40677321926448e-13 0 0)
(-1.120550869579657e-12 0 0)
(2.147524649921159e-13 0 0)
(2.555920388088289e-13 0 0)
(-1.088394326429899e-12 0 0)
(-1.137968889664832e-12 0 0)
(-1.173590436527732e-12 0 0)
(-2.127236576996724e-12 0 0)
(-1.499601015499664e-12 0 0)
(-9.588228204406206e-13 0 0)
(-1.616885915137635e-12 0 0)
(-1.758671324394144e-12 0 0)
(-1.356131143711298e-12 0 0)
(-1.227389013315652e-12 0 0)
(-1.375161914308959e-12 0 0)
(-2.928625733979412e-12 0 0)
(-4.07618247721904e-12 0 0)
(-4.064964227277435e-12 0 0)
(-2.256760057612698e-12 0 0)
(-2.327117298724119e-12 0 0)
(-2.493177139723281e-12 0 0)
(-2.719991240526532e-12 0 0)
(-3.720501679706598e-12 0 0)
(-4.440337759587628e-12 0 0)
(-5.691226391107868e-12 0 0)
(-6.052881926176753e-12 0 0)
(-5.4279358350536e-12 0 0)
(-6.140716381245002e-12 0 0)
(-7.744574499845863e-12 0 0)
(-8.433989177585182e-12 0 0)
(-9.398068610826265e-12 0 0)
(-1.088633704498204e-11 0 0)
(-1.06533106423498e-11 0 0)
(-1.089405942128616e-11 0 0)
(-1.108358693875793e-11 0 0)
(-1.113481807269125e-11 0 0)
(-1.149390866059098e-11 0 0)
(-1.135142396204694e-11 0 0)
(-1.07698284210877e-11 0 0)
(-8.745213651517655e-12 0 0)
(-6.965737360342323e-12 0 0)
(-7.266458773134475e-12 0 0)
(-7.229931658074993e-12 0 0)
(-7.116098273270441e-12 0 0)
(-7.533380089776673e-12 0 0)
(-5.862521974742464e-12 0 0)
(-5.925942327630256e-12 0 0)
(-6.619695252001083e-12 0 0)
(-5.44524643905221e-12 0 0)
(-3.70575596808669e-12 0 0)
(-2.467883096017846e-12 0 0)
(-2.76603516962136e-12 0 0)
(-2.64169141789178e-12 0 0)
(-1.375126147910757e-12 0 0)
(-8.405485929372615e-13 0 0)
(-1.920843343744083e-13 0 0)
(1.229244366166296e-12 0 0)
(1.376161320809635e-12 0 0)
(1.376122124793811e-12 0 0)
(3.052102881479469e-12 0 0)
(3.537134548197328e-12 0 0)
(4.162188220566551e-12 0 0)
(5.585296687488937e-12 0 0)
(7.013592942137623e-12 0 0)
(7.591684526794842e-12 0 0)
(7.605556185286894e-12 0 0)
(8.143677009492011e-12 0 0)
(7.477737544596592e-12 0 0)
(6.225877530310546e-12 0 0)
(4.858484598787209e-12 0 0)
(3.485947567012972e-12 0 0)
(2.68623674101056e-12 0 0)
(1.996771470183938e-12 0 0)
(1.342101672250347e-12 0 0)
(-1.03493615616138e-13 0 0)
(-1.669907119155462e-12 0 0)
(-2.707871180727796e-12 0 0)
(-4.578576117387159e-12 0 0)
(-6.013758012799743e-12 0 0)
(-5.942506583353003e-12 0 0)
(-5.968654118470552e-12 0 0)
(-7.243036227514056e-12 0 0)
(-8.765958874030493e-12 0 0)
(-1.022557593773378e-11 0 0)
(-1.233980047353857e-11 0 0)
(-1.316394460086478e-11 0 0)
(-1.281271755844619e-11 0 0)
(-1.352116427953695e-11 0 0)
(-1.329513512923312e-11 0 0)
(-1.24241057578217e-11 0 0)
(-1.265012844160235e-11 0 0)
(-1.184950023301676e-11 0 0)
(-9.710141488034043e-12 0 0)
(-8.123650353801356e-12 0 0)
(-6.639701221772371e-12 0 0)
(-5.256619549951509e-12 0 0)
(-4.040536923893871e-12 0 0)
(-3.200734010935681e-12 0 0)
(-2.267971488961905e-12 0 0)
(-1.120571804080369e-12 0 0)
(4.120056137811543e-13 0 0)
(2.03325721471768e-12 0 0)
(3.085166888300316e-12 0 0)
(3.431208985872481e-12 0 0)
(3.09731722767841e-12 0 0)
(4.141235893352631e-12 0 0)
(5.979887139498528e-12 0 0)
(6.771871222011363e-12 0 0)
(7.027409979369039e-12 0 0)
(6.264186430928661e-12 0 0)
(4.940279577360853e-12 0 0)
(3.645891599591385e-12 0 0)
(2.027150730758524e-12 0 0)
(8.501419226080327e-13 0 0)
(5.303409133110527e-13 0 0)
(-4.710506349332488e-13 0 0)
(-2.161067555807436e-12 0 0)
(-3.822376395475072e-12 0 0)
(-5.026324150372901e-12 0 0)
(-5.980799244086436e-12 0 0)
(-6.943213054823906e-12 0 0)
(-6.791168719742291e-12 0 0)
(-6.92928422047986e-12 0 0)
(-7.20212706015196e-12 0 0)
(-6.838766395145319e-12 0 0)
(-6.393686199142775e-12 0 0)
(-5.706084312783026e-12 0 0)
(-5.091533277800688e-12 0 0)
(-3.559826096253272e-12 0 0)
(-2.006373712172805e-12 0 0)
(-1.858607023577947e-12 0 0)
(-1.469120142544745e-12 0 0)
(1.503432926661336e-13 0 0)
(1.516888308822994e-12 0 0)
(2.895607653998823e-12 0 0)
(4.714219058147235e-12 0 0)
(6.408575202066633e-12 0 0)
(7.825516819395539e-12 0 0)
(9.627540407011778e-12 0 0)
(9.385849067039429e-12 0 0)
(9.486652447541187e-12 0 0)
(9.537121310804246e-12 0 0)
(8.571344475903245e-12 0 0)
(8.955546078796261e-12 0 0)
(1.023082085071824e-11 0 0)
(1.141135809923063e-11 0 0)
(1.265966013130119e-11 0 0)
(1.268484947761091e-11 0 0)
(1.237282216630264e-11 0 0)
(1.174780177601654e-11 0 0)
(1.005784056122517e-11 0 0)
(8.675600668529062e-12 0 0)
(8.553821138609362e-12 0 0)
(8.716450417585662e-12 0 0)
(8.611313446265144e-12 0 0)
(7.837631577236274e-12 0 0)
(6.681495493095231e-12 0 0)
(6.099909549825625e-12 0 0)
(6.379771458260274e-12 0 0)
(6.517146581224492e-12 0 0)
(5.837360730512247e-12 0 0)
(6.052987030013919e-12 0 0)
(6.160882436990108e-12 0 0)
(5.175077846094606e-12 0 0)
(3.927468599625415e-12 0 0)
(3.396359516244924e-12 0 0)
(2.623531930081894e-12 0 0)
(1.026616701487584e-12 0 0)
(-6.485334870632973e-13 0 0)
(-2.357541968328162e-12 0 0)
(-3.931783106456653e-12 0 0)
(-4.280338281004344e-12 0 0)
(-4.260403270477986e-12 0 0)
(-4.031795913979746e-12 0 0)
(-4.397786512626696e-12 0 0)
(-5.520029544459017e-12 0 0)
(-4.660355831060317e-12 0 0)
(-2.888818151413664e-12 0 0)
(-1.861214685030694e-12 0 0)
(-7.753963672087263e-13 0 0)
(5.215298267142226e-13 0 0)
(2.263632728521648e-12 0 0)
(3.01295138682237e-12 0 0)
(2.599127237330258e-12 0 0)
(3.040766588206206e-12 0 0)
(3.958746482230674e-12 0 0)
(5.818202770461009e-12 0 0)
(6.223381072539928e-12 0 0)
(6.926704251765346e-12 0 0)
(8.593032451467152e-12 0 0)
(9.058916378771565e-12 0 0)
(7.789833257033087e-12 0 0)
(6.881455723818624e-12 0 0)
(6.648450146768754e-12 0 0)
(5.531400271723179e-12 0 0)
(4.609876343305183e-12 0 0)
(4.563750368735256e-12 0 0)
(4.71160446154582e-12 0 0)
(3.688504020883947e-12 0 0)
(2.041987108441553e-12 0 0)
(6.371756126186632e-13 0 0)
(-8.041270063096883e-13 0 0)
(-1.561322986650922e-12 0 0)
(-2.541854888311585e-12 0 0)
(-4.224776145053945e-12 0 0)
(-5.933801630871599e-12 0 0)
(-6.878738522650476e-12 0 0)
(-7.516777699128344e-12 0 0)
(-9.457931106180749e-12 0 0)
(-1.104535442548556e-11 0 0)
(-1.22476233842503e-11 0 0)
(-1.338288674037722e-11 0 0)
(-1.385839534437698e-11 0 0)
(-1.346985765400669e-11 0 0)
(-1.212330166865976e-11 0 0)
(-1.087146395941784e-11 0 0)
(-9.734503719105312e-12 0 0)
(-8.380993293014553e-12 0 0)
(-6.851832316369443e-12 0 0)
(-5.64609713388636e-12 0 0)
(-4.080499937506856e-12 0 0)
(-2.573144050629253e-12 0 0)
(-1.773410114831033e-12 0 0)
(-8.328093702826672e-13 0 0)
(4.538319029235779e-13 0 0)
(1.793414393052011e-12 0 0)
(3.379020872140882e-12 0 0)
(4.419589451224664e-12 0 0)
(5.334089311609103e-12 0 0)
(6.260741530960325e-12 0 0)
(6.404165848169302e-12 0 0)
(7.708083014966093e-12 0 0)
(7.916735688927785e-12 0 0)
(6.55895181168431e-12 0 0)
(6.336375376266829e-12 0 0)
(6.637102086195138e-12 0 0)
(7.028255538450158e-12 0 0)
(6.636255399833832e-12 0 0)
(6.686720405230823e-12 0 0)
(6.371146987921623e-12 0 0)
(4.171804826309039e-12 0 0)
(3.363289256047924e-12 0 0)
(2.716581299456542e-12 0 0)
(2.3254405402303e-12 0 0)
(2.074186307372677e-12 0 0)
(1.30832324080416e-12 0 0)
(6.841013420717607e-13 0 0)
(5.023746889974241e-13 0 0)
(1.12086690506943e-13 0 0)
(-8.718795017210258e-13 0 0)
(-1.573504563361655e-13 0 0)
(4.256079099984246e-14 0 0)
(-1.389156037935917e-12 0 0)
(-2.864285845078822e-12 0 0)
(-4.550745779813707e-12 0 0)
(-5.797348367446919e-12 0 0)
(-5.986026008533671e-12 0 0)
(-5.61052444646346e-12 0 0)
(-5.562692811006631e-12 0 0)
(-6.868407735349579e-12 0 0)
(-8.585250110092932e-12 0 0)
(-1.007170734681315e-11 0 0)
(-9.83181224546223e-12 0 0)
(-8.70175517150187e-12 0 0)
(-9.62325620461368e-12 0 0)
(-1.034130776620844e-11 0 0)
(-9.910127396606112e-12 0 0)
(-9.300669273691265e-12 0 0)
(-8.672974372900402e-12 0 0)
(-7.820239082907708e-12 0 0)
(-7.011807653378493e-12 0 0)
(-6.160775005048792e-12 0 0)
(-5.562718891035872e-12 0 0)
(-4.77424295430361e-12 0 0)
(-3.573745930028827e-12 0 0)
(-3.80847182269193e-12 0 0)
(-3.282479567223169e-12 0 0)
(-1.672491027475881e-12 0 0)
(-8.665863185679827e-13 0 0)
(4.833858648358085e-13 0 0)
(1.473423550380868e-12 0 0)
(1.836762345964806e-12 0 0)
(2.706128595211039e-12 0 0)
(3.906715975447007e-12 0 0)
(5.508827359237986e-12 0 0)
(5.365339512705923e-12 0 0)
(5.400960648518575e-12 0 0)
(5.892142548843829e-12 0 0)
(4.634248241062844e-12 0 0)
(2.8643709970296e-12 0 0)
(1.233584713141491e-12 0 0)
(-4.954423426630326e-14 0 0)
(-2.946604863850284e-13 0 0)
(7.928945747307788e-13 0 0)
(1.310114805860156e-12 0 0)
(1.802919609362322e-12 0 0)
(2.715578310266494e-12 0 0)
(1.646374204638495e-12 0 0)
(5.320235538829451e-13 0 0)
(8.128593554853979e-13 0 0)
(1.060333248247095e-13 0 0)
(-8.023379812353915e-13 0 0)
(-1.920135395422259e-13 0 0)
(-2.250389528228427e-13 0 0)
(-1.122226231267992e-12 0 0)
(-2.160183177007134e-12 0 0)
(-1.726397925163336e-12 0 0)
(-6.76279040008159e-13 0 0)
(-1.755243613125218e-13 0 0)
(7.093818007649406e-13 0 0)
(3.103992841287949e-13 0 0)
(-5.016416712171209e-13 0 0)
(1.406468927114075e-13 0 0)
(9.761309089877696e-13 0 0)
(2.530517619339613e-12 0 0)
(3.537138782340552e-12 0 0)
(2.578329973409557e-12 0 0)
(9.362874780815418e-13 0 0)
(-6.772190979237948e-13 0 0)
(-6.025196581365543e-13 0 0)
(-1.109289912621274e-12 0 0)
(-1.822062136999675e-12 0 0)
(-2.157613067895206e-12 0 0)
(-3.418918631623938e-12 0 0)
(-4.260325382253428e-12 0 0)
(-5.368755202790932e-12 0 0)
(-5.013281567459847e-12 0 0)
(-5.440931698661882e-12 0 0)
(-6.452753558816001e-12 0 0)
(-6.40759959420847e-12 0 0)
(-6.942244088727441e-12 0 0)
(-6.590206769405798e-12 0 0)
(-5.203678802895584e-12 0 0)
(-4.274369629397266e-12 0 0)
(-5.184529534545887e-12 0 0)
(-4.993307614117876e-12 0 0)
(-5.012505190595566e-12 0 0)
(-5.447140428520565e-12 0 0)
(-5.178472543748706e-12 0 0)
(-4.472563858998199e-12 0 0)
(-3.335570807510117e-12 0 0)
(-2.58535829850242e-12 0 0)
(-1.526507743958616e-12 0 0)
(-4.346874512120908e-13 0 0)
(1.049233507097513e-12 0 0)
(2.324507353724791e-12 0 0)
(2.579229299573434e-12 0 0)
(2.884344060880514e-12 0 0)
(3.39813098855075e-12 0 0)
(4.110931406931603e-12 0 0)
(5.267957330260893e-12 0 0)
(5.979035237825703e-12 0 0)
(6.611931549496593e-12 0 0)
(6.799776710833541e-12 0 0)
(6.5555183190175e-12 0 0)
(5.650509668460009e-12 0 0)
(4.693339266431157e-12 0 0)
(3.587626938924685e-12 0 0)
(2.003782981671046e-12 0 0)
(1.765582489940662e-12 0 0)
(2.510581766524612e-12 0 0)
(3.172961895337316e-12 0 0)
(2.774861807300485e-12 0 0)
(1.960293518538937e-12 0 0)
(3.038186196556923e-12 0 0)
(3.680553803295494e-12 0 0)
(3.206820324810286e-12 0 0)
(1.86286666970443e-12 0 0)
(1.835907901458649e-12 0 0)
(2.768709878450452e-12 0 0)
(3.118194482677505e-12 0 0)
(3.980590843320804e-12 0 0)
(4.404789419117569e-12 0 0)
(4.4108446726892e-12 0 0)
(4.093516740371826e-12 0 0)
(3.079065795207069e-12 0 0)
(1.995936377219695e-12 0 0)
(2.675765405316853e-12 0 0)
(4.294432088766172e-12 0 0)
(4.487372687099266e-12 0 0)
(4.585552695397021e-12 0 0)
(5.404409298371858e-12 0 0)
(4.614210566852828e-12 0 0)
(3.085982394889929e-12 0 0)
(1.813345002373239e-12 0 0)
(2.820036292191578e-12 0 0)
(2.929595927359093e-12 0 0)
(2.321101298472772e-12 0 0)
(1.704685689721471e-12 0 0)
(4.684862126414248e-13 0 0)
(-1.160548647106815e-12 0 0)
(-2.797407535973297e-12 0 0)
(-4.278713908610876e-12 0 0)
(-5.231502422029419e-12 0 0)
(-4.579530503439748e-12 0 0)
(-4.181407916018159e-12 0 0)
(-3.402481450866781e-12 0 0)
(-1.725633140188215e-12 0 0)
(-1.138850817386927e-12 0 0)
(-7.328294727047898e-13 0 0)
(3.747171389831026e-13 0 0)
(2.060314425835537e-12 0 0)
(3.919724634286945e-12 0 0)
(5.693945688912082e-12 0 0)
(7.435140231455065e-12 0 0)
(9.003412782311321e-12 0 0)
(1.049949447736262e-11 0 0)
(1.148524261478988e-11 0 0)
(1.138178428596201e-11 0 0)
(1.053330963141972e-11 0 0)
(1.028642346182857e-11 0 0)
(1.147740150657387e-11 0 0)
(1.311524326445588e-11 0 0)
(1.269440005680137e-11 0 0)
(1.076622382670183e-11 0 0)
(9.541414235911561e-12 0 0)
(8.80345646322665e-12 0 0)
(8.846950318916051e-12 0 0)
(8.279292076685226e-12 0 0)
(7.159616192757685e-12 0 0)
(6.418052594662015e-12 0 0)
(5.842580249145997e-12 0 0)
(4.810737151147429e-12 0 0)
(3.397293703732953e-12 0 0)
(2.355901147130914e-12 0 0)
(1.964726361107066e-12 0 0)
(9.650312311846869e-13 0 0)
(-8.353490891599185e-13 0 0)
(-2.250610098279282e-12 0 0)
(-3.274638341098882e-12 0 0)
(-2.733051711170364e-12 0 0)
(-3.192051670634733e-12 0 0)
(-3.978794001451266e-12 0 0)
(-2.794845666162741e-12 0 0)
(-2.328875119352527e-12 0 0)
(-3.246875953970162e-12 0 0)
(-4.128423083587919e-12 0 0)
(-3.216496166921991e-12 0 0)
(-2.12551906060726e-12 0 0)
(-1.117975584883511e-12 0 0)
(-6.972091863623398e-13 0 0)
(-1.043189035729933e-12 0 0)
(-2.01071835827029e-12 0 0)
(-3.057352058783896e-12 0 0)
(-3.848378622971597e-12 0 0)
(-4.777688585555873e-12 0 0)
(-5.768703162031701e-12 0 0)
(-6.500635317561819e-12 0 0)
(-5.468793410833982e-12 0 0)
(-3.904065661115509e-12 0 0)
(-2.844359363344481e-12 0 0)
(-1.694282489701558e-12 0 0)
(-1.037122444066389e-12 0 0)
(-2.747103702263916e-13 0 0)
(4.294241940377463e-13 0 0)
(1.017081198881557e-12 0 0)
(1.639503098436357e-12 0 0)
(2.810500953401903e-12 0 0)
(4.206602764657511e-12 0 0)
(5.67046918584431e-12 0 0)
(5.93038536429864e-12 0 0)
(4.795112262874138e-12 0 0)
(5.527976100597496e-12 0 0)
(5.866084337488937e-12 0 0)
(4.878587395197657e-12 0 0)
(3.41380643078937e-12 0 0)
(1.875125239017102e-12 0 0)
(4.077368884199634e-13 0 0)
(-1.165716896883267e-12 0 0)
(-2.758313732501612e-12 0 0)
(-4.832487299672809e-12 0 0)
(-5.924307445032172e-12 0 0)
(-6.24512707195807e-12 0 0)
(-7.087465111700908e-12 0 0)
(-8.785239124721709e-12 0 0)
(-1.007267390057762e-11 0 0)
(-1.100456140551302e-11 0 0)
(-1.219634674104626e-11 0 0)
(-1.162867092416562e-11 0 0)
(-1.069504302453168e-11 0 0)
(-1.002393278252731e-11 0 0)
(-1.015781794463825e-11 0 0)
(-1.039858549980453e-11 0 0)
(-9.324129769355732e-12 0 0)
(-7.546402110339656e-12 0 0)
(-5.959941315494698e-12 0 0)
(-4.561230904296264e-12 0 0)
(-3.016436052999169e-12 0 0)
(-1.644721811393277e-12 0 0)
(1.477565784763412e-13 0 0)
(1.616880806029962e-12 0 0)
(2.539251828509047e-12 0 0)
(3.55024514550076e-12 0 0)
(5.008924102273344e-12 0 0)
(6.512835168060475e-12 0 0)
(7.788126981784838e-12 0 0)
(8.893021394857885e-12 0 0)
(9.826601323183308e-12 0 0)
(9.605813149222437e-12 0 0)
(9.112899297681947e-12 0 0)
(9.186783836249257e-12 0 0)
(8.596527357933042e-12 0 0)
(7.846322602885911e-12 0 0)
(7.13782200757975e-12 0 0)
(7.49250687497875e-12 0 0)
(8.452224643941972e-12 0 0)
(7.739317750852869e-12 0 0)
(6.169398798140632e-12 0 0)
(5.153213229740496e-12 0 0)
(4.675953678471501e-12 0 0)
(4.028310374198314e-12 0 0)
(3.25293962574622e-12 0 0)
(3.313816269573977e-12 0 0)
(3.266837531896019e-12 0 0)
(3.240789452973301e-12 0 0)
(3.809299505644372e-12 0 0)
(4.351729732225485e-12 0 0)
)
;

boundaryField
{
    inlet
    {
        type            zeroGradient;
    }
    outlet
    {
        type            characteristicPressureInletOutletVelocity;
        UName           U;
        pName           p;
        TName           T;
        phiName         phi;
        rhoName         rho;
        U               (0 0 0);
        p               101325;
        T               300;
        value           uniform (4.351729732225485e-12 0 0);
    }
    frontAndBack
    {
        type            empty;
    }
}


// ************************************************************************* //
