/*--------------------------------*- C++ -*----------------------------------*\
| =========                 |                                                 |
| \\      /  F ield         | OpenFOAM: The Open Source CFD Toolbox           |
|  \\    /   O peration     | Version:  v2012                                 |
|   \\  /    A nd           | Website:  www.openfoam.com                      |
|    \\/     M anipulation  |                                                 |
\*---------------------------------------------------------------------------*/
FoamFile
{
    version     2.0;
    format      ascii;
    class       volVectorField;
    location    "0.003";
    object      UMean;
}
// * * * * * * * * * * * * * * * * * * * * * * * * * * * * * * * * * * * * * //

dimensions      [0 1 -1 0 0 0 0];


internalField   nonuniform List<vector> 
1000
(
(-7.706704134923945e-05 0 0)
(5.866797723095958e-05 0 0)
(0.0001122471273120266 0 0)
(0.0002376710158545071 0 0)
(0.0003842345888162235 0 0)
(0.000565556875247331 0 0)
(0.0007787901513570623 0 0)
(0.001015739803813257 0 0)
(0.001277340193368597 0 0)
(0.001555236229122625 0 0)
(0.001843404155151656 0 0)
(0.002131587595754977 0 0)
(0.00241988698878102 0 0)
(0.002703356383679301 0 0)
(0.002980078639805699 0 0)
(0.003241542908543256 0 0)
(0.003484595517008636 0 0)
(0.003701735908132838 0 0)
(0.00389140941649969 0 0)
(0.00404799648489489 0 0)
(0.004171053615292908 0 0)
(0.004256177233043936 0 0)
(0.004303858901488514 0 0)
(0.004311077168629871 0 0)
(0.004279600886174515 0 0)
(0.004208124509045862 0 0)
(0.00409991093871038 0 0)
(0.003955147690654752 0 0)
(0.003777705246500907 0 0)
(0.003567781841115142 0 0)
(0.003328980941517504 0 0)
(0.003064167850092406 0 0)
(0.002784822377275026 0 0)
(0.002500489350379945 0 0)
(0.002216778276551603 0 0)
(0.00193349883366918 0 0)
(0.001652976324294888 0 0)
(0.001378124719832465 0 0)
(0.00111371722949224 0 0)
(0.0008653655380844707 0 0)
(0.0006391917597855349 0 0)
(0.0004406894690492567 0 0)
(0.000274358763882605 0 0)
(0.0001433685130928742 0 0)
(4.988563348075279e-05 0 0)
(-4.724531421444362e-06 0 0)
(-1.969865868593077e-05 0 0)
(5.125598114480643e-06 0 0)
(6.926855855677562e-05 0 0)
(0.0001716669104987198 0 0)
(0.0003108928428317936 0 0)
(0.0004856523647768691 0 0)
(0.0006948045642800201 0 0)
(0.0009361120217774699 0 0)
(0.001202584704959674 0 0)
(0.001481579613068556 0 0)
(0.001763046742210511 0 0)
(0.002044358978380446 0 0)
(0.002325118363425483 0 0)
(0.00260322224513157 0 0)
(0.00287683119839148 0 0)
(0.003141170388087647 0 0)
(0.003392073041132789 0 0)
(0.003622908567964 0 0)
(0.003828666797451616 0 0)
(0.004003188390110379 0 0)
(0.00414311714433812 0 0)
(0.004244751973870579 0 0)
(0.004307326370961365 0 0)
(0.004329423938584744 0 0)
(0.004311999326851916 0 0)
(0.004254895056029879 0 0)
(0.004159811300050385 0 0)
(0.0040267740643976 0 0)
(0.00385706963876671 0 0)
(0.003650528429754261 0 0)
(0.00341062946232969 0 0)
(0.003145023426968578 0 0)
(0.002868129616029757 0 0)
(0.00258875195920019 0 0)
(0.002309805225879425 0 0)
(0.002031369166631055 0 0)
(0.001754895362076163 0 0)
(0.001482549143319376 0 0)
(0.001217656422181928 0 0)
(0.0009646405952398919 0 0)
(0.0007288174183133211 0 0)
(0.0005159972479059637 0 0)
(0.0003319068711441483 0 0)
(0.0001815898010808306 0 0)
(6.893711529106974e-05 0 0)
(-3.572318261514282e-06 0 0)
(-3.48395129523296e-05 0 0)
(-2.487541929264557e-05 0 0)
(2.564992685481463e-05 0 0)
(0.0001159027675416558 0 0)
(0.0002453015511170948 0 0)
(0.0004136325607740662 0 0)
(0.0006203430812026215 0 0)
(0.0008619010630896092 0 0)
(0.001128029367046807 0 0)
(0.001404122855602121 0 0)
(0.001681663251552164 0 0)
(0.001958999945564461 0 0)
(0.002235869934919525 0 0)
(0.002510654215038681 0 0)
(0.002781922972764592 0 0)
(0.003046064406155769 0 0)
(0.00329968453394595 0 0)
(0.003537270582462899 0 0)
(0.003753931147097289 0 0)
(0.003943398445211499 0 0)
(0.004101002536827927 0 0)
(0.004221782033391778 0 0)
(0.004303272855643601 0 0)
(0.004343228281812337 0 0)
(0.004341849347655596 0 0)
(0.004299013166414719 0 0)
(0.004216062188335606 0 0)
(0.004092913818029119 0 0)
(0.003930221243541645 0 0)
(0.00372786234654502 0 0)
(0.00348996449389365 0 0)
(0.003226338173898953 0 0)
(0.00295238580893912 0 0)
(0.002676473552645409 0 0)
(0.002400901938165939 0 0)
(0.002125734424152183 0 0)
(0.00185212103029809 0 0)
(0.001581719323857797 0 0)
(0.001317181639498427 0 0)
(0.00106204722106124 0 0)
(0.0008208264145267804 0 0)
(0.000598706298293686 0 0)
(0.0004013286338671482 0 0)
(0.0002342125466723036 0 0)
(0.0001023655424909766 0 0)
(9.674258740110194e-06 0 0)
(-4.127476126148006e-05 0 0)
(-4.93353956090188e-05 0 0)
(-1.434836404255523e-05 0 0)
(6.328857308271092e-05 0 0)
(0.0001832962347074983 0 0)
(0.0003455105583586126 0 0)
(0.0005490467417315507 0 0)
(0.0007890759469068348 0 0)
(0.001053430295870378 0 0)
(0.001326790896810785 0 0)
(0.001601327385753702 0 0)
(0.001875677271051571 0 0)
(0.002149649215175417 0 0)
(0.002421923931548311 0 0)
(0.002691346772230063 0 0)
(0.002954984829996999 0 0)
(0.003210017624056443 0 0)
(0.00345177701117817 0 0)
(0.003675868101714188 0 0)
(0.003876447606512022 0 0)
(0.004048593280829982 0 0)
(0.004186798716290832 0 0)
(0.004287391532213731 0 0)
(0.004346903591026348 0 0)
(0.004364121052867003 0 0)
(0.004337955507902743 0 0)
(0.004268918714901033 0 0)
(0.004156640488804469 0 0)
(0.004001604399170216 0 0)
(0.003804122319213168 0 0)
(0.003569142724358608 0 0)
(0.003307942600169324 0 0)
(0.003036592184111534 0 0)
(0.002763424115967513 0 0)
(0.002490532195200041 0 0)
(0.002217949724833172 0 0)
(0.001946615261547528 0 0)
(0.001677854935041194 0 0)
(0.001413852050097479 0 0)
(0.001157531042103527 0 0)
(0.0009127445425614037 0 0)
(0.0006840430354016271 0 0)
(0.0004766419654815396 0 0)
(0.0002959586758134027 0 0)
(0.0001473689035780575 0 0)
(3.560034340413525e-05 0 0)
(-3.551074992873386e-05 0 0)
(-6.338951493133601e-05 0 0)
(-4.64756277354103e-05 0 0)
(1.595629734061414e-05 0 0)
(0.0001243842297113677 0 0)
(0.0002789204179585299 0 0)
(0.0004782886221325455 0 0)
(0.0007162891727139228 0 0)
(0.0009788723415534177 0 0)
(0.001249947961076765 0 0)
(0.001522051646996858 0 0)
(0.001793994366806345 0 0)
(0.002065627926019112 0 0)
(0.002335850606296894 0 0)
(0.002603714282555718 0 0)
(0.002866764057613107 0 0)
(0.003122618122994113 0 0)
(0.003367267874459135 0 0)
(0.003596814108242656 0 0)
(0.003805940846231988 0 0)
(0.003989853117466979 0 0)
(0.004142965204814841 0 0)
(0.004260958349467014 0 0)
(0.004339475464067031 0 0)
(0.004376003406824671 0 0)
(0.00436822731058226 0 0)
(0.004315412215695887 0 0)
(0.004216378397992501 0 0)
(0.004071051855359528 0 0)
(0.003879864200652891 0 0)
(0.003648491777048784 0 0)
(0.003389713782133009 0 0)
(0.003120578964730372 0 0)
(0.002849669991875688 0 0)
(0.00257898598830267 0 0)
(0.002308540800964501 0 0)
(0.002039114238949891 0 0)
(0.001771792121553053 0 0)
(0.001508401039688645 0 0)
(0.001251401699408225 0 0)
(0.001004105047640716 0 0)
(0.000770502318496882 0 0)
(0.0005553174954978285 0 0)
(0.0003636623336896922 0 0)
(0.0002009041840440147 0 0)
(7.215300855583937e-05 0 0)
(-1.795097870294027e-05 0 0)
(-6.565904392506616e-05 0 0)
(-6.802286473255056e-05 0 0)
(-2.290531018132788e-05 0 0)
(7.13890050061191e-05 0 0)
(0.0002157792924965994 0 0)
(0.0004090611917787933 0 0)
(0.0006439752724373179 0 0)
(0.0009045848481513242 0 0)
(0.001173679002681785 0 0)
(0.001443755498916152 0 0)
(0.001713697082328442 0 0)
(0.001983381086251042 0 0)
(0.002251880932498749 0 0)
(0.002518394019396697 0 0)
(0.002780839309932057 0 0)
(0.003037171709618614 0 0)
(0.003283923839054449 0 0)
(0.003517633326392839 0 0)
(0.003733510816204895 0 0)
(0.003927022528774383 0 0)
(0.004092740733536274 0 0)
(0.004226056239197025 0 0)
(0.004322093631032989 0 0)
(0.004377353147504191 0 0)
(0.004388420497432773 0 0)
(0.004353247576127776 0 0)
(0.004269560518468022 0 0)
(0.00413632349101572 0 0)
(0.003953599258092373 0 0)
(0.003727306490570481 0 0)
(0.003471448447036276 0 0)
(0.003204364974244122 0 0)
(0.002935382652870076 0 0)
(0.002666573584442166 0 0)
(0.002397948560615127 0 0)
(0.002130158544410591 0 0)
(0.001864111369488127 0 0)
(0.001601350146624542 0 0)
(0.001343979211356859 0 0)
(0.001094858047129414 0 0)
(0.000857500238399901 0 0)
(0.0006361502965156351 0 0)
(0.0004355498786350289 0 0)
(0.0002608691349001714 0 0)
(0.0001173220554854834 0 0)
(9.993268683428639e-06 0 0)
(-5.653086674812359e-05 0 0)
(-7.815954052976778e-05 0 0)
(-5.140360325888567e-05 0 0)
(2.677586055410755e-05 0 0)
(0.0001584471443629732 0 0)
(0.0003430168707973409 0 0)
(0.0005729165720042791 0 0)
(0.0008308268404220966 0 0)
(0.00109803230357116 0 0)
(0.001366343353102453 0 0)
(0.001634554360430997 0 0)
(0.001902551562491202 0 0)
(0.002169558398680696 0 0)
(0.002434880430203887 0 0)
(0.002696736283363633 0 0)
(0.002953341119444545 0 0)
(0.003201675589591237 0 0)
(0.003438650591996842 0 0)
(0.003659964521170805 0 0)
(0.003861386401890906 0 0)
(0.004037760896452715 0 0)
(0.0041844063215086 0 0)
(0.004296198374469496 0 0)
(0.004368957393154686 0 0)
(0.004398419268283243 0 0)
(0.00438137747303787 0 0)
(0.004314455982982493 0 0)
(0.004195490733926574 0 0)
(0.00402375564505296 0 0)
(0.003804699042962838 0 0)
(0.003552816696469463 0 0)
(0.003287866431648053 0 0)
(0.003020601205355095 0 0)
(0.002753446182205608 0 0)
(0.002486426444789914 0 0)
(0.00222008419540685 0 0)
(0.001955189250209835 0 0)
(0.001693053739509262 0 0)
(0.001435502093225299 0 0)
(0.001185019622432295 0 0)
(0.0009447184462022674 0 0)
(0.0007184027982474842 0 0)
(0.0005104408190195001 0 0)
(0.0003257192145199663 0 0)
(0.0001693915937259519 0 0)
(4.673335087714825e-05 0 0)
(-3.712800979896851e-05 0 0)
(-7.726744716171285e-05 0 0)
(-6.908556934874487e-05 0 0)
(-8.32709129276063e-06 0 0)
(0.0001083149925339241 0 0)
(0.0002813058980907138 0 0)
(0.0005037255852596157 0 0)
(0.0007577870579560795 0 0)
(0.001023008525334708 0 0)
(0.001289710524164163 0 0)
(0.001556358693299185 0 0)
(0.001822834502661998 0 0)
(0.002088495196661276 0 0)
(0.002352733117250537 0 0)
(0.002614011138758574 0 0)
(0.002870754409378396 0 0)
(0.003120311490105439 0 0)
(0.003359910065492185 0 0)
(0.003585679671929344 0 0)
(0.003793695673731983 0 0)
(0.003979115640636902 0 0)
(0.004137316701055493 0 0)
(0.004263107666685651 0 0)
(0.004351885904839477 0 0)
(0.004398794489440912 0 0)
(0.004399721763959746 0 0)
(0.004350346257837126 0 0)
(0.004247408705343438 0 0)
(0.004089133749726904 0 0)
(0.003879802351143167 0 0)
(0.0036334056883107 0 0)
(0.003370926006535684 0 0)
(0.003105267682140915 0 0)
(0.002839623772927456 0 0)
(0.002574069971380377 0 0)
(0.002309054774544767 0 0)
(0.002045233247861984 0 0)
(0.001783724541610609 0 0)
(0.001526127743453152 0 0)
(0.00127461586053147 0 0)
(0.00103196544128328 0 0)
(0.000801590316537623 0 0)
(0.0005875080547340321 0 0)
(0.0003942924293588373 0 0)
(0.0002269439319019307 0 0)
(9.075717451307504e-05 0 0)
(-8.839157771818928e-06 0 0)
(-6.637616671897175e-05 0 0)
(-7.644070819883876e-05 0 0)
(-3.380537187855591e-05 0 0)
(6.598935168456048e-05 0 0)
(0.0002247282756968201 0 0)
(0.0004369974450134447 0 0)
(0.0006856754496709913 0 0)
(0.0009486026780257879 0 0)
(0.001213773933652706 0 0)
(0.001478961820744985 0 0)
(0.001744015621012204 0 0)
(0.002008413624305304 0 0)
(0.002271625642357398 0 0)
(0.002532317800436894 0 0)
(0.002789091902073613 0 0)
(0.003039600338517535 0 0)
(0.003281342166771241 0 0)
(0.003510819135402487 0 0)
(0.003724397611928697 0 0)
(0.003917549196073789 0 0)
(0.004085784875578362 0 0)
(0.004223961211067061 0 0)
(0.004327245475577069 0 0)
(0.004390399905893046 0 0)
(0.004408650497779627 0 0)
(0.004376919180126075 0 0)
(0.004290971626142415 0 0)
(0.004147907199745723 0 0)
(0.003950465941631223 0 0)
(0.003711377397949673 0 0)
(0.003452368304359676 0 0)
(0.003188863570010025 0 0)
(0.002925229089545261 0 0)
(0.00266166051693757 0 0)
(0.002398563654482126 0 0)
(0.002136549536912847 0 0)
(0.001876684786342492 0 0)
(0.001620524326826814 0 0)
(0.001370200221435422 0 0)
(0.001128486565486693 0 0)
(0.0008988462012332313 0 0)
(0.0006854412499290016 0 0)
(0.0004930837113592407 0 0)
(0.0003270783164839373 0 0)
(0.0001928375242451274 0 0)
(9.494974631650858e-05 0 0)
(3.503052563723066e-05 0 0)
(8.046001274281286e-06 0 0)
(8.634969998431875e-07 0 0)
(2.971471862640781e-08 0 0)
(2.186981481827009e-10 0 0)
(2.220290858862388e-12 0 0)
(2.099374920726662e-12 0 0)
(2.079391479928253e-12 0 0)
(2.88242838099724e-12 0 0)
(3.370498753373366e-12 0 0)
(3.237715490281564e-12 0 0)
(3.23458636329042e-12 0 0)
(3.537745230855123e-12 0 0)
(3.223977330662793e-12 0 0)
(2.501001929427886e-12 0 0)
(2.076555536517183e-12 0 0)
(1.97331674636432e-12 0 0)
(1.721465168847028e-12 0 0)
(1.592755108869838e-12 0 0)
(1.495639448193802e-12 0 0)
(9.903943722840006e-13 0 0)
(9.447391718205354e-13 0 0)
(1.313965751201311e-12 0 0)
(1.536342314320869e-12 0 0)
(1.762500410131907e-12 0 0)
(1.653555962602135e-12 0 0)
(2.154449203484421e-12 0 0)
(2.74456768684936e-12 0 0)
(2.927929134397359e-12 0 0)
(3.098836736054763e-12 0 0)
(3.191647590742032e-12 0 0)
(3.108061148678883e-12 0 0)
(3.060452436663955e-12 0 0)
(3.063924758177255e-12 0 0)
(2.549277186910295e-12 0 0)
(2.24118757414927e-12 0 0)
(2.229987074340688e-12 0 0)
(1.97874378715929e-12 0 0)
(1.919915824511817e-12 0 0)
(1.847490514608692e-12 0 0)
(1.745138467323058e-12 0 0)
(1.888465527552217e-12 0 0)
(2.321416445329777e-12 0 0)
(2.564307166143609e-12 0 0)
(2.685481534880776e-12 0 0)
(2.907246133827623e-12 0 0)
(3.382733548961475e-12 0 0)
(3.624199172059502e-12 0 0)
(3.583619712983884e-12 0 0)
(3.687642855471707e-12 0 0)
(3.740047768692503e-12 0 0)
(3.500984445530405e-12 0 0)
(3.194270633820372e-12 0 0)
(2.791289529289436e-12 0 0)
(2.142285360680598e-12 0 0)
(1.953745274344161e-12 0 0)
(2.068294756142191e-12 0 0)
(1.497989335885139e-12 0 0)
(1.055569480057269e-12 0 0)
(5.822559841610227e-13 0 0)
(-9.993031336129642e-14 0 0)
(-3.31587201499513e-13 0 0)
(-1.552174536182344e-13 0 0)
(1.936301629480759e-13 0 0)
(7.413888086666593e-13 0 0)
(1.178906822104032e-12 0 0)
(1.198534162422626e-12 0 0)
(8.390957000108276e-13 0 0)
(7.989402325485237e-13 0 0)
(9.919963492396071e-13 0 0)
(8.507733063846756e-13 0 0)
(2.255189350359597e-13 0 0)
(3.866479283821127e-14 0 0)
(1.274488474837486e-13 0 0)
(-8.33936527158021e-14 0 0)
(7.261963681419548e-14 0 0)
(-1.261786444952852e-13 0 0)
(-5.543080433918463e-13 0 0)
(-6.858678843873255e-13 0 0)
(-7.996856421229893e-13 0 0)
(-7.488485210614624e-13 0 0)
(-8.957623005310503e-13 0 0)
(-1.066861143364356e-12 0 0)
(-8.085234846968027e-13 0 0)
(-4.362348667511104e-13 0 0)
(-4.841815551628968e-14 0 0)
(-3.996604027921338e-13 0 0)
(-7.028428911703736e-13 0 0)
(-6.522307101251774e-13 0 0)
(-7.981287671425007e-13 0 0)
(-1.091445511168307e-12 0 0)
(-1.436624645299037e-12 0 0)
(-1.850264447504499e-12 0 0)
(-2.231421334343141e-12 0 0)
(-2.6583959521593e-12 0 0)
(-3.318064630333569e-12 0 0)
(-3.388523685583539e-12 0 0)
(-3.467883325096973e-12 0 0)
(-3.802808776466874e-12 0 0)
(-3.461813140226503e-12 0 0)
(-3.410410693207379e-12 0 0)
(-3.601417447407794e-12 0 0)
(-3.82846293064191e-12 0 0)
(-4.112483535922421e-12 0 0)
(-4.139513021030648e-12 0 0)
(-4.550673792728583e-12 0 0)
(-4.771050142275164e-12 0 0)
(-4.794739426447652e-12 0 0)
(-5.153331156438945e-12 0 0)
(-5.379181832899696e-12 0 0)
(-5.826619682347288e-12 0 0)
(-6.250465172537775e-12 0 0)
(-5.464163815404978e-12 0 0)
(-5.226599058818666e-12 0 0)
(-5.738978802774588e-12 0 0)
(-5.837132692843305e-12 0 0)
(-5.990929813431022e-12 0 0)
(-5.686040029192985e-12 0 0)
(-5.322583970974549e-12 0 0)
(-4.79035066019671e-12 0 0)
(-3.90107504988579e-12 0 0)
(-3.494044300184189e-12 0 0)
(-3.091368735001534e-12 0 0)
(-2.731760950014466e-12 0 0)
(-3.033314000345712e-12 0 0)
(-3.326575820276022e-12 0 0)
(-3.264715165113969e-12 0 0)
(-3.055368913670402e-12 0 0)
(-2.749020223522742e-12 0 0)
(-2.094268589666008e-12 0 0)
(-1.64470089712294e-12 0 0)
(-1.421291872046223e-12 0 0)
(-1.269713606614815e-12 0 0)
(-7.628581000469433e-13 0 0)
(9.454856915161919e-14 0 0)
(3.799194156810183e-13 0 0)
(4.138740643167275e-13 0 0)
(5.517133014279088e-13 0 0)
(1.325823351751171e-12 0 0)
(1.174684320600901e-12 0 0)
(7.899079817636629e-13 0 0)
(5.69448173872489e-13 0 0)
(2.852305486310491e-13 0 0)
(-1.360003041289453e-13 0 0)
(-7.669214351384161e-13 0 0)
(-5.961545239492872e-13 0 0)
(-1.250679217306556e-13 0 0)
(1.987068955060178e-13 0 0)
(1.308343938752498e-13 0 0)
(-4.921712612328965e-13 0 0)
(-6.923905638124882e-13 0 0)
(-9.704407701808761e-13 0 0)
(-1.279809989026285e-12 0 0)
(-9.48073491781589e-13 0 0)
(-1.191270184490397e-12 0 0)
(-1.682389311548544e-12 0 0)
(-1.536473333836661e-12 0 0)
(-1.546660696183378e-12 0 0)
(-1.640944782202942e-12 0 0)
(-1.579059034262812e-12 0 0)
(-1.095828194568184e-12 0 0)
(-5.645087702307219e-13 0 0)
(-3.723773007197534e-13 0 0)
(-4.827383676257743e-13 0 0)
(-4.000234406801001e-13 0 0)
(-3.856930517152454e-14 0 0)
(3.153529181789557e-13 0 0)
(7.652978201813721e-13 0 0)
(1.060264202296678e-12 0 0)
(1.287634672019453e-12 0 0)
(1.584418861925809e-12 0 0)
(1.268317924349807e-12 0 0)
(1.074189931372858e-12 0 0)
(1.237624933128194e-12 0 0)
(1.413408389641611e-12 0 0)
(2.037836825080887e-12 0 0)
(2.130768445449379e-12 0 0)
(1.950635128686916e-12 0 0)
(1.662775141241614e-12 0 0)
(1.277854588030273e-12 0 0)
(1.318716939696061e-12 0 0)
(1.03815925754236e-12 0 0)
(5.941188959797223e-13 0 0)
(2.011963569106186e-13 0 0)
(-2.59689598642959e-13 0 0)
(-7.12555102229414e-13 0 0)
(-1.037862349398905e-12 0 0)
(-8.902501242568429e-13 0 0)
(-8.862140300462472e-13 0 0)
(-8.78079788734118e-13 0 0)
(-6.314124160857576e-13 0 0)
(-6.964025877553169e-13 0 0)
(-5.669127152801937e-13 0 0)
(-1.617890332374925e-13 0 0)
(3.896274876356198e-13 0 0)
(9.912689026216652e-13 0 0)
(1.242341729032071e-12 0 0)
(1.349035154817234e-12 0 0)
(1.611840765934397e-12 0 0)
(1.67974158009347e-12 0 0)
(1.395848612563721e-12 0 0)
(9.465194008011888e-13 0 0)
(1.067706059218948e-12 0 0)
(1.327380320222643e-12 0 0)
(1.320981835114413e-12 0 0)
(1.745013808265853e-12 0 0)
(1.581128374061511e-12 0 0)
(1.738063279075972e-12 0 0)
(2.002982500764877e-12 0 0)
(1.651695943735927e-12 0 0)
(1.80720722450158e-12 0 0)
(2.523909353244294e-12 0 0)
(2.952761464115148e-12 0 0)
(3.352027634872662e-12 0 0)
(3.846334077194951e-12 0 0)
(3.756995410052126e-12 0 0)
(3.263886718053297e-12 0 0)
(2.262915573242766e-12 0 0)
(1.270175081330033e-12 0 0)
(7.593329272283324e-13 0 0)
(4.715162847599814e-13 0 0)
(6.995988742560744e-13 0 0)
(7.600875677529885e-13 0 0)
(6.397824568491247e-13 0 0)
(7.23134218540028e-13 0 0)
(1.1941421011624e-12 0 0)
(1.446410100763126e-12 0 0)
(1.391149734539517e-12 0 0)
(1.779324705263352e-12 0 0)
(2.16489336542937e-12 0 0)
(2.415499944968644e-12 0 0)
(2.497226421612787e-12 0 0)
(2.46028329990189e-12 0 0)
(2.003703438220833e-12 0 0)
(1.302512593866434e-12 0 0)
(8.878995610801465e-13 0 0)
(5.282735067236822e-13 0 0)
(1.534281462922393e-13 0 0)
(-6.326615561331573e-14 0 0)
(-4.419242354089803e-13 0 0)
(-7.664026332242845e-13 0 0)
(-9.806129063671045e-13 0 0)
(-1.307297412846509e-12 0 0)
(-1.267275427793768e-12 0 0)
(-9.093120101227729e-13 0 0)
(-7.064776619077762e-13 0 0)
(-4.842207418062937e-13 0 0)
(-5.859209830302737e-13 0 0)
(-1.830275370562589e-13 0 0)
(4.151214106806469e-13 0 0)
(5.466705851330974e-13 0 0)
(7.276931889101236e-13 0 0)
(1.04716894222099e-12 0 0)
(1.204996641600585e-12 0 0)
(1.534111092464147e-12 0 0)
(2.085362364921665e-12 0 0)
(2.359724817304106e-12 0 0)
(2.701317887471064e-12 0 0)
(2.732567584291625e-12 0 0)
(2.80071477099845e-12 0 0)
(2.831210176646133e-12 0 0)
(2.753113574264341e-12 0 0)
(2.192541531275415e-12 0 0)
(1.849390379105588e-12 0 0)
(1.6756639299968e-12 0 0)
(1.350913530761683e-12 0 0)
(8.920607904396708e-13 0 0)
(1.806784479857542e-14 0 0)
(-9.307479026404084e-13 0 0)
(-1.65682359582369e-12 0 0)
(-1.961722881611339e-12 0 0)
(-2.149348954275786e-12 0 0)
(-2.546956553097022e-12 0 0)
(-2.853644628860046e-12 0 0)
(-3.052020851191204e-12 0 0)
(-3.162223128008524e-12 0 0)
(-3.000868304754393e-12 0 0)
(-2.643869507309186e-12 0 0)
(-2.483283058805519e-12 0 0)
(-2.271424392021083e-12 0 0)
(-1.90429722783818e-12 0 0)
(-1.987690306724361e-12 0 0)
(-2.019497493352746e-12 0 0)
(-2.098431131333833e-12 0 0)
(-2.310069396270373e-12 0 0)
(-2.098596308085784e-12 0 0)
(-2.150151238572011e-12 0 0)
(-2.442682359373741e-12 0 0)
(-2.12078836614647e-12 0 0)
(-1.74550094775972e-12 0 0)
(-1.772850047469645e-12 0 0)
(-1.518873608732693e-12 0 0)
(-1.234868522681496e-12 0 0)
(-8.874020297382186e-13 0 0)
(-6.937731516978427e-13 0 0)
(-6.062669968284744e-13 0 0)
(-5.211495701807285e-13 0 0)
(-6.73102908136716e-13 0 0)
(-5.658296195257655e-13 0 0)
(-4.519646949470711e-13 0 0)
(-5.149286505025371e-13 0 0)
(-3.405093614712976e-13 0 0)
(-6.321644661380192e-14 0 0)
(7.623329079315171e-15 0 0)
(1.091322444301746e-13 0 0)
(6.658444395435675e-13 0 0)
(6.995127252220179e-13 0 0)
(6.943441636116089e-14 0 0)
(-4.200492009179578e-13 0 0)
(-3.25330002446111e-13 0 0)
(-4.601876491525153e-13 0 0)
(-7.460887653711809e-13 0 0)
(-4.635446278248505e-13 0 0)
(-2.404174256177033e-13 0 0)
(6.926926012937301e-14 0 0)
(3.197999103331397e-13 0 0)
(-2.82671910495506e-14 0 0)
(-1.345081419036665e-13 0 0)
(6.002015900312984e-13 0 0)
(7.861348120515895e-13 0 0)
(7.492486814234332e-13 0 0)
(9.255722206001342e-13 0 0)
(8.079009888801823e-13 0 0)
(4.126977191556793e-13 0 0)
(2.616920076583264e-13 0 0)
(1.510209739983227e-13 0 0)
(-8.71191148767152e-14 0 0)
(-2.457123998106822e-13 0 0)
(-6.244706635141812e-13 0 0)
(-7.774124938700413e-13 0 0)
(-7.441283286303768e-13 0 0)
(-1.257411948899139e-12 0 0)
(-1.047912162255699e-12 0 0)
(-6.000266098525234e-13 0 0)
(-4.405216326756678e-13 0 0)
(-5.467626500529634e-13 0 0)
(-5.1108499086945e-13 0 0)
(-2.213232372601281e-13 0 0)
(1.432684350341249e-14 0 0)
(6.311741539746006e-14 0 0)
(2.384166783268117e-13 0 0)
(3.86708297421375e-13 0 0)
(1.816093495284701e-13 0 0)
(1.486356476241999e-13 0 0)
(2.068724383459984e-13 0 0)
(1.61784515322898e-13 0 0)
(5.201656720834541e-14 0 0)
(1.600926921775834e-13 0 0)
(1.092164723889723e-13 0 0)
(4.075603523667623e-14 0 0)
(2.986925840586805e-13 0 0)
(6.455232377882229e-13 0 0)
(6.002680001477963e-13 0 0)
(1.478278183113845e-13 0 0)
(2.353531070251491e-14 0 0)
(-8.112410971537933e-14 0 0)
(-4.068850224297034e-13 0 0)
(-6.508683292497234e-13 0 0)
(-7.025069557008961e-13 0 0)
(-3.874238957968099e-13 0 0)
(-3.231327478908778e-13 0 0)
(-4.250641777042821e-13 0 0)
(-6.525385117659882e-13 0 0)
(-8.100173296629494e-13 0 0)
(-7.92077990759275e-13 0 0)
(-1.170621309506921e-12 0 0)
(-1.309234552462601e-12 0 0)
(-1.52131088113416e-12 0 0)
(-1.667355531816729e-12 0 0)
(-1.91864246219683e-12 0 0)
(-2.087695683237952e-12 0 0)
(-2.241291912538835e-12 0 0)
(-2.242363079790944e-12 0 0)
(-1.958537665462285e-12 0 0)
(-1.680850296806735e-12 0 0)
(-1.355049538152302e-12 0 0)
(-1.236758410950751e-12 0 0)
(-1.08168408785649e-12 0 0)
(-7.279199660296175e-13 0 0)
(2.748391442644885e-13 0 0)
(1.073320966857361e-12 0 0)
(1.334248075236668e-12 0 0)
(1.438149384723804e-12 0 0)
(1.566388624338579e-12 0 0)
(1.818797745383724e-12 0 0)
(1.532198024234013e-12 0 0)
(1.267699112625115e-12 0 0)
(9.602657090882126e-13 0 0)
(4.791819410824748e-13 0 0)
(-1.916839021109955e-13 0 0)
(-5.420256497965373e-13 0 0)
(-6.574417124907696e-13 0 0)
(-9.208486386737898e-13 0 0)
(-1.03719377198964e-12 0 0)
(-1.144145126181746e-12 0 0)
(-1.083618493577809e-12 0 0)
(-1.208910983189392e-12 0 0)
(-1.436015294082255e-12 0 0)
(-1.592654129444123e-12 0 0)
(-1.547212221580749e-12 0 0)
(-1.639439687563999e-12 0 0)
(-2.12534302952467e-12 0 0)
(-1.933864997140785e-12 0 0)
(-1.689096981612901e-12 0 0)
(-1.383589042726827e-12 0 0)
(-8.799628912903488e-13 0 0)
(-4.369636106534525e-13 0 0)
(-1.669244932113175e-13 0 0)
(3.634665256192191e-14 0 0)
(1.724976346085086e-13 0 0)
(9.166663073973907e-14 0 0)
(3.332357766113981e-13 0 0)
(6.470094653136696e-13 0 0)
(9.368638926315809e-13 0 0)
(1.274693664464531e-12 0 0)
(1.083881645599465e-12 0 0)
(6.845976478923138e-13 0 0)
(3.951856434192288e-13 0 0)
(9.123660101447219e-14 0 0)
(-3.958254384713223e-13 0 0)
(-4.940567765000587e-13 0 0)
(-3.241641306013085e-13 0 0)
(-4.432714213483445e-13 0 0)
(-9.241749148566276e-13 0 0)
(-9.594185517555821e-13 0 0)
(-5.881458369134361e-13 0 0)
(-2.278202227859871e-13 0 0)
(2.89398570513663e-13 0 0)
(8.617171873386915e-13 0 0)
(1.104930636422389e-12 0 0)
(8.165374144676367e-13 0 0)
(1.002132342691093e-12 0 0)
(1.265494885166454e-12 0 0)
(1.1992916944636e-12 0 0)
(5.306703360601069e-13 0 0)
(4.051489638216241e-13 0 0)
(9.6902048454716e-13 0 0)
(1.092471933017591e-12 0 0)
(1.23782990797114e-12 0 0)
(1.431413446360096e-12 0 0)
(1.304797552682821e-12 0 0)
(7.33417977263911e-13 0 0)
(6.241571000823697e-13 0 0)
(1.278496724621655e-12 0 0)
(1.520762369706117e-12 0 0)
(1.940016836630127e-12 0 0)
(2.462272567069247e-12 0 0)
(2.68420178839444e-12 0 0)
(2.784124316637217e-12 0 0)
(2.465563456594948e-12 0 0)
(2.028489245045169e-12 0 0)
(1.750102896318243e-12 0 0)
(1.550309191075742e-12 0 0)
(1.283747526882205e-12 0 0)
(1.474475803575776e-12 0 0)
(1.426730136977613e-12 0 0)
(1.290315227501737e-12 0 0)
(1.107431689378278e-12 0 0)
(7.948768433193777e-13 0 0)
(5.379271837200004e-13 0 0)
(8.226469509875336e-14 0 0)
(1.58735340826153e-14 0 0)
(-3.269708729720945e-13 0 0)
(-2.91778707338735e-13 0 0)
(2.665325350503286e-13 0 0)
(8.297177101584192e-13 0 0)
(9.973115193619349e-13 0 0)
(7.443878038857196e-13 0 0)
(8.351162909888607e-13 0 0)
(1.192867859291792e-12 0 0)
(1.709538106533823e-12 0 0)
(1.992654353341174e-12 0 0)
(2.414255424249373e-12 0 0)
(2.840875175837184e-12 0 0)
(3.074352312720399e-12 0 0)
(3.477731886231011e-12 0 0)
(3.471155098474221e-12 0 0)
(3.139431630716487e-12 0 0)
(2.801866650658852e-12 0 0)
(2.970897747098565e-12 0 0)
(2.718951360300481e-12 0 0)
(2.056886992873497e-12 0 0)
(1.729179171484125e-12 0 0)
(1.275915531366404e-12 0 0)
(9.626283741401461e-13 0 0)
(5.220087299957415e-13 0 0)
(4.924596558539102e-14 0 0)
(-4.926917174769196e-13 0 0)
(-7.413723439774127e-13 0 0)
(-1.006216260514543e-12 0 0)
(-1.496998062731256e-12 0 0)
(-1.799731206913286e-12 0 0)
(-1.715224605637514e-12 0 0)
(-1.670604351814539e-12 0 0)
(-1.615236545581834e-12 0 0)
(-1.370910802640693e-12 0 0)
(-1.58643030259518e-12 0 0)
(-1.427122233963546e-12 0 0)
(-1.403481253629353e-12 0 0)
(-1.355049602802299e-12 0 0)
(-6.999466360480704e-13 0 0)
(-5.236183417564354e-13 0 0)
(-6.900717123074986e-13 0 0)
(-9.034103290420078e-13 0 0)
(-3.174486120378479e-13 0 0)
(1.652170772524996e-13 0 0)
(4.539899690083264e-13 0 0)
(5.446356243108916e-13 0 0)
(5.450829162195717e-13 0 0)
(5.392050288423015e-13 0 0)
(3.742033069384187e-13 0 0)
(-5.57630294504607e-14 0 0)
(-8.566286321136777e-13 0 0)
(-1.397896768933696e-12 0 0)
(-1.70183581847902e-12 0 0)
(-1.577410102823692e-12 0 0)
(-1.363964473492338e-12 0 0)
(-1.167362862823748e-12 0 0)
(-7.010404492998974e-13 0 0)
(-4.515566634035992e-13 0 0)
(-1.33690053141342e-13 0 0)
(2.500500113458317e-13 0 0)
(5.873007319489542e-13 0 0)
(4.481235814596727e-13 0 0)
(6.123605786320834e-13 0 0)
(9.651486821648878e-13 0 0)
(1.38985047923086e-12 0 0)
(1.131303635411241e-12 0 0)
(4.033249034548042e-13 0 0)
(4.238515561672214e-13 0 0)
(3.141194065506877e-13 0 0)
(-6.262564237941171e-14 0 0)
(-5.267477771668552e-13 0 0)
(-5.043871776006065e-13 0 0)
(-2.929065271941207e-13 0 0)
(-6.268049957938199e-14 0 0)
(2.293454098318945e-15 0 0)
(5.776359468291048e-14 0 0)
(2.897590361910506e-13 0 0)
(1.456584040732021e-13 0 0)
(-4.07218146458564e-13 0 0)
(-9.355876951650511e-13 0 0)
(-9.365018950433772e-13 0 0)
(-1.254370371182879e-12 0 0)
(-1.731718910705298e-12 0 0)
(-1.908451706723305e-12 0 0)
(-1.864074058329128e-12 0 0)
(-1.636345390529007e-12 0 0)
(-1.45919635192099e-12 0 0)
(-1.141169204112373e-12 0 0)
(-9.568845645011491e-13 0 0)
(-9.180613253591171e-13 0 0)
(-9.911230351342385e-13 0 0)
(-1.019334924620497e-12 0 0)
(-7.995764189034342e-13 0 0)
(-8.067560616021187e-13 0 0)
(-7.001061666281339e-13 0 0)
(-6.54280151939231e-13 0 0)
(-6.480606197006057e-13 0 0)
(-4.898928950062075e-13 0 0)
(-5.591183206336278e-14 0 0)
(1.139488435402535e-13 0 0)
(3.97700923466761e-13 0 0)
(1.323287306789343e-12 0 0)
(1.576811714737494e-12 0 0)
(1.294646174222498e-12 0 0)
(1.073005094939293e-12 0 0)
(1.272065285035813e-12 0 0)
(1.169643919451021e-12 0 0)
(1.077416922283573e-12 0 0)
(8.911169314155655e-13 0 0)
(5.620453104700343e-13 0 0)
(2.936239147470265e-13 0 0)
(-3.566852628610501e-14 0 0)
(-5.478884806407328e-14 0 0)
(1.334077623329439e-13 0 0)
(6.069297961476394e-13 0 0)
(5.728652018471044e-13 0 0)
(2.939803057917354e-13 0 0)
(4.967144755150979e-13 0 0)
(4.637904454669845e-13 0 0)
(2.979288286355031e-13 0 0)
(3.946234615984069e-13 0 0)
(5.486064795176263e-13 0 0)
)
;

boundaryField
{
    inlet
    {
        type            calculated;
        value           uniform (-7.706704134923945e-05 0 0);
    }
    outlet
    {
        type            calculated;
        value           uniform (5.486064795176263e-13 0 0);
    }
    frontAndBack
    {
        type            empty;
    }
}


// ************************************************************************* //
