/*--------------------------------*- C++ -*----------------------------------*\
| =========                 |                                                 |
| \\      /  F ield         | OpenFOAM: The Open Source CFD Toolbox           |
|  \\    /   O peration     | Version:  v2012                                 |
|   \\  /    A nd           | Website:  www.openfoam.com                      |
|    \\/     M anipulation  |                                                 |
\*---------------------------------------------------------------------------*/
FoamFile
{
    version     2.0;
    format      ascii;
    class       volScalarField;
    location    "0.002";
    object      pMean;
}
// * * * * * * * * * * * * * * * * * * * * * * * * * * * * * * * * * * * * * //

dimensions      [1 -1 -2 0 0 0 0];


internalField   nonuniform List<scalar> 
1000
(
101325.1005532972
101325.0518067962
101325.0605756978
101325.195003066
101325.2500123199
101325.3502534539
101325.5238373031
101325.6558008412
101325.7756193999
101325.996416345
101326.1528145277
101326.3050616386
101326.505352141
101326.6830175414
101326.8223872161
101326.9957461346
101327.1583132748
101327.263594849
101327.3958435302
101327.4979949245
101327.5564456181
101327.6137751126
101327.6426001647
101327.6590096006
101327.628388475
101327.5867433463
101327.512441178
101327.451542707
101327.3271355008
101327.1764434415
101327.0747258809
101326.9086445667
101326.7102335874
101326.5301041574
101326.4112251295
101326.2032976781
101326.0217529457
101325.8814892845
101325.7309784208
101325.5544432675
101325.4252644009
101325.324548873
101325.1899183571
101325.1327124794
101325.0594435679
101325.0281345995
101325.0247980224
101325.0274828774
101325.0744803967
101325.1248120754
101325.21912193
101325.3203513762
101325.4463882922
101325.5721087132
101325.7582099893
101325.9259744949
101326.0860001468
101326.261875197
101326.4312365387
101326.5968980943
101326.762465989
101326.9174079522
101327.0579631186
101327.2091722632
101327.3330481794
101327.4315090133
101327.524698071
101327.5861574754
101327.6466946719
101327.6397953138
101327.6368691728
101327.6124934446
101327.561205455
101327.4618628738
101327.374198735
101327.2610272739
101327.1078450644
101326.9439657533
101326.785353233
101326.6094625699
101326.4316447197
101326.2868907993
101326.1104288383
101325.9379269893
101325.7977841782
101325.6432638928
101325.5059074439
101325.369358304
101325.2646289987
101325.1752071185
101325.0981269179
101325.0384192698
101325.0269644884
101325.0305461043
101325.0456829418
101325.0953905989
101325.1881840332
101325.2786568772
101325.3873481136
101325.5412727835
101325.7042435281
101325.8680195122
101326.040791837
101326.2011895896
101326.3677554724
101326.5384998139
101326.6945723763
101326.8425233856
101327.0052291354
101327.1338831767
101327.2617804263
101327.380783521
101327.4763943495
101327.5469150544
101327.6087923826
101327.6458400959
101327.6359804474
101327.6266612394
101327.5881963809
101327.5029132583
101327.4093864296
101327.3164552659
101327.1567347158
101326.9851584183
101326.8445799241
101326.6728446108
101326.4905021629
101326.3348051466
101326.1919397777
101326.0047742978
101325.8601086379
101325.7209671301
101325.5687085894
101325.4372024362
101325.3332018737
101325.2223979335
101325.1354030094
101325.092896749
101325.0342454778
101325.0321592644
101325.0405798269
101325.083334792
101325.1381807871
101325.2388334229
101325.3532130949
101325.4816604391
101325.6632814251
101325.8114844607
101325.9932295743
101326.1435709053
101326.3104974016
101326.4735823191
101326.632807982
101326.7825553253
101326.9315817377
101327.083264416
101327.1933104651
101327.3258961827
101327.4259899789
101327.5126079171
101327.5651238693
101327.6241343725
101327.6431884161
101327.6168904189
101327.6102240705
101327.5388139657
101327.4530549617
101327.3456932187
101327.2253570104
101327.0392320638
101326.8898703326
101326.725260681
101326.5619198149
101326.3964148549
101326.2385224772
101326.0862347075
101325.9185252646
101325.787057536
101325.6313795021
101325.5058663197
101325.3869152569
101325.2781439104
101325.1860715841
101325.1182264279
101325.0720633341
101325.0397375223
101325.0481878356
101325.0611600967
101325.1276046809
101325.1998719073
101325.3076928484
101325.4383401068
101325.6169205769
101325.7626402531
101325.9293852738
101326.1005434386
101326.2484953792
101326.416214406
101326.5652558629
101326.7315898757
101326.8605987175
101327.0169059825
101327.142407997
101327.2635916533
101327.3692664481
101327.4633762816
101327.5438357694
101327.5769544024
101327.6310351005
101327.6170021682
101327.6137376445
101327.5540444295
101327.4891562873
101327.3882199756
101327.2618555293
101327.10107395
101326.9362189025
101326.7844176193
101326.6151304556
101326.4614924437
101326.2954182832
101326.1475353917
101325.9861927935
101325.8458377382
101325.702191524
101325.5598618914
101325.4525066615
101325.3324140883
101325.236528173
101325.1602030795
101325.107581648
101325.05843741
101325.0596757168
101325.0689426319
101325.1055690076
101325.1778428379
101325.276791104
101325.3998397955
101325.5586168138
101325.7215211107
101325.8842921164
101326.0377500127
101326.1989228375
101326.3612697413
101326.5112784962
101326.6621228065
101326.8138677345
101326.9539801739
101327.083710291
101327.2128320572
101327.3181925993
101327.4148403669
101327.5023360646
101327.5536915633
101327.5969028766
101327.6133614017
101327.607598307
101327.5697812016
101327.5098047368
101327.4204949613
101327.3073762793
101327.1548596991
101326.9904324963
101326.8313269568
101326.6761256337
101326.5118212948
101326.3584242704
101326.1961949896
101326.052438275
101325.8932603222
101325.7592319987
101325.6152142149
101325.4914140262
101325.3772224152
101325.2641188082
101325.1835691121
101325.1036328531
101325.0528202832
101325.0084664875
101325.000017392
101325
101324.9999999999
101324.9999999999
101325
101324.9999999999
101325
101325
101325
101325
101324.9999999999
101324.9999999999
101325
101325
101325
101325
101325
101325
101325
101324.9999999999
101325
101325
101325
101324.9999999999
101325
101325
101325
101325
101325
101325
101325
101325
101325
101325
101325
101325
101325
101325
101325
101325
101325
101325
101325
101325
101325
101325
101325
101325
101325
101325
101325
101325
101325
101325
101325
101325
101325
101324.9999999999
101325
101325
101325
101325
101325
101325
101325
101325
101325
101325
101325
101325
101325
101325
101325
101325
101325
101325
101325
101325
101325
101325
101325
101325
101325
101325
101325
101325
101325
101325
101325
101325
101325
101325
101325
101325
101325
101325
101325
101325
101325
101325.0000000001
101325
101325
101325
101325
101325
101325
101325
101325
101324.9999999999
101325
101325
101325
101325
101325
101325
101325
101325
101325
101325
101325
101325
101325
101325
101325
101325
101325
101325
101325
101325
101325
101325
101325
101325
101325
101325.0000000001
101325
101325
101325
101325
101325
101325
101325
101325
101325
101325
101325
101325
101325
101325
101325
101325
101325
101325
101325
101325
101325
101325
101325.0000000001
101325
101325
101325
101325
101325
101325
101325
101325
101325
101325
101325
101325
101325
101325
101325
101325
101325
101325
101325
101325
101325.0000000001
101325
101325
101325
101325
101325
101325
101325
101325
101325
101325
101325
101325
101325
101325
101325
101325
101325
101325
101325
101325
101325
101325
101325.0000000001
101325
101325
101325
101325
101325
101325
101325
101325
101325
101325
101325
101325
101325
101325
101325
101325
101325
101325.0000000001
101325
101325
101325
101325
101325
101325
101325
101325
101325
101325
101325
101325
101325
101325
101325
101325
101325
101325
101325
101325
101325
101325
101325.0000000001
101325
101325
101325
101325
101325
101325
101325
101325
101325
101325
101325
101325
101325
101325
101325
101325
101325
101325
101325
101325
101325
101325
101325
101325
101325
101325
101325
101325
101325
101325
101325
101325
101325
101325
101325
101325
101325
101325
101325
101325
101325
101325
101325
101325
101325
101325
101325
101325
101325
101325
101325
101325
101325
101325
101325
101325
101325
101325
101325
101325
101325
101325
101325
101325
101325
101325
101325
101325
101325
101325.0000000001
101325
101325
101325
101325.0000000001
101325
101325.0000000001
101325
101325
101325
101325.0000000001
101325
101325
101325.0000000001
101325
101325
101325
101325
101325
101325
101325
101325
101325
101325.0000000001
101325
101325.0000000001
101325
101325
101325
101325
101325.0000000001
101325.0000000001
101325
101325
101325.0000000001
101325.0000000001
101325
101325
101325
101325.0000000001
101325
101325
101325.0000000001
101325
101325.0000000001
101325
101325.0000000001
101325
101325
101325
101325
101325.0000000001
101325
101325
101325
101325.0000000001
101325
101325
101325
101325
101325
101325
101325
101325
101325
101325
101325
101325.0000000001
101325
101325
101325
101325
101325
101325.0000000001
101325
101325
101325.0000000001
101325
101325
101325
101325.0000000001
101325
101325
101325.0000000001
101325
101325.0000000001
101325.0000000001
101325
101325.0000000001
101325
101325
101325.0000000001
101325
101325
101325
101325
101325
101325
101325
101325.0000000001
101325.0000000001
101325
101325
101325
101325
101325
101325
101325.0000000001
101325
101325
101325
101325
101325.0000000001
101325
101325
101325
101325
101325.0000000001
101325
101325
101325
101325
101325
101325
101325
101325.0000000001
101325
101325.0000000001
101325
101325
101325
101325
101325
101325.0000000001
101325
101325
101325.0000000001
101325
101325
101325
101325
101325.0000000001
101325.0000000001
101325
101325
101325
101325.0000000001
101325.0000000001
101325
101325
101325
101325
101325
101325
101325
101325
101325.0000000001
101325
101325
101325
101325
101325
101325
101325
101325
101325
101325.0000000001
101325.0000000001
101325
101325
101325.0000000001
101325
101325
101325
101325.0000000001
101325
101325.0000000001
101325
101325.0000000001
101325
101325.0000000001
101325
101325.0000000001
101325
101325
101325
101325.0000000001
101325
101325.0000000001
101325
101325.0000000001
101325.0000000001
101325.0000000001
101325
101325.0000000001
101325.0000000001
101325.0000000001
101325.0000000001
101325.0000000001
101325.0000000001
101325.0000000001
101325.0000000002
101325.0000000001
101325.0000000001
101325.0000000001
101325.0000000001
101325.0000000001
101325.0000000001
101325.0000000001
101325.0000000001
101325.0000000001
101325.0000000001
101325.0000000001
101325.0000000001
101325.0000000001
101325.0000000001
101325.0000000002
101325.0000000002
101325.0000000002
101325.0000000001
101325.0000000002
101325.0000000001
101325.0000000001
101325.0000000001
101325.0000000002
101325.0000000001
101325.0000000002
101325.0000000001
101325.0000000002
101325.0000000001
101325.0000000001
101325.0000000001
101325.0000000001
101325.0000000002
101325.0000000001
101325.0000000002
101325.0000000002
101325.0000000002
101325.0000000002
101325.0000000002
101325.0000000001
101325.0000000002
101325.0000000001
101325.0000000002
101325.0000000001
101325.0000000001
101325.0000000002
101325.0000000001
101325.0000000001
101325.0000000001
101325.0000000002
101325.0000000001
101325.0000000002
101325.0000000002
101325.0000000002
101325.0000000001
101325.0000000002
101325.0000000002
101325.0000000002
101325.0000000002
101325.0000000002
101325.0000000002
101325.0000000002
101325.0000000002
101325.0000000002
101325.0000000002
101325.0000000002
101325.0000000002
101325.0000000002
101325.0000000002
101325.0000000002
101325.0000000002
101325.0000000002
101325.0000000002
101325.0000000002
101325.0000000001
101325.0000000002
101325.0000000003
101325.0000000002
101325.0000000002
101325.0000000002
101325.0000000002
101325.0000000002
101325.0000000002
101325.0000000002
101325.0000000002
101325.0000000002
101325.0000000002
101325.0000000002
101325.0000000002
101325.0000000002
101325.0000000002
101325.0000000002
101325.0000000002
101325.0000000002
101325.0000000002
101325.0000000001
101325.0000000002
101325.0000000002
101325.0000000001
101325.0000000002
101325.0000000002
101325.0000000002
101325.0000000002
101325.0000000002
101325.0000000002
101325.0000000002
101325.0000000001
101325.0000000001
101325.0000000002
101325.0000000001
101325.0000000001
101325.0000000002
101325.0000000001
101325.0000000002
101325.0000000001
101325.0000000002
101325.0000000001
101325.0000000001
101325.0000000002
101325.0000000002
101325.0000000001
101325.0000000001
101325.0000000002
101325.0000000002
101325.0000000001
101325.0000000002
101325.0000000001
101325.0000000001
101325.0000000001
101325.0000000002
101325.0000000001
101325.0000000002
101325.0000000001
101325.0000000001
101325.0000000001
101325.0000000002
101325.0000000001
101325.0000000001
101325.0000000001
101325.0000000001
101325.0000000001
101325.0000000001
101325.0000000001
101325.0000000002
101325.0000000001
101325.0000000001
101325.0000000001
101325.0000000001
101325.0000000001
101325.0000000001
101325.0000000001
101325.0000000001
101325.0000000001
101325.0000000001
101325.0000000001
101325.0000000001
101325.0000000001
101325.0000000002
101325.0000000001
101325.0000000001
101325.0000000001
101325.0000000001
101325.0000000001
101325.0000000002
101325.0000000001
101325.0000000001
101325.0000000001
101325.0000000001
101325.0000000002
101325.0000000001
101325.0000000001
101325.0000000001
101325.0000000001
101325.0000000002
101325.0000000001
101325.0000000002
101325.0000000001
101325.0000000002
101325.0000000001
101325.0000000002
101325.0000000001
101325.0000000002
101325.0000000001
101325.0000000002
101325.0000000001
101325.0000000002
101325.0000000001
101325.0000000001
101325.0000000002
101325.0000000001
101325.0000000001
101325.0000000001
101325.0000000002
101325.0000000001
101325.0000000001
101325.0000000001
101325.0000000002
101325.0000000001
101325.0000000001
101325.0000000001
101325.0000000001
101325.0000000001
101325.0000000001
101325.0000000001
101325.0000000001
101325.0000000001
101325.0000000001
101325.0000000001
)
;

boundaryField
{
    inlet
    {
        type            calculated;
        value           uniform 101325.0176638076;
    }
    outlet
    {
        type            calculated;
        value           uniform 101325.0000000001;
    }
    frontAndBack
    {
        type            empty;
    }
}


// ************************************************************************* //
