/*--------------------------------*- C++ -*----------------------------------*\
| =========                 |                                                 |
| \\      /  F ield         | OpenFOAM: The Open Source CFD Toolbox           |
|  \\    /   O peration     | Version:  v2012                                 |
|   \\  /    A nd           | Website:  www.openfoam.com                      |
|    \\/     M anipulation  |                                                 |
\*---------------------------------------------------------------------------*/
FoamFile
{
    version     2.0;
    format      ascii;
    class       volScalarField;
    location    "0.002";
    object      T;
}
// * * * * * * * * * * * * * * * * * * * * * * * * * * * * * * * * * * * * * //

dimensions      [0 0 0 1 0 0 0];


internalField   nonuniform List<scalar> 
1000
(
299.9829265312309
299.9865357858889
299.9816590391521
299.9732018266998
299.9714598795199
299.9672805620672
299.9636193403248
299.963476896881
299.9590741405326
299.9587509425211
299.9589412774595
299.9589198555826
299.9600059630287
299.9615446433608
299.9626889776899
299.9671111667661
299.9699713861111
299.974381371965
299.9799900159093
299.9841797330438
299.9899086848509
299.9954203807582
300.0010134156418
300.0067793639085
300.0121434825713
300.017695471718
300.0226001673689
300.0271902521978
300.0315059922122
300.0349391790468
300.0395723349375
300.0404153211607
300.0405701511914
300.040585521931
300.0397973372612
300.0395644135011
300.0385288888247
300.0359064426375
300.0348974219508
300.0306874630249
300.0265443027506
300.0233111364726
300.016380047927
300.0116660103124
300.0062272950477
299.9995691166766
299.9946914495857
299.9889240906323
299.9833845894349
299.9785107451345
299.9734795150841
299.9690950032833
299.9646475507797
299.9602324848865
299.9598718132351
299.9599763742556
299.9600046326093
299.9603243254741
299.9614725048698
299.9616729107015
299.9637764855614
299.9663838387326
299.9677242708342
299.9726604966766
299.9765691947458
299.9806753109065
299.9872880795288
299.9922334978929
299.9983178865913
300.0044396289166
300.0098172299059
300.0155555690397
300.0206640060798
300.025581514576
300.0301381890798
300.035213541405
300.039472434381
300.0396112350022
300.0396214606895
300.0396000720906
300.0389652087181
300.0388838550088
300.0374671532369
300.0360184845372
300.034961103471
300.0311368235456
300.028829508515
300.0250475279071
300.0195599464325
300.0154644043422
300.0092063798497
300.003309995673
299.9975659597234
299.9911427855299
299.9855585523869
299.979932766184
299.9746703235936
299.9701705180637
299.9642695409414
299.9608726577575
299.9607449735344
299.9605975302268
299.9609314305389
299.9612874772589
299.9613650651135
299.9630328811682
299.9639630463109
299.9653243329766
299.968880958526
299.9706514533343
299.9745658547525
299.9795524391229
299.9832829064221
299.9894407641751
299.9950695260634
300.0007303106655
300.0072589440315
300.0129550963252
300.0188278448412
300.024361987256
300.0290941094236
300.0351755877416
300.0387472758455
300.0389727548273
300.0389554217963
300.0386661961232
300.0386782552549
300.0378678209405
300.0369508104279
300.0364566989085
300.0338636456349
300.0322825623027
300.0298612063585
300.0254680657666
300.0225978339959
300.0174510663589
300.0120812155527
300.0071435594033
300.0004415767754
299.9946767440086
299.9884529903344
299.9821488923991
299.9764718330454
299.9710268192042
299.9641272994475
299.9613307321757
299.9613455982199
299.9613026946922
299.9614335011651
299.9619896339626
299.9619947068734
299.9631128699785
299.9644045963054
299.965365755002
299.9683068077562
299.9702101787167
299.9733401264054
299.9779375758013
299.9812627398935
299.9868095133737
299.9922839018737
299.9975080667981
300.0041563161072
300.0099615704614
300.0160382311541
300.0223742556157
300.0275128703478
300.0349152425168
300.0382989825145
300.0383941512904
300.0384276726573
300.0381379733695
300.0380931569038
300.0375768274654
300.0365933486223
300.0360621871095
300.0341793979493
300.0323601171449
300.0303896613335
300.0267617739303
300.0237225575156
300.0194464665839
300.0144807235376
300.0096335460863
300.0035988184896
299.9977007727719
299.9914109788515
299.9849602414886
299.9786261758088
299.9726687119595
299.9646632586761
299.9618665576928
299.961923167295
299.9618201315388
299.9619537145561
299.9625389621222
299.9625625377766
299.9633660742484
299.9648164034208
299.9654117718478
299.9677469405714
299.9700928272442
299.9722970254837
299.9764970772957
299.9799110685759
299.9844849321641
299.9898571188035
299.9948948971842
300.0010606019
300.0071031524349
300.0132836730014
300.0197984110321
300.0255378037077
300.0334144263522
300.0377427944218
300.0378410885012
300.0379389564811
300.0377006438544
300.0375129644504
300.0372878969032
300.0362431816367
300.0357531950624
300.0343699883035
300.0322747161869
300.030996939629
300.0276478932823
300.0245059896354
300.0214399788886
300.0161122393661
300.0118115169565
300.0065105986733
300.0001259040573
299.9944361075692
299.9877840166441
299.9810318697632
299.9750325285183
299.966503246955
299.9623827769108
299.9623358046256
299.9623781397929
299.9623865436534
299.9628659679606
299.9630680932727
299.9635230539051
299.964943447537
299.9656033208792
299.9674009757574
299.9698176978761
299.9717589947186
299.975311827972
299.9788828345765
299.9827288110723
299.9877526276463
299.9927907259013
299.998288593883
300.0044016348518
300.0106130795323
300.0169279548272
300.0232986064734
300.0304606161465
300.0372091129561
300.037578763877
300.0375377955581
300.0375837996684
300.0372282953719
300.0371741412804
300.0363369073522
300.0355692426623
300.0349289721738
300.0327369261712
300.0315410056848
300.0292654001881
300.0260292611185
300.0236729984071
300.0195004599466
300.0156383126246
300.0116721282017
300.0068713634348
300.0011033500467
300.0000022665705
300.0000000000022
299.9999999999985
299.9999999999983
299.9999999999986
299.9999999999986
299.999999999999
299.999999999999
299.9999999999996
299.9999999999998
299.9999999999998
299.9999999999998
299.9999999999999
299.9999999999999
300
299.9999999999999
299.9999999999999
300
300.0000000000001
300
300
300.0000000000001
299.9999999999999
300.0000000000001
300
299.9999999999999
300.0000000000001
300
299.9999999999999
300.0000000000001
300
300
299.9999999999999
300.0000000000001
300
299.9999999999998
300.0000000000001
299.9999999999999
300.0000000000001
299.9999999999998
300.0000000000001
299.9999999999999
300.0000000000001
299.9999999999999
300
299.9999999999999
300
300
300
299.9999999999999
300.0000000000002
299.9999999999999
300.0000000000001
299.9999999999999
300.0000000000001
300.0000000000001
300
299.9999999999999
300.0000000000003
299.9999999999999
300
300.0000000000001
300.0000000000001
300
300.0000000000001
300
300.0000000000001
299.9999999999999
299.9999999999998
300
299.9999999999999
299.9999999999999
299.9999999999999
300
299.9999999999999
299.9999999999999
300
299.9999999999999
299.9999999999999
299.9999999999999
300
300
299.9999999999999
300
300.0000000000001
299.9999999999999
300
299.9999999999999
300.0000000000001
299.9999999999998
300.0000000000001
300
299.9999999999999
300
299.9999999999999
300.0000000000002
299.9999999999997
300.0000000000002
299.9999999999999
300.0000000000002
299.9999999999998
300.0000000000002
299.9999999999998
300.0000000000002
299.9999999999999
300
300
300.0000000000001
299.9999999999999
300.0000000000001
299.9999999999998
300
299.9999999999999
299.9999999999999
300
299.9999999999999
299.9999999999999
300.0000000000001
300.0000000000001
299.9999999999999
300.0000000000001
300.0000000000001
300.0000000000001
299.9999999999999
300.0000000000003
299.9999999999999
299.9999999999999
300.0000000000002
300.0000000000001
300
300.0000000000001
300.0000000000001
299.9999999999999
300.0000000000001
300
300.0000000000001
300.0000000000001
300.0000000000001
299.9999999999999
300.0000000000002
300
300.0000000000001
300.0000000000001
299.9999999999999
300.0000000000002
300.0000000000001
300
300
300.0000000000002
300
300.0000000000001
300
300
300.0000000000001
300
300.0000000000001
300.0000000000001
300.0000000000002
300.0000000000001
300.0000000000001
300.0000000000001
300.0000000000003
300.0000000000001
300.0000000000001
300
300.0000000000001
300.0000000000001
300.0000000000001
299.9999999999998
300.0000000000002
299.9999999999998
300.0000000000002
299.9999999999998
300.0000000000001
300.0000000000002
300
300
300.0000000000001
299.9999999999999
300.0000000000001
299.9999999999998
300.0000000000001
300
300.0000000000002
299.9999999999999
300.0000000000002
299.9999999999998
300.0000000000001
300.0000000000001
300
300.0000000000001
299.9999999999999
300.0000000000001
299.9999999999999
299.9999999999999
300.0000000000001
299.9999999999998
300.0000000000002
299.9999999999998
300.0000000000001
299.9999999999999
300.0000000000001
299.9999999999999
300
300.0000000000001
300
300
300
300.0000000000002
300
300
300.0000000000001
300.0000000000001
300.0000000000001
300.0000000000001
300
300
300
299.9999999999999
300.0000000000001
300
300
300.0000000000001
300
300.0000000000001
300.0000000000001
300
299.9999999999999
300.0000000000001
300.0000000000001
300.0000000000001
300.0000000000001
300.0000000000001
299.9999999999999
300.0000000000001
299.9999999999999
300
300
300.0000000000001
299.9999999999998
300
300
299.9999999999999
300.0000000000001
300
300
299.9999999999998
300.0000000000001
299.9999999999997
300.0000000000001
299.9999999999998
299.9999999999999
299.9999999999998
300.0000000000001
299.9999999999997
300.0000000000001
299.9999999999998
300.0000000000001
299.9999999999999
300
300.0000000000001
299.9999999999998
300.0000000000001
299.9999999999999
300.0000000000001
299.9999999999999
299.9999999999999
300
300
299.9999999999999
299.9999999999999
299.9999999999999
299.9999999999999
299.9999999999999
300
300.0000000000001
300
300.0000000000001
299.9999999999999
300.0000000000001
300
300.0000000000001
300.0000000000001
300.0000000000001
300.0000000000001
300.0000000000001
300
300
300
300
300.0000000000001
299.9999999999999
300.0000000000001
300
300
300
300.0000000000001
300
299.9999999999999
300.0000000000001
299.9999999999999
300
299.9999999999999
300
300
299.9999999999999
299.9999999999999
299.9999999999999
300.0000000000001
299.9999999999998
300.0000000000001
299.9999999999999
300
299.9999999999999
299.9999999999999
300.0000000000001
299.9999999999999
300
300.0000000000001
299.9999999999999
300
300.0000000000001
300
299.9999999999999
300.0000000000001
299.9999999999999
300.0000000000001
299.9999999999998
300.0000000000001
300
300.0000000000001
299.9999999999999
300
300.0000000000001
299.9999999999999
300
300.0000000000001
300
300
300
300
300
300.0000000000001
300
300
299.9999999999999
300.0000000000001
300
299.9999999999999
300.0000000000001
300.0000000000001
299.9999999999999
300.0000000000001
300.0000000000001
300
300
300
300.0000000000001
300.0000000000001
300.0000000000001
300.0000000000001
300
300.0000000000001
300.0000000000001
300.0000000000001
299.9999999999999
300.0000000000002
300.0000000000001
299.9999999999999
300.0000000000002
299.9999999999999
300.0000000000001
299.9999999999999
300.0000000000001
300
300.0000000000001
299.9999999999998
300.0000000000002
299.9999999999999
300.0000000000001
300.0000000000001
300.0000000000002
299.9999999999999
300.0000000000001
299.9999999999999
300.0000000000001
300
299.9999999999999
300.0000000000002
299.9999999999999
300.0000000000001
300
300.0000000000001
300.0000000000001
299.9999999999999
300
300
299.9999999999999
299.9999999999999
300
299.9999999999998
300
299.9999999999998
300
299.9999999999997
300.0000000000001
299.9999999999997
299.9999999999999
299.9999999999998
299.9999999999998
299.9999999999999
299.9999999999999
299.9999999999999
299.9999999999999
299.9999999999999
299.9999999999999
299.9999999999999
299.9999999999999
299.9999999999999
299.9999999999999
300.0000000000001
299.9999999999998
300
299.9999999999999
299.9999999999999
299.9999999999998
299.9999999999999
300
299.9999999999999
300
300
299.9999999999999
299.9999999999998
300.0000000000001
299.9999999999999
300
300.0000000000001
300
300.0000000000001
299.9999999999999
300.0000000000001
299.9999999999999
300.0000000000002
299.9999999999999
300.0000000000001
300.0000000000001
299.9999999999999
300.0000000000002
299.9999999999999
300.0000000000003
299.9999999999999
300.0000000000002
300.0000000000001
300.0000000000003
300.0000000000001
300.0000000000001
300
300.0000000000002
300.0000000000001
300.0000000000001
300.0000000000002
300.0000000000001
300.0000000000001
300.0000000000001
300.0000000000001
300.0000000000002
299.9999999999999
300.0000000000003
299.9999999999999
300.0000000000003
300.0000000000001
300.0000000000001
300.0000000000002
300.0000000000002
300.0000000000002
300.0000000000001
300.0000000000002
300.0000000000001
300.0000000000003
300.0000000000001
300.0000000000002
300.0000000000003
300.0000000000002
300.0000000000002
300.0000000000003
300.0000000000002
300.0000000000002
300.0000000000003
300.0000000000003
300.0000000000003
300.0000000000005
300.0000000000002
300.0000000000004
300.0000000000004
300.0000000000005
300.0000000000003
300.0000000000003
300.0000000000004
300.0000000000003
300.0000000000004
300.0000000000003
300.0000000000005
300.0000000000003
300.0000000000004
300.0000000000003
300.0000000000003
300.0000000000005
300.0000000000003
300.0000000000005
300.0000000000005
300.0000000000005
300.0000000000005
300.0000000000004
300.0000000000006
300.0000000000003
300.0000000000005
300.0000000000004
300.0000000000005
300.0000000000005
300.0000000000004
300.0000000000003
300.0000000000005
300.0000000000004
300.0000000000004
300.0000000000003
300.0000000000004
300.0000000000003
300.0000000000003
300.0000000000003
300.0000000000004
300.0000000000004
300.0000000000002
300.0000000000003
300.0000000000005
300.0000000000003
300.0000000000003
300.0000000000003
300.0000000000003
300.0000000000002
300.0000000000004
300.0000000000003
300.0000000000003
300.0000000000004
300.0000000000002
300.0000000000004
300.0000000000004
300.0000000000003
300.0000000000003
300.0000000000005
300.0000000000003
300.0000000000003
300.0000000000003
300.0000000000002
300.0000000000003
300.0000000000003
300.0000000000002
300.0000000000003
300.0000000000001
300.0000000000002
300.0000000000002
300.0000000000001
300.0000000000001
300.0000000000002
300
300.0000000000001
300.0000000000002
300.0000000000001
299.9999999999999
300.0000000000001
300.0000000000001
299.9999999999999
300.0000000000001
300
300
300.0000000000001
300
300.0000000000001
299.9999999999999
300.0000000000001
300.0000000000001
300
300.0000000000002
300.0000000000001
300
300.0000000000001
300.0000000000001
300.0000000000001
300
300.0000000000001
300.0000000000001
299.9999999999999
300
300.0000000000001
300.0000000000001
300
300.0000000000001
299.9999999999999
300.0000000000001
299.9999999999999
300
299.9999999999999
300
299.9999999999999
300
299.9999999999999
300.0000000000001
299.9999999999998
300
299.9999999999999
299.9999999999999
299.9999999999998
299.9999999999999
300
299.9999999999999
299.9999999999998
299.9999999999999
299.9999999999998
299.9999999999998
300
299.9999999999998
299.9999999999999
299.9999999999999
299.9999999999998
299.9999999999999
299.9999999999999
299.9999999999998
299.9999999999999
299.9999999999998
299.9999999999999
299.9999999999999
299.9999999999998
299.9999999999999
299.9999999999999
299.9999999999999
299.9999999999999
299.9999999999999
300.0000000000001
299.9999999999998
300
299.9999999999999
300
299.9999999999998
299.9999999999997
299.9999999999999
299.9999999999999
299.9999999999998
299.9999999999998
299.9999999999998
299.9999999999999
299.9999999999998
299.9999999999998
299.9999999999999
299.9999999999999
299.9999999999998
299.9999999999998
299.9999999999998
299.9999999999999
299.9999999999996
299.9999999999998
299.9999999999999
299.9999999999998
299.9999999999998
299.9999999999998
299.9999999999998
299.9999999999998
299.9999999999998
299.9999999999999
299.9999999999998
299.9999999999999
299.9999999999998
299.9999999999999
299.9999999999997
299.9999999999999
299.9999999999998
299.9999999999998
299.9999999999998
299.9999999999998
299.9999999999997
299.9999999999996
299.9999999999999
299.9999999999995
299.9999999999998
299.9999999999995
299.9999999999999
299.9999999999996
299.9999999999998
299.9999999999996
299.9999999999995
299.9999999999998
299.9999999999997
299.9999999999997
299.9999999999997
299.9999999999997
299.9999999999998
299.9999999999996
299.9999999999998
299.9999999999996
299.9999999999997
299.9999999999997
299.9999999999998
299.9999999999998
299.9999999999998
299.9999999999997
299.9999999999999
299.9999999999998
299.9999999999999
299.9999999999998
299.9999999999998
300
299.9999999999997
300.0000000000001
299.9999999999998
299.9999999999999
299.9999999999998
300
299.9999999999998
299.9999999999999
299.9999999999998
299.9999999999999
299.9999999999999
299.9999999999999
)
;

boundaryField
{
    inlet
    {
        type            fixedValue;
        value           uniform 300;
    }
    outlet
    {
        type            inletOutlet;
        inletValue      uniform 300;
        value           uniform 299.9999999999999;
    }
    frontAndBack
    {
        type            empty;
    }
}


// ************************************************************************* //
