/*--------------------------------*- C++ -*----------------------------------*\
| =========                 |                                                 |
| \\      /  F ield         | OpenFOAM: The Open Source CFD Toolbox           |
|  \\    /   O peration     | Version:  v2012                                 |
|   \\  /    A nd           | Website:  www.openfoam.com                      |
|    \\/     M anipulation  |                                                 |
\*---------------------------------------------------------------------------*/
FoamFile
{
    version     2.0;
    format      ascii;
    class       volVectorField;
    location    "0.002";
    object      UMean;
}
// * * * * * * * * * * * * * * * * * * * * * * * * * * * * * * * * * * * * * //

dimensions      [0 1 -1 0 0 0 0];


internalField   nonuniform List<vector> 
1000
(
(-8.041477527040219e-05 0 0)
(0.0001238560619080223 0 0)
(0.0001750427164780864 0 0)
(0.0004994011103110611 0 0)
(0.0005824218690047728 0 0)
(0.000838809580149304 0 0)
(0.001274421249677389 0 0)
(0.001586374052931428 0 0)
(0.001889736880933976 0 0)
(0.002425994649929821 0 0)
(0.002810948457280909 0 0)
(0.003181064074467977 0 0)
(0.003674286466126883 0 0)
(0.004106806907965464 0 0)
(0.00444900495809523 0 0)
(0.004873106736401373 0 0)
(0.005271661175599903 0 0)
(0.00552909471628119 0 0)
(0.00585278127901791 0 0)
(0.006102949127366858 0 0)
(0.006246084096236618 0 0)
(0.006386400230718179 0 0)
(0.006456836928134516 0 0)
(0.006497126242304103 0 0)
(0.006422192793063415 0 0)
(0.006320168094107211 0 0)
(0.006138346063467397 0 0)
(0.005989351959640665 0 0)
(0.005684808106056981 0 0)
(0.005316023245199077 0 0)
(0.005067123192424543 0 0)
(0.00466063854581929 0 0)
(0.004175078539364295 0 0)
(0.003734295843444397 0 0)
(0.003443342404898969 0 0)
(0.002934460795996823 0 0)
(0.002490240346434458 0 0)
(0.002146954945295651 0 0)
(0.001778588410985591 0 0)
(0.001346565425485521 0 0)
(0.001030451379670869 0 0)
(0.0007839206312949706 0 0)
(0.0004544360680593819 0 0)
(0.0003144340214392583 0 0)
(0.0001350884880736043 0 0)
(5.84627448919437e-05 0 0)
(5.032032296110844e-05 0 0)
(5.684946099096948e-05 0 0)
(0.0001719224657766233 0 0)
(0.00029514630275015 0 0)
(0.0005259845038861656 0 0)
(0.0007738108738793328 0 0)
(0.00108236843938327 0 0)
(0.001390178954634461 0 0)
(0.001845766643478706 0 0)
(0.002256482846856427 0 0)
(0.002648308857707594 0 0)
(0.003078895006210967 0 0)
(0.003493487617239349 0 0)
(0.003899094804480691 0 0)
(0.00430447417437399 0 0)
(0.004683747301336531 0 0)
(0.005027890290269072 0 0)
(0.005398105089293333 0 0)
(0.005701289331041266 0 0)
(0.005942378160040465 0 0)
(0.006170504649386135 0 0)
(0.00632096052714534 0 0)
(0.006469115962302496 0 0)
(0.006452278632253017 0 0)
(0.006445090932705739 0 0)
(0.006385415293716824 0 0)
(0.006259914038009262 0 0)
(0.006016779248259802 0 0)
(0.005802176175590984 0 0)
(0.005525247939901189 0 0)
(0.005150354186650742 0 0)
(0.00474927391854485 0 0)
(0.004361140635328031 0 0)
(0.003930672823406459 0 0)
(0.003495501625513124 0 0)
(0.003141276643365744 0 0)
(0.002709415670729068 0 0)
(0.002287242973936881 0 0)
(0.001944280039283562 0 0)
(0.001566153486075931 0 0)
(0.001229947060393605 0 0)
(0.0008957819829053871 0 0)
(0.0006394793970749649 0 0)
(0.0004205968331877815 0 0)
(0.0002319705289143811 0 0)
(8.58076749337608e-05 0 0)
(5.777520843604505e-05 0 0)
(6.655106567793033e-05 0 0)
(0.0001036296748269255 0 0)
(0.0002252577393636899 0 0)
(0.0004524406852082968 0 0)
(0.0006739408967884771 0 0)
(0.0009400107974897864 0 0)
(0.00131682521070964 0 0)
(0.001715849867355353 0 0)
(0.002116810467974506 0 0)
(0.002539769527780965 0 0)
(0.002932490848496793 0 0)
(0.003340284516288699 0 0)
(0.003758280570916784 0 0)
(0.004140401132658064 0 0)
(0.004502623814142093 0 0)
(0.004900938537034572 0 0)
(0.00521590876324478 0 0)
(0.005529047569864197 0 0)
(0.005820336589162096 0 0)
(0.0060544195608931 0 0)
(0.006227048522530413 0 0)
(0.006378517240352903 0 0)
(0.006469217112902223 0 0)
(0.006445079941530492 0 0)
(0.006422253655899803 0 0)
(0.006328131807298135 0 0)
(0.006119386982946337 0 0)
(0.005890478885992633 0 0)
(0.005663043961087343 0 0)
(0.005272165298098923 0 0)
(0.004852248487117531 0 0)
(0.004508231930075711 0 0)
(0.004087954366758127 0 0)
(0.003641697515542121 0 0)
(0.003260675665734518 0 0)
(0.00291104630149417 0 0)
(0.00245299790793202 0 0)
(0.002098961326171552 0 0)
(0.001758423869318328 0 0)
(0.001385826783137879 0 0)
(0.001063961018193884 0 0)
(0.0008094263655197599 0 0)
(0.000538252853088156 0 0)
(0.000325334076505874 0 0)
(0.000221287143567697 0 0)
(7.774251584070304e-05 0 0)
(7.263128987814718e-05 0 0)
(9.324156686138198e-05 0 0)
(0.0001979006295488421 0 0)
(0.0003321658141489739 0 0)
(0.0005785680689464757 0 0)
(0.0008585707222655565 0 0)
(0.001173038447010636 0 0)
(0.001617684225062508 0 0)
(0.001980526272662752 0 0)
(0.002425479885518216 0 0)
(0.002793539035980725 0 0)
(0.003202233123244543 0 0)
(0.003601489972053878 0 0)
(0.003991300046152524 0 0)
(0.004357932969967046 0 0)
(0.004722773134281683 0 0)
(0.005094091075740536 0 0)
(0.005363533015180296 0 0)
(0.005688114238726914 0 0)
(0.005933122807993809 0 0)
(0.006145173465474938 0 0)
(0.006273765864113246 0 0)
(0.006418170891773776 0 0)
(0.006464829738756365 0 0)
(0.006400463324955359 0 0)
(0.006384150001319138 0 0)
(0.006209358602220109 0 0)
(0.005999469175900243 0 0)
(0.00573671366900215 0 0)
(0.005442199937260022 0 0)
(0.004986707423788378 0 0)
(0.004621168933261523 0 0)
(0.004218341084884102 0 0)
(0.003818581126317838 0 0)
(0.003413564154016349 0 0)
(0.003027145104185974 0 0)
(0.002654457254285146 0 0)
(0.002244025171499876 0 0)
(0.001922275583367099 0 0)
(0.001541287207807655 0 0)
(0.00123410278279702 0 0)
(0.0009429918894691494 0 0)
(0.0006767718148902624 0 0)
(0.0004514383937196777 0 0)
(0.000285374724667619 0 0)
(0.0001723881884327438 0 0)
(9.327369284353778e-05 0 0)
(0.0001139454450333578 0 0)
(0.0001457161749105057 0 0)
(0.0003083488279438893 0 0)
(0.0004852724522995146 0 0)
(0.0007492181371319024 0 0)
(0.001069067150558451 0 0)
(0.00150626375566621 0 0)
(0.001863025913952023 0 0)
(0.002271263266675278 0 0)
(0.002690270253838879 0 0)
(0.003052516306052899 0 0)
(0.003463115963137565 0 0)
(0.00382800522805553 0 0)
(0.00423521274565012 0 0)
(0.004551070194738485 0 0)
(0.004933722074246135 0 0)
(0.005240961650719068 0 0)
(0.005537658180258003 0 0)
(0.00579632959278206 0 0)
(0.006026730550585634 0 0)
(0.006223680582744053 0 0)
(0.006304766471994413 0 0)
(0.006437135297897113 0 0)
(0.006402792316193805 0 0)
(0.006394804626032533 0 0)
(0.006248688596454453 0 0)
(0.006089889934064622 0 0)
(0.00584283182644098 0 0)
(0.005533586028798288 0 0)
(0.005140098151364921 0 0)
(0.004736653895741849 0 0)
(0.004365157812518138 0 0)
(0.003950854513611147 0 0)
(0.003574875453653122 0 0)
(0.003168423518059515 0 0)
(0.002806527765963584 0 0)
(0.002411658848551018 0 0)
(0.002068182389143637 0 0)
(0.00171661186972291 0 0)
(0.00136829129584694 0 0)
(0.001105556695419409 0 0)
(0.0008116249313070467 0 0)
(0.0005769601368904273 0 0)
(0.0003901410616440111 0 0)
(0.0002613617824099778 0 0)
(0.0001410543420978699 0 0)
(0.0001441016407264177 0 0)
(0.0001667803378701318 0 0)
(0.000256434504876688 0 0)
(0.0004333589505222494 0 0)
(0.0006755845807663497 0 0)
(0.0009768289178453638 0 0)
(0.001365537729208595 0 0)
(0.001764375575962265 0 0)
(0.002162862974923541 0 0)
(0.002538567248113061 0 0)
(0.00293314848610521 0 0)
(0.003330609756109676 0 0)
(0.00369786234702965 0 0)
(0.00406715308522163 0 0)
(0.004438660713060229 0 0)
(0.00478167022457524 0 0)
(0.005099271996923857 0 0)
(0.005415371164136844 0 0)
(0.005673310652962215 0 0)
(0.005909898724301321 0 0)
(0.006124086780572688 0 0)
(0.006249808354033571 0 0)
(0.006355575705728578 0 0)
(0.006395869250366752 0 0)
(0.00638175417226887 0 0)
(0.006289201164758546 0 0)
(0.006142394711496258 0 0)
(0.005923816568746115 0 0)
(0.005646961109033981 0 0)
(0.005273709794649408 0 0)
(0.004871306762864402 0 0)
(0.004481930057669389 0 0)
(0.004102108482034159 0 0)
(0.003700005926247101 0 0)
(0.003324600504207768 0 0)
(0.002927573161110074 0 0)
(0.002575759954023038 0 0)
(0.002186197912037553 0 0)
(0.001858185778703861 0 0)
(0.001505723005611055 0 0)
(0.001202737468438292 0 0)
(0.0009232614954658599 0 0)
(0.0006464472138741303 0 0)
(0.0004493025429977324 0 0)
(0.0002536544285479655 0 0)
(0.0001292862934698647 0 0)
(2.072371940994957e-05 0 0)
(4.257144766086246e-08 0 0)
(-7.951891116841269e-14 0 0)
(-1.583708472094882e-13 0 0)
(-8.207236304753331e-14 0 0)
(-1.156459952966843e-13 0 0)
(-9.167015680909067e-14 0 0)
(-4.539333527040014e-14 0 0)
(-1.096010353976874e-13 0 0)
(-3.898893911167144e-14 0 0)
(-7.271461096030916e-16 0 0)
(-7.60291677749054e-14 0 0)
(-4.742517742149943e-14 0 0)
(3.761905245648981e-14 0 0)
(-1.085090432257026e-13 0 0)
(1.389299239970195e-14 0 0)
(-5.562952098261297e-14 0 0)
(-1.290278671962521e-14 0 0)
(-5.034732805209019e-14 0 0)
(-4.941433643724131e-14 0 0)
(-1.474318268932597e-14 0 0)
(-1.228255879319761e-14 0 0)
(-6.973019994386433e-14 0 0)
(-2.044447316648038e-14 0 0)
(-7.132236945550447e-15 0 0)
(-7.787171392455981e-14 0 0)
(-3.011593736756368e-14 0 0)
(-1.607607772382355e-15 0 0)
(-6.616128831948072e-14 0 0)
(-2.497075929311753e-14 0 0)
(-3.931563732308142e-14 0 0)
(-1.436652127164737e-14 0 0)
(-9.561825864356251e-14 0 0)
(-1.327812604092711e-14 0 0)
(-5.716829810585018e-14 0 0)
(-5.918578402729822e-14 0 0)
(3.598088884504777e-15 0 0)
(-3.157371394503659e-14 0 0)
(-2.957401343535848e-14 0 0)
(-7.584051127455705e-14 0 0)
(-8.228648905861786e-17 0 0)
(-2.146468419026284e-14 0 0)
(-5.250071758658059e-14 0 0)
(-3.565861284114288e-14 0 0)
(2.331922553628219e-14 0 0)
(-8.747374412847209e-14 0 0)
(4.878781604603152e-16 0 0)
(2.113026517823363e-14 0 0)
(-1.161482797221161e-13 0 0)
(-1.975842206639878e-14 0 0)
(-1.922961151473356e-14 0 0)
(-6.929245274878957e-14 0 0)
(-3.577887428123999e-14 0 0)
(-3.48716376855049e-14 0 0)
(-4.517810260848358e-14 0 0)
(-3.448296204841143e-14 0 0)
(-6.077534549926872e-14 0 0)
(-3.322160072528987e-14 0 0)
(-4.783445916367956e-14 0 0)
(-5.169059545150231e-14 0 0)
(-6.273128778362031e-14 0 0)
(-2.913647889392287e-14 0 0)
(-8.174117444625256e-14 0 0)
(3.428285944788019e-15 0 0)
(-1.037732715583719e-13 0 0)
(-4.960491838198963e-14 0 0)
(-5.996873359391258e-14 0 0)
(-5.00218726897801e-14 0 0)
(-8.861763883336807e-14 0 0)
(-4.271006703538549e-14 0 0)
(-3.669081906128505e-14 0 0)
(-7.342128457048004e-14 0 0)
(-6.328975427849521e-14 0 0)
(-3.108321386265265e-14 0 0)
(-2.497976089622994e-14 0 0)
(-1.11046766743476e-13 0 0)
(-4.102466513440726e-15 0 0)
(-5.346949087829122e-14 0 0)
(-6.073377360696582e-14 0 0)
(-2.240486968763214e-14 0 0)
(-3.521273522074916e-14 0 0)
(-6.526991169113166e-14 0 0)
(-2.501810751858655e-14 0 0)
(-5.160338298368021e-14 0 0)
(-6.612202742514362e-14 0 0)
(-4.374629884455653e-14 0 0)
(-5.625355670362327e-14 0 0)
(-3.245887865132072e-14 0 0)
(-5.516212478546305e-14 0 0)
(-3.982288388033794e-14 0 0)
(-2.627046723859418e-14 0 0)
(-8.000495701399419e-14 0 0)
(2.995882610173653e-14 0 0)
(-7.77739961158855e-14 0 0)
(-6.427241899900433e-14 0 0)
(4.996444777122103e-14 0 0)
(-1.161724948504009e-13 0 0)
(1.111874237882015e-14 0 0)
(-3.555870869943492e-14 0 0)
(-9.314556733766183e-15 0 0)
(-7.223131370117742e-14 0 0)
(-4.597837098572044e-14 0 0)
(1.964086591927314e-15 0 0)
(-6.454897236277688e-14 0 0)
(-4.035255172754089e-14 0 0)
(-2.502432638177403e-14 0 0)
(-5.657018516306478e-14 0 0)
(-3.205242274325963e-14 0 0)
(-5.402470289127693e-14 0 0)
(-3.34857233038112e-14 0 0)
(-2.187670557817237e-14 0 0)
(-8.567084442672684e-14 0 0)
(-1.067782689025644e-14 0 0)
(-1.58739640136771e-14 0 0)
(-7.844817668454337e-14 0 0)
(-1.016306858538934e-14 0 0)
(-2.036300087876179e-14 0 0)
(-4.826315472031681e-14 0 0)
(-5.053641320019798e-14 0 0)
(6.536702830496303e-15 0 0)
(-6.114601278932591e-14 0 0)
(-4.084669184538366e-14 0 0)
(-4.424986921328142e-14 0 0)
(3.006279892667015e-14 0 0)
(-3.9895957912961e-14 0 0)
(-8.131907122443783e-14 0 0)
(6.499199621426359e-15 0 0)
(-7.12852948941991e-14 0 0)
(3.125323459681682e-14 0 0)
(-4.803147776605196e-14 0 0)
(-5.867814497535125e-14 0 0)
(-3.059661470436932e-14 0 0)
(7.804324310686378e-15 0 0)
(-8.151266064467064e-14 0 0)
(-6.877786483492734e-15 0 0)
(-1.64375742817618e-14 0 0)
(-3.633798027719786e-14 0 0)
(-4.465853732582075e-15 0 0)
(-4.636468044871908e-14 0 0)
(-3.065919033726117e-14 0 0)
(-1.146025861789908e-15 0 0)
(-3.792925634023588e-14 0 0)
(-3.827747312839357e-14 0 0)
(-5.640247542686892e-14 0 0)
(5.73896144535553e-15 0 0)
(-6.581269291886534e-14 0 0)
(-7.564761653154213e-14 0 0)
(-2.950239310516036e-14 0 0)
(-4.801117958211206e-15 0 0)
(-9.278533905469399e-14 0 0)
(-3.233204868741645e-15 0 0)
(-6.720575756574489e-14 0 0)
(-5.291740406460218e-14 0 0)
(-1.840689083528446e-14 0 0)
(-3.090205522766706e-14 0 0)
(-3.463733366850729e-14 0 0)
(-5.090450860365679e-14 0 0)
(-6.133626210265299e-16 0 0)
(-3.228668366606083e-14 0 0)
(-1.069788390578191e-13 0 0)
(3.232765915146325e-14 0 0)
(-9.12347344942257e-14 0 0)
(-6.166928989043626e-15 0 0)
(-8.920829006385508e-14 0 0)
(-7.429097486294914e-14 0 0)
(1.544003849544382e-14 0 0)
(-1.039306006186347e-13 0 0)
(-4.804775944008439e-14 0 0)
(-1.660993702614248e-14 0 0)
(-6.077769959142444e-14 0 0)
(-7.629650174111553e-14 0 0)
(-5.117224020537662e-14 0 0)
(-1.475561347457167e-14 0 0)
(-6.208109760768154e-14 0 0)
(-6.504697545133243e-14 0 0)
(-3.455843326739355e-14 0 0)
(-6.113722203953204e-14 0 0)
(-3.650991437381767e-14 0 0)
(-4.607463509197053e-14 0 0)
(-7.661998162371377e-14 0 0)
(-1.316343008068641e-14 0 0)
(-8.273395201292625e-14 0 0)
(-5.073427701617207e-14 0 0)
(-3.710669827910563e-14 0 0)
(-4.043402401525805e-14 0 0)
(-7.701165779517409e-14 0 0)
(-4.522550086927062e-14 0 0)
(-6.316328091633772e-14 0 0)
(-4.084326266324279e-14 0 0)
(-8.395374144375283e-14 0 0)
(-6.808658575903581e-14 0 0)
(-4.581440649642936e-14 0 0)
(-8.544451001705023e-14 0 0)
(-5.198986020581149e-14 0 0)
(-6.239305403587828e-14 0 0)
(-7.186515068323112e-14 0 0)
(-6.670882776684807e-14 0 0)
(-3.571518740529685e-14 0 0)
(-7.437034700602889e-14 0 0)
(-8.045065993414605e-14 0 0)
(-4.325388025890383e-14 0 0)
(-4.340931308673545e-14 0 0)
(-8.004978338818376e-14 0 0)
(-7.042923514188541e-14 0 0)
(-2.692541563416778e-14 0 0)
(-9.206075274976056e-14 0 0)
(-2.935878591425211e-14 0 0)
(-7.914679017592795e-14 0 0)
(-5.486036919212918e-14 0 0)
(-2.993777926694572e-14 0 0)
(-7.799345827903575e-14 0 0)
(-4.247170641709262e-14 0 0)
(-2.988801303175327e-14 0 0)
(-7.581115237306849e-14 0 0)
(-1.483579981899087e-14 0 0)
(-1.206220289555637e-13 0 0)
(-1.400809798465156e-14 0 0)
(-5.413227265748069e-14 0 0)
(-9.672941530013448e-14 0 0)
(-1.269954925406476e-14 0 0)
(-6.925983936541382e-14 0 0)
(-5.695756971604653e-14 0 0)
(-1.280754766803455e-14 0 0)
(-8.100699707243171e-14 0 0)
(-5.714082849566896e-14 0 0)
(2.603768598240483e-14 0 0)
(-7.037292840750482e-14 0 0)
(-6.232654646662227e-14 0 0)
(1.045909093974612e-14 0 0)
(-5.603014358105864e-14 0 0)
(-3.88011399068587e-14 0 0)
(-7.710063488938605e-14 0 0)
(-7.071811492618255e-15 0 0)
(-6.402521245480081e-14 0 0)
(-5.280216867391329e-14 0 0)
(-3.821760612897235e-14 0 0)
(-2.746840771522733e-14 0 0)
(-6.489456722901462e-14 0 0)
(-4.247740350300144e-14 0 0)
(-5.922932445818714e-14 0 0)
(-6.420427788626359e-14 0 0)
(-2.734772456849217e-14 0 0)
(-7.542955803550671e-14 0 0)
(-2.852487215784692e-14 0 0)
(-3.466733901221429e-14 0 0)
(-6.780515645182318e-14 0 0)
(-5.551199918825018e-14 0 0)
(-5.086486909687549e-14 0 0)
(-3.519340297702745e-14 0 0)
(-3.009086494373953e-14 0 0)
(-5.254382936969178e-14 0 0)
(-6.754227672240628e-14 0 0)
(-1.102739378423676e-15 0 0)
(-5.667437578244961e-14 0 0)
(-3.58644152521863e-14 0 0)
(-5.69185266161585e-14 0 0)
(-2.397776393199073e-14 0 0)
(-2.863249195937147e-14 0 0)
(-5.84388718854003e-14 0 0)
(-3.208263894028597e-14 0 0)
(-1.845827159090843e-14 0 0)
(-6.536981583284141e-14 0 0)
(-2.007509876084987e-14 0 0)
(-2.631164843650879e-14 0 0)
(-4.974430635328528e-14 0 0)
(-3.188819222451929e-14 0 0)
(-5.120694859258646e-14 0 0)
(-2.105598779006825e-15 0 0)
(-6.230169183725059e-14 0 0)
(-2.149811177498526e-14 0 0)
(-9.449373174885114e-15 0 0)
(-4.800550495250278e-14 0 0)
(-2.305809655100814e-14 0 0)
(-3.44868629725136e-14 0 0)
(-3.060536235996462e-14 0 0)
(-3.115479109865463e-14 0 0)
(-3.260012994975749e-14 0 0)
(-1.627917707263278e-14 0 0)
(-5.664218410571113e-14 0 0)
(-1.677867181700421e-14 0 0)
(-3.358987082899315e-14 0 0)
(-6.658025478321394e-15 0 0)
(-4.257702370196867e-15 0 0)
(-6.052197012718705e-14 0 0)
(3.357791178571486e-14 0 0)
(-7.665749691471506e-14 0 0)
(-3.617975082720002e-14 0 0)
(-6.516077702351939e-15 0 0)
(-5.196800611080061e-14 0 0)
(-3.518783055605715e-14 0 0)
(-5.055561479145768e-15 0 0)
(-4.442888460942963e-14 0 0)
(-1.996019194728401e-14 0 0)
(6.086742644623512e-15 0 0)
(-3.164292320663307e-14 0 0)
(-5.662059089935e-14 0 0)
(-3.013907740586394e-14 0 0)
(1.237646186616817e-14 0 0)
(-3.208731097153201e-14 0 0)
(-3.862340351288751e-14 0 0)
(2.877850327775593e-14 0 0)
(-4.839674039425755e-14 0 0)
(-1.431740147866702e-14 0 0)
(-8.092699803484031e-16 0 0)
(-4.700436014298396e-14 0 0)
(7.053808286395152e-15 0 0)
(-5.267618906442085e-15 0 0)
(-1.866106832676476e-14 0 0)
(-2.534014063987777e-14 0 0)
(3.729483084609145e-15 0 0)
(-8.159081598038641e-15 0 0)
(-3.855676613789406e-14 0 0)
(-1.965937522022334e-14 0 0)
(3.310988885995417e-15 0 0)
(-1.86139240134948e-14 0 0)
(1.600154347807293e-14 0 0)
(-4.133355189230876e-14 0 0)
(-8.357120114260144e-15 0 0)
(3.145855318395607e-14 0 0)
(-2.483185514571311e-14 0 0)
(-2.350741029466651e-14 0 0)
(2.18820240516325e-14 0 0)
(-3.050220373636741e-14 0 0)
(5.646772963453976e-15 0 0)
(-3.600399882466803e-15 0 0)
(1.430866076419413e-14 0 0)
(-4.564893637635875e-15 0 0)
(-3.013312637244357e-14 0 0)
(-2.618556304413491e-15 0 0)
(2.923056180795724e-14 0 0)
(-8.915213137498521e-15 0 0)
(-1.40824579605809e-14 0 0)
(-5.143295724246585e-15 0 0)
(1.326098013023897e-14 0 0)
(2.036621920757782e-14 0 0)
(-1.768804471044901e-14 0 0)
(-1.792959264529272e-14 0 0)
(2.910130570587829e-14 0 0)
(1.690016916507787e-14 0 0)
(-3.155523899685264e-14 0 0)
(4.376515934631486e-14 0 0)
(-2.032400087306642e-14 0 0)
(-2.997425048023166e-14 0 0)
(6.355602009584522e-14 0 0)
(-5.184859502512152e-14 0 0)
(-5.599889538823383e-15 0 0)
(-3.474426393362142e-14 0 0)
(5.921102421025213e-14 0 0)
(-3.107571599728717e-14 0 0)
(9.595246822104695e-16 0 0)
(3.275360812124837e-14 0 0)
(-5.874199961042474e-14 0 0)
(5.660211595115668e-14 0 0)
(-2.752095669034478e-14 0 0)
(1.123299580904776e-14 0 0)
(-8.720984216175348e-15 0 0)
(-3.448447092697071e-14 0 0)
(2.753408215281157e-14 0 0)
(-1.348482884169639e-14 0 0)
(1.585917913627151e-14 0 0)
(-2.346931067870229e-14 0 0)
(1.251668810994487e-14 0 0)
(-2.997600816549555e-14 0 0)
(6.159388029484035e-15 0 0)
(-4.332741909237202e-14 0 0)
(3.978825886417196e-14 0 0)
(-1.683223890565896e-14 0 0)
(-3.709770361711535e-14 0 0)
(6.133826109012182e-14 0 0)
(-6.333688650982993e-14 0 0)
(3.366444165824618e-14 0 0)
(-8.448473832845621e-14 0 0)
(2.602225466278659e-14 0 0)
(7.669017104546159e-15 0 0)
(-4.935909091059373e-14 0 0)
(1.899720192986533e-14 0 0)
(-5.270619440811744e-15 0 0)
(-4.121420144713191e-15 0 0)
(-5.120458755930233e-14 0 0)
(1.580839478754229e-14 0 0)
(-5.448815494811239e-15 0 0)
(-2.599053472800743e-14 0 0)
(-8.630081677575488e-15 0 0)
(-3.868216441006771e-14 0 0)
(1.973720053136044e-14 0 0)
(-3.135869213644251e-14 0 0)
(-2.245146068820205e-14 0 0)
(-1.879765453508443e-14 0 0)
(1.220927390725108e-14 0 0)
(-5.695028270399736e-14 0 0)
(7.586912256862735e-15 0 0)
(-4.538326551843324e-14 0 0)
(-2.430728797751964e-14 0 0)
(3.452088696412605e-14 0 0)
(-8.905070011494912e-14 0 0)
(3.063214937485418e-14 0 0)
(-6.465958575754544e-14 0 0)
(4.60835482124937e-15 0 0)
(-4.38652743413455e-14 0 0)
(-1.262129529516126e-14 0 0)
(-3.881184915991342e-14 0 0)
(1.022842695820717e-14 0 0)
(-4.113464399861451e-14 0 0)
(-1.940365783792442e-14 0 0)
(-1.428808567136818e-14 0 0)
(-3.567811284399018e-14 0 0)
(9.762577593001348e-15 0 0)
(-3.579670278721163e-14 0 0)
(-1.652378970436049e-15 0 0)
(-1.300590224902892e-14 0 0)
(-2.200767627132238e-14 0 0)
(-2.872939042589932e-14 0 0)
(2.306560829862349e-14 0 0)
(-2.522481726047849e-14 0 0)
(2.087985932826874e-14 0 0)
(9.573865841872088e-16 0 0)
(8.987424733780021e-15 0 0)
(-3.403859963179594e-15 0 0)
(-4.553966590131591e-15 0 0)
(5.154847991640861e-14 0 0)
(-3.383604537742077e-14 0 0)
(1.541176725792145e-16 0 0)
(1.684021545411003e-14 0 0)
(1.381448449328147e-14 0 0)
(-1.478801600463119e-14 0 0)
(2.084943227792044e-14 0 0)
(2.660322169487332e-14 0 0)
(1.884240166200252e-14 0 0)
(6.975125679724001e-15 0 0)
(5.10551970940968e-14 0 0)
(-5.918940795954079e-16 0 0)
(6.152151052760949e-15 0 0)
(2.546104158105649e-14 0 0)
(1.166713912172632e-14 0 0)
(3.82654278967164e-14 0 0)
(3.26582082516546e-14 0 0)
(5.072968278474998e-15 0 0)
(3.925452233373962e-14 0 0)
(3.655171100168465e-14 0 0)
(1.172092400482767e-14 0 0)
(3.620889887537303e-14 0 0)
(1.163071100263533e-14 0 0)
(4.647380398798435e-14 0 0)
(1.785823320373647e-14 0 0)
(2.853002287218e-14 0 0)
(2.956780151329255e-14 0 0)
(1.217949329911585e-14 0 0)
(1.588210832125518e-14 0 0)
(2.487021565031889e-14 0 0)
(4.073222756183309e-14 0 0)
(1.838580090629884e-14 0 0)
(6.468040879940536e-16 0 0)
(5.465017921575817e-15 0 0)
(-2.506271412771315e-15 0 0)
(6.719161218942289e-14 0 0)
(-4.532733045537153e-14 0 0)
(3.933299408709397e-14 0 0)
(-2.086335985979231e-14 0 0)
(8.097334048734177e-15 0 0)
(3.817409671035319e-14 0 0)
(-1.769576037025932e-14 0 0)
(-4.564471930991415e-15 0 0)
(3.402187090284111e-14 0 0)
(-3.051450985668414e-14 0 0)
(-2.648724673245741e-14 0 0)
(1.027711810342015e-14 0 0)
(1.732874005678319e-14 0 0)
(-3.427185324585041e-14 0 0)
(-1.272569676786621e-14 0 0)
(8.300172078472214e-15 0 0)
(1.07574983985172e-14 0 0)
(-5.763196113802229e-14 0 0)
(4.597253073496465e-15 0 0)
(-2.718067951426809e-15 0 0)
(-2.589149482295546e-14 0 0)
(1.736302493703851e-14 0 0)
(-5.403734452984794e-14 0 0)
(-2.837012192530274e-14 0 0)
(-1.448141420296384e-14 0 0)
(7.101374306309218e-15 0 0)
(-6.341883053950985e-14 0 0)
(-3.328095802936702e-14 0 0)
(-2.494954469920262e-14 0 0)
(-5.290952758679025e-14 0 0)
(-2.515448287358572e-14 0 0)
(-4.684896860903581e-14 0 0)
(-6.551406252483878e-14 0 0)
(-6.703498294718047e-15 0 0)
(-8.817775534058966e-14 0 0)
(-5.452012895242429e-14 0 0)
(-1.608151716885659e-14 0 0)
(-1.135648224993012e-13 0 0)
(-2.953029830422208e-14 0 0)
(-6.350047752748053e-14 0 0)
(-1.050533238238082e-13 0 0)
(-3.611868587318092e-14 0 0)
(-1.472734941248316e-13 0 0)
(-1.987254389057379e-14 0 0)
(-1.185961757912677e-13 0 0)
(-1.116464195770733e-13 0 0)
(-1.049735661271661e-13 0 0)
(-5.092525145560534e-14 0 0)
(-1.385178394748254e-13 0 0)
(-1.345707196008249e-13 0 0)
(-5.518338247357608e-14 0 0)
(-1.82765179895696e-13 0 0)
(-1.048131985791177e-13 0 0)
(-1.522375566584933e-13 0 0)
(-1.296131247370537e-13 0 0)
(-9.492753371191584e-14 0 0)
(-1.756373971869453e-13 0 0)
(-1.529471402915678e-13 0 0)
(-1.548615106836117e-13 0 0)
(-9.348202016056466e-14 0 0)
(-2.117790053039852e-13 0 0)
(-2.003639125168246e-13 0 0)
(-1.461189263199651e-13 0 0)
(-1.507156645572771e-13 0 0)
(-2.216676276113797e-13 0 0)
(-1.596135640249782e-13 0 0)
(-1.414245156915944e-13 0 0)
(-2.559370767297561e-13 0 0)
(-1.039924051443879e-13 0 0)
(-2.388431003499932e-13 0 0)
(-2.088853131851301e-13 0 0)
(-2.154823098625417e-13 0 0)
(-1.469392911069284e-13 0 0)
(-2.368459786680329e-13 0 0)
(-2.286669614782675e-13 0 0)
(-1.464678693207531e-13 0 0)
(-2.65809105915991e-13 0 0)
(-1.765906529706182e-13 0 0)
(-2.374949190537497e-13 0 0)
(-2.470915946311271e-13 0 0)
(-2.058195863759655e-13 0 0)
(-2.294919167257411e-13 0 0)
(-2.657860905426283e-13 0 0)
(-1.991073042725096e-13 0 0)
(-2.537813761972942e-13 0 0)
(-2.816217440870089e-13 0 0)
(-1.930518890680051e-13 0 0)
(-2.787626338901473e-13 0 0)
(-2.791956590186466e-13 0 0)
(-2.785280759256414e-13 0 0)
(-2.34475479262205e-13 0 0)
(-3.026180000843403e-13 0 0)
(-2.795821862761056e-13 0 0)
(-2.664528163401081e-13 0 0)
(-2.767308348332411e-13 0 0)
(-2.510620223025599e-13 0 0)
(-3.659000387030276e-13 0 0)
(-2.566597616614313e-13 0 0)
(-2.713870982656121e-13 0 0)
(-3.448922092159201e-13 0 0)
(-2.729783673875326e-13 0 0)
(-3.059277512620313e-13 0 0)
(-2.846036737283133e-13 0 0)
(-3.445239391122744e-13 0 0)
(-2.984259100344764e-13 0 0)
(-3.168576124049415e-13 0 0)
(-2.933675588742222e-13 0 0)
(-3.213641807342989e-13 0 0)
(-3.184103171100423e-13 0 0)
(-3.190371856063031e-13 0 0)
(-2.968255892741317e-13 0 0)
(-2.873175052373837e-13 0 0)
(-3.473424955303731e-13 0 0)
(-3.174505815745045e-13 0 0)
(-3.132488504204641e-13 0 0)
(-3.174186076921618e-13 0 0)
(-3.47327078092996e-13 0 0)
(-2.859411940065045e-13 0 0)
(-3.427825348126334e-13 0 0)
(-3.391066998642383e-13 0 0)
(-2.679825918602151e-13 0 0)
(-3.473446888045275e-13 0 0)
(-3.332083959254677e-13 0 0)
(-3.072353926617738e-13 0 0)
(-3.081953821448228e-13 0 0)
(-3.213577510177765e-13 0 0)
(-3.224058602994962e-13 0 0)
(-2.867448864250686e-13 0 0)
(-3.439247510795089e-13 0 0)
(-3.331732175966728e-13 0 0)
(-2.836576910744028e-13 0 0)
(-3.44874845510775e-13 0 0)
(-3.366999039454315e-13 0 0)
(-3.244554878623658e-13 0 0)
(-3.122832885164288e-13 0 0)
(-3.533482876645526e-13 0 0)
(-3.051866223944239e-13 0 0)
(-3.503568346428617e-13 0 0)
(-3.265493022982925e-13 0 0)
(-3.630823205574006e-13 0 0)
(-3.07698459287051e-13 0 0)
(-3.361944081323078e-13 0 0)
(-3.142574810133896e-13 0 0)
(-3.445496510371708e-13 0 0)
(-3.462425768452685e-13 0 0)
(-2.470849471201727e-13 0 0)
(-3.901841797011209e-13 0 0)
(-3.295428054293133e-13 0 0)
(-3.167667098663415e-13 0 0)
(-3.228719205180251e-13 0 0)
(-2.980704493284662e-13 0 0)
(-3.602452891911163e-13 0 0)
(-3.011611169554698e-13 0 0)
(-3.085060025943998e-13 0 0)
(-3.598883316884275e-13 0 0)
(-3.008275552389735e-13 0 0)
(-3.205622029067886e-13 0 0)
(-3.341404440564371e-13 0 0)
(-2.868048832302453e-13 0 0)
(-3.275803903343088e-13 0 0)
(-2.762194987693995e-13 0 0)
(-2.960122557513657e-13 0 0)
(-3.484295617235961e-13 0 0)
(-2.931422115658395e-13 0 0)
(-3.167724931406425e-13 0 0)
(-2.930401280322731e-13 0 0)
(-2.94857855705624e-13 0 0)
(-3.267638023296606e-13 0 0)
(-2.705220230279512e-13 0 0)
(-3.062642513956634e-13 0 0)
(-2.632122795647788e-13 0 0)
(-3.327592137879222e-13 0 0)
(-2.608727984754496e-13 0 0)
(-3.206063035914998e-13 0 0)
(-2.931035540195487e-13 0 0)
(-2.630229766222475e-13 0 0)
(-2.814921822017832e-13 0 0)
(-2.501321920401126e-13 0 0)
(-3.278353941090327e-13 0 0)
(-2.247938090854998e-13 0 0)
(-3.058824462047639e-13 0 0)
(-2.957197131376441e-13 0 0)
(-2.753006094366536e-13 0 0)
(-2.865737234356032e-13 0 0)
(-2.79008803820932e-13 0 0)
(-3.072374928064089e-13 0 0)
(-2.377361560646222e-13 0 0)
(-2.97716245353808e-13 0 0)
(-3.304938577500318e-13 0 0)
(-2.422817674938683e-13 0 0)
(-2.926340715600088e-13 0 0)
(-2.743382658614785e-13 0 0)
(-2.5603024717212e-13 0 0)
(-2.671996061405466e-13 0 0)
(-2.738736954984496e-13 0 0)
(-2.296913779321222e-13 0 0)
(-2.9082516564873e-13 0 0)
(-2.271332109275963e-13 0 0)
(-2.650809732282614e-13 0 0)
(-2.528656551580686e-13 0 0)
(-2.352884416368383e-13 0 0)
(-2.966311254283575e-13 0 0)
(-1.966943900843293e-13 0 0)
(-2.985683749700504e-13 0 0)
(-2.294804386890202e-13 0 0)
(-2.570721083787101e-13 0 0)
(-1.884043808873352e-13 0 0)
(-2.915501375072103e-13 0 0)
(-2.371543887134522e-13 0 0)
(-2.147413246829232e-13 0 0)
(-2.330330186040644e-13 0 0)
(-2.434360067215917e-13 0 0)
(-2.345726460816929e-13 0 0)
(-1.816157772105683e-13 0 0)
(-2.667493989482714e-13 0 0)
(-2.458374049196958e-13 0 0)
(-2.076714525169442e-13 0 0)
(-2.560264101655885e-13 0 0)
(-1.984529420949815e-13 0 0)
(-2.35543576494501e-13 0 0)
(-1.985052301814491e-13 0 0)
(-2.613411803264146e-13 0 0)
(-1.510433706933612e-13 0 0)
(-2.47960796051619e-13 0 0)
(-2.691587375417404e-13 0 0)
(-1.623081225902532e-13 0 0)
(-2.14196414098591e-13 0 0)
(-2.200177051272104e-13 0 0)
(-2.234800650989081e-13 0 0)
(-1.831620591402858e-13 0 0)
(-1.960815130875131e-13 0 0)
(-1.629028132920152e-13 0 0)
(-2.406162908254362e-13 0 0)
(-1.613211352389869e-13 0 0)
(-1.91875713250222e-13 0 0)
(-1.718608791243029e-13 0 0)
(-1.725462045348935e-13 0 0)
(-1.767739085025107e-13 0 0)
(-1.434603370897712e-13 0 0)
(-2.020925236245179e-13 0 0)
(-1.305481632134545e-13 0 0)
(-1.874315097004404e-13 0 0)
(-1.581857343673171e-13 0 0)
(-1.440487588930312e-13 0 0)
(-1.474897365117116e-13 0 0)
(-1.597847260901449e-13 0 0)
(-1.407761684650233e-13 0 0)
(-7.239884087171332e-14 0 0)
(-2.014497274723788e-13 0 0)
(-1.295333206984416e-13 0 0)
(-1.398103887665592e-13 0 0)
(-1.154290017017467e-13 0 0)
(-1.505377210033575e-13 0 0)
(-1.464172081894839e-13 0 0)
(-9.343696760336541e-14 0 0)
(-1.394588859610887e-13 0 0)
(-9.698847242842e-14 0 0)
(-1.326034132326207e-13 0 0)
(-1.117786316718824e-13 0 0)
(-1.229408713873945e-13 0 0)
(-1.394050579837968e-13 0 0)
(-7.20857295831026e-14 0 0)
(-9.743568602743319e-14 0 0)
(-1.301597243938714e-13 0 0)
(-8.331250652896739e-14 0 0)
(-1.408254629582483e-13 0 0)
(-1.05250676496986e-13 0 0)
(-9.758144159798955e-14 0 0)
)
;

boundaryField
{
    inlet
    {
        type            calculated;
        value           uniform (-8.041477527040219e-05 0 0);
    }
    outlet
    {
        type            calculated;
        value           uniform (-9.758144159798955e-14 0 0);
    }
    frontAndBack
    {
        type            empty;
    }
}


// ************************************************************************* //
