/*--------------------------------*- C++ -*----------------------------------*\
| =========                 |                                                 |
| \\      /  F ield         | OpenFOAM: The Open Source CFD Toolbox           |
|  \\    /   O peration     | Version:  v2012                                 |
|   \\  /    A nd           | Website:  www.openfoam.com                      |
|    \\/     M anipulation  |                                                 |
\*---------------------------------------------------------------------------*/
FoamFile
{
    version     2.0;
    format      ascii;
    class       volScalarField;
    location    "0.004";
    object      p;
}
// * * * * * * * * * * * * * * * * * * * * * * * * * * * * * * * * * * * * * //

dimensions      [1 -1 -2 0 0 0 0];


internalField   nonuniform List<scalar> 
1000
(
101312.7452979084
101314.7642244979
101307.8896503712
101301.47730894
101295.1490890589
101290.5868431779
101286.6855720807
101282.2942256828
101278.0224569651
101276.0652501757
101273.3200905359
101273.1152055641
101275.2781401388
101278.6080379716
101281.3929053236
101282.9740431069
101282.3113129621
101284.1626688471
101291.4810213375
101302.5531705762
101312.0731523818
101317.9499612506
101320.7771385191
101322.6877935293
101328.0119128536
101339.2252457916
101352.1379031739
101360.0540311539
101363.9149075117
101365.1157670855
101365.4361533489
101368.4275123116
101373.4022916115
101376.2442016517
101379.1145441767
101379.3834522769
101376.8421990074
101371.9537998222
101366.3374211341
101362.2074963955
101360.7250345674
101360.4690428917
101358.277330038
101351.6136854236
101340.0787426782
101327.2763623467
101318.5430871698
101314.2697157806
101311.5314960812
101307.4214612942
101300.1063221385
101289.7569652144
101279.6054592291
101274.4339644026
101273.142058777
101273.3746415297
101273.8378818511
101274.2067451375
101274.13805531
101274.3063198513
101275.1316259159
101276.8020316809
101279.3842710928
101282.9030265559
101287.4832119729
101293.1933810012
101300.0144845023
101308.0414993289
101317.2641850316
101326.8117625107
101334.9813457791
101341.0224645331
101346.1434151267
101352.7781197804
101363.0526643647
101373.2161067626
101376.5190905511
101376.6845910832
101376.4920589429
101376.3445058963
101376.1662014486
101375.9016624004
101375.3914727808
101374.6077641441
101373.5519058607
101372.4740659668
101371.0054106121
101368.0273573076
101362.0951463622
101352.6974385308
101341.9487924
101333.0718189078
101326.6367830102
101321.1476631886
101314.8693014716
101306.006764934
101293.0327317447
101279.0560339413
101272.7027317361
101271.9417061055
101271.8210208724
101271.8799607659
101272.1351509585
101272.5630517669
101273.0572535608
101273.6638696247
101274.5054981684
101275.5872578824
101276.8793957669
101278.4411476961
101280.4439665143
101283.575737411
101289.309741663
101299.3833980931
101313.3871649575
101326.3263020473
101334.4521647616
101340.0085589366
101346.7629433773
101358.5456349296
101372.2386178469
101377.4157969247
101377.7453647707
101377.7420684176
101377.6239332759
101377.4528358045
101377.1244741877
101376.4750667715
101375.5273516707
101374.6459042315
101374.0540801866
101373.6366583547
101373.2442030887
101372.501223199
101370.7325153683
101366.7772390326
101358.9765151624
101346.5859170336
101332.2858032623
101319.4643969593
101306.9858851588
101291.7679596584
101277.5624357903
101272.9255616382
101272.650060107
101272.6775486817
101272.7115720823
101272.7170695604
101272.9034897126
101273.3747154933
101274.1478748242
101275.1308954974
101275.9054172963
101276.3184840379
101276.6027027334
101276.9053677941
101277.1947998284
101277.9960665146
101280.108786509
101284.524519279
101292.3411339435
101304.8545382345
101324.4952819207
101351.7853318182
101372.3374039826
101376.7739746047
101376.9480893735
101376.9045990173
101376.834859384
101376.8393490538
101376.8238634325
101376.6989277868
101376.3923359456
101375.8057634903
101374.8434192992
101374.02792863
101373.7665756184
101373.6969053218
101373.629283639
101373.509025935
101373.1450244949
101372.3186987404
101370.446742064
101365.779685958
101353.4584079252
101324.7494066713
101288.0516163292
101274.3403856295
101273.5184155707
101273.512096505
101273.5555491886
101273.5796714645
101273.549130627
101273.605750778
101273.7889595585
101273.9986344065
101274.5298339679
101275.3966442633
101275.9124495159
101276.0116984797
101276.0115057028
101275.9893107293
101276.0590577818
101276.2616619851
101276.5958521158
101277.8994602537
101281.6253728647
101292.8614418643
101321.2819599615
101359.9718699353
101375.4266509651
101376.4204445963
101376.4495352958
101376.4595678668
101376.3815103667
101376.3156368907
101376.3659900776
101376.3086332908
101376.0920850721
101375.8783196138
101375.4770179818
101374.8048974995
101374.4168767709
101374.2743186016
101374.6216323723
101374.6089178036
101373.817734256
101373.2466025588
101373.3927047325
101369.7734667864
101360.16326751
101331.9172175509
101291.5823792923
101274.8455889472
101273.7397414358
101273.7212975888
101273.6596781598
101273.6985726113
101273.8561334584
101273.9717122347
101273.8210900128
101273.85433716
101274.2907209986
101274.7213675345
101274.6625456758
101274.8057666331
101275.2530062853
101275.7603859539
101275.3989709903
101275.0460836232
101276.5220901201
101278.6731589784
101279.3412547333
101288.4826466802
101312.9834316823
101353.5028878857
101374.1270765021
101376.0394392592
101376.11735406
101375.9755346405
101375.832982587
101375.8540784493
101375.8424804969
101375.6715849267
101375.4614273096
101375.4868471778
101375.5245527488
101375.2347598709
101374.848754145
101374.8063094831
101374.8994135674
101374.4553290225
101373.8192028318
101373.5965002534
101373.1693104082
101369.9940570846
101363.026610211
101341.1592836138
101301.943100041
101277.3018587277
101274.3204928383
101274.2792191141
101274.2515088489
101274.3173557219
101274.4693771218
101274.6008524045
101274.583045229
101274.5595620793
101274.7171428331
101274.9306911346
101274.9251850719
101274.8574540161
101275.1653246054
101275.5881584152
101275.6554097211
101275.5215388678
101276.0981269518
101277.4281579672
101278.6206120425
101285.5365298435
101304.6098145742
101342.5461673756
101370.9829116095
101375.5010255268
101375.6057627784
101375.5102154704
101375.420672481
101375.3746125218
101375.2640652635
101375.130516582
101375.0380275886
101375.1342887801
101375.1383467462
101374.8931737605
101374.6545920776
101374.8173657758
101374.8126466943
101374.2865904997
101373.7100092035
101373.8903132244
101373.3703054341
101370.739203469
101366.3326226872
101349.696842585
101313.7331402598
101281.4003683993
101274.8055875715
101274.5963873639
101274.5366017577
101274.6460430335
101274.8477330486
101274.9488426909
101274.93029687
101274.9609089286
101275.1017811814
101275.1871861665
101275.0370511369
101275.0707932696
101275.4127222291
101275.7153622972
101275.4980914597
101275.6232703454
101276.3599902556
101277.3219090183
101277.9213863671
101282.985615406
101296.4990246524
101329.4810161205
101365.3001786287
101375.0599110384
101375.4243291553
101375.3736868922
101375.3396537567
101375.2479020655
101375.0278883162
101374.8712324013
101374.8215006425
101374.9153544266
101374.8984907398
101374.6839938414
101374.5613609675
101374.7774075847
101374.606509938
101374.089649207
101373.7201372212
101374.0588161953
101373.3945968067
101371.2516962
101368.6229212813
101356.6492096236
101326.7650506327
101288.651451168
101275.3906509791
101274.6398931219
101274.5795659996
101274.691837545
101274.8869435852
101275.0102841911
101275.0847334343
101275.1920395805
101275.3147036595
101275.2825185505
101275.1097978187
101275.2515516448
101275.5850470394
101275.7333915517
101275.4951757955
101275.8142687137
101276.5245367194
101277.027696186
101277.4006248207
101281.2055156589
101290.4737124485
101317.0898185589
101356.4581110145
101374.0244903693
101375.3213633776
101375.3209279166
101375.3382496425
101375.2367069554
101374.9735161302
101374.7757733174
101374.7476477547
101374.7814377939
101374.7481260656
101374.6205921123
101374.6318850557
101374.7950487221
101374.4879431723
101373.9854144127
101373.9040364058
101374.1551681667
101373.3776875331
101371.6421371427
101370.2053537547
101361.6278292008
101338.5175672653
101299.0489351701
101276.9071991237
101274.5613256408
101274.4891791089
101274.6041585155
101274.755777551
101274.8501956761
101275.0801432438
101275.3423442497
101275.4744968816
101275.3464206219
101275.1801175738
101275.3742801965
101275.6589327789
101275.5939645792
101275.4903047205
101275.9630955938
101276.6106718989
101276.6525690763
101277.0873613918
101280.0928012618
101286.0220896077
101306.0210615704
101344.3489485652
101371.6063391667
101375.5657598012
101375.6558120528
101375.7109953229
101375.5939617199
101375.276349618
101374.9600437081
101374.7124711235
101374.5755425212
101374.4641119847
101374.4583201213
101374.6088420576
101374.6520618605
101374.2790428725
101373.8898570938
101374.0657535833
101374.0426278546
101373.234762957
101371.9895320541
101371.2688573394
101365.1747464015
101348.6265530352
101312.3746454192
101280.6355880968
101274.3565381474
101274.1788501281
101274.2787185042
101274.3866789087
101274.4807880969
101274.8882019845
101275.3951438352
101275.5836186693
101275.4902391979
101275.3886336103
101275.5863869222
101275.7394567898
101275.5401312011
101275.6357954198
101276.1431377535
101276.6387801843
101276.3625498056
101276.961755246
101279.387522893
101282.9546185036
101297.3241635163
101330.5921013824
101366.1244717755
101375.5984892317
101376.0048739189
101376.0838787772
101375.9475173237
101375.6287329251
101375.3270112927
101374.830200107
101374.4364767635
101374.2751611893
101374.3430436063
101374.5379154681
101374.4606405064
101374.1179024329
101373.9141220801
101374.1934203795
101373.894667092
101373.0985485496
101372.4267023742
101371.9909184796
101367.5174022291
101356.3620640052
101326.3773169316
101287.9552849763
101274.4340353459
101273.7149566724
101273.7643813396
101273.7903099575
101273.9146460976
101274.4494605656
101275.1754605781
101275.6262577112
101275.7083741644
101275.7488407387
101275.8963114976
101275.880680623
101275.6673860254
101276.0132878857
101276.5857985108
101276.699851274
101276.4173981637
101277.2844898426
101279.2610996519
101280.9493455558
101290.6039186645
101315.8901973717
101355.4334329461
101374.8481548081
101376.623445949
101376.7642464869
101376.5620463795
101376.302775127
101376.2133240284
101376.0522163523
101375.2224523413
101374.0617388982
101373.4200517066
101373.3561662457
101373.2406269731
101372.8831026076
101372.7404798704
101372.6600888635
101371.0346823513
101367.2494550169
101355.4230374054
101336.0336994767
101325.9273364813
101325.0070528527
101325.0000017625
101324.9999999994
101324.9999999994
101324.9999999994
101324.9999999997
101325.0000000002
101325.0000000007
101325.000000001
101325.0000000011
101325.0000000011
101325.0000000012
101325.0000000013
101325.0000000013
101325.0000000014
101325.0000000014
101325.0000000015
101325.0000000015
101325.0000000015
101325.0000000014
101325.0000000014
101325.0000000013
101325.0000000012
101325.0000000012
101325.0000000012
101325.0000000012
101325.0000000012
101325.0000000012
101325.0000000012
101325.0000000012
101325.0000000011
101325.0000000012
101325.0000000011
101325.000000001
101325.0000000009
101325.0000000009
101325.0000000009
101325.0000000009
101325.0000000009
101325.0000000009
101325.000000001
101325.0000000011
101325.0000000012
101325.0000000014
101325.0000000014
101325.0000000014
101325.0000000015
101325.0000000016
101325.0000000017
101325.0000000018
101325.0000000018
101325.0000000018
101325.0000000019
101325.000000002
101325.000000002
101325.0000000019
101325.0000000019
101325.0000000019
101325.0000000019
101325.0000000019
101325.0000000019
101325.0000000018
101325.0000000017
101325.0000000017
101325.0000000016
101325.0000000015
101325.0000000014
101325.0000000014
101325.0000000014
101325.0000000014
101325.0000000013
101325.0000000013
101325.0000000013
101325.0000000013
101325.0000000013
101325.0000000014
101325.0000000014
101325.0000000014
101325.0000000014
101325.0000000014
101325.0000000014
101325.0000000014
101325.0000000015
101325.0000000015
101325.0000000015
101325.0000000015
101325.0000000015
101325.0000000015
101325.0000000015
101325.0000000015
101325.0000000015
101325.0000000014
101325.0000000015
101325.0000000015
101325.0000000015
101325.0000000015
101325.0000000014
101325.0000000014
101325.0000000014
101325.0000000013
101325.0000000013
101325.0000000013
101325.0000000013
101325.0000000012
101325.0000000012
101325.0000000012
101325.0000000011
101325.0000000012
101325.0000000012
101325.0000000013
101325.0000000013
101325.0000000013
101325.0000000014
101325.0000000014
101325.0000000013
101325.0000000014
101325.0000000014
101325.0000000014
101325.0000000015
101325.0000000015
101325.0000000015
101325.0000000015
101325.0000000015
101325.0000000015
101325.0000000015
101325.0000000015
101325.0000000014
101325.0000000014
101325.0000000014
101325.0000000016
101325.0000000017
101325.0000000018
101325.0000000018
101325.0000000018
101325.0000000018
101325.0000000019
101325.0000000018
101325.0000000018
101325.0000000018
101325.0000000018
101325.0000000018
101325.0000000018
101325.0000000018
101325.0000000018
101325.0000000018
101325.0000000017
101325.0000000017
101325.0000000017
101325.0000000017
101325.0000000018
101325.0000000018
101325.0000000017
101325.0000000016
101325.0000000017
101325.0000000016
101325.0000000015
101325.0000000014
101325.0000000015
101325.0000000015
101325.0000000015
101325.0000000015
101325.0000000015
101325.0000000015
101325.0000000015
101325.0000000015
101325.0000000016
101325.0000000016
101325.0000000016
101325.0000000016
101325.0000000016
101325.0000000016
101325.0000000015
101325.0000000015
101325.0000000015
101325.0000000015
101325.0000000014
101325.0000000015
101325.0000000016
101325.0000000016
101325.0000000016
101325.0000000015
101325.0000000014
101325.0000000014
101325.0000000014
101325.0000000015
101325.0000000016
101325.0000000016
101325.0000000015
101325.0000000015
101325.0000000014
101325.0000000015
101325.0000000016
101325.0000000016
101325.0000000017
101325.0000000017
101325.0000000016
101325.0000000015
101325.0000000015
101325.0000000015
101325.0000000016
101325.0000000018
101325.0000000019
101325.0000000021
101325.0000000022
101325.0000000023
101325.0000000022
101325.0000000022
101325.0000000022
101325.0000000021
101325.0000000022
101325.0000000022
101325.0000000022
101325.0000000022
101325.0000000022
101325.0000000021
101325.0000000022
101325.0000000022
101325.0000000023
101325.0000000023
101325.0000000023
101325.0000000023
101325.0000000023
101325.0000000024
101325.0000000024
101325.0000000025
101325.0000000025
101325.0000000025
101325.0000000025
101325.0000000025
101325.0000000025
101325.0000000025
101325.0000000024
101325.0000000025
101325.0000000024
101325.0000000024
101325.0000000024
101325.0000000023
101325.0000000023
101325.0000000023
101325.0000000023
101325.0000000022
101325.0000000022
101325.0000000022
101325.0000000021
101325.0000000022
101325.0000000022
101325.0000000021
101325.0000000019
101325.0000000018
101325.0000000018
101325.0000000017
101325.0000000017
101325.0000000017
101325.0000000017
101325.0000000018
101325.0000000017
101325.0000000017
101325.0000000017
101325.0000000017
101325.0000000017
101325.0000000017
101325.0000000016
101325.0000000016
101325.0000000016
101325.0000000017
101325.0000000017
101325.0000000017
101325.0000000018
101325.0000000017
101325.0000000018
101325.0000000018
101325.0000000019
101325.0000000018
101325.000000002
101325.0000000021
101325.0000000021
101325.0000000022
101325.0000000022
101325.0000000021
101325.0000000022
101325.0000000023
101325.0000000023
101325.0000000023
101325.0000000024
101325.0000000024
101325.0000000024
101325.0000000024
101325.0000000024
101325.0000000024
101325.0000000024
101325.0000000024
101325.0000000023
101325.0000000022
101325.0000000021
101325.000000002
101325.0000000019
101325.0000000019
101325.0000000019
101325.0000000019
101325.000000002
101325.000000002
101325.000000002
101325.000000002
101325.0000000021
101325.0000000022
101325.0000000021
101325.0000000021
101325.0000000021
101325.000000002
101325.000000002
101325.0000000021
101325.0000000021
101325.0000000021
101325.0000000022
101325.0000000022
101325.0000000021
101325.000000002
101325.000000002
101325.000000002
101325.0000000019
101325.0000000019
101325.0000000019
101325.0000000019
101325.0000000019
101325.0000000019
101325.0000000019
101325.0000000018
101325.0000000018
101325.0000000018
101325.0000000018
101325.0000000019
101325.0000000019
101325.0000000019
101325.0000000019
101325.000000002
101325.0000000021
101325.0000000021
101325.0000000023
101325.0000000023
101325.0000000025
101325.0000000025
101325.0000000025
101325.0000000025
101325.0000000025
101325.0000000026
101325.0000000027
101325.0000000028
101325.0000000027
101325.0000000028
101325.0000000027
101325.0000000027
101325.0000000028
101325.0000000027
101325.0000000027
101325.0000000027
101325.0000000027
101325.0000000027
101325.0000000028
101325.0000000029
101325.0000000028
101325.0000000029
101325.0000000029
101325.0000000028
101325.0000000029
101325.0000000029
101325.0000000028
101325.0000000027
101325.0000000027
101325.0000000027
101325.0000000027
101325.0000000027
101325.0000000027
101325.0000000027
101325.0000000028
101325.0000000027
101325.0000000026
101325.0000000026
101325.0000000026
101325.0000000026
101325.0000000026
101325.0000000027
101325.0000000026
101325.0000000025
101325.0000000024
101325.0000000023
101325.0000000023
101325.0000000023
101325.0000000023
101325.0000000022
101325.0000000022
101325.0000000021
101325.0000000021
101325.000000002
101325.0000000019
101325.000000002
101325.0000000021
101325.0000000022
101325.0000000022
101325.0000000023
101325.0000000023
101325.0000000023
101325.0000000022
101325.0000000021
101325.0000000022
101325.0000000023
101325.0000000023
101325.0000000023
101325.0000000023
101325.0000000023
101325.0000000024
101325.0000000023
101325.0000000023
101325.0000000023
101325.0000000023
101325.0000000022
101325.0000000022
101325.0000000023
101325.0000000022
101325.0000000022
101325.0000000022
101325.0000000021
101325.0000000021
101325.0000000021
101325.000000002
101325.000000002
101325.000000002
101325.000000002
101325.000000002
101325.0000000019
101325.0000000019
101325.0000000019
101325.0000000019
101325.0000000019
101325.0000000019
101325.0000000019
101325.0000000019
101325.0000000019
101325.0000000019
101325.0000000019
101325.000000002
101325.0000000019
101325.0000000019
101325.000000002
101325.000000002
101325.000000002
101325.000000002
)
;

boundaryField
{
    inlet
    {
        type            uniformFixedValue;
        uniformValue    sine;
        uniformValueCoeffs
        {
            frequency       constant 3000;
            scale           constant 50;
            level           constant 101325;
        }
        value           uniform 101325;
    }
    outlet
    {
        type            waveTransmissive;
        gamma           1.4;
        fieldInf        101325;
        lInf            2.25;
        value           uniform 101325.0000000021;
    }
    frontAndBack
    {
        type            empty;
    }
}


// ************************************************************************* //
