/*--------------------------------*- C++ -*----------------------------------*\
| =========                 |                                                 |
| \\      /  F ield         | OpenFOAM: The Open Source CFD Toolbox           |
|  \\    /   O peration     | Version:  v2012                                 |
|   \\  /    A nd           | Website:  www.openfoam.com                      |
|    \\/     M anipulation  |                                                 |
\*---------------------------------------------------------------------------*/
FoamFile
{
    version     2.0;
    format      ascii;
    class       volScalarField;
    location    "0.004";
    object      rho;
}
// * * * * * * * * * * * * * * * * * * * * * * * * * * * * * * * * * * * * * //

dimensions      [1 -3 0 0 0 0 0];


internalField   nonuniform List<scalar> 
1000
(
1.176310233622788
1.176328465428671
1.176274233725433
1.176222667852432
1.176168418613734
1.176127822064892
1.176094002757099
1.176057356216999
1.176022090215158
1.17600598282058
1.175983174863538
1.175981361158099
1.175999223240879
1.17602680940375
1.176049967761339
1.176063167932059
1.176057739888775
1.176073139232751
1.176133851427734
1.176225677451628
1.176304625384693
1.176353354047455
1.176376787712821
1.176392617971529
1.176436752504712
1.176529721856271
1.176636781942131
1.176702413869799
1.176734424627268
1.176744383238779
1.176747042655474
1.176771845929813
1.176813092174852
1.176836654792596
1.176860452159552
1.1768626813399
1.17684161224481
1.176801083220702
1.176754518198166
1.176720276897983
1.176707985760202
1.176705863464791
1.176687691963026
1.176632442606343
1.176536801760935
1.176430648296682
1.176358232509717
1.176322797334984
1.176300091526155
1.176266010038208
1.176205350002894
1.176119526862164
1.176035342077589
1.175992455033847
1.175981741265675
1.175983670181449
1.175987512008044
1.175990571150234
1.175990001615156
1.175991397128493
1.175998241507122
1.176012094286585
1.176033508784816
1.17606268950508
1.17610067206867
1.176148024605429
1.176204588696735
1.176271151386708
1.176347627093231
1.176426794757976
1.176494534557091
1.176544624729612
1.176587084565336
1.176642094622585
1.176727281563406
1.176811545153992
1.176838929183873
1.176840301162225
1.176838704820995
1.176837481328043
1.176836002908237
1.176833809557703
1.176829579587792
1.176823081936024
1.176814327945901
1.176805391674148
1.176793215174032
1.176768524376004
1.176719340430999
1.176641422418075
1.176552301028872
1.176478696432273
1.176425338315606
1.17637982277797
1.176327762026812
1.176254271489433
1.176146683969254
1.176030777723918
1.175978089890641
1.175971778761688
1.175970777975728
1.175971266903856
1.175973383453279
1.175976932320357
1.175981031044337
1.175986062050379
1.175993042035909
1.176002013431432
1.176012729487487
1.17602568143876
1.176042291101272
1.176068262926831
1.176115814140043
1.176199351129865
1.176315474818423
1.17642276640729
1.176490144537806
1.176536216444807
1.176592220712193
1.176689914163448
1.176803442330909
1.176846365856665
1.176849098758313
1.17684907243571
1.176848094394932
1.176846676882431
1.176843955560999
1.176838572619436
1.176830716521471
1.17682340985515
1.176818504413171
1.176815044906468
1.176811792392648
1.176805633748206
1.176790970949833
1.176758179471259
1.176693504726651
1.176590772100639
1.176472202606766
1.176365889788236
1.176262416221194
1.176136221806326
1.17601841865279
1.175979966056116
1.175977681692255
1.175977909914527
1.175978192314028
1.175978237886477
1.175979783666665
1.175983691180655
1.175990102492968
1.175998253913007
1.176004675914061
1.176008100184216
1.176010455697627
1.176012963925813
1.176015362185431
1.176022004787011
1.176039522965225
1.176076139556983
1.176140958126291
1.176244722473062
1.176407581934994
1.176633855059464
1.176804251013593
1.176841031903446
1.176842474250622
1.176842112002223
1.176841530935289
1.176841565896862
1.17684143548695
1.176840397706542
1.176837854527008
1.176832990401108
1.176825010820371
1.176818248559719
1.176816080551055
1.176815501831186
1.176814939984904
1.176813941637544
1.17681092251948
1.176804070545181
1.176788549585884
1.176749854810246
1.176647697289837
1.176409652643136
1.176105341273227
1.175991636693141
1.175984819415093
1.175984766618013
1.175985126488391
1.175985325871242
1.175985072138392
1.175985540998083
1.175987059643513
1.175988798116113
1.175993203053671
1.176000391215869
1.176004668497937
1.176005491205466
1.176005489278873
1.176005304988672
1.176005883055047
1.176007562897135
1.17601033409395
1.176021144654645
1.176052043127562
1.176145220686772
1.176380890190024
1.176701686658016
1.176829822783537
1.176838062068917
1.176838303075875
1.176838386107176
1.176837738773759
1.176837192406905
1.17683760967733
1.17683713396595
1.176835338429673
1.176833565956029
1.176830238687465
1.176824666163546
1.176821449030597
1.176820266957592
1.176823146246606
1.176823040675163
1.176816481035379
1.176811745702961
1.17681295676903
1.176782950227161
1.17670327229292
1.176469071782295
1.176134606105283
1.175995812905852
1.175986642156588
1.175986489066054
1.175985977849741
1.175986300194862
1.17598760661127
1.175988564867843
1.175987315454818
1.175987590945207
1.175991209698752
1.175994780709702
1.17599429261467
1.175995480173559
1.175999188907817
1.176003396352244
1.176000398811501
1.17599747206383
1.176009712356782
1.176027550878556
1.17603309118212
1.176108899148247
1.176312069565896
1.176648042096666
1.176819039629899
1.176834894780684
1.176835540696131
1.176834364872433
1.176833182993371
1.176833357912149
1.176833261785532
1.176831844992707
1.176830102772486
1.176830313677141
1.176830626402279
1.176828223979943
1.17682502397354
1.176824672328427
1.176825444418903
1.176821762877715
1.176816489256196
1.176814643195264
1.176811101758666
1.176784776696478
1.176727010349247
1.176545702422481
1.176220520941177
1.176016181378847
1.175991457633128
1.175991115475295
1.175990885910648
1.175991432208374
1.175992693062706
1.17599378351719
1.175993635967657
1.175993441288908
1.175994748195287
1.175996519245635
1.175996473628946
1.17599591194976
1.175998465148499
1.176001971726076
1.176002529426527
1.1760014192107
1.176006200826568
1.176017230733047
1.176027119657134
1.17608447246393
1.176242638588776
1.176557200632594
1.17679297586927
1.176830435303921
1.176831303609305
1.176830511394845
1.176829768920955
1.176829386973525
1.176828470401372
1.176827363110657
1.176826596232821
1.176827394230285
1.176827427812643
1.176825395102213
1.176823417017355
1.176824766463998
1.176824727298171
1.176820365869109
1.176815585532868
1.176817080340853
1.176812769042123
1.176790955146974
1.176754420725911
1.176616491344652
1.176318287554998
1.176050169012708
1.175995480031812
1.17599374515455
1.175993249353507
1.175994156964992
1.17599582960908
1.175996668136957
1.175996514358977
1.175996768246761
1.175997936534709
1.175998644838648
1.175997399797603
1.17599767965258
1.17600051531656
1.176003025168113
1.176001223372994
1.176002261513492
1.176008371191948
1.176016348440613
1.176021319920342
1.176063317223429
1.17617537970603
1.176448869404983
1.176745859434664
1.176826777595634
1.176829798963785
1.17682937911491
1.176829096972427
1.176828336298273
1.176826512236633
1.176825213453544
1.176824801145658
1.176825579263031
1.176825439452315
1.176823661118208
1.176822644400558
1.176824435578315
1.176823018709425
1.176818733553269
1.176815670020404
1.176818477912103
1.176812971024903
1.176795204728659
1.176773409973629
1.176674135772768
1.176426349744212
1.176110300394652
1.176000332491732
1.175994106556568
1.175993606255449
1.17599453732375
1.175996155342016
1.175997178206523
1.175997795613483
1.175998685505136
1.175999702759665
1.175999435843865
1.175998003461177
1.175999179030039
1.176001944719619
1.176003174945026
1.17600119941317
1.17600384566088
1.176009735932641
1.176013908639209
1.176017001324458
1.176048555118296
1.176125414240176
1.176346123714044
1.17667254843011
1.17681819296301
1.176828945255105
1.176828941647094
1.176829085259151
1.176828243401552
1.176826061365545
1.176824421939121
1.176824188760085
1.176824468906365
1.176824192730672
1.176823135385555
1.176823229015562
1.176824581762076
1.176822035638073
1.176817869313204
1.176817194633128
1.176819276702262
1.176812830811228
1.176798441778695
1.176786529670374
1.176715414008578
1.176523799137365
1.176196521864603
1.176012908924205
1.175993455012394
1.175992856700404
1.175993810231538
1.175995067617289
1.175995850632325
1.175997757599531
1.175999932044776
1.176001027992401
1.175999965851324
1.175998586693612
1.176000196893039
1.176002557529274
1.176002018746449
1.176001159092487
1.176005079963021
1.176010450330536
1.176010797783965
1.17601440350893
1.176039327545144
1.176088498233703
1.176254340323563
1.176572147615573
1.176798144115309
1.176830971516898
1.176831718122191
1.176832175629444
1.17683120533891
1.176828572111758
1.176825949711224
1.176823897157419
1.176822761921066
1.176821838081581
1.176821790063624
1.176823037999945
1.176823396324231
1.176820303727681
1.176817077095197
1.176818535407992
1.176818343680065
1.176811645880848
1.176801321969371
1.176795346991631
1.176744821510054
1.17660761783898
1.176307023287671
1.176043827469761
1.175991756667382
1.175990283115625
1.175991111330497
1.175992006652745
1.175992787105572
1.175996165811337
1.176000369902587
1.176001932930937
1.17600115853026
1.176000315909835
1.176001955884485
1.176003225297002
1.176001572281477
1.176002365627448
1.176006573031676
1.176010683403896
1.176008392619581
1.176013361827303
1.176033478679274
1.176063060230527
1.176182222265714
1.176458082243565
1.176752693637889
1.176831242772849
1.176834612050288
1.176835267055507
1.176834136525589
1.176831493583007
1.176828992099723
1.176824873182761
1.176821608934039
1.176820271511718
1.176820834307388
1.176822449937428
1.176821809272968
1.176818967726452
1.176817278239198
1.176819593828367
1.176817116944591
1.176810516531543
1.176804946415515
1.176801333414049
1.176764244260443
1.1766717549716
1.176423134703197
1.176104527195623
1.175992399182587
1.17598643596208
1.175986845844627
1.175987060872217
1.175988092001062
1.175992527254202
1.175998548010569
1.176002286489709
1.176002967484411
1.176003303074783
1.176004526054603
1.176004396427177
1.176002627568804
1.176005496143154
1.176010243987151
1.176011189828631
1.176008847441652
1.176016038233488
1.176032430222057
1.176046430706939
1.176126494041012
1.176336176547445
1.176664052492348
1.17682502165154
1.176839740403116
1.176840907736016
1.176839231360366
1.1768370818257
1.176836340214603
1.176835004520908
1.176828125198404
1.176818502045675
1.17681318198403
1.17681265232563
1.176811694417532
1.176808730270652
1.176807547818273
1.176806881311723
1.17679340542211
1.176762022655135
1.176663969243836
1.176503204066666
1.176419405425114
1.176411774653126
1.176411716186809
1.17641171617219
1.17641171617219
1.17641171617219
1.176411716172193
1.176411716172197
1.176411716172201
1.176411716172205
1.176411716172206
1.176411716172205
1.176411716172205
1.176411716172206
1.176411716172207
1.176411716172207
1.176411716172207
1.176411716172207
1.176411716172207
1.176411716172208
1.176411716172207
1.176411716172207
1.176411716172206
1.176411716172206
1.176411716172206
1.176411716172206
1.176411716172206
1.176411716172206
1.176411716172206
1.176411716172206
1.176411716172207
1.176411716172207
1.176411716172207
1.176411716172206
1.176411716172205
1.176411716172205
1.176411716172205
1.176411716172204
1.176411716172204
1.176411716172204
1.176411716172204
1.176411716172205
1.176411716172205
1.176411716172206
1.176411716172207
1.176411716172207
1.176411716172208
1.176411716172209
1.17641171617221
1.176411716172211
1.176411716172211
1.176411716172211
1.176411716172211
1.176411716172212
1.176411716172212
1.176411716172212
1.176411716172212
1.176411716172212
1.176411716172212
1.176411716172212
1.176411716172212
1.176411716172212
1.176411716172211
1.17641171617221
1.176411716172209
1.176411716172209
1.176411716172207
1.176411716172207
1.176411716172207
1.176411716172207
1.176411716172207
1.176411716172207
1.176411716172207
1.176411716172206
1.176411716172207
1.176411716172207
1.176411716172208
1.176411716172208
1.176411716172208
1.176411716172208
1.176411716172208
1.176411716172208
1.176411716172208
1.176411716172208
1.176411716172208
1.176411716172208
1.176411716172207
1.176411716172208
1.176411716172208
1.176411716172207
1.176411716172208
1.176411716172208
1.176411716172208
1.176411716172209
1.176411716172208
1.176411716172208
1.176411716172207
1.176411716172207
1.176411716172206
1.176411716172206
1.176411716172206
1.176411716172206
1.176411716172206
1.176411716172206
1.176411716172205
1.176411716172205
1.176411716172205
1.176411716172205
1.176411716172205
1.176411716172205
1.176411716172205
1.176411716172206
1.176411716172206
1.176411716172206
1.176411716172207
1.176411716172206
1.176411716172207
1.176411716172207
1.176411716172207
1.176411716172207
1.176411716172207
1.176411716172208
1.176411716172208
1.176411716172208
1.176411716172207
1.176411716172207
1.176411716172208
1.176411716172207
1.176411716172207
1.176411716172208
1.176411716172209
1.17641171617221
1.17641171617221
1.176411716172209
1.176411716172209
1.17641171617221
1.176411716172212
1.176411716172211
1.176411716172211
1.176411716172211
1.176411716172211
1.176411716172211
1.176411716172211
1.176411716172211
1.176411716172211
1.176411716172211
1.17641171617221
1.17641171617221
1.17641171617221
1.17641171617221
1.176411716172211
1.17641171617221
1.176411716172209
1.176411716172209
1.176411716172209
1.176411716172208
1.176411716172207
1.176411716172207
1.176411716172207
1.176411716172207
1.176411716172207
1.176411716172208
1.176411716172207
1.176411716172208
1.176411716172208
1.176411716172208
1.176411716172209
1.176411716172209
1.176411716172209
1.176411716172209
1.176411716172209
1.176411716172209
1.176411716172209
1.176411716172208
1.176411716172208
1.176411716172207
1.176411716172207
1.176411716172208
1.176411716172208
1.176411716172209
1.176411716172208
1.176411716172208
1.176411716172207
1.176411716172207
1.176411716172207
1.176411716172207
1.176411716172208
1.176411716172208
1.176411716172207
1.176411716172207
1.176411716172208
1.176411716172208
1.176411716172209
1.17641171617221
1.17641171617221
1.17641171617221
1.176411716172209
1.176411716172209
1.176411716172208
1.176411716172208
1.176411716172209
1.17641171617221
1.176411716172212
1.176411716172213
1.176411716172214
1.176411716172214
1.176411716172214
1.176411716172215
1.176411716172215
1.176411716172215
1.176411716172215
1.176411716172215
1.176411716172215
1.176411716172215
1.176411716172215
1.176411716172214
1.176411716172214
1.176411716172214
1.176411716172214
1.176411716172215
1.176411716172215
1.176411716172215
1.176411716172215
1.176411716172216
1.176411716172216
1.176411716172217
1.176411716172217
1.176411716172217
1.176411716172217
1.176411716172217
1.176411716172217
1.176411716172216
1.176411716172217
1.176411716172216
1.176411716172216
1.176411716172216
1.176411716172216
1.176411716172215
1.176411716172215
1.176411716172215
1.176411716172215
1.176411716172215
1.176411716172215
1.176411716172214
1.176411716172213
1.176411716172214
1.176411716172214
1.176411716172213
1.176411716172212
1.176411716172211
1.176411716172211
1.17641171617221
1.17641171617221
1.17641171617221
1.17641171617221
1.176411716172211
1.176411716172211
1.17641171617221
1.17641171617221
1.17641171617221
1.176411716172211
1.17641171617221
1.17641171617221
1.17641171617221
1.176411716172211
1.176411716172211
1.176411716172211
1.176411716172211
1.176411716172211
1.17641171617221
1.176411716172211
1.176411716172211
1.176411716172212
1.176411716172211
1.176411716172212
1.176411716172213
1.176411716172213
1.176411716172213
1.176411716172214
1.176411716172214
1.176411716172214
1.176411716172215
1.176411716172215
1.176411716172215
1.176411716172216
1.176411716172216
1.176411716172216
1.176411716172216
1.176411716172216
1.176411716172216
1.176411716172216
1.176411716172215
1.176411716172214
1.176411716172214
1.176411716172213
1.176411716172212
1.176411716172212
1.176411716172213
1.176411716172213
1.176411716172213
1.176411716172213
1.176411716172213
1.176411716172214
1.176411716172214
1.176411716172215
1.176411716172215
1.176411716172214
1.176411716172213
1.176411716172212
1.176411716172212
1.176411716172212
1.176411716172213
1.176411716172213
1.176411716172213
1.176411716172214
1.176411716172214
1.176411716172213
1.176411716172212
1.176411716172212
1.176411716172212
1.176411716172212
1.176411716172211
1.176411716172211
1.176411716172211
1.176411716172211
1.176411716172211
1.176411716172211
1.176411716172211
1.176411716172211
1.176411716172211
1.17641171617221
1.17641171617221
1.17641171617221
1.17641171617221
1.176411716172211
1.176411716172211
1.176411716172212
1.176411716172212
1.176411716172213
1.176411716172213
1.176411716172215
1.176411716172215
1.176411716172215
1.176411716172215
1.176411716172215
1.176411716172216
1.176411716172217
1.176411716172218
1.176411716172218
1.176411716172218
1.176411716172218
1.176411716172218
1.176411716172218
1.176411716172217
1.176411716172216
1.176411716172216
1.176411716172216
1.176411716172216
1.176411716172216
1.176411716172217
1.176411716172216
1.176411716172217
1.176411716172216
1.176411716172216
1.176411716172217
1.176411716172217
1.176411716172217
1.176411716172217
1.176411716172217
1.176411716172217
1.176411716172218
1.176411716172218
1.176411716172218
1.176411716172217
1.176411716172217
1.176411716172216
1.176411716172216
1.176411716172216
1.176411716172216
1.176411716172217
1.176411716172216
1.176411716172217
1.176411716172216
1.176411716172216
1.176411716172215
1.176411716172215
1.176411716172214
1.176411716172214
1.176411716172214
1.176411716172213
1.176411716172213
1.176411716172212
1.176411716172212
1.176411716172212
1.176411716172212
1.176411716172212
1.176411716172213
1.176411716172214
1.176411716172214
1.176411716172215
1.176411716172214
1.176411716172214
1.176411716172213
1.176411716172213
1.176411716172213
1.176411716172214
1.176411716172214
1.176411716172215
1.176411716172215
1.176411716172214
1.176411716172214
1.176411716172213
1.176411716172214
1.176411716172214
1.176411716172214
1.176411716172213
1.176411716172213
1.176411716172214
1.176411716172213
1.176411716172213
1.176411716172213
1.176411716172213
1.176411716172212
1.176411716172212
1.176411716172211
1.176411716172211
1.176411716172211
1.176411716172211
1.176411716172211
1.176411716172211
1.176411716172211
1.176411716172211
1.176411716172211
1.176411716172211
1.176411716172211
1.176411716172211
1.176411716172211
1.176411716172211
1.176411716172211
1.176411716172211
1.176411716172211
1.17641171617221
1.17641171617221
1.17641171617221
1.17641171617221
1.176411716172211
1.176411716172213
)
;

boundaryField
{
    inlet
    {
        type            calculated;
        value           uniform 1.176411716172193;
    }
    outlet
    {
        type            calculated;
        value           uniform 1.176411716172217;
    }
    frontAndBack
    {
        type            empty;
    }
}


// ************************************************************************* //
