/*--------------------------------*- C++ -*----------------------------------*\
| =========                 |                                                 |
| \\      /  F ield         | OpenFOAM: The Open Source CFD Toolbox           |
|  \\    /   O peration     | Version:  v2012                                 |
|   \\  /    A nd           | Website:  www.openfoam.com                      |
|    \\/     M anipulation  |                                                 |
\*---------------------------------------------------------------------------*/
FoamFile
{
    version     2.0;
    format      ascii;
    class       volVectorField;
    location    "0.004";
    object      U;
}
// * * * * * * * * * * * * * * * * * * * * * * * * * * * * * * * * * * * * * //

dimensions      [0 1 -1 0 0 0 0];


internalField   nonuniform List<vector> 
1000
(
(-0.007486632768085473 0 0)
(-0.03626211171820819 0 0)
(-0.04015124048668585 0 0)
(-0.05072374333147683 0 0)
(-0.06250464958260346 0 0)
(-0.07769639102293106 0 0)
(-0.09635493437269836 0 0)
(-0.1139040460159612 0 0)
(-0.1243928137128945 0 0)
(-0.1248411172046314 0 0)
(-0.1200898487303447 0 0)
(-0.114834917756063 0 0)
(-0.1139659440903903 0 0)
(-0.1163990721730701 0 0)
(-0.1189386338447315 0 0)
(-0.1146805522290791 0 0)
(-0.1042843024265057 0 0)
(-0.08871719704554587 0 0)
(-0.06938935678722456 0 0)
(-0.05053859442871235 0 0)
(-0.03844271495966573 0 0)
(-0.03085027238131161 0 0)
(-0.02073865279007147 0 0)
(-0.003646485783470623 0 0)
(0.01996001579328253 0 0)
(0.04781937078982008 0 0)
(0.07097132175694715 0 0)
(0.07974770490562956 0 0)
(0.08191810604418412 0 0)
(0.08725569551610285 0 0)
(0.09969208926617813 0 0)
(0.1160237395436488 0 0)
(0.1295701358065647 0 0)
(0.1320282729020203 0 0)
(0.1276572819746389 0 0)
(0.1207584219519519 0 0)
(0.1179108877678552 0 0)
(0.115599727572085 0 0)
(0.1096378458667527 0 0)
(0.1005553162360754 0 0)
(0.09112166382703697 0 0)
(0.08144127774971842 0 0)
(0.07197977396517935 0 0)
(0.05944394838405922 0 0)
(0.03847388739392506 0 0)
(0.01238263289183123 0 0)
(-0.008806058545325131 0 0)
(-0.02356817976860099 0 0)
(-0.0362928120983446 0 0)
(-0.04922741151468336 0 0)
(-0.06507135347073252 0 0)
(-0.08598609836543544 0 0)
(-0.1075508373433606 0 0)
(-0.1197685023413808 0 0)
(-0.1248230177264393 0 0)
(-0.1275660344593288 0 0)
(-0.1290797506072792 0 0)
(-0.1277814988565439 0 0)
(-0.1250874398672573 0 0)
(-0.121673021918747 0 0)
(-0.1186381955840846 0 0)
(-0.1160819760420605 0 0)
(-0.1125670131974532 0 0)
(-0.1058736740389786 0 0)
(-0.09442999801797143 0 0)
(-0.07841440029027361 0 0)
(-0.05941423452334509 0 0)
(-0.03883645538586026 0 0)
(-0.0172487330652649 0 0)
(0.004153598895364027 0 0)
(0.02267936491878044 0 0)
(0.03733096168693534 0 0)
(0.05089842358320269 0 0)
(0.06825440973457053 0 0)
(0.09383647753004391 0 0)
(0.118554070080773 0 0)
(0.1263795680088664 0 0)
(0.1268511317695744 0 0)
(0.1270806653535369 0 0)
(0.1262847793447238 0 0)
(0.1245375414337311 0 0)
(0.1226279023006029 0 0)
(0.1214146799879228 0 0)
(0.1210742280448917 0 0)
(0.1206629297717269 0 0)
(0.1186401261900091 0 0)
(0.1136257805369014 0 0)
(0.1043434736229864 0 0)
(0.08886150232926153 0 0)
(0.06635898988028598 0 0)
(0.04138042052042466 0 0)
(0.02080794973454692 0 0)
(0.005353479003773112 0 0)
(-0.008709541830060553 0 0)
(-0.02497584393367253 0 0)
(-0.04717591405827286 0 0)
(-0.0789663535563561 0 0)
(-0.1129206388889354 0 0)
(-0.1281601711514186 0 0)
(-0.12969858866046 0 0)
(-0.1296259935091639 0 0)
(-0.1293924806494895 0 0)
(-0.1293054860042594 0 0)
(-0.1290216928633693 0 0)
(-0.1279715100918423 0 0)
(-0.1258032444454797 0 0)
(-0.1228725686191005 0 0)
(-0.1200097327289651 0 0)
(-0.1175885917815292 0 0)
(-0.1149041225958285 0 0)
(-0.1103345222511885 0 0)
(-0.1018212157398515 0 0)
(-0.08664484267486457 0 0)
(-0.0615304990581804 0 0)
(-0.02767579241094788 0 0)
(0.003192789516715262 0 0)
(0.02246229323501519 0 0)
(0.03592861726891945 0 0)
(0.05293203456008207 0 0)
(0.08212090772673976 0 0)
(0.1157566457216105 0 0)
(0.128473789739798 0 0)
(0.1292783151871596 0 0)
(0.1292206851722876 0 0)
(0.1291311639751212 0 0)
(0.1285343609643746 0 0)
(0.1272964751488851 0 0)
(0.1253903824741171 0 0)
(0.1231683996946995 0 0)
(0.1214559543517112 0 0)
(0.1204942865452554 0 0)
(0.1196765746056427 0 0)
(0.1183487973761817 0 0)
(0.1159563963226531 0 0)
(0.1113767503718754 0 0)
(0.1019428439228511 0 0)
(0.08331795095969359 0 0)
(0.05322893979033572 0 0)
(0.01807426556480847 0 0)
(-0.01364720784688135 0 0)
(-0.04439281023843527 0 0)
(-0.08150066792421511 0 0)
(-0.1160317521949243 0 0)
(-0.1273346204687545 0 0)
(-0.128139902289843 0 0)
(-0.1282976221638729 0 0)
(-0.1281496953266009 0 0)
(-0.1277536586824865 0 0)
(-0.1273554392731774 0 0)
(-0.1265719152060105 0 0)
(-0.1247346239298754 0 0)
(-0.1220149853963307 0 0)
(-0.1198643556337985 0 0)
(-0.1189740864622932 0 0)
(-0.1187339030680969 0 0)
(-0.1183861998318361 0 0)
(-0.1171349538998735 0 0)
(-0.1145561342842574 0 0)
(-0.1094842436172449 0 0)
(-0.09917559094299609 0 0)
(-0.08029377062828158 0 0)
(-0.04947277201582476 0 0)
(-0.001091376046026521 0 0)
(0.0657164953570208 0 0)
(0.1158075004012372 0 0)
(0.1265504454044207 0 0)
(0.1270303455911304 0 0)
(0.1271523825521673 0 0)
(0.1270945933318783 0 0)
(0.1268710861625429 0 0)
(0.126556689995695 0 0)
(0.1263622293342353 0 0)
(0.1259085911196877 0 0)
(0.1245093854227852 0 0)
(0.1220199045915145 0 0)
(0.1199205242610658 0 0)
(0.1192616292560309 0 0)
(0.1191231889257808 0 0)
(0.1190114495386741 0 0)
(0.1186749726071018 0 0)
(0.1178938663655472 0 0)
(0.1158866381748117 0 0)
(0.1111659119323229 0 0)
(0.09976867667121839 0 0)
(0.06970696144158119 0 0)
(-0.0006541297883945376 0 0)
(-0.09051249371187986 0 0)
(-0.1240101528059128 0 0)
(-0.1259692048413455 0 0)
(-0.1260063192661536 0 0)
(-0.126088295353589 0 0)
(-0.125989098133747 0 0)
(-0.1257973019814279 0 0)
(-0.1256489028497342 0 0)
(-0.1256236750371972 0 0)
(-0.1249628272126235 0 0)
(-0.1233845277398725 0 0)
(-0.121315986576954 0 0)
(-0.1202601106619181 0 0)
(-0.1200978160952827 0 0)
(-0.1199785987044879 0 0)
(-0.1198186307710445 0 0)
(-0.1197653621082264 0 0)
(-0.1195447048915025 0 0)
(-0.118304429272678 0 0)
(-0.1154028847698345 0 0)
(-0.1061884549244743 0 0)
(-0.07861616455668828 0 0)
(-0.009178807777340701 0 0)
(0.08556910101695828 0 0)
(0.1234672521268574 0 0)
(0.1258939387115297 0 0)
(0.1258572318800437 0 0)
(0.1257869910782648 0 0)
(0.1258685092555717 0 0)
(0.1257752684206563 0 0)
(0.1254954568565367 0 0)
(0.1252709517883704 0 0)
(0.1254526243894001 0 0)
(0.1247154827564832 0 0)
(0.1229455502033759 0 0)
(0.1216978357015303 0 0)
(0.1215053535442363 0 0)
(0.1213222987417851 0 0)
(0.1204177912655632 0 0)
(0.120069479871916 0 0)
(0.1213369129777876 0 0)
(0.119592341443976 0 0)
(0.1152603779589349 0 0)
(0.1112584922727502 0 0)
(0.08553728608353714 0 0)
(0.01695171883796355 0 0)
(-0.08161636843079802 0 0)
(-0.1227327931877308 0 0)
(-0.125657215422412 0 0)
(-0.1257660875056436 0 0)
(-0.1254871748429249 0 0)
(-0.1252486618275723 0 0)
(-0.1254906457264593 0 0)
(-0.125513477065407 0 0)
(-0.1248981174920556 0 0)
(-0.1243246731265862 0 0)
(-0.1247283560421134 0 0)
(-0.1241491838434454 0 0)
(-0.1227335544399024 0 0)
(-0.1215304552028683 0 0)
(-0.1221072874804541 0 0)
(-0.1228211602203993 0 0)
(-0.1211025073647139 0 0)
(-0.1187011711217092 0 0)
(-0.1193820200411832 0 0)
(-0.1177833203014075 0 0)
(-0.1080669665982285 0 0)
(-0.09057966286113298 0 0)
(-0.02942136429059885 0 0)
(0.07000320221790576 0 0)
(0.1203670746328398 0 0)
(0.1247592738014899 0 0)
(0.124797047605138 0 0)
(0.1248919091606483 0 0)
(0.1247489561809201 0 0)
(0.1243576106335017 0 0)
(0.123966349294122 0 0)
(0.124053699324092 0 0)
(0.1241068309940935 0 0)
(0.1235552108460683 0 0)
(0.1228466612253911 0 0)
(0.1228404994450108 0 0)
(0.1230043374360573 0 0)
(0.1221078020423476 0 0)
(0.1208773726362401 0 0)
(0.1206349969023244 0 0)
(0.1209693031992447 0 0)
(0.1193779537485193 0 0)
(0.1156104504179923 0 0)
(0.1119358638877934 0 0)
(0.09237230736254637 0 0)
(0.03950535825275009 0 0)
(-0.05622390566276757 0 0)
(-0.1166413446692334 0 0)
(-0.1242063511212227 0 0)
(-0.1244317600932953 0 0)
(-0.1241319162774597 0 0)
(-0.123807855978373 0 0)
(-0.1237847851344853 0 0)
(-0.1237272960193059 0 0)
(-0.1234123272198696 0 0)
(-0.1230372984844487 0 0)
(-0.1230842380238173 0 0)
(-0.123216940066097 0 0)
(-0.1226722323223048 0 0)
(-0.1219126127796681 0 0)
(-0.1218515029688989 0 0)
(-0.1220424893992912 0 0)
(-0.1211169095368139 0 0)
(-0.1197819813569203 0 0)
(-0.1193809092112369 0 0)
(-0.1185376863660185 0 0)
(-0.1118123772710979 0 0)
(-0.09735284571502831 0 0)
(-0.04982714329336918 0 0)
(0.04315563362327594 0 0)
(0.1125587326903839 0 0)
(0.1234157673836332 0 0)
(0.1236866721640065 0 0)
(0.123826406503216 0 0)
(0.1235611961070793 0 0)
(0.1230580004355356 0 0)
(0.1227844567771417 0 0)
(0.1228737656583963 0 0)
(0.1228383136530797 0 0)
(0.1224437196474295 0 0)
(0.1221021355831954 0 0)
(0.1224194776462265 0 0)
(0.1224221103932292 0 0)
(0.1215185688437371 0 0)
(0.1205983437363603 0 0)
(0.1210527505825736 0 0)
(0.1210007952579978 0 0)
(0.119042436218835 0 0)
(0.1160800109911846 0 0)
(0.1144496140727095 0 0)
(0.1000473200971686 0 0)
(0.06064691521014923 0 0)
(-0.02739399728451472 0 0)
(-0.1067710594457785 0 0)
(-0.1230597305284915 0 0)
(-0.1234967187439621 0 0)
(-0.1233241142934899 0 0)
(-0.1231795877506471 0 0)
(-0.1230270647658742 0 0)
(-0.1226756536076871 0 0)
(-0.1223683994526216 0 0)
(-0.1222070296154248 0 0)
(-0.1224649092707676 0 0)
(-0.1224519665829565 0 0)
(-0.1219016761714718 0 0)
(-0.121479092000182 0 0)
(-0.1219421222608838 0 0)
(-0.1217664324855795 0 0)
(-0.1205612941492231 0 0)
(-0.1193677523628887 0 0)
(-0.119955881854135 0 0)
(-0.1185692917243036 0 0)
(-0.1128248559555851 0 0)
(-0.1040742392694475 0 0)
(-0.06948400988014893 0 0)
(0.01113205859811121 0 0)
(0.09854620264990074 0 0)
(0.1223385420049517 0 0)
(0.1233612910002983 0 0)
(0.1235169977227196 0 0)
(0.1232226363523164 0 0)
(0.1226859023232694 0 0)
(0.1223831166928031 0 0)
(0.1223166853036786 0 0)
(0.1221296743305728 0 0)
(0.1217917032522563 0 0)
(0.1217258569707001 0 0)
(0.1221440689621821 0 0)
(0.1218942748508852 0 0)
(0.1210420484484104 0 0)
(0.1204853730750889 0 0)
(0.1211476264222008 0 0)
(0.1205523880885471 0 0)
(0.1186571851588628 0 0)
(0.1168878365995568 0 0)
(0.1159294056385303 0 0)
(0.1052581506555019 0 0)
(0.0778504891691653 0 0)
(0.004449243168297859 0 0)
(-0.08909573275079415 0 0)
(-0.1216078661725053 0 0)
(-0.1232906409056631 0 0)
(-0.1232197638067652 0 0)
(-0.1231826508575449 0 0)
(-0.1229556295186819 0 0)
(-0.1223767693776388 0 0)
(-0.1219344243060309 0 0)
(-0.1218333959773066 0 0)
(-0.1220002349603241 0 0)
(-0.1220029873873625 0 0)
(-0.1215499121864708 0 0)
(-0.1213618266713551 0 0)
(-0.1218333278807008 0 0)
(-0.1212786886730006 0 0)
(-0.1200729455683835 0 0)
(-0.1194523670088147 0 0)
(-0.1201813438886391 0 0)
(-0.1185620704557535 0 0)
(-0.1139313994528278 0 0)
(-0.1088577313196106 0 0)
(-0.08399761846265076 0 0)
(-0.01928907375948678 0 0)
(0.07682457577789135 0 0)
(0.11984545072745 0 0)
(0.1232249366211464 0 0)
(0.1233788357223407 0 0)
(0.1230888032093252 0 0)
(0.1226696543264764 0 0)
(0.1224076560096652 0 0)
(0.122106490811327 0 0)
(0.1217279486611972 0 0)
(0.1214149351215866 0 0)
(0.1216542213779657 0 0)
(0.1221094418828162 0 0)
(0.1216376932981764 0 0)
(0.1208429278956463 0 0)
(0.1207975259980486 0 0)
(0.1212947021388685 0 0)
(0.1201967323796784 0 0)
(0.1184101150867203 0 0)
(0.1178382725268566 0 0)
(0.1169055822673164 0 0)
(0.1085843545845036 0 0)
(0.09035182595535146 0 0)
(0.03311201652054761 0 0)
(-0.06372411707593452 0 0)
(-0.1178556857799581 0 0)
(-0.1233680756176755 0 0)
(-0.1234376801846791 0 0)
(-0.1235184403494053 0 0)
(-0.1232771148541067 0 0)
(-0.1225861887725941 0 0)
(-0.1219426608314488 0 0)
(-0.1217068872015934 0 0)
(-0.1216507261881815 0 0)
(-0.1214928343799744 0 0)
(-0.1213509814651245 0 0)
(-0.1215333301057871 0 0)
(-0.1217619247064192 0 0)
(-0.1209577293586299 0 0)
(-0.1198609733242169 0 0)
(-0.1199484164564506 0 0)
(-0.1202836223813476 0 0)
(-0.1184185224292184 0 0)
(-0.1147886249197003 0 0)
(-0.1121829198481693 0 0)
(-0.0945257530158979 0 0)
(-0.04650300928180146 0 0)
(0.04711880101279901 0 0)
(0.1139794364148538 0 0)
(0.1239227762702938 0 0)
(0.124183838203475 0 0)
(0.1238983638809352 0 0)
(0.1235665725616043 0 0)
(0.1233490877280688 0 0)
(0.1224773226522213 0 0)
(0.1213946403596072 0 0)
(0.1209825695355891 0 0)
(0.121283052800184 0 0)
(0.1216107159948357 0 0)
(0.1211173272656696 0 0)
(0.1205834639657538 0 0)
(0.1209881302401028 0 0)
(0.1209664099619011 0 0)
(0.1196618860757914 0 0)
(0.1182107925846772 0 0)
(0.1186226287850813 0 0)
(0.117322974970951 0 0)
(0.1106753086446211 0 0)
(0.09944609385408616 0 0)
(0.05769378732351649 0 0)
(-0.03114835648686008 0 0)
(-0.108641394668328 0 0)
(-0.1237899462540501 0 0)
(-0.1242523929170228 0 0)
(-0.1244131852318656 0 0)
(-0.1241093353044882 0 0)
(-0.1233291203754898 0 0)
(-0.1225669942229511 0 0)
(-0.1217522846929071 0 0)
(-0.1212291517890371 0 0)
(-0.120911301877445 0 0)
(-0.1209799819769573 0 0)
(-0.1214076437457046 0 0)
(-0.1213665900412121 0 0)
(-0.1205060047155884 0 0)
(-0.119743806565554 0 0)
(-0.120316076028311 0 0)
(-0.1199721071619626 0 0)
(-0.1180789625562991 0 0)
(-0.1156935411365664 0 0)
(-0.114316188130848 0 0)
(-0.1015990533255132 0 0)
(-0.06800218356327488 0 0)
(0.0134426859822618 0 0)
(0.1006855181503697 0 0)
(0.1240494613636741 0 0)
(0.1249348488025728 0 0)
(0.1247370346716175 0 0)
(0.1245509833865646 0 0)
(0.1243079849220582 0 0)
(0.1231517831502268 0 0)
(0.1215955557659663 0 0)
(0.1208832675043064 0 0)
(0.120963430610117 0 0)
(0.1210854422648269 0 0)
(0.1206722793675005 0 0)
(0.1204601666035711 0 0)
(0.1210507659279181 0 0)
(0.1205621850167557 0 0)
(0.1192690011003235 0 0)
(0.1184082276460818 0 0)
(0.1192521090495089 0 0)
(0.1175062874401191 0 0)
(0.11211963949373 0 0)
(0.1057596557671574 0 0)
(0.07629458799515804 0 0)
(0.003165837104703126 0 0)
(-0.0905446288983713 0 0)
(-0.1235705821529732 0 0)
(-0.1255479705971074 0 0)
(-0.1257686308979964 0 0)
(-0.1253788978658504 0 0)
(-0.124624496856776 0 0)
(-0.1239675068244316 0 0)
(-0.1223605719442545 0 0)
(-0.1207607625472819 0 0)
(-0.1202539990120494 0 0)
(-0.1204503536580958 0 0)
(-0.1209477241249387 0 0)
(-0.1205087582859844 0 0)
(-0.1196366947448574 0 0)
(-0.1195453799384758 0 0)
(-0.1201043824940262 0 0)
(-0.1188767922552792 0 0)
(-0.1168564852522797 0 0)
(-0.1161405539496142 0 0)
(-0.1150783844000388 0 0)
(-0.1056021179965634 0 0)
(-0.08479835248628924 0 0)
(-0.02264897371601686 0 0)
(0.07466298314207115 0 0)
(0.1223441296506429 0 0)
(0.1263798941702672 0 0)
(0.1262063120376772 0 0)
(0.1260799648160976 0 0)
(0.1260697584216191 0 0)
(0.1254632731771874 0 0)
(0.1242068691036443 0 0)
(0.1230884397896898 0 0)
(0.1206903523272469 0 0)
(0.1184867080968226 0 0)
(0.1176790507087652 0 0)
(0.1176289168210612 0 0)
(0.1182909811219598 0 0)
(0.1172516290942263 0 0)
(0.1150746631020396 0 0)
(0.1135720284451413 0 0)
(0.103189049816901 0 0)
(0.07447452895017001 0 0)
(0.02700649198556461 0 0)
(0.002269882312714314 0 0)
(1.726362409068552e-05 0 0)
(4.313655506109358e-09 0 0)
(-1.833700964415232e-12 0 0)
(-1.816319912619926e-12 0 0)
(-1.477389402609303e-12 0 0)
(-1.01679153003117e-12 0 0)
(-3.736926136011242e-13 0 0)
(-6.952420718145725e-14 0 0)
(-1.477389402607772e-13 0 0)
(-5.301220797596621e-13 0 0)
(-7.213136495091671e-13 0 0)
(-8.864336415655165e-13 0 0)
(-1.016791530030969e-12 0 0)
(-1.008101004133407e-12 0 0)
(-1.20798309978055e-12 0 0)
(-1.16453047029215e-12 0 0)
(-1.286197832859988e-12 0 0)
(-1.199292573882935e-12 0 0)
(-1.155839944394489e-12 0 0)
(-1.034172581826726e-12 0 0)
(-9.559578487473098e-13 0 0)
(-8.777431156681247e-13 0 0)
(-8.255999602819072e-13 0 0)
(-1.07762521131538e-12 0 0)
(-1.164530470292431e-12 0 0)
(-1.181911522087721e-12 0 0)
(-1.225364151576394e-12 0 0)
(-1.373103091837347e-12 0 0)
(-1.425246247223425e-12 0 0)
(-1.416555721325803e-12 0 0)
(-1.373103091837335e-12 0 0)
(-1.294888358757953e-12 0 0)
(-1.286197832860286e-12 0 0)
(-1.155839944394601e-12 0 0)
(-1.199292573883217e-12 0 0)
(-1.016791530031419e-12 0 0)
(-9.038146933611802e-13 0 0)
(-9.907199523382389e-13 0 0)
(-9.559578487474881e-13 0 0)
(-9.820294264405741e-13 0 0)
(-9.038146933612841e-13 0 0)
(-1.077625211315228e-12 0 0)
(-1.164530470292359e-12 0 0)
(-1.399174669530287e-12 0 0)
(-1.381793617734751e-12 0 0)
(-1.390484143632644e-12 0 0)
(-1.486079928507376e-12 0 0)
(-1.64250939466597e-12 0 0)
(-1.790248334927048e-12 0 0)
(-1.885844119801504e-12 0 0)
(-2.050964111858165e-12 0 0)
(-2.120488319039767e-12 0 0)
(-2.259536733402848e-12 0 0)
(-2.415966199561856e-12 0 0)
(-2.511561984436484e-12 0 0)
(-2.546324088027471e-12 0 0)
(-2.607157769311299e-12 0 0)
(-2.589776717515793e-12 0 0)
(-2.633229347004527e-12 0 0)
(-2.581086191618263e-12 0 0)
(-2.442037777254822e-12 0 0)
(-2.485490406743614e-12 0 0)
(-2.476799880845773e-12 0 0)
(-2.615848295209153e-12 0 0)
(-2.520252510334272e-12 0 0)
(-2.233465155709879e-12 0 0)
(-2.059654637756112e-12 0 0)
(-1.607747291075454e-12 0 0)
(-1.416555721325936e-12 0 0)
(-1.286197832860472e-12 0 0)
(-1.355722040042126e-12 0 0)
(-1.407865195428358e-12 0 0)
(-1.494770454405308e-12 0 0)
(-1.55560413568908e-12 0 0)
(-1.685962024154682e-12 0 0)
(-1.746795705438735e-12 0 0)
(-1.781557809029292e-12 0 0)
(-1.677271498256937e-12 0 0)
(-1.746795705438661e-12 0 0)
(-1.729414653643141e-12 0 0)
(-1.685962024154713e-12 0 0)
(-1.729414653643026e-12 0 0)
(-1.703343075950041e-12 0 0)
(-1.694652550052345e-12 0 0)
(-1.798938860824662e-12 0 0)
(-1.790248334927008e-12 0 0)
(-1.833700964415615e-12 0 0)
(-1.79893886082469e-12 0 0)
(-1.685962024154658e-12 0 0)
(-1.564294661586677e-12 0 0)
(-1.494770454405187e-12 0 0)
(-1.460008350814403e-12 0 0)
(-1.381793617734899e-12 0 0)
(-1.433936773121375e-12 0 0)
(-1.303578884655748e-12 0 0)
(-1.294888358758106e-12 0 0)
(-1.338340988246614e-12 0 0)
(-1.546913609791198e-12 0 0)
(-1.486079928507494e-12 0 0)
(-1.390484143632712e-12 0 0)
(-1.199292573883163e-12 0 0)
(-1.181911522087839e-12 0 0)
(-1.286197832860257e-12 0 0)
(-1.390484143632753e-12 0 0)
(-1.39048414363268e-12 0 0)
(-1.260126255167108e-12 0 0)
(-1.173220996190158e-12 0 0)
(-1.147149418497021e-12 0 0)
(-1.077625211315238e-12 0 0)
(-9.820294264406462e-13 0 0)
(-1.008101004133659e-12 0 0)
(-9.125052192590329e-13 0 0)
(-8.342904861796362e-13 0 0)
(-7.473852272025314e-13 0 0)
(-6.083368128393572e-13 0 0)
(-4.692883984761285e-13 0 0)
(-4.69288398476074e-13 0 0)
(-3.302399841128162e-13 0 0)
(-4.779789243738326e-13 0 0)
(-4.692883984760643e-13 0 0)
(-5.561936574531138e-13 0 0)
(-5.735747092484878e-13 0 0)
(-6.952420718163399e-13 0 0)
(-8.255999602819458e-13 0 0)
(-9.125052192588825e-13 0 0)
(-8.342904861795878e-13 0 0)
(-5.90955761043903e-13 0 0)
(-4.432168207829155e-13 0 0)
(-5.388126056577205e-13 0 0)
(-8.342904861795526e-13 0 0)
(-9.994104782360323e-13 0 0)
(-1.234054677473936e-12 0 0)
(-1.407865195427946e-12 0 0)
(-1.49477045440519e-12 0 0)
(-1.607747291075073e-12 0 0)
(-1.642509394665893e-12 0 0)
(-1.642509394665968e-12 0 0)
(-1.685962024154317e-12 0 0)
(-1.633818868768314e-12 0 0)
(-1.590366239279727e-12 0 0)
(-1.616437816972892e-12 0 0)
(-1.52953255799582e-12 0 0)
(-1.616437816972823e-12 0 0)
(-1.381793617734977e-12 0 0)
(-1.190602047985463e-12 0 0)
(-1.068934685417584e-12 0 0)
(-1.042863107724546e-12 0 0)
(-9.907199523383239e-13 0 0)
(-9.907199523383324e-13 0 0)
(-1.164530470292384e-12 0 0)
(-1.138458892599107e-12 0 0)
(-1.16453047029242e-12 0 0)
(-1.312269410553285e-12 0 0)
(-1.103696789008356e-12 0 0)
(-1.025482055929145e-12 0 0)
(-8.60362063872803e-13 0 0)
(-8.603620638728075e-13 0 0)
(-9.646483746452427e-13 0 0)
(-9.38576796952066e-13 0 0)
(-1.008101004133734e-12 0 0)
(-1.112387314906224e-12 0 0)
(-1.129768366701475e-12 0 0)
(-1.225364151576287e-12 0 0)
(-1.355722040041838e-12 0 0)
(-1.59905676517754e-12 0 0)
(-1.877153593904023e-12 0 0)
(-2.016202008267054e-12 0 0)
(-1.93798727518798e-12 0 0)
(-1.790248334926935e-12 0 0)
(-1.503460980302696e-12 0 0)
(-1.425246247223528e-12 0 0)
(-1.242745203371811e-12 0 0)
(-1.13845889259942e-12 0 0)
(-9.38576796952247e-13 0 0)
(-1.008101004133888e-12 0 0)
(-1.138458892599418e-12 0 0)
(-1.190602047985715e-12 0 0)
(-1.390484143632696e-12 0 0)
(-1.677271498257029e-12 0 0)
(-2.120488319039838e-12 0 0)
(-2.415966199561722e-12 0 0)
(-2.77227776136761e-12 0 0)
(-3.067755641889176e-12 0 0)
(-3.206804056252862e-12 0 0)
(-3.319780892922832e-12 0 0)
(-3.154660900866399e-12 0 0)
(-3.050374590094163e-12 0 0)
(-2.911326175730889e-12 0 0)
(-2.885254598037967e-12 0 0)
(-2.928707227526458e-12 0 0)
(-2.980850382912458e-12 0 0)
(-3.154660900866629e-12 0 0)
(-3.276328263434712e-12 0 0)
(-3.48490088497901e-12 0 0)
(-3.623949299342614e-12 0 0)
(-3.849902972682949e-12 0 0)
(-3.806450343194403e-12 0 0)
(-3.702164032421924e-12 0 0)
(-3.606568247546714e-12 0 0)
(-3.484900884979402e-12 0 0)
(-3.528353514467725e-12 0 0)
(-3.519662988569924e-12 0 0)
(-3.502281936774855e-12 0 0)
(-3.267637737536828e-12 0 0)
(-3.128589323173527e-12 0 0)
(-2.998231434707996e-12 0 0)
(-2.97215985701472e-12 0 0)
(-2.859183020344539e-12 0 0)
(-2.807039864958738e-12 0 0)
(-3.024303012400763e-12 0 0)
(-3.180732478559786e-12 0 0)
(-3.328471418820703e-12 0 0)
(-3.432757729593131e-12 0 0)
(-3.519662988570293e-12 0 0)
(-3.554425092160569e-12 0 0)
(-3.658711402933764e-12 0 0)
(-3.615258773444621e-12 0 0)
(-3.580496669853992e-12 0 0)
(-3.615258773444875e-12 0 0)
(-3.710854558319538e-12 0 0)
(-3.823831394989891e-12 0 0)
(-3.702164032421914e-12 0 0)
(-3.493591410876891e-12 0 0)
(-3.371924048309023e-12 0 0)
(-3.241566159843962e-12 0 0)
(-3.128589323173147e-12 0 0)
(-3.14597037496893e-12 0 0)
(-3.076446167787366e-12 0 0)
(-2.980850382912689e-12 0 0)
(-3.050374590094247e-12 0 0)
(-2.954778805219138e-12 0 0)
(-2.980850382912922e-12 0 0)
(-2.885254598037798e-12 0 0)
(-2.79834933906089e-12 0 0)
(-2.728825131879295e-12 0 0)
(-2.754896709572478e-12 0 0)
(-2.728825131879241e-12 0 0)
(-2.711444080083892e-12 0 0)
(-2.754896709572481e-12 0 0)
(-2.62453882110675e-12 0 0)
(-2.737515657777382e-12 0 0)
(-2.815730390856167e-12 0 0)
(-2.798349339061041e-12 0 0)
(-2.841801968549607e-12 0 0)
(-3.059065115992032e-12 0 0)
(-3.302399841127806e-12 0 0)
(-3.2589472116393e-12 0 0)
(-3.684782980626775e-12 0 0)
(-3.841212446784799e-12 0 0)
(-4.145380853205064e-12 0 0)
(-4.336572422954475e-12 0 0)
(-4.397406104238295e-12 0 0)
(-4.423477681931528e-12 0 0)
(-4.23228611218203e-12 0 0)
(-4.049785068330301e-12 0 0)
(-3.823831394989168e-12 0 0)
(-3.771688239603765e-12 0 0)
(-3.632639825240493e-12 0 0)
(-3.537044040366433e-12 0 0)
(-3.44144825549088e-12 0 0)
(-3.380614574207209e-12 0 0)
(-3.389305100104138e-12 0 0)
(-3.545734566263385e-12 0 0)
(-3.467519833184124e-12 0 0)
(-3.302399841127738e-12 0 0)
(-3.441448255490895e-12 0 0)
(-3.41537667779768e-12 0 0)
(-3.293709315229932e-12 0 0)
(-3.172041952661474e-12 0 0)
(-2.998231434708054e-12 0 0)
(-2.859183020344739e-12 0 0)
(-2.711444080083822e-12 0 0)
(-2.876564072140023e-12 0 0)
(-2.980850382912421e-12 0 0)
(-3.102517745480363e-12 0 0)
(-3.232875633945935e-12 0 0)
(-3.328471418820624e-12 0 0)
(-3.337161944717721e-12 0 0)
(-3.397995626002298e-12 0 0)
(-3.311090367025093e-12 0 0)
(-3.224185108048241e-12 0 0)
(-3.154660900866569e-12 0 0)
(-3.059065115991913e-12 0 0)
(-2.954778805219503e-12 0 0)
(-2.937397753423479e-12 0 0)
(-3.093827219582862e-12 0 0)
(-3.067755641889576e-12 0 0)
(-2.9547788052195e-12 0 0)
(-2.963469331117163e-12 0 0)
(-2.728825131879156e-12 0 0)
(-2.859183020344754e-12 0 0)
(-2.685372502390587e-12 0 0)
(-2.650610398799998e-12 0 0)
(-2.433347251356787e-12 0 0)
(-2.381204095971193e-12 0 0)
(-2.085726215449243e-12 0 0)
(-1.790248334927393e-12 0 0)
(-1.82501043851809e-12 0 0)
(-1.990130430574321e-12 0 0)
(-2.30298936289171e-12 0 0)
(-2.563705139822381e-12 0 0)
(-2.850492494446998e-12 0 0)
(-2.954778805219399e-12 0 0)
(-3.119898797275743e-12 0 0)
(-3.345852470615932e-12 0 0)
(-3.467519833183744e-12 0 0)
(-3.571806143956233e-12 0 0)
(-3.502281936774653e-12 0 0)
(-3.389305100104497e-12 0 0)
(-3.432757729592304e-12 0 0)
(-3.467519833184021e-12 0 0)
(-3.406686151899837e-12 0 0)
(-3.241566159843612e-12 0 0)
(-3.006921960605545e-12 0 0)
(-2.789658813162877e-12 0 0)
(-2.824420916753847e-12 0 0)
(-2.615848295208584e-12 0 0)
(-2.581086191618147e-12 0 0)
(-2.459418829050356e-12 0 0)
(-2.502871458538873e-12 0 0)
(-2.581086191618202e-12 0 0)
(-2.502871458538766e-12 0 0)
(-2.511561984436648e-12 0 0)
(-2.476799880845652e-12 0 0)
(-2.598467243413545e-12 0 0)
(-2.476799880845294e-12 0 0)
(-2.528943036231959e-12 0 0)
(-2.598467243413495e-12 0 0)
(-2.694063028288133e-12 0 0)
(-2.789658813162823e-12 0 0)
(-2.807039864958365e-12 0 0)
(-2.824420916753771e-12 0 0)
(-2.867873546241727e-12 0 0)
(-2.972159857014628e-12 0 0)
(-3.059065115991569e-12 0 0)
(-3.137279849070951e-12 0 0)
(-3.198113530354868e-12 0 0)
(-3.380614574206573e-12 0 0)
(-3.432757729592762e-12 0 0)
(-3.345852470615665e-12 0 0)
(-3.354542996513499e-12 0 0)
(-3.163351426763481e-12 0 0)
(-3.145970374968703e-12 0 0)
(-3.015612486503264e-12 0 0)
(-2.954778805219241e-12 0 0)
(-2.98085038291234e-12 0 0)
(-3.041684064196448e-12 0 0)
(-3.11989879727573e-12 0 0)
(-3.145970374968505e-12 0 0)
(-3.172041952662042e-12 0 0)
(-3.18073247855974e-12 0 0)
(-3.3719240483092e-12 0 0)
(-3.397995626001984e-12 0 0)
(-3.476210359081634e-12 0 0)
(-3.519662988570169e-12 0 0)
(-3.484900884979329e-12 0 0)
(-3.328471418820161e-12 0 0)
(-3.16335142676436e-12 0 0)
(-3.215494582150443e-12 0 0)
(-3.241566159843692e-12 0 0)
(-3.285018789331706e-12 0 0)
(-3.154660900866707e-12 0 0)
(-3.180732478559757e-12 0 0)
(-3.250256685741222e-12 0 0)
(-3.189423004457157e-12 0 0)
(-3.337161944718258e-12 0 0)
(-3.232875633945994e-12 0 0)
(-3.137279849071288e-12 0 0)
(-3.128589323173224e-12 0 0)
(-3.076446167787322e-12 0 0)
(-3.0677556418896e-12 0 0)
(-3.128589323173533e-12 0 0)
(-3.2502566857414e-12 0 0)
(-3.067755641889283e-12 0 0)
(-3.09382721958276e-12 0 0)
(-3.0938272195827e-12 0 0)
(-3.032993538298649e-12 0 0)
(-2.972159857014658e-12 0 0)
(-3.015612486503268e-12 0 0)
(-3.093827219582847e-12 0 0)
(-3.015612486503478e-12 0 0)
(-3.102517745480163e-12 0 0)
(-2.867873546242559e-12 0 0)
(-2.954778805219618e-12 0 0)
(-3.032993538298964e-12 0 0)
(-3.267637737536634e-12 0 0)
(-3.319780892923177e-12 0 0)
(-3.285018789332373e-12 0 0)
(-3.215494582150621e-12 0 0)
(-3.293709315229661e-12 0 0)
(-3.450138781388423e-12 0 0)
(-3.397995626002337e-12 0 0)
(-3.424067203695274e-12 0 0)
(-3.26763773753647e-12 0 0)
(-3.215494582150612e-12 0 0)
(-3.337161944718447e-12 0 0)
(-3.450138781388542e-12 0 0)
(-3.54573456626329e-12 0 0)
(-3.580496669853745e-12 0 0)
(-3.641330351137767e-12 0 0)
(-3.493591410876943e-12 0 0)
(-3.337161944718134e-12 0 0)
(-3.18073247855936e-12 0 0)
(-3.032993538298647e-12 0 0)
(-3.015612486503143e-12 0 0)
(-3.024303012401091e-12 0 0)
(-2.893945123935233e-12 0 0)
(-2.659300924697579e-12 0 0)
(-2.589776717515934e-12 0 0)
(-2.563705139822832e-12 0 0)
(-2.49418093264093e-12 0 0)
(-2.302989362891727e-12 0 0)
(-2.242155681607794e-12 0 0)
(-2.216084103914716e-12 0 0)
(-2.12917884493743e-12 0 0)
(-2.129178844937493e-12 0 0)
(-1.946677801085907e-12 0 0)
(-2.120488319039992e-12 0 0)
(-2.137869370835138e-12 0 0)
(-2.311679888789251e-12 0 0)
(-2.485490406743519e-12 0 0)
(-2.57239566572057e-12 0 0)
(-2.667991450595263e-12 0 0)
(-2.650610398799561e-12 0 0)
(-2.72013460598145e-12 0 0)
(-2.615848295208916e-12 0 0)
(-2.676681976492717e-12 0 0)
(-2.676681976492611e-12 0 0)
(-2.598467243413473e-12 0 0)
(-2.4159661995618e-12 0 0)
(-2.450728303152388e-12 0 0)
(-2.450728303152072e-12 0 0)
(-2.555014613924885e-12 0 0)
(-2.589776717515814e-12 0 0)
(-2.407275673663998e-12 0 0)
(-2.433347251356839e-12 0 0)
(-2.329060940584502e-12 0 0)
(-2.389894621868643e-12 0 0)
(-2.459418829050133e-12 0 0)
(-2.415966199561463e-12 0 0)
(-2.485490406743154e-12 0 0)
(-2.329060940584712e-12 0 0)
(-2.294298836993684e-12 0 0)
(-2.198703052118911e-12 0 0)
(-2.233465155709927e-12 0 0)
(-2.22477462981201e-12 0 0)
)
;

boundaryField
{
    inlet
    {
        type            zeroGradient;
    }
    outlet
    {
        type            pressureInletOutletVelocity;
        value           uniform (-2.22477462981201e-12 0 0);
    }
    frontAndBack
    {
        type            empty;
    }
}


// ************************************************************************* //
