/*--------------------------------*- C++ -*----------------------------------*\
| =========                 |                                                 |
| \\      /  F ield         | OpenFOAM: The Open Source CFD Toolbox           |
|  \\    /   O peration     | Version:  v2012                                 |
|   \\  /    A nd           | Website:  www.openfoam.com                      |
|    \\/     M anipulation  |                                                 |
\*---------------------------------------------------------------------------*/
FoamFile
{
    version     2.0;
    format      ascii;
    class       volScalarField;
    location    "0.004";
    object      p;
}
// * * * * * * * * * * * * * * * * * * * * * * * * * * * * * * * * * * * * * //

dimensions      [1 -1 -2 0 0 0 0];


internalField   nonuniform List<scalar> 
1000
(
101310.9380966889
101313.5724372216
101306.8348071104
101301.5420994048
101295.7112364352
101290.4706694227
101285.9476088863
101282.0733276607
101278.7525781115
101276.534982977
101275.9542537435
101275.969178104
101276.3366737336
101277.3496037776
101279.3269122076
101282.3312092162
101286.2486799683
101290.9017690895
101296.1441907399
101301.8747984481
101308.0098017001
101314.4582671813
101321.1138165858
101327.8543613004
101334.5452150713
101341.0502044148
101347.2533393784
101353.0850390537
101358.5368349356
101363.620531213
101368.1801136795
101371.5661659849
101373.0165441873
101373.1838971808
101373.1119778578
101372.848823748
101372.1074161215
101370.6543873896
101368.280913338
101364.8917873192
101360.5267458854
101355.3390877219
101349.5330005048
101343.2998746202
101336.788466418
101330.1122766708
101323.3716439308
101316.6689709239
101310.1088171182
101303.7802903256
101297.7280985907
101291.9500997104
101286.4977236852
101281.7450906754
101278.5846755932
101277.5084568423
101277.4351968514
101277.4760549561
101277.7371623166
101278.3796779432
101279.6293040914
101281.6773196437
101284.6600742938
101288.6210719184
101293.4989442556
101299.1416666911
101305.344925919
101311.8994717095
101318.6264039457
101325.3879564041
101332.0811986122
101338.6338656301
101345.009863234
101351.2078001915
101357.221766218
101362.9235444657
101367.8250778042
101370.9812476554
101372.0195944297
101372.0955664971
101372.0388829483
101371.8335782001
101371.2868977205
101370.2245163389
101368.4610574554
101365.8455346635
101362.2876096781
101357.7813963641
101352.4115010228
101346.3386996737
101339.7702812187
101332.9235231753
101325.9904425104
101319.112318746
101312.3706738871
101305.7940036128
101299.3771639582
101293.1319170568
101287.2296711676
101282.2704362113
101279.2684160139
101278.3940011066
101278.3496108666
101278.3859550848
101278.5939430105
101279.0992623743
101280.0781078763
101281.6958877036
101284.0979197842
101287.3837826856
101291.5877651152
101296.6657930636
101302.4961729507
101308.8979448079
101315.6623623117
101322.5873008092
101329.5071887482
101336.3153345167
101342.9720389679
101349.4844702557
101355.8399788409
101361.862807322
101366.9737830928
101370.1776259337
101371.2029025073
101371.2812492886
101371.2386555645
101371.0807189345
101370.6537906467
101369.8142171518
101368.4019306926
101366.2703739906
101363.3036471144
101359.4372667935
101354.6732300319
101349.0862084371
101342.8186500796
101336.0623609196
101329.0263590307
101321.8986643667
101314.8160548209
101307.8531522744
101301.0382330359
101294.4158251059
101288.2057108033
101283.0658632443
101280.0148392269
101279.1359027162
101279.0861752493
101279.1135449075
101279.2776226624
101279.6851196939
101280.4835582251
101281.8172650964
101283.8230894427
101286.6124012178
101290.2550860428
101294.7643158244
101300.0877762264
101306.1101901654
101312.6676589448
101319.5709941506
101326.6355465115
101333.7130369029
101340.7127551677
101347.5926909126
101354.2998551002
101360.6292843284
101365.9854037324
101369.3698438491
101370.49540905
101370.5955112336
101370.5648827163
101370.4464882052
101370.1097079679
101369.431571974
101368.2705970211
101366.4907265907
101363.9725011861
101360.6288892216
101356.4191593216
101351.3594491399
101345.5277280915
101339.058895485
101332.1263544972
101324.9129183566
101317.5807603037
101310.2515005102
101303.0095283812
101295.9564745629
101289.3680052653
101283.9492921753
101280.732618787
101279.7793589106
101279.7139816008
101279.7345037293
101279.8652403665
101280.1972875037
101280.8588600656
101281.9783260959
101283.6828615023
101286.0845405671
101289.2678618664
101293.2764251286
101298.1027455195
101303.6848473483
101309.9106947082
101316.6303079925
101323.676607171
101330.8932790177
101338.1584697543
101345.3845964079
101352.4708383006
101359.1738250382
101364.8768466116
101368.5601900498
101369.8629833867
101370.0017969923
101369.9801567285
101369.8908316438
101369.6221338966
101369.0674308695
101368.1005209557
101366.5957084249
101364.4355950369
101361.5237112923
101357.7961106139
101353.231867017
101347.8610528585
101341.76633791
101335.0741915403
101327.9365260693
101320.5085700064
101312.9303174925
101305.3243597574
101297.8416780251
101290.8103842979
101284.9865837875
101281.4617668416
101280.3606891646
101280.2692913023
101280.2826240774
101280.3850355904
101280.6558056615
101281.2091640303
101282.1598245817
101283.6248008761
101285.7125454061
101288.5133497311
101292.0880701914
101296.4583832897
101301.6012219936
101307.4481690322
101313.890518779
101320.7923853055
101328.0116120397
101335.4196547276
101342.9038623409
101350.3299151049
101357.4268555596
101363.5640240339
101367.6799903344
101369.2629520661
101369.4683239223
101369.4546592095
101369.3900097495
101369.1767149344
101368.7211323512
101367.9093370485
101366.6259194884
101364.7586170339
101362.2081838393
101358.8978014447
101354.7826494288
101349.8584985417
101344.1661173483
101337.7882670318
101330.8395038566
101323.4519118776
101315.7611496788
101307.9042541683
101300.0603290146
101292.5887903534
101286.274884326
101282.2850621291
101280.9163124833
101280.7717089243
101280.7796321956
101280.8585965873
101281.0782213957
101281.541236317
101282.3519682126
101283.6189648589
101285.446012677
101287.9245017905
101291.1243260688
101295.0856407146
101299.8129926154
101305.272158236
101311.3908764538
101318.0663966372
101325.1800444885
101332.6117907465
101340.2420461636
101347.9218217802
101355.3733789096
101361.9779087525
101366.6457326521
101368.647869933
101368.974594006
101368.9694482961
101368.9262313945
101368.759419113
101368.3871309711
101367.7047173551
101366.6055479907
101364.9831626614
101362.738984387
101359.7897450949
101356.0756987082
101351.5686742595
101346.2774481784
101340.2481217398
101333.5595775132
101326.315499802
101318.6353514219
101310.6538464121
101302.5567449482
101294.7042171456
101287.868055598
101283.2727219659
101281.4880304522
101281.2431551406
101281.2445710793
101281.3023632687
101281.4768898059
101281.8617073226
101282.5527982974
101283.651388691
101285.2563904093
101287.4582626443
101290.3315773674
101293.9282199684
101298.2718859926
101303.3538794283
101309.1315796927
101315.5323680281
101322.4630561135
101329.8193878743
101337.4866655932
101345.3165724888
101353.0442958145
101360.093337413
101365.3883277327
101367.9635063506
101368.5001546052
101368.5131593043
101368.4864555537
101368.3593925937
101368.058633454
101367.4873812884
101366.5461509892
101365.1337753617
101363.1536771515
101360.5197097425
101357.1630518267
101353.0392241113
101348.1334230905
101342.4627801477
101336.0755688934
101329.0476783963
101321.4775185302
101313.4872144358
101305.2533267388
101297.1121397007
101289.7806462008
101284.4904313328
101282.1252345571
101281.69843113
101281.6906228169
101281.7285746687
101281.8629250351
101282.1781042336
101282.7636213845
101283.7149645257
101285.1265633992
101287.0869536604
101289.6728204735
101292.9434639981
101296.9357690212
101301.6597012296
101307.0957991551
101313.1968292531
101319.8932545842
101327.098726011
101334.7099972514
101342.5895951657
101350.4988986934
101357.9263506831
101363.8614877927
101367.1452303179
101368.0212078893
101368.0758086145
101368.0604874275
101367.967525404
101367.7295270037
101367.2558539313
101366.4530794537
101365.2245289785
101363.4760387967
101361.1205010589
101358.083646345
101354.3101314585
101349.7683355426
101344.4532583421
101338.3880832839
101331.624009582
101324.2380103913
101316.3347150486
101308.0719531199
101299.7477005257
101291.9960937044
101285.9903588665
101282.8880246605
101282.1552318932
101282.1198544456
101282.1444467546
101282.2427949758
101282.4963929229
101282.9877285647
101283.8078356694
101285.0473900168
101286.7929693239
101289.1221871995
101292.0991016974
101295.7696311241
101300.1572316618
101305.2601775492
101311.0517246695
101317.4825866994
101324.4836829866
101331.9660287891
101339.808194502
101347.8036637377
101355.5167412198
101362.0454985986
101366.1292135056
101367.5055026123
101367.6501325856
101367.6430462953
101367.5795057876
101367.3966720197
101367.0094653669
101366.3293189092
101365.2636453173
101363.7207958138
101361.6138798903
101358.8655977891
101355.4132893224
101351.2131385106
101346.2435112989
101340.5079109529
101334.0366069255
101326.8862366764
101319.1425004138
101310.9411549095
101302.5368951719
101294.4683613878
101287.7945703983
101283.8445527614
101282.6435078704
101282.5391731133
101282.5545373547
101282.6229520255
101282.822031309
101283.2286545521
101283.9300909841
101285.0139978982
101286.5653906261
101288.6622573907
101291.371795464
101294.7463197033
101298.8190676803
101303.6014481444
101309.0826991097
101315.2307088731
101321.9924372234
101329.293140043
101337.0280116946
101345.0230039346
101352.9187634274
101359.9465451274
101364.8537635907
101366.9047702477
101367.2323431582
101367.2370891315
101367.1943069474
101367.0577848632
101366.7453580545
101366.1739839223
101365.2542881188
101363.8969240889
101362.015553098
101359.5309230823
101356.3750087188
101352.495064012
101347.8573920565
101342.4505107924
101336.2872040136
101329.4058807246
101321.8746203564
101313.8073366445
101305.4150932927
101297.1398012349
101289.8940973151
101285.0549597824
101283.2064105019
101282.956337926
101282.9597849972
101283.0052129954
101283.1553930334
101283.4857406949
101284.079744639
101285.0224923938
101286.3974463146
101288.2826893856
101290.7473485396
101293.848003758
101297.6253257279
101302.1014270059
101307.2782682557
101313.1371421589
101319.6389037195
101326.7233281179
101334.3017738511
101342.2272711196
101350.2066267659
101357.607541802
101363.2756870519
101366.131825127
101366.7769525414
101366.8043409985
101366.7830616712
101366.6894494154
101366.4543289367
101366.0011786468
101365.2493945268
101364.1198099971
101362.539235991
101360.4455610881
101357.7935835214
101354.5616425731
101350.759364868
101346.4380035038
101341.7085079726
101336.7808386577
101332.0452144371
101328.1615763344
101325.855072074
101325.0997343728
101325.0033187497
101325.0000206274
101325.0000000169
101325.0000000006
101325.0000000005
101325.0000000006
101325.0000000006
101325.0000000006
101325.0000000006
101325.0000000007
101325.0000000007
101325.0000000008
101325.0000000009
101325.000000001
101325.000000001
101325.0000000011
101325.0000000011
101325.0000000011
101325.0000000011
101325.0000000011
101325.0000000011
101325.0000000011
101325.0000000011
101325.0000000011
101325.0000000011
101325.0000000011
101325.0000000011
101325.0000000011
101325.0000000011
101325.0000000011
101325.000000001
101325.0000000011
101325.0000000011
101325.0000000011
101325.0000000011
101325.0000000011
101325.0000000011
101325.0000000011
101325.000000001
101325.0000000011
101325.0000000012
101325.0000000012
101325.0000000012
101325.0000000012
101325.0000000012
101325.0000000012
101325.0000000011
101325.0000000011
101325.0000000011
101325.000000001
101325.000000001
101325.000000001
101325.000000001
101325.000000001
101325.000000001
101325.000000001
101325.000000001
101325.000000001
101325.000000001
101325.000000001
101325.000000001
101325.0000000011
101325.0000000011
101325.0000000012
101325.0000000012
101325.0000000012
101325.0000000013
101325.0000000013
101325.0000000013
101325.0000000012
101325.0000000012
101325.0000000012
101325.0000000011
101325.0000000011
101325.0000000012
101325.0000000011
101325.0000000012
101325.0000000012
101325.0000000012
101325.0000000012
101325.0000000011
101325.0000000011
101325.0000000011
101325.0000000012
101325.0000000012
101325.0000000013
101325.0000000013
101325.0000000013
101325.0000000013
101325.0000000013
101325.0000000013
101325.0000000013
101325.0000000013
101325.0000000013
101325.0000000013
101325.0000000014
101325.0000000014
101325.0000000013
101325.0000000013
101325.0000000013
101325.0000000014
101325.0000000013
101325.0000000013
101325.0000000013
101325.0000000013
101325.0000000013
101325.0000000013
101325.0000000013
101325.0000000013
101325.0000000013
101325.0000000014
101325.0000000014
101325.0000000013
101325.0000000013
101325.0000000012
101325.0000000012
101325.0000000012
101325.0000000013
101325.0000000012
101325.0000000013
101325.0000000013
101325.0000000013
101325.0000000013
101325.0000000014
101325.0000000013
101325.0000000013
101325.0000000012
101325.0000000012
101325.0000000012
101325.0000000011
101325.0000000011
101325.0000000011
101325.0000000011
101325.0000000011
101325.0000000011
101325.000000001
101325.000000001
101325.0000000009
101325.0000000009
101325.0000000009
101325.0000000009
101325.000000001
101325.0000000009
101325.0000000009
101325.000000001
101325.000000001
101325.000000001
101325.0000000011
101325.0000000011
101325.000000001
101325.0000000011
101325.0000000011
101325.0000000011
101325.000000001
101325.0000000011
101325.0000000011
101325.0000000011
101325.0000000011
101325.0000000011
101325.0000000011
101325.0000000011
101325.0000000012
101325.0000000012
101325.0000000012
101325.0000000013
101325.0000000012
101325.0000000013
101325.0000000013
101325.0000000013
101325.0000000013
101325.0000000013
101325.0000000013
101325.0000000013
101325.0000000014
101325.0000000013
101325.0000000013
101325.0000000012
101325.0000000013
101325.0000000013
101325.0000000012
101325.0000000012
101325.0000000012
101325.0000000013
101325.0000000013
101325.0000000013
101325.0000000012
101325.0000000012
101325.0000000012
101325.0000000012
101325.0000000012
101325.0000000012
101325.0000000012
101325.0000000012
101325.0000000012
101325.0000000012
101325.0000000012
101325.0000000013
101325.0000000013
101325.0000000014
101325.0000000013
101325.0000000012
101325.0000000012
101325.0000000013
101325.0000000012
101325.0000000013
101325.0000000013
101325.0000000013
101325.0000000012
101325.0000000012
101325.0000000012
101325.0000000013
101325.0000000013
101325.0000000013
101325.0000000013
101325.0000000013
101325.0000000013
101325.0000000013
101325.0000000013
101325.0000000013
101325.0000000013
101325.0000000013
101325.0000000013
101325.0000000012
101325.0000000012
101325.0000000012
101325.0000000011
101325.0000000011
101325.0000000011
101325.0000000012
101325.0000000012
101325.0000000011
101325.0000000012
101325.0000000012
101325.0000000012
101325.0000000012
101325.0000000012
101325.0000000012
101325.0000000012
101325.0000000013
101325.0000000012
101325.0000000012
101325.0000000013
101325.0000000013
101325.0000000013
101325.0000000013
101325.0000000013
101325.0000000013
101325.0000000014
101325.0000000015
101325.0000000015
101325.0000000015
101325.0000000015
101325.0000000014
101325.0000000014
101325.0000000014
101325.0000000014
101325.0000000014
101325.0000000013
101325.0000000014
101325.0000000014
101325.0000000014
101325.0000000015
101325.0000000015
101325.0000000015
101325.0000000014
101325.0000000014
101325.0000000014
101325.0000000014
101325.0000000014
101325.0000000014
101325.0000000014
101325.0000000014
101325.0000000014
101325.0000000013
101325.0000000013
101325.0000000014
101325.0000000014
101325.0000000014
101325.0000000013
101325.0000000013
101325.0000000014
101325.0000000014
101325.0000000014
101325.0000000015
101325.0000000015
101325.0000000015
101325.0000000015
101325.0000000015
101325.0000000015
101325.0000000015
101325.0000000016
101325.0000000016
101325.0000000017
101325.0000000019
101325.000000002
101325.0000000021
101325.0000000021
101325.0000000021
101325.0000000021
101325.0000000021
101325.0000000021
101325.0000000021
101325.000000002
101325.000000002
101325.000000002
101325.000000002
101325.000000002
101325.000000002
101325.000000002
101325.000000002
101325.0000000019
101325.0000000019
101325.000000002
101325.000000002
101325.000000002
101325.000000002
101325.000000002
101325.0000000021
101325.0000000021
101325.0000000021
101325.000000002
101325.000000002
101325.0000000021
101325.000000002
101325.000000002
101325.000000002
101325.000000002
101325.0000000021
101325.000000002
101325.000000002
101325.000000002
101325.000000002
101325.000000002
101325.0000000021
101325.0000000021
101325.000000002
101325.0000000021
101325.000000002
101325.0000000021
101325.0000000021
101325.000000002
101325.0000000021
101325.0000000021
101325.0000000021
101325.0000000021
101325.0000000022
101325.0000000021
101325.0000000021
101325.0000000021
101325.0000000022
101325.0000000022
101325.0000000022
101325.0000000023
101325.0000000023
101325.0000000022
101325.0000000022
101325.0000000022
101325.0000000022
101325.0000000023
101325.0000000023
101325.0000000023
101325.0000000023
101325.0000000023
101325.0000000023
101325.0000000023
101325.0000000023
101325.0000000023
101325.0000000024
101325.0000000024
101325.0000000023
101325.0000000024
101325.0000000025
101325.0000000025
101325.0000000025
101325.0000000025
101325.0000000025
101325.0000000025
101325.0000000024
101325.0000000024
101325.0000000023
101325.0000000023
101325.0000000023
101325.0000000023
101325.0000000023
101325.0000000023
101325.0000000023
101325.0000000023
101325.0000000023
101325.0000000023
101325.0000000023
101325.0000000023
101325.0000000023
101325.0000000023
101325.0000000023
101325.0000000023
101325.0000000023
101325.0000000023
101325.0000000023
101325.0000000023
101325.0000000024
101325.0000000024
101325.0000000024
101325.0000000023
101325.0000000024
101325.0000000024
101325.0000000023
101325.0000000024
101325.0000000024
101325.0000000024
101325.0000000024
101325.0000000025
101325.0000000025
101325.0000000024
101325.0000000024
101325.0000000024
101325.0000000024
101325.0000000024
101325.0000000025
101325.0000000026
101325.0000000026
101325.0000000026
101325.0000000026
101325.0000000026
101325.0000000026
101325.0000000026
101325.0000000026
101325.0000000026
101325.0000000027
101325.0000000027
101325.0000000027
101325.0000000026
101325.0000000026
101325.0000000026
101325.0000000026
101325.0000000026
101325.0000000026
101325.0000000027
101325.0000000027
101325.0000000026
101325.0000000026
)
;

boundaryField
{
    inlet
    {
        type            uniformFixedValue;
        uniformValue    sine;
        uniformValueCoeffs
        {
            frequency       constant 3000;
            scale           constant 50;
            level           constant 101325;
        }
        value           uniform 101323.6440830864;
    }
    outlet
    {
        type            waveTransmissive;
        gamma           1.4;
        fieldInf        101325;
        lInf            2.25;
        value           uniform 101325.0000000026;
    }
    frontAndBack
    {
        type            empty;
    }
}


// ************************************************************************* //
