/*--------------------------------*- C++ -*----------------------------------*\
| =========                 |                                                 |
| \\      /  F ield         | OpenFOAM: The Open Source CFD Toolbox           |
|  \\    /   O peration     | Version:  v2012                                 |
|   \\  /    A nd           | Website:  www.openfoam.com                      |
|    \\/     M anipulation  |                                                 |
\*---------------------------------------------------------------------------*/
FoamFile
{
    version     2.0;
    format      ascii;
    class       volScalarField;
    location    "0.004";
    object      pMean;
}
// * * * * * * * * * * * * * * * * * * * * * * * * * * * * * * * * * * * * * //

dimensions      [1 -1 -2 0 0 0 0];


internalField   nonuniform List<scalar> 
1000
(
101325.032897888
101325.0105520008
101325.0442881508
101325.0759078789
101325.1226704375
101325.1788196384
101325.2432648341
101325.3168903586
101325.3962669748
101325.481867197
101325.5696862107
101325.6581679918
101325.7459393044
101325.8329425304
101325.9170453862
101325.9971664084
101326.0709083627
101326.1374110933
101326.1948188756
101326.2427499984
101326.2798039287
101326.3058466564
101326.3198743887
101326.3221201323
101326.3120270957
101326.2902639673
101326.2567814228
101326.2126398124
101326.1580822385
101326.0941836876
101326.0212064581
101325.9408595857
101325.8555789171
101325.7690559476
101325.6823408186
101325.596017734
101325.5104765726
101325.4268323074
101325.3464430875
101325.2710997532
101325.2025283874
101325.1424237578
101325.0920599353
101325.0524572938
101325.0242367768
101325.0078603772
101325.0035250217
101325.0113150001
101325.031050392
101325.0624258913
101325.1049659244
101325.1582245811
101325.2216913555
101325.2945999895
101325.3750720326
101325.4597106438
101325.5453300981
101325.6309402019
101325.7162323685
101325.8008663983
101325.8837884078
101325.9639828465
101326.0397018604
101326.1094475802
101326.1712874272
101326.2239090962
101326.2658690625
101326.2965323789
101326.3151724111
101326.3218023414
101326.3162195591
101326.2988018242
101326.2696208656
101326.229195122
101326.1776499865
101326.1155545123
101326.0435338261
101325.9638636141
101325.8800309744
101325.7953657737
101325.7106365112
101325.6261697133
101325.5423158907
101325.459832463
101325.3797642043
101325.303500654
101325.2326186319
101325.1688338882
101325.1137729311
101325.0688878491
101325.0352714384
101325.0136718596
101325.0044337393
101325.0076328217
101325.0230922708
101325.0505641135
101325.0897413114
101325.1403807088
101325.2020868966
101325.2738932226
101325.3533518488
101325.4365701874
101325.5205468951
101325.6045115826
101325.6882185437
101325.7714052495
101325.853251219
101325.9329503667
101326.0090839927
101326.080331237
101326.1449155492
101326.2013775607
101326.2480767024
101326.2839519532
101326.3079674692
101326.3197846944
101326.3190775613
101326.3060928813
101326.2808946948
101326.2439021272
101326.1952143496
101326.1353459717
101326.0650663906
101325.9868735607
101325.904513178
101325.8213090941
101325.7380369472
101325.6549758137
101325.5723812905
101325.4908734854
101325.4112799492
101325.334765998
101325.2626784034
101325.1965961937
101325.1381049097
101325.0887974913
101325.0500174517
101325.0228789034
101325.0080757486
101325.0060080141
101325.016705681
101325.0400649789
101325.075827428
101325.1237613173
101325.1833831364
101325.2535838284
101325.3316506309
101325.4135335773
101325.4961745477
101325.5788195323
101325.661258349
101325.7432810361
101325.8242146654
101325.9033889722
101325.9796034286
101326.0517074002
101326.1180987396
101326.177375805
101326.2278748463
101326.2683588962
101326.2975472916
101326.3147597295
101326.3193744033
101326.3113456757
101326.2905767937
101326.2573717094
101326.211830761
101326.1545019074
101326.086261394
101326.0097129274
101325.9287286138
101325.8467715633
101325.7647231332
101325.6828449095
101325.6013213613
101325.5206726857
101325.4415804946
101325.3650433228
101325.2922273858
101325.2245575968
101325.1635133254
101325.1106786906
101325.0674863644
101325.0352645273
101325.0149952164
101325.0074174998
101325.0128787582
101325.0315380512
101325.0633045151
101325.1080127363
101325.1651455341
101325.2334664038
101325.31007186
101325.3907253566
101325.4722184225
101325.5537390857
101325.6350880197
101325.716110306
101325.7962277442
101325.8748837611
101325.9510349507
101326.023674268
101326.0913586853
101326.1527780071
101326.2063258833
101326.250702823
101326.2845020455
101326.3068067478
101326.3167252275
101326.3139128294
101326.2980203572
101326.2691513363
101326.2273049058
101326.1729873639
101326.1071171073
101326.0323406963
101325.9526709705
101325.8718050532
101325.7908170939
101325.7099678328
101325.6293903091
101325.5495273448
101325.470943919
101325.3945113005
101325.3212421829
101325.2524234719
101325.1894157843
101325.133740368
101325.086841478
101325.0501469953
101325.0248303396
101325.0118940019
101325.0119865923
101325.0255641614
101325.0527820042
101325.0936450366
101325.1477120965
101325.2137385172
101325.2887185623
101325.3681912931
101325.4486683193
101325.5291922294
101325.6095815018
101325.6897104152
101325.7690872456
101325.8472341713
101325.9232389822
101325.9962102928
101326.0648490766
101326.1279416149
101326.1839670373
101326.2316219686
101326.2694539465
101326.2963907473
101326.3113493644
101326.3137188156
101326.3029076818
101326.2787707461
101326.241140253
101326.1903839573
101326.1273486773
101326.0546145932
101325.9762975194
101325.8964369524
101325.8164012602
101325.7364785534
101325.6567599702
101325.5776249758
101325.4995508397
101325.423299507
101325.349762012
101325.2800977753
101325.2155540689
101325.1575679095
101325.1075525107
101325.0669696766
101325.0371060298
101325.0191481657
101325.0139889762
101325.0223552572
101325.0446668675
101325.0811530784
101325.1315467801
101325.1947252557
101325.2677388134
101325.345960404
101325.4254956775
101325.5051170805
101325.5846360445
101325.6639459788
101325.7426360598
101325.8202833431
101325.896093637
101325.9692616171
101326.0386219407
101326.1030442519
101326.1611086232
101326.2115336079
101326.2528731333
101326.2839585826
101326.3035854708
101326.3109314777
101326.3052013252
101326.2860037031
101326.2529820103
101326.2062995174
101326.1466382205
101326.0763588254
101325.9995650122
101325.9206833328
101325.8415263802
101325.7624589984
101325.6835406871
101325.6050942885
101325.5275263146
101325.4515083441
101325.377828101
101325.3075366893
101325.2417738661
101325.1818911047
101325.1292438426
101325.085292276
101325.0513747078
101325.0288017831
101325.018642963
101325.0218515584
101325.039083251
101325.0708062142
101325.1169735889
101325.1767090665
101325.247295515
101325.3240923625
101325.402701744
101325.4814825563
101325.5601827986
101325.6387262747
101325.7167582767
101325.7939150562
101325.8694893231
101325.9427592537
101326.0126656916
101326.0781631257
101326.1379240837
101326.1907095009
101326.2351025175
101326.2698859766
101326.2937833889
101326.3058175813
101326.3050354519
101326.2908297834
101326.262662659
101326.2204693698
101326.1647051799
101326.0973768306
101326.0224005001
101325.9445370862
101325.8662149406
101325.7879503594
101325.7097985581
101325.632012679
101325.554960117
101325.4792111045
101325.4054907608
101325.3347294715
101325.2679971124
101325.2065341177
101325.1516570778
101325.1047729806
101325.0672602714
101325.0404771573
101325.0256389847
101325.0238472634
101325.0359767096
101325.0626920178
101325.1042062011
101325.1599353413
101325.2275731464
101325.30264593
101325.380293122
101325.458263634
101325.5361840257
101325.6139834417
101325.6913788119
101325.7680367949
101325.8433456132
101325.9166358728
101325.9869584076
101326.0533278407
101326.114517576
101326.1693262155
101326.2163903901
101326.2544672742
101326.2822508144
101326.2986536898
101326.3026091673
101326.2933358807
101326.2701333641
101326.2327217182
101326.181294952
101326.1174350305
101326.0446708135
101325.9679615205
101325.8904516985
101325.8129658558
101325.735552558
101325.6584259618
101325.5818927918
101325.5064599528
101325.4327719957
101325.3616795388
101325.294163891
101325.2313877821
101325.174598773
101325.1251633727
101325.0844500561
101325.0538511848
101325.0346598086
101325.0280983357
101325.0351974321
101325.0568048361
101325.0933635455
101325.1446172876
101325.2087532183
101325.2816981661
101325.3582635894
101325.4354452304
101325.5126057353
101325.5896836579
101325.6664405151
101325.7425943145
101325.8175957472
101325.8908433668
101325.96146581
101326.0285496627
101326.0909458224
101326.1475064062
101326.1969169307
101326.2379374983
101326.2692524458
101326.2897051576
101326.298151223
101326.293672751
101326.2754407297
101326.2429769726
101326.1962295598
101326.1363159265
101326.0662423441
101325.9909138274
101325.9142374953
101325.8375054562
101325.7608218011
101325.6843498799
101325.6083539599
101325.533272476
101325.459690718
101325.3883759301
101325.3202415519
101325.2563653258
101325.1979383635
101325.146267225
101325.1027058369
101325.0686431844
101325.0454272663
101325.0343508659
101325.0365709586
101325.0530733872
101325.0845135148
101325.1309377856
101325.1910622861
101325.2613840557
101325.3366503986
101325.4130303637
101325.4894477288
101325.5658084781
101325.6419224538
101325.7175515616
101325.7922057865
101325.8653466138
101325.9361696824
101326.0038327608
101326.0672495614
101326.1253356046
101326.1768149103
101326.2204790849
101326.2550018726
101326.2792057821
101326.291874733
101326.2920148713
101326.278668313
101326.2512199482
101326.2093668525
101326.1538235766
101326.0869518207
101326.0133639772
101325.9375714338
101325.8615817759
101325.7856090638
101325.7097954188
101325.634353928
101325.5596674174
101325.4862589854
101325.4148256328
101325.3462105359
101325.2814195233
101325.2215808397
101325.1679464817
101325.1218375482
101325.084631481
101325.0576975571
101325.042376038
101325.0399067797
101325.0513894799
101325.0776508062
101325.1190117653
101325.1746854337
101325.2418524982
101325.3154907397
101325.3910165715
101325.4666995616
101325.5423399878
101325.6178128256
101325.6928865729
101325.7671673233
101325.8401299246
101325.9110770433
101325.9791839722
101326.0434733776
101326.1028703967
101326.1561928209
101326.2022150598
101326.2396706144
101326.267319883
101326.2839571673
101326.288475485
101326.2798804351
101326.2573845388
101326.2205380938
101326.169638429
101326.1064819789
101326.0350949506
101325.9604033107
101325.8851869565
101325.8099802219
101325.7348710868
101325.6600364065
101325.5857849181
101325.5125662642
101325.4409743436
101325.3717413623
101325.3057234081
101325.2438763175
101325.187220538
101325.1367934159
101325.0935861669
101325.0584580393
101325.0320057241
101325.014334775
101325.0046630554
101325.0009031058
101325.0000772404
101325.0000019923
101325.000000011
101325.0000000008
101325.0000000007
101325.0000000007
101325.0000000007
101325.0000000007
101325.0000000007
101325.0000000007
101325.0000000007
101325.0000000007
101325.0000000007
101325.0000000007
101325.0000000007
101325.0000000007
101325.0000000007
101325.0000000007
101325.0000000007
101325.0000000007
101325.0000000007
101325.0000000007
101325.0000000007
101325.0000000007
101325.0000000007
101325.0000000007
101325.0000000007
101325.0000000007
101325.0000000007
101325.0000000007
101325.0000000007
101325.0000000007
101325.0000000007
101325.0000000007
101325.0000000007
101325.0000000007
101325.0000000007
101325.0000000007
101325.0000000007
101325.0000000007
101325.0000000007
101325.0000000007
101325.0000000007
101325.0000000007
101325.0000000008
101325.0000000007
101325.0000000007
101325.0000000007
101325.0000000007
101325.0000000008
101325.0000000007
101325.0000000007
101325.0000000007
101325.0000000008
101325.0000000008
101325.0000000007
101325.0000000007
101325.0000000007
101325.0000000007
101325.0000000008
101325.0000000008
101325.0000000007
101325.0000000008
101325.0000000008
101325.0000000007
101325.0000000007
101325.0000000007
101325.0000000007
101325.0000000007
101325.0000000007
101325.0000000007
101325.0000000008
101325.0000000008
101325.0000000007
101325.0000000008
101325.0000000008
101325.0000000008
101325.0000000008
101325.0000000008
101325.0000000008
101325.0000000008
101325.0000000008
101325.0000000008
101325.0000000008
101325.0000000008
101325.0000000008
101325.0000000008
101325.0000000008
101325.0000000008
101325.0000000008
101325.0000000008
101325.0000000008
101325.0000000008
101325.0000000008
101325.0000000008
101325.0000000008
101325.0000000008
101325.0000000008
101325.0000000008
101325.0000000008
101325.0000000008
101325.0000000008
101325.0000000008
101325.0000000008
101325.0000000008
101325.0000000008
101325.0000000008
101325.0000000008
101325.0000000008
101325.0000000008
101325.0000000008
101325.0000000008
101325.0000000008
101325.0000000008
101325.0000000008
101325.0000000008
101325.0000000008
101325.0000000008
101325.0000000008
101325.0000000008
101325.0000000008
101325.0000000008
101325.0000000008
101325.0000000008
101325.0000000008
101325.0000000008
101325.0000000008
101325.0000000008
101325.0000000008
101325.0000000008
101325.0000000008
101325.0000000008
101325.0000000008
101325.0000000008
101325.0000000008
101325.0000000008
101325.0000000008
101325.0000000008
101325.0000000008
101325.0000000008
101325.0000000008
101325.0000000008
101325.0000000008
101325.0000000008
101325.0000000008
101325.0000000008
101325.0000000008
101325.0000000008
101325.0000000008
101325.0000000008
101325.0000000008
101325.0000000008
101325.0000000008
101325.0000000008
101325.0000000008
101325.0000000008
101325.0000000008
101325.0000000008
101325.0000000008
101325.0000000008
101325.0000000009
101325.0000000008
101325.0000000008
101325.0000000008
101325.0000000009
101325.0000000009
101325.0000000009
101325.0000000008
101325.0000000008
101325.0000000008
101325.0000000008
101325.0000000008
101325.0000000008
101325.0000000009
101325.0000000009
101325.0000000008
101325.0000000009
101325.0000000009
101325.0000000009
101325.0000000009
101325.0000000009
101325.0000000008
101325.0000000009
101325.0000000008
101325.0000000009
101325.0000000009
101325.0000000008
101325.0000000009
101325.0000000009
101325.0000000009
101325.0000000009
101325.0000000008
101325.0000000009
101325.0000000008
101325.0000000009
101325.0000000009
101325.0000000009
101325.0000000009
101325.0000000009
101325.0000000009
101325.0000000008
101325.0000000008
101325.0000000008
101325.0000000008
101325.0000000008
101325.0000000008
101325.0000000008
101325.0000000008
101325.0000000008
101325.0000000008
101325.0000000008
101325.0000000008
101325.0000000008
101325.0000000009
101325.0000000008
101325.0000000008
101325.0000000008
101325.0000000008
101325.0000000008
101325.0000000008
101325.0000000008
101325.0000000008
101325.0000000009
101325.0000000009
101325.0000000008
101325.0000000008
101325.0000000009
101325.0000000008
101325.0000000008
101325.0000000009
101325.0000000008
101325.0000000009
101325.0000000009
101325.0000000009
101325.0000000008
101325.0000000009
101325.0000000009
101325.0000000009
101325.0000000009
101325.0000000009
101325.0000000009
101325.0000000009
101325.0000000009
101325.0000000009
101325.0000000009
101325.0000000009
101325.0000000009
101325.0000000009
101325.0000000009
101325.0000000009
101325.0000000009
101325.0000000009
101325.0000000009
101325.0000000009
101325.0000000009
101325.0000000009
101325.0000000009
101325.0000000009
101325.0000000009
101325.0000000009
101325.0000000009
101325.0000000009
101325.0000000009
101325.0000000009
101325.0000000009
101325.0000000009
101325.0000000009
101325.0000000009
101325.000000001
101325.000000001
101325.000000001
101325.000000001
101325.000000001
101325.000000001
101325.000000001
101325.000000001
101325.000000001
101325.000000001
101325.000000001
101325.000000001
101325.000000001
101325.000000001
101325.000000001
101325.000000001
101325.000000001
101325.000000001
101325.000000001
101325.000000001
101325.000000001
101325.000000001
101325.000000001
101325.000000001
101325.000000001
101325.000000001
101325.000000001
101325.000000001
101325.000000001
101325.000000001
101325.000000001
101325.000000001
101325.000000001
101325.000000001
101325.000000001
101325.000000001
101325.000000001
101325.000000001
101325.000000001
101325.000000001
101325.000000001
101325.000000001
101325.0000000011
101325.000000001
101325.000000001
101325.0000000011
101325.0000000011
101325.0000000011
101325.0000000011
101325.0000000011
101325.0000000011
101325.0000000011
101325.0000000011
101325.0000000011
101325.0000000011
101325.0000000011
101325.0000000011
101325.0000000011
101325.0000000011
101325.0000000011
101325.0000000011
101325.0000000011
101325.0000000011
101325.0000000011
101325.0000000011
101325.0000000011
101325.0000000011
101325.0000000011
101325.0000000011
101325.0000000011
101325.0000000011
101325.0000000011
101325.0000000011
101325.0000000011
101325.0000000011
101325.0000000011
101325.0000000012
101325.0000000011
101325.0000000011
101325.0000000011
101325.0000000011
101325.0000000011
101325.0000000011
101325.0000000012
101325.0000000011
101325.0000000011
101325.0000000012
101325.0000000011
101325.0000000012
101325.0000000012
101325.0000000012
101325.0000000012
101325.0000000012
101325.0000000012
101325.0000000012
101325.0000000012
101325.0000000012
101325.0000000012
101325.0000000012
101325.0000000012
101325.0000000012
101325.0000000012
101325.0000000012
101325.0000000012
101325.0000000012
101325.0000000012
101325.0000000012
101325.0000000013
101325.0000000012
101325.0000000012
101325.0000000012
101325.0000000013
101325.0000000013
101325.0000000013
101325.0000000013
101325.0000000013
101325.0000000013
101325.0000000013
101325.0000000013
101325.0000000013
101325.0000000013
101325.0000000013
101325.0000000013
101325.0000000012
101325.0000000012
101325.0000000013
101325.0000000013
101325.0000000013
101325.0000000013
101325.0000000012
101325.0000000012
101325.0000000013
101325.0000000013
101325.0000000013
101325.0000000013
101325.0000000013
101325.0000000013
101325.0000000013
101325.0000000013
101325.0000000014
101325.0000000013
101325.0000000013
101325.0000000013
101325.0000000014
101325.0000000014
101325.0000000013
101325.0000000013
101325.0000000013
101325.0000000013
101325.0000000014
101325.0000000014
101325.0000000013
101325.0000000013
101325.0000000014
101325.0000000013
101325.0000000013
101325.0000000014
101325.0000000014
101325.0000000014
101325.0000000014
101325.0000000014
101325.0000000014
101325.0000000014
101325.0000000013
101325.0000000014
101325.0000000014
101325.0000000014
101325.0000000014
101325.0000000014
101325.0000000014
101325.0000000014
101325.0000000014
101325.0000000014
)
;

boundaryField
{
    inlet
    {
        type            calculated;
        value           uniform 101325.0000000001;
    }
    outlet
    {
        type            calculated;
        value           uniform 101325.0000000014;
    }
    frontAndBack
    {
        type            empty;
    }
}


// ************************************************************************* //
