/*--------------------------------*- C++ -*----------------------------------*\
| =========                 |                                                 |
| \\      /  F ield         | OpenFOAM: The Open Source CFD Toolbox           |
|  \\    /   O peration     | Version:  v2012                                 |
|   \\  /    A nd           | Website:  www.openfoam.com                      |
|    \\/     M anipulation  |                                                 |
\*---------------------------------------------------------------------------*/
FoamFile
{
    version     2.0;
    format      ascii;
    class       volScalarField;
    location    "0.004";
    object      rho;
}
// * * * * * * * * * * * * * * * * * * * * * * * * * * * * * * * * * * * * * //

dimensions      [1 -3 0 0 0 0 0];


internalField   nonuniform List<scalar> 
1000
(
1.176295576863047
1.176319198776148
1.176265708200536
1.176222538074785
1.17617232848606
1.176126687533257
1.176088100302056
1.176055741640436
1.176028215491739
1.17600977068408
1.17600486153203
1.176004832774012
1.176007731657001
1.176016158717952
1.176032690430732
1.176057742285707
1.176090329220637
1.176128980579326
1.176172493803249
1.176220036067464
1.176270914403525
1.176324376494408
1.176379544149875
1.176435410863666
1.176490865898463
1.176544784690762
1.176596207634098
1.176644557490672
1.176689762157
1.176731917424741
1.176769727889086
1.176797807463834
1.176809836950032
1.176811227323191
1.176810632130696
1.176808449150564
1.17680229948337
1.176790250393762
1.176770570731188
1.176742470842376
1.176706279952742
1.176663268697248
1.1766151295528
1.176563448953549
1.176509459968395
1.176454103484733
1.176398211389303
1.176342632809188
1.176288234858191
1.176235756593408
1.176185568925005
1.176137654246853
1.176092439182947
1.176053026398171
1.176026817376407
1.176017892377562
1.176017284872162
1.176017623749948
1.176019789121195
1.1760251174665
1.176035480535471
1.176052464540121
1.176077200090746
1.176110047758412
1.176150498367111
1.176197290938716
1.176248730931931
1.176303082958342
1.176358863410176
1.176414929866401
1.176470428841417
1.176524761179206
1.17657762767321
1.176629016868379
1.176678879841163
1.176726153628878
1.176766791944624
1.176792959277932
1.176801568006838
1.1768021978716
1.176801727916009
1.176800025773227
1.176795493355295
1.176786685349744
1.17677206478657
1.17675037976285
1.176720881126993
1.176683519840904
1.176638997095416
1.176588645619972
1.176534183857932
1.176477413179605
1.17641992562843
1.176362892654749
1.176306990279994
1.176252454864582
1.176199243829215
1.176147454787224
1.176098509268275
1.176057383237031
1.176032487768748
1.176025236291182
1.176024868162505
1.176025169560545
1.176026894394678
1.176031084986046
1.176039202494501
1.1760526186007
1.176072538330692
1.176099787333679
1.176134649750343
1.176176759823793
1.176225108109439
1.176278193732561
1.176334285491178
1.176391707208232
1.176449085923619
1.176505536993966
1.176560731309141
1.176614728374422
1.176667423379052
1.176717359191107
1.176759734101867
1.176786296751607
1.176794797139995
1.176795446696415
1.176795093557953
1.176793784133931
1.176790244551575
1.176783283795282
1.176771574741005
1.176753902238696
1.176729305256652
1.176697248985511
1.176657749738624
1.176611426341655
1.176559459574718
1.176503439520745
1.176445099080957
1.17638599716952
1.176327267918783
1.17626953013686
1.176213018362872
1.176158101923363
1.17610660351288
1.1760639798041
1.176038678009127
1.176031389050152
1.176030976661351
1.176031203633513
1.176032564319397
1.176035943667909
1.176042565062076
1.176053625367175
1.176070259402187
1.176093390639168
1.176123598464815
1.176160991889992
1.176205136825455
1.176255077051968
1.17630945319826
1.176366696266285
1.176425275005758
1.176483959854051
1.176541998680398
1.17659904320103
1.176654654134114
1.176707132206195
1.176751539733107
1.176779599762609
1.176788931646089
1.176789761573507
1.176789507635025
1.17678852604423
1.176785733856617
1.17678011154168
1.176770486064898
1.176755729355202
1.176734850900738
1.176707128988284
1.176672225714479
1.176630274624933
1.176581921893323
1.176528285728087
1.17647080364927
1.176410991296761
1.176350193277277
1.176289418031498
1.176229365352011
1.176170878064578
1.176116242291719
1.17607130613899
1.176044630693595
1.176036725390716
1.176036183219056
1.17603635340423
1.176037437591058
1.176040191232683
1.176045677599056
1.176054961216834
1.176069096700945
1.176089013390314
1.176115411890298
1.17614865358233
1.176188676165998
1.176234965438139
1.176286592074561
1.176342312151506
1.17640074002318
1.17646057941887
1.17652081989292
1.176580735235677
1.176639489541416
1.176695065082707
1.176742348942807
1.176772887230031
1.176783688506201
1.176784839385234
1.176784659966368
1.176783919383217
1.176781691651733
1.176777092693119
1.176769076174839
1.176756599937789
1.176738690581715
1.176714548176426
1.176683642380154
1.17664579947762
1.176601268541075
1.176550734721788
1.176495246348992
1.176436062770211
1.176374470914558
1.176311631484773
1.176248560969842
1.176186511372345
1.176128203693547
1.176079908413798
1.176050677649323
1.176041546524114
1.176040788567178
1.176040899131386
1.176041748418652
1.176043993890784
1.176048582840218
1.176056466565018
1.176068615414907
1.176085928712095
1.176109155129391
1.176138799187032
1.176175040444213
1.176217687375027
1.176266172364515
1.176319593721258
1.176376824412654
1.176436685480723
1.176498110922507
1.17656016659893
1.176621738788597
1.176680580987221
1.176731464587216
1.176765589819504
1.176778713961618
1.176780416668058
1.17678030337363
1.176779767371607
1.176777998974593
1.176774221804213
1.176767491314847
1.17675685063692
1.176741368964386
1.176720223372698
1.17669277683122
1.176658657549177
1.176617830228192
1.176570632618396
1.176517750633792
1.176460133838534
1.176398877183929
1.176335105336433
1.176269954481537
1.176204909741387
1.176142951639936
1.176090592268305
1.176057505386661
1.176046154509311
1.176044955324768
1.176045021029296
1.176045675871173
1.176047497197925
1.176051336933692
1.176058060240593
1.176068567269535
1.17608371866088
1.176104272218252
1.176130807435431
1.176163657140646
1.176202858827
1.176248128446914
1.176298866516227
1.176354220738926
1.176413206821452
1.176474829298245
1.176538096426966
1.176601772784837
1.176663555572926
1.176718314371647
1.176757015164267
1.176773614680409
1.176776323506037
1.176776280842153
1.176775922534642
1.176774539516152
1.176771452925175
1.176765795118648
1.176756682020327
1.176743230942593
1.176724624524631
1.176700172287592
1.176669378721813
1.176632010055233
1.176588138805744
1.176538146931845
1.17648268819008
1.176422622005461
1.176358938684636
1.176292755071043
1.176225611397274
1.176160494348547
1.176103804359894
1.17606569621791
1.176050896019279
1.176048865295151
1.17604887703594
1.176049356298998
1.176050803628859
1.176053994878691
1.1760597260134
1.176068836469947
1.176082146474852
1.176100406127519
1.176124233738178
1.17615405943662
1.176190079535644
1.176232221696702
1.176280132235699
1.176333208708234
1.176390678122348
1.176451675753206
1.176515250355344
1.176580172008832
1.176644245008056
1.176702689641511
1.176746590443272
1.176767941046199
1.176772390334524
1.176772498154039
1.176772276755549
1.176771223292443
1.176768729736666
1.176763993552763
1.176756189908176
1.176744480007454
1.176728063083297
1.176706224811173
1.176678394464123
1.176644203084217
1.176603527708573
1.176556510112302
1.176503550257401
1.176445277078404
1.176382506270248
1.176316250225221
1.176247972811069
1.176180462542306
1.176119665298972
1.176075794841258
1.176056180645806
1.176052641218967
1.176052576464885
1.176052891194632
1.176054005346847
1.176056619091508
1.176061474712014
1.176069364065123
1.176081070214872
1.176097327321448
1.176118771237065
1.176145893602572
1.176179000129226
1.176218173254469
1.176263251355288
1.176313842491892
1.176369369779168
1.176429116944849
1.176492227649549
1.176557561823752
1.176623140848783
1.176684723343435
1.176733931856369
1.176761157195079
1.176768419838587
1.176768872526682
1.176768745500111
1.176767974763049
1.176766001546911
1.176762074376979
1.176755418652882
1.176745232833128
1.176730736171771
1.176711206390955
1.176686027614844
1.176654740837153
1.176617083684829
1.176573014453754
1.17652272508237
1.176466639781114
1.176405396471709
1.176339862427237
1.17627134612882
1.176202318330331
1.176138037684028
1.176088233847289
1.176062506770639
1.176056429825103
1.17605613644435
1.176056340385216
1.176057155975129
1.176059259031822
1.176063333614082
1.176070134642756
1.176080414056611
1.176094889788804
1.176114205405388
1.176138892022062
1.176169330284026
1.176205714522041
1.176248030204597
1.176296055307638
1.176349380866212
1.176407433782436
1.17646947594007
1.176534500249847
1.176600794218335
1.176664745347288
1.17671887590901
1.176752733907038
1.176764144610038
1.176765343722504
1.176765284970811
1.176764758163712
1.176763242309613
1.176760032020642
1.176754392990712
1.176745557570184
1.176732765872738
1.176715297435628
1.176692511276529
1.17666388774569
1.176629063382647
1.176587858590776
1.176540302149091
1.176486644733492
1.17642735563834
1.176363145150685
1.176295138672797
1.176225447979898
1.176158539689349
1.176103196178097
1.176070439543787
1.1760604794721
1.176059614238793
1.176059741652526
1.176060309006713
1.176061959945354
1.176065332016264
1.176071148923568
1.176080137578736
1.176093002966257
1.176110391770687
1.176132861156456
1.176160844832662
1.176194618264123
1.176234275856888
1.17627972813157
1.176330708545502
1.17638677700416
1.176447313454706
1.176511448615485
1.176577739147815
1.176643205433228
1.176701473830804
1.176742159664635
1.17675916444161
1.176761880319977
1.176761919668492
1.176761564966058
1.176760433075877
1.176757842776516
1.176753105564966
1.176745480433767
1.17673422659097
1.176718628159373
1.176698027985356
1.176671861955977
1.176639692593128
1.176601240307056
1.176556409647993
1.176505306322355
1.176448248481837
1.17638580029128
1.176318905996839
1.176249315509757
1.176180693208738
1.176120607408607
1.176080477675111
1.176065147992616
1.17606307417955
1.176063102765791
1.176063479494128
1.176064724916504
1.176067464442239
1.176072390425247
1.176080208469896
1.176091610688524
1.176107244561406
1.176127683268783
1.176153395906161
1.176184719597659
1.176221837530369
1.176264765743105
1.176313348857157
1.176367262001519
1.176426005508386
1.176488844103188
1.176554558928336
1.176620718846821
1.176682081377727
1.176729076316833
1.176752756466966
1.176758105171931
1.176758332247454
1.176758155822721
1.17675737969259
1.176755430330471
1.176751673299707
1.176745440310509
1.176736074979891
1.176722970467321
1.176705611753914
1.176683623991391
1.176656827482794
1.176625301913651
1.176589472090759
1.176550257793751
1.176509399797351
1.176470133621504
1.176437931441047
1.176418806311252
1.176412543156984
1.176411743690866
1.176411716343236
1.176411716172336
1.176411716172201
1.1764117161722
1.1764117161722
1.1764117161722
1.1764117161722
1.1764117161722
1.176411716172201
1.176411716172201
1.176411716172202
1.176411716172202
1.176411716172203
1.176411716172203
1.176411716172204
1.176411716172205
1.176411716172205
1.176411716172205
1.176411716172205
1.176411716172205
1.176411716172205
1.176411716172205
1.176411716172205
1.176411716172205
1.176411716172205
1.176411716172205
1.176411716172205
1.176411716172205
1.176411716172205
1.176411716172204
1.176411716172204
1.176411716172204
1.176411716172204
1.176411716172204
1.176411716172205
1.176411716172205
1.176411716172205
1.176411716172205
1.176411716172206
1.176411716172206
1.176411716172206
1.176411716172206
1.176411716172207
1.176411716172206
1.176411716172205
1.176411716172205
1.176411716172204
1.176411716172204
1.176411716172204
1.176411716172204
1.176411716172204
1.176411716172204
1.176411716172204
1.176411716172204
1.176411716172204
1.176411716172203
1.176411716172204
1.176411716172204
1.176411716172204
1.176411716172204
1.176411716172205
1.176411716172205
1.176411716172205
1.176411716172205
1.176411716172205
1.176411716172205
1.176411716172206
1.176411716172206
1.176411716172206
1.176411716172207
1.176411716172206
1.176411716172206
1.176411716172206
1.176411716172206
1.176411716172206
1.176411716172206
1.176411716172206
1.176411716172206
1.176411716172205
1.176411716172204
1.176411716172204
1.176411716172204
1.176411716172205
1.176411716172205
1.176411716172205
1.176411716172205
1.176411716172205
1.176411716172206
1.176411716172205
1.176411716172205
1.176411716172205
1.176411716172205
1.176411716172206
1.176411716172207
1.176411716172207
1.176411716172207
1.176411716172207
1.176411716172207
1.176411716172207
1.176411716172207
1.176411716172207
1.176411716172207
1.176411716172207
1.176411716172207
1.176411716172206
1.176411716172206
1.176411716172206
1.176411716172206
1.176411716172206
1.176411716172207
1.176411716172206
1.176411716172206
1.176411716172206
1.176411716172206
1.176411716172205
1.176411716172205
1.176411716172205
1.176411716172206
1.176411716172206
1.176411716172206
1.176411716172207
1.176411716172207
1.176411716172207
1.176411716172207
1.176411716172207
1.176411716172207
1.176411716172206
1.176411716172206
1.176411716172206
1.176411716172205
1.176411716172205
1.176411716172205
1.176411716172205
1.176411716172205
1.176411716172205
1.176411716172204
1.176411716172203
1.176411716172203
1.176411716172203
1.176411716172203
1.176411716172204
1.176411716172203
1.176411716172203
1.176411716172203
1.176411716172203
1.176411716172203
1.176411716172204
1.176411716172204
1.176411716172204
1.176411716172204
1.176411716172204
1.176411716172204
1.176411716172204
1.176411716172204
1.176411716172204
1.176411716172205
1.176411716172205
1.176411716172205
1.176411716172205
1.176411716172206
1.176411716172206
1.176411716172206
1.176411716172206
1.176411716172206
1.176411716172206
1.176411716172206
1.176411716172206
1.176411716172206
1.176411716172205
1.176411716172205
1.176411716172206
1.176411716172206
1.176411716172207
1.176411716172206
1.176411716172205
1.176411716172205
1.176411716172205
1.176411716172205
1.176411716172204
1.176411716172204
1.176411716172204
1.176411716172205
1.176411716172205
1.176411716172205
1.176411716172205
1.176411716172205
1.176411716172205
1.176411716172205
1.176411716172206
1.176411716172205
1.176411716172205
1.176411716172205
1.176411716172205
1.176411716172205
1.176411716172205
1.176411716172205
1.176411716172206
1.176411716172207
1.176411716172206
1.176411716172207
1.176411716172206
1.176411716172207
1.176411716172206
1.176411716172206
1.176411716172206
1.176411716172206
1.176411716172206
1.176411716172207
1.176411716172206
1.176411716172206
1.176411716172206
1.176411716172206
1.176411716172206
1.176411716172205
1.176411716172206
1.176411716172207
1.176411716172207
1.176411716172207
1.176411716172207
1.176411716172207
1.176411716172207
1.176411716172207
1.176411716172206
1.176411716172206
1.176411716172206
1.176411716172206
1.176411716172206
1.176411716172207
1.176411716172206
1.176411716172206
1.176411716172206
1.176411716172206
1.176411716172206
1.176411716172206
1.176411716172206
1.176411716172206
1.176411716172205
1.176411716172206
1.176411716172206
1.176411716172205
1.176411716172205
1.176411716172205
1.176411716172205
1.176411716172205
1.176411716172205
1.176411716172205
1.176411716172206
1.176411716172206
1.176411716172207
1.176411716172207
1.176411716172207
1.176411716172206
1.176411716172206
1.176411716172206
1.176411716172206
1.176411716172207
1.176411716172206
1.176411716172207
1.176411716172206
1.176411716172206
1.176411716172206
1.176411716172206
1.176411716172206
1.176411716172206
1.176411716172207
1.176411716172206
1.176411716172206
1.176411716172206
1.176411716172206
1.176411716172207
1.176411716172207
1.176411716172207
1.176411716172206
1.176411716172207
1.176411716172207
1.176411716172207
1.176411716172207
1.176411716172207
1.176411716172207
1.176411716172207
1.176411716172207
1.176411716172207
1.176411716172208
1.176411716172207
1.176411716172207
1.176411716172207
1.176411716172208
1.176411716172208
1.176411716172208
1.176411716172209
1.176411716172209
1.17641171617221
1.176411716172211
1.176411716172212
1.176411716172213
1.176411716172213
1.176411716172213
1.176411716172213
1.176411716172213
1.176411716172213
1.176411716172212
1.176411716172212
1.176411716172212
1.176411716172212
1.176411716172211
1.176411716172211
1.176411716172211
1.176411716172211
1.17641171617221
1.17641171617221
1.17641171617221
1.176411716172211
1.17641171617221
1.176411716172211
1.17641171617221
1.17641171617221
1.176411716172211
1.176411716172211
1.176411716172211
1.176411716172211
1.176411716172211
1.176411716172211
1.176411716172211
1.176411716172211
1.176411716172211
1.176411716172211
1.176411716172211
1.176411716172211
1.176411716172211
1.176411716172211
1.176411716172211
1.176411716172211
1.176411716172211
1.176411716172211
1.176411716172211
1.176411716172211
1.176411716172211
1.176411716172211
1.176411716172211
1.176411716172211
1.176411716172212
1.176411716172212
1.176411716172212
1.176411716172212
1.176411716172212
1.176411716172212
1.176411716172212
1.176411716172212
1.176411716172212
1.176411716172212
1.176411716172212
1.176411716172212
1.176411716172212
1.176411716172212
1.176411716172212
1.176411716172212
1.176411716172212
1.176411716172212
1.176411716172213
1.176411716172213
1.176411716172214
1.176411716172214
1.176411716172214
1.176411716172214
1.176411716172214
1.176411716172214
1.176411716172214
1.176411716172214
1.176411716172214
1.176411716172214
1.176411716172214
1.176411716172214
1.176411716172215
1.176411716172215
1.176411716172216
1.176411716172216
1.176411716172215
1.176411716172215
1.176411716172215
1.176411716172214
1.176411716172214
1.176411716172214
1.176411716172214
1.176411716172214
1.176411716172214
1.176411716172214
1.176411716172214
1.176411716172215
1.176411716172215
1.176411716172215
1.176411716172215
1.176411716172215
1.176411716172214
1.176411716172214
1.176411716172214
1.176411716172213
1.176411716172213
1.176411716172213
1.176411716172214
1.176411716172214
1.176411716172214
1.176411716172215
1.176411716172215
1.176411716172215
1.176411716172215
1.176411716172216
1.176411716172216
1.176411716172216
1.176411716172216
1.176411716172216
1.176411716172216
1.176411716172216
1.176411716172217
1.176411716172217
1.176411716172218
1.176411716172218
1.176411716172218
1.176411716172218
1.176411716172217
1.176411716172217
1.176411716172216
1.176411716172216
1.176411716172216
1.176411716172217
1.176411716172217
1.176411716172217
1.176411716172217
1.176411716172216
1.176411716172216
1.176411716172215
1.176411716172215
1.176411716172215
1.176411716172215
1.176411716172215
1.176411716172215
1.176411716172216
1.176411716172216
1.176411716172215
1.176411716172215
)
;

boundaryField
{
    inlet
    {
        type            calculated;
        value           uniform 1.176395973595895;
    }
    outlet
    {
        type            calculated;
        value           uniform 1.176411716172223;
    }
    frontAndBack
    {
        type            empty;
    }
}


// ************************************************************************* //
