/*--------------------------------*- C++ -*----------------------------------*\
| =========                 |                                                 |
| \\      /  F ield         | OpenFOAM: The Open Source CFD Toolbox           |
|  \\    /   O peration     | Version:  v2012                                 |
|   \\  /    A nd           | Website:  www.openfoam.com                      |
|    \\/     M anipulation  |                                                 |
\*---------------------------------------------------------------------------*/
FoamFile
{
    version     2.0;
    format      ascii;
    class       volScalarField;
    location    "0.004";
    object      T;
}
// * * * * * * * * * * * * * * * * * * * * * * * * * * * * * * * * * * * * * //

dimensions      [0 0 0 1 0 0 0];


internalField   nonuniform List<scalar> 
1000
(
299.9879817607673
299.9897579283823
299.9834488872736
299.9787859738979
299.9743244034618
299.9704453803473
299.9668919287565
299.9636710602612
299.9608568370124
299.9589934592573
299.9585256171798
299.9585771552486
299.95892619499
299.9597768198335
299.9614164707143
299.9639245361597
299.9672150792537
299.9711372350979
299.9755643792554
299.9804092823507
299.9856004583342
299.9910604245239
299.9966980914535
300.0024086095266
300.008076450889
300.0135852534929
300.0188363840462
300.0237711230288
300.028382865439
300.0326822013477
300.0365377007545
300.0394005605876
300.0406263063676
300.0407671413155
300.0407060277863
300.0404837273402
300.0398572532663
300.0386286448458
300.0366211582123
300.0337542472657
300.030061466157
300.0256724611491
300.0207599695494
300.0154859232261
300.0099761911189
300.0043268128684
299.998622688689
299.992950465882
299.9873986235744
299.9820425765184
299.9769201751034
299.9720296255355
299.9674144859754
299.9633914784405
299.9607161610119
299.9598051106132
299.9597430847209
299.9597776611831
299.9599986903422
299.9605425950766
299.9616004214976
299.9633340699734
299.9658589276975
299.9692117684701
299.9733405795925
299.9781166098095
299.9833668619606
299.9889141835931
299.994607135775
300.0003291156723
300.0059930200046
300.0115377095491
300.0169326607416
300.0221767164306
300.0272648955495
300.0320887442809
300.0362354069882
300.0389054241721
300.039783818422
300.039848088039
300.039800137588
300.0396264605343
300.0391639934318
300.0382652602262
300.0367734271355
300.0345607388529
300.0315507282402
300.0277383555108
300.0231951273524
300.0180569948321
300.0124992786697
300.0067057783824
300.0008389503164
299.9950183443939
299.989312960207
299.9837469313921
299.9783159233331
299.9730299094978
299.9680339978307
299.9638361256368
299.9612949125105
299.9605547088208
299.9605171323494
299.9605478990918
299.9607239641837
299.9611517225305
299.9619803209266
299.9633497679042
299.9653830534128
299.9681644328848
299.9717228774794
299.9760210137963
299.9809557649342
299.986373900715
299.9920986960329
299.9979590595333
300.0038148636518
300.0095758302123
300.015208382262
300.0207186024776
300.0260958048834
300.0311913126841
300.0355151897402
300.0382255512983
300.0390928930573
300.0391591714608
300.0391231395606
300.0389895323302
300.0386283681404
300.0379181188665
300.0367233649065
300.0349201059972
300.0324102626584
300.0291392358654
300.0251086530395
300.0203816167677
300.0150785743236
300.009361749828
300.0034079577759
299.9973762756421
299.9913824463366
299.9854896307706
299.9797217759811
299.9741165884532
299.9688601250454
299.9645093949881
299.9619267135344
299.9611826859724
299.961140591566
299.961163761017
299.9613026548988
299.9616476041547
299.9623234847883
299.9634524627494
299.9651503652907
299.9675114388618
299.9705947984478
299.9744115373247
299.9789173076597
299.9840144675927
299.9895642332263
299.9954064381586
300.0013847851717
300.0073737829173
300.0132966762803
300.019117929833
300.0247927257832
300.0301476799482
300.0346789835157
300.0375421434734
300.0384943304342
300.0385790135043
300.0385531037168
300.0384529472518
300.0381680438158
300.0375943633626
300.0366122103216
300.0351064725623
300.0329760673866
300.0301473309066
300.0265857531182
300.0223049225567
300.0173707332543
300.011897249972
300.0060311315763
299.9999270237405
299.9937221341601
299.9875193771878
299.9813901772608
299.9754205658444
299.9698439020128
299.9652571531962
299.962534265308
299.9617273263869
299.9616719846098
299.9616893576051
299.9618000277327
299.9620811072984
299.9626411290126
299.9635887514139
299.9650316172657
299.9670645758403
299.9697591207803
299.9731521113921
299.977237153368
299.9819617222984
299.987230924082
299.9929177617921
299.9988807861025
300.0049876839174
300.0111353260681
300.0172496010564
300.0232452119517
300.0289162763526
300.0337411044067
300.0368571509362
300.0379592719563
300.0380767038662
300.0380583977378
300.0379828327455
300.0377555239412
300.0372862624491
300.0364682818001
300.0351952379341
300.0333677975181
300.0309043204242
300.0277506662099
300.0238890757411
300.0193449249293
300.0141880861283
300.0085254957016
300.0024856330761
299.9961998053906
299.9897864520925
299.9833493079544
299.9770161584283
299.9710647450237
299.9661351467133
299.9631514359597
299.9622193725824
299.9621420045068
299.9621532916163
299.9622399840272
299.9624691915475
299.9629376086193
299.9637423366239
299.9649824185437
299.9667496425359
299.9691204128056
299.9721462042795
299.975845314541
299.9801981580558
299.9851467595791
299.9905990479133
299.9964399598346
300.0025491435587
300.0088177876468
300.0151505498721
300.0214337738357
300.0274382248849
300.0326304026053
300.0361124676441
300.037451608579
300.0376253468398
300.0376137875408
300.0375590969761
300.0373786565749
300.0369932468453
300.0363064878445
300.0352207394793
300.0336410170003
300.0314833376678
300.0286826794176
300.0252010766334
300.021034891792
300.0162185487964
300.0108219985657
300.0049421004816
299.998690558996
299.9921821226229
299.9855327288346
299.9788939439423
299.9725699880684
299.9672255940132
299.963848287315
299.9626896444159
299.9625672377323
299.9625739454034
299.962640789386
299.9628267017205
299.9632186420939
299.963904920069
299.9649774142319
299.9665239663569
299.9686219158092
299.971330394406
299.9746833487145
299.9786845731749
299.9833050378545
299.9884835156196
299.9941329790062
300.000152935507
300.0064417620342
300.0128982266097
300.0193962425411
300.0257008201719
300.0312884676503
300.0352374352967
300.0369311961874
300.0372075951495
300.0372032424202
300.0371666827607
300.0370255645765
300.0367106186293
300.0361333121827
300.0352034336699
300.0338309099511
300.0319323287828
300.0294372181656
300.0262949927901
300.02248176708
300.0180049029415
300.0129033345009
300.0072437313478
300.0011137551065
299.9946144319169
299.9878597129331
299.9810067760718
299.974360456659
299.9685740764784
299.9646842518314
299.963173522954
299.9629662365886
299.9629674355452
299.9630163568742
299.9631640930157
299.9634898386434
299.9640748403471
299.9650047801847
299.966363376246
299.9682271839228
299.970659300479
299.9737036082005
299.977380116293
299.9816814067153
299.9865713413257
299.9919883916821
299.9978536259524
300.0040787564399
300.0105666745164
300.0171918444528
300.0237301931357
300.0296940012551
300.034173600753
300.0363521557362
300.0368061457057
300.0368171475263
300.0367945571611
300.03668706532
300.0364326302639
300.0359493628292
300.0351530971656
300.0339582400694
300.0322830746024
300.0300546986645
300.0272148556847
300.023725869804
300.0195751592561
300.0147771508352
300.0093726146084
300.0034256868678
299.9970195669877
299.9902575363175
299.9832889668072
299.976398452636
299.9701929006879
299.9657149285932
299.9637128188382
299.9633515317007
299.9633449221652
299.9633770483656
299.963490775106
299.9637575715635
299.964253205019
299.9650585014216
299.9662533866977
299.9679127911612
299.9701016053395
299.9728699934557
299.9762491347747
299.9802474124356
299.9848482935695
299.9900117349733
299.9956788174599
300.0017763992352
300.0082170501159
300.0148843945635
300.0215765009061
300.0278605666392
300.0328818019071
300.035659812656
300.036400868975
300.0364470598814
300.0364340986392
300.0363554549601
300.0361541133948
300.0357533949484
300.0350742597957
300.0340349170144
300.0325556942697
300.0305628803944
300.0279936151187
300.0248010377887
300.0209583447029
300.0164612426552
300.0113292749149
300.0056056846475
299.9993555249863
299.9926672600321
299.9856743930278
299.9786290722033
299.9720680398443
299.9669844750745
299.9643584089517
299.9637381054674
299.96370815873
299.9637289759528
299.9638122267974
299.9640268946541
299.964442803674
299.9651370100526
299.9661862635421
299.9676638396143
299.9696354183762
299.9721551961954
299.9752620042173
299.9789756497831
299.9832946159991
299.9881962035556
299.9936386311462
299.9995633666263
300.005895040339
300.0125308405422
300.019295982971
300.0258218233064
300.0313453566435
300.0348001712255
300.0359644852186
300.0360868388569
300.036080844018
300.0360270900238
300.0358724161053
300.0355448458757
300.0349694513642
300.0340679006407
300.0327626511572
300.0309801789691
300.0286550647075
300.0257342629977
300.0221806586273
300.0179758906788
300.013122855023
300.0076470865123
300.0015964279189
299.9950433177792
299.988102567055
299.9809896736235
299.9741605194635
299.9685115651972
299.9651679852774
299.9641513147696
299.9640629963064
299.9640760019441
299.9641339141016
299.9643024320457
299.964646632421
299.9652403853307
299.9661578866068
299.9674710912237
299.9692459994237
299.9715394688572
299.9743957498834
299.9778429343071
299.9818906271761
299.9865296595923
299.9917327871402
299.9974550511089
300.0036331281478
300.0101782651592
300.0169431368016
300.0236236674141
300.0295694916903
300.0337210403095
300.0354561638584
300.0357332838573
300.0357372988278
300.0357011058148
300.0355856103768
300.0353213020293
300.034837926658
300.0340598714122
300.0329115431465
300.0313198874744
300.0292178372503
300.0265478130174
300.0232651500527
300.0193412872229
300.0147664463577
300.0095513702964
300.0037284776543
299.9973552924247
299.990528132174
299.9834255529634
299.9764215383489
299.9702886008938
299.9661924559183
299.9646276901766
299.9644160065523
299.9644189244098
299.9644573784985
299.9645845035449
299.9648641372041
299.9653669497709
299.966164962736
299.9673288181564
299.9689245990081
299.9710107997852
299.9736352853675
299.9768324440354
299.980620945474
299.9850023931074
299.9899608899412
299.9954632374106
300.001458397055
300.0078712884031
300.0145774883804
300.0213288808317
300.0275905065368
300.0323858748116
300.0348021493246
300.0353479161379
300.0353710862486
300.0353530842233
300.0352738895646
300.0350749807343
300.0346916206292
300.0340556169245
300.0330999905805
300.0317628152334
300.0299915304355
300.0277478745193
300.0250134947777
300.0217965025919
300.0181402247541
300.0141384993237
300.0099689525723
300.0059617670469
300.0026754120174
300.0007235912739
300.0000843987848
300.0000028084407
300.0000000174546
300.0000000000133
299.9999999999996
299.9999999999997
299.9999999999997
299.9999999999998
299.9999999999999
299.9999999999998
300
300
300.0000000000001
300.0000000000002
300.0000000000002
300.0000000000002
300.0000000000003
300.0000000000003
300.0000000000002
300.0000000000002
300.0000000000001
300
300.0000000000001
300.0000000000001
300.0000000000001
300
300
300
300.0000000000001
300.0000000000001
300.0000000000001
300.0000000000001
300.0000000000002
300.0000000000002
300.0000000000003
300.0000000000003
300.0000000000003
300.0000000000001
300
299.9999999999998
299.9999999999999
300
299.9999999999999
300
300.0000000000001
300.0000000000002
300.0000000000003
300.0000000000003
300.0000000000003
300.0000000000002
300.0000000000001
300.0000000000001
300
300.0000000000001
300.0000000000001
300.0000000000001
300.0000000000001
300.0000000000001
300.0000000000003
300.0000000000002
300.0000000000001
300.0000000000001
300.0000000000002
300.0000000000002
300.0000000000003
300.0000000000003
300.0000000000004
300.0000000000005
300.0000000000005
300.0000000000003
300.0000000000001
300
300
299.9999999999999
299.9999999999999
300
300.0000000000001
300.0000000000003
300.0000000000003
300.0000000000003
300.0000000000003
300.0000000000003
300.0000000000003
300.0000000000003
300.0000000000004
300.0000000000003
300.0000000000005
300.0000000000006
300.0000000000005
300.0000000000005
300.0000000000005
300.0000000000005
300.0000000000006
300.0000000000005
300.0000000000005
300.0000000000003
300.0000000000003
300.0000000000003
300.0000000000003
300.0000000000003
300.0000000000003
300.0000000000004
300.0000000000003
300.0000000000002
300.0000000000003
300.0000000000003
300.0000000000003
300.0000000000005
300.0000000000004
300.0000000000005
300.0000000000004
300.0000000000005
300.0000000000005
300.0000000000005
300.0000000000005
300.0000000000003
300.0000000000003
300.0000000000003
300.0000000000005
300.0000000000003
300.0000000000004
300.0000000000003
300.0000000000003
300.0000000000003
300.0000000000003
300.0000000000002
300.0000000000001
300.0000000000001
300.0000000000001
300.0000000000001
300
300.0000000000001
300
300
300.0000000000001
300.0000000000001
300
299.9999999999999
299.9999999999999
299.9999999999999
300
299.9999999999999
300
299.9999999999999
299.9999999999999
300.0000000000001
300.0000000000002
300.0000000000003
300.0000000000003
300.0000000000002
300.0000000000002
300.0000000000002
300.0000000000003
300.0000000000004
300.0000000000003
300.0000000000003
300.0000000000002
300.0000000000002
300.0000000000001
300.0000000000001
300.0000000000001
300.0000000000001
300.0000000000001
300.0000000000001
300.0000000000002
300.0000000000002
300.0000000000002
300.0000000000003
300.0000000000004
300.0000000000005
300.0000000000005
300.0000000000005
300.0000000000005
300.0000000000005
300.0000000000005
300.0000000000004
300.0000000000005
300.0000000000005
300.0000000000005
300.0000000000005
300.0000000000006
300.0000000000007
300.0000000000007
300.0000000000006
300.0000000000006
300.0000000000006
300.0000000000005
300.0000000000004
300.0000000000003
300.0000000000003
300.0000000000002
300.0000000000002
300.0000000000003
300.0000000000003
300.0000000000003
300.0000000000004
300.0000000000005
300.0000000000005
300.0000000000005
300.0000000000005
300.0000000000002
300.0000000000001
300.0000000000002
300.0000000000002
300.0000000000001
300.0000000000002
300.0000000000003
300.0000000000003
300.0000000000001
300.0000000000001
300.0000000000002
300.0000000000003
300.0000000000004
300.0000000000004
300.0000000000005
300.0000000000004
300.0000000000003
300.0000000000001
300.0000000000001
300.0000000000001
300.0000000000001
300.0000000000001
300.0000000000001
300.0000000000001
300.0000000000001
300.0000000000001
300.0000000000001
300
299.9999999999999
299.9999999999999
299.9999999999999
299.9999999999999
299.9999999999999
300
300.0000000000001
300.0000000000002
300.0000000000001
300.0000000000001
300.0000000000002
300.0000000000003
300.0000000000002
300.0000000000003
300.0000000000005
300.0000000000006
300.0000000000007
300.0000000000008
300.0000000000009
300.0000000000007
300.0000000000007
300.0000000000009
300.0000000000008
300.0000000000008
300.0000000000008
300.0000000000007
300.0000000000006
300.0000000000006
300.0000000000005
300.0000000000005
300.0000000000005
300.0000000000006
300.0000000000008
300.0000000000008
300.0000000000009
300.0000000000009
300.0000000000009
300.0000000000007
300.0000000000006
300.0000000000006
300.0000000000006
300.0000000000006
300.0000000000005
300.0000000000005
300.0000000000005
300.0000000000005
300.0000000000005
300.0000000000003
300.0000000000003
300.0000000000003
300.0000000000003
300.0000000000002
300.0000000000002
300.0000000000003
300.0000000000003
300.0000000000005
300.0000000000006
300.0000000000006
300.0000000000007
300.0000000000006
300.0000000000006
300.0000000000005
300.0000000000006
300.0000000000007
300.0000000000006
300.0000000000007
300.0000000000007
300.0000000000008
300.0000000000009
300.0000000000009
300.0000000000009
300.000000000001
300.000000000001
300.0000000000011
300.0000000000011
300.0000000000011
300.0000000000011
300.0000000000011
300.0000000000011
300.0000000000012
300.0000000000013
300.0000000000014
300.0000000000013
300.0000000000013
300.0000000000013
300.0000000000013
300.0000000000013
300.0000000000014
300.0000000000015
300.0000000000015
300.0000000000015
300.0000000000014
300.0000000000014
300.0000000000013
300.0000000000013
300.0000000000013
300.0000000000013
300.0000000000013
300.0000000000013
300.0000000000013
300.0000000000014
300.0000000000013
300.0000000000013
300.0000000000013
300.0000000000013
300.0000000000013
300.0000000000014
300.0000000000014
300.0000000000013
300.0000000000014
300.0000000000013
300.0000000000014
300.0000000000014
300.0000000000013
300.0000000000013
300.0000000000013
300.0000000000013
300.0000000000013
300.0000000000014
300.0000000000014
300.0000000000013
300.0000000000014
300.0000000000015
300.0000000000016
300.0000000000016
300.0000000000018
300.0000000000018
300.0000000000017
300.0000000000018
300.0000000000017
300.0000000000017
300.0000000000018
300.0000000000017
300.0000000000015
300.0000000000015
300.0000000000013
300.0000000000013
300.0000000000013
300.0000000000013
300.0000000000014
300.0000000000016
300.0000000000016
300.0000000000015
300.0000000000016
300.0000000000018
300.0000000000018
300.0000000000017
300.0000000000016
300.0000000000015
300.0000000000014
300.0000000000013
300.0000000000013
300.0000000000013
300.0000000000012
300.0000000000012
300.0000000000013
300.0000000000013
300.0000000000013
300.0000000000013
300.0000000000013
300.0000000000012
300.0000000000011
300.0000000000011
300.0000000000011
300.0000000000011
300.0000000000011
300.0000000000012
300.0000000000013
300.0000000000014
300.0000000000014
300.0000000000014
300.0000000000015
300.0000000000016
300.0000000000016
300.0000000000015
300.0000000000013
300.0000000000013
300.0000000000013
300.0000000000011
300.0000000000012
300.0000000000011
300.0000000000011
300.0000000000011
300.0000000000012
300.0000000000012
300.0000000000011
300.0000000000011
300.0000000000009
300.0000000000008
300.0000000000008
300.000000000001
300.0000000000013
300.0000000000015
300.0000000000016
300.0000000000015
300.0000000000015
300.0000000000016
300.0000000000016
300.0000000000016
300.0000000000017
300.0000000000018
300.0000000000019
300.0000000000019
300.000000000002
300.0000000000021
300.000000000002
300.000000000002
300.000000000002
300.000000000002
300.000000000002
300.000000000002
300.0000000000019
300.0000000000019
)
;

boundaryField
{
    inlet
    {
        type            fixedValue;
        value           uniform 300;
    }
    outlet
    {
        type            inletOutlet;
        inletValue      uniform 300;
        value           uniform 300;
    }
    frontAndBack
    {
        type            empty;
    }
}


// ************************************************************************* //
