/*--------------------------------*- C++ -*----------------------------------*\
| =========                 |                                                 |
| \\      /  F ield         | OpenFOAM: The Open Source CFD Toolbox           |
|  \\    /   O peration     | Version:  v2012                                 |
|   \\  /    A nd           | Website:  www.openfoam.com                      |
|    \\/     M anipulation  |                                                 |
\*---------------------------------------------------------------------------*/
FoamFile
{
    version     2.0;
    format      ascii;
    class       volVectorField;
    location    "0.004";
    object      U;
}
// * * * * * * * * * * * * * * * * * * * * * * * * * * * * * * * * * * * * * //

dimensions      [0 1 -1 0 0 0 0];


internalField   nonuniform List<vector> 
1000
(
(-0.002790201673131989 0 0)
(-0.03444242901260652 0 0)
(-0.04263249225920269 0 0)
(-0.05778279770599953 0 0)
(-0.07164776857613461 0 0)
(-0.08457158665889868 0 0)
(-0.09560870357981367 0 0)
(-0.1050503288159798 0 0)
(-0.1132038467619163 0 0)
(-0.1186934244522769 0 0)
(-0.1201290642780908 0 0)
(-0.1199669337404075 0 0)
(-0.1191659754372826 0 0)
(-0.1166537501734152 0 0)
(-0.1118177364408123 0 0)
(-0.1044621287238245 0 0)
(-0.09486973895718676 0 0)
(-0.08347413602173222 0 0)
(-0.07063842343061572 0 0)
(-0.05661200175858663 0 0)
(-0.04159351914402747 0 0)
(-0.02580180541116891 0 0)
(-0.009506623990303335 0 0)
(0.006984729999498149 0 0)
(0.02335432991995244 0 0)
(0.03928505193709986 0 0)
(0.0544803329867741 0 0)
(0.06874155157442773 0 0)
(0.08205760554115839 0 0)
(0.09450445774246322 0 0)
(0.1057013475224301 0 0)
(0.1139887422342153 0 0)
(0.1174894217104782 0 0)
(0.1178737870349399 0 0)
(0.1177862389722818 0 0)
(0.1170834775068205 0 0)
(0.1152878609056627 0 0)
(0.1117296517448153 0 0)
(0.1059211385339123 0 0)
(0.09762780404989285 0 0)
(0.08694884954924205 0 0)
(0.07425521274866242 0 0)
(0.06004361862824631 0 0)
(0.04478728081209993 0 0)
(0.02885519375108596 0 0)
(0.0125187173082472 0 0)
(-0.003985828813176583 0 0)
(-0.02040052634143358 0 0)
(-0.03645355892815544 0 0)
(-0.05193332666990646 0 0)
(-0.06675611879884025 0 0)
(-0.08092483694461766 0 0)
(-0.09427356579746216 0 0)
(-0.1058785086701879 0 0)
(-0.1136086086166865 0 0)
(-0.1162822333385069 0 0)
(-0.1164865139389879 0 0)
(-0.1163186180111482 0 0)
(-0.1157207543343325 0 0)
(-0.1141349143353573 0 0)
(-0.1110768113999843 0 0)
(-0.1060627438762598 0 0)
(-0.09875959942281856 0 0)
(-0.0890591930523898 0 0)
(-0.07711516278385887 0 0)
(-0.06330226104852141 0 0)
(-0.04811688264755846 0 0)
(-0.03206740826414209 0 0)
(-0.01559700741876502 0 0)
(0.0009496837178571374 0 0)
(0.01732650699463139 0 0)
(0.03336935832991036 0 0)
(0.0489847002037577 0 0)
(0.06414817092480186 0 0)
(0.07884739496613932 0 0)
(0.09280127647102319 0 0)
(0.1048210831313714 0 0)
(0.112550148202792 0 0)
(0.1150598291197836 0 0)
(0.1152263269136266 0 0)
(0.1151421203170797 0 0)
(0.1146061759734735 0 0)
(0.1132786697303038 0 0)
(0.1106777709227106 0 0)
(0.106362207177652 0 0)
(0.09996182060277443 0 0)
(0.09125722884268411 0 0)
(0.08023127813577449 0 0)
(0.06708843767418445 0 0)
(0.05222515155006618 0 0)
(0.03615248165467887 0 0)
(0.01939809911016721 0 0)
(0.002424967732588992 0 0)
(-0.01441707783050385 0 0)
(-0.03091679694000584 0 0)
(-0.04700709643472719 0 0)
(-0.0627193098109104 0 0)
(-0.07802586023961201 0 0)
(-0.09247868768364693 0 0)
(-0.1045996796322625 0 0)
(-0.1119407866388486 0 0)
(-0.1141065542116299 0 0)
(-0.1142383426872327 0 0)
(-0.1141010177221826 0 0)
(-0.1136190786960511 0 0)
(-0.1123736963694437 0 0)
(-0.1099779212574174 0 0)
(-0.1060171543017192 0 0)
(-0.1001358509972609 0 0)
(-0.09208894388635099 0 0)
(-0.08179497593712722 0 0)
(-0.06936378590269686 0 0)
(-0.05509049307859857 0 0)
(-0.03941544084241166 0 0)
(-0.02285384408955355 0 0)
(-0.005905825550742345 0 0)
(0.01102796022199519 0 0)
(0.02769546761052565 0 0)
(0.04399501885074467 0 0)
(0.05992896175399031 0 0)
(0.07546912415121741 0 0)
(0.09020951291155994 0 0)
(0.102734836804579 0 0)
(0.1105771952460176 0 0)
(0.1130640181600947 0 0)
(0.1132415360753053 0 0)
(0.1131780087568995 0 0)
(0.1127659406386885 0 0)
(0.1117291468360191 0 0)
(0.1096737318500768 0 0)
(0.1062176511663449 0 0)
(0.1010015865241836 0 0)
(0.09374324795342773 0 0)
(0.08428283874869401 0 0)
(0.07262335397656788 0 0)
(0.05894973553418249 0 0)
(0.04361312393149699 0 0)
(0.02707952918161275 0 0)
(0.009855537370686659 0 0)
(-0.007595097337100866 0 0)
(-0.02492938699179133 0 0)
(-0.04196792387577818 0 0)
(-0.05865498183893822 0 0)
(-0.07488021489577523 0 0)
(-0.09008451114168431 0 0)
(-0.1026531560757483 0 0)
(-0.1101192855486267 0 0)
(-0.1122910864563525 0 0)
(-0.1124261029260136 0 0)
(-0.1123244266330415 0 0)
(-0.1119435042287804 0 0)
(-0.1109393570478358 0 0)
(-0.1089852425008636 0 0)
(-0.1057199763544397 0 0)
(-0.1008086093885931 0 0)
(-0.09397771094559575 0 0)
(-0.0850583212714293 0 0)
(-0.07401936719205995 0 0)
(-0.06098637520745466 0 0)
(-0.04623998057959969 0 0)
(-0.03018549739279427 0 0)
(-0.01328978804962276 0 0)
(0.003999948581385224 0 0)
(0.02132730410416237 0 0)
(0.03846459130701952 0 0)
(0.05529732073523815 0 0)
(0.07170125428377237 0 0)
(0.0871943159769526 0 0)
(0.1003161501506992 0 0)
(0.1085964160709127 0 0)
(0.1113319326026445 0 0)
(0.1115681472960084 0 0)
(0.1115276428039238 0 0)
(0.1112143579631941 0 0)
(0.1103978509650505 0 0)
(0.1087373597822485 0 0)
(0.1058963021008697 0 0)
(0.1015408716042393 0 0)
(0.09537984303628035 0 0)
(0.08719853854515962 0 0)
(0.07689584643562379 0 0)
(0.06451318506695831 0 0)
(0.0502432244534318 0 0)
(0.03441297925005699 0 0)
(0.01744293977516403 0 0)
(-0.0002161061892557808 0 0)
(-0.01816095760033185 0 0)
(-0.03609761272518824 0 0)
(-0.05383011360633065 0 0)
(-0.07110690565411588 0 0)
(-0.08723618970627152 0 0)
(-0.1004908651151071 0 0)
(-0.1083655359654589 0 0)
(-0.1107151390828618 0 0)
(-0.1108848891684167 0 0)
(-0.1108061527960792 0 0)
(-0.1105041048577255 0 0)
(-0.1096853319618969 0 0)
(-0.1080663341752462 0 0)
(-0.1053255712817334 0 0)
(-0.1011518657149723 0 0)
(-0.09527028082157474 0 0)
(-0.08747576247523398 0 0)
(-0.07766229572597684 0 0)
(-0.06584597050314608 0 0)
(-0.05217762096464506 0 0)
(-0.03693523697853409 0 0)
(-0.02048851630187642 0 0)
(-0.003241936648478388 0 0)
(0.0144263032089977 0 0)
(0.03221190236376686 0 0)
(0.04989200934621205 0 0)
(0.06722678999406212 0 0)
(0.08363548034817213 0 0)
(0.097602437878905 0 0)
(0.1066113327861495 0 0)
(0.1097847177830312 0 0)
(0.1101193580590957 0 0)
(0.1100950465166485 0 0)
(0.1098550199389409 0 0)
(0.109204853789027 0 0)
(0.1078462594018412 0 0)
(0.1054801141213766 0 0)
(0.1017978457406512 0 0)
(0.09651301207897231 0 0)
(0.08938796805748374 0 0)
(0.08026526700822208 0 0)
(0.06909558265927647 0 0)
(0.05595372100304432 0 0)
(0.04103883891585002 0 0)
(0.0246575654012724 0 0)
(0.007185351171398596 0 0)
(-0.01099324292093669 0 0)
(-0.02954040009993483 0 0)
(-0.04816450759561965 0 0)
(-0.06649084957675899 0 0)
(-0.08370203627041532 0 0)
(-0.09795059201153059 0 0)
(-0.1065834521301589 0 0)
(-0.1092928873420358 0 0)
(-0.1095219382456941 0 0)
(-0.1094647634163493 0 0)
(-0.1092313306279132 0 0)
(-0.1085625359883953 0 0)
(-0.107208687239706 0 0)
(-0.1048811549787194 0 0)
(-0.101293919050575 0 0)
(-0.09618117804337049 0 0)
(-0.08932342592443458 0 0)
(-0.0805719071969685 0 0)
(-0.06987158917521585 0 0)
(-0.05727875444200929 0 0)
(-0.04296427829531915 0 0)
(-0.02719564216786011 0 0)
(-0.01030119500997614 0 0)
(0.007373544267217318 0 0)
(0.02550755472681141 0 0)
(0.04381948627345026 0 0)
(0.06198877847698767 0 0)
(0.07936293574772452 0 0)
(0.09438904090154114 0 0)
(0.1044543068629327 0 0)
(0.108316584832256 0 0)
(0.1088166753449843 0 0)
(0.1088087035415604 0 0)
(0.1086293178081859 0 0)
(0.1081151015613949 0 0)
(0.1069987901746823 0 0)
(0.1050123132449145 0 0)
(0.1018718673463283 0 0)
(0.09730336549671832 0 0)
(0.09106263129960245 0 0)
(0.08296117494335523 0 0)
(0.07289088504115689 0 0)
(0.06084195916428152 0 0)
(0.04691144931788375 0 0)
(0.03130015328593146 0 0)
(0.01429164119443324 0 0)
(-0.003788111447408879 0 0)
(-0.02261180131763929 0 0)
(-0.04184956697199813 0 0)
(-0.06105739445749638 0 0)
(-0.07934569932733344 0 0)
(-0.09479765252350317 0 0)
(-0.1045706268206432 0 0)
(-0.1079316192888165 0 0)
(-0.1082885065626629 0 0)
(-0.1082496652425306 0 0)
(-0.108071376957902 0 0)
(-0.1075282292027123 0 0)
(-0.1063956630986647 0 0)
(-0.1044106759219973 0 0)
(-0.1013081097226692 0 0)
(-0.09683385249960884 0 0)
(-0.09076545875600885 0 0)
(-0.08293159421331911 0 0)
(-0.07323225989684062 0 0)
(-0.06165679094961134 0 0)
(-0.04829198348385685 0 0)
(-0.03331497638716369 0 0)
(-0.01697331467226502 0 0)
(0.0004431029606156663 0 0)
(0.01863401443633398 0 0)
(0.03730387760943867 0 0)
(0.05609698834673969 0 0)
(0.07433990219012651 0 0)
(0.09050650415425363 0 0)
(0.1019208433528201 0 0)
(0.1068116325523861 0 0)
(0.1076105010887848 0 0)
(0.1076219089161652 0 0)
(0.1074937700446954 0 0)
(0.1070943022003083 0 0)
(0.106181365033152 0 0)
(0.1045116440958663 0 0)
(0.1018221161446122 0 0)
(0.09785274282648011 0 0)
(0.09236126453553761 0 0)
(0.08514381491937384 0 0)
(0.07605540635897079 0 0)
(0.06502706988746967 0 0)
(0.05207806355468365 0 0)
(0.03732046571357935 0 0)
(0.02095000638473876 0 0)
(0.003221487479334777 0 0)
(-0.01557711044806895 0 0)
(-0.03511909859662656 0 0)
(-0.05494411822411889 0 0)
(-0.07416471894001299 0 0)
(-0.09089824411911943 0 0)
(-0.1021546731437778 0 0)
(-0.1065310282014484 0 0)
(-0.107131746646091 0 0)
(-0.1071123451857688 0 0)
(-0.1069846586691947 0 0)
(-0.1065520194962025 0 0)
(-0.1056110596697401 0 0)
(-0.103918912988026 0 0)
(-0.1012286342979735 0 0)
(-0.09729823942000279 0 0)
(-0.09190726214222057 0 0)
(-0.08487256256973405 0 0)
(-0.07606581249881321 0 0)
(-0.06542998278653341 0 0)
(-0.05298878424451707 0 0)
(-0.03884584921756098 0 0)
(-0.02317567087484418 0 0)
(-0.006207393600681943 0 0)
(0.01179802425768178 0 0)
(0.03055967478470357 0 0)
(0.04972292639706923 0 0)
(0.0686415542749983 0 0)
(0.08589297119164806 0 0)
(0.09884087142458217 0 0)
(0.1051362946158523 0 0)
(0.1064573483322429 0 0)
(0.1065021369681521 0 0)
(0.1064168717857495 0 0)
(0.1061158594426416 0 0)
(0.1053773902349722 0 0)
(0.1039798734365025 0 0)
(0.1016768439070848 0 0)
(0.09822118632412891 0 0)
(0.09337581598215675 0 0)
(0.08693011834365698 0 0)
(0.07871648823546787 0 0)
(0.06862562054605739 0 0)
(0.05661970753399394 0 0)
(0.04274073448968427 0 0)
(0.02710869664347231 0 0)
(0.009908957451470477 0 0)
(-0.008621084247105644 0 0)
(-0.02818320976117646 0 0)
(-0.04834063414937984 0 0)
(-0.06826844120433036 0 0)
(-0.08621748152102958 0 0)
(-0.09917493390414001 0 0)
(-0.1049706118258349 0 0)
(-0.1060120529144287 0 0)
(-0.1060231246916206 0 0)
(-0.1059406825112679 0 0)
(-0.1056068221849767 0 0)
(-0.104836423427981 0 0)
(-0.1034026339415387 0 0)
(-0.1010729062415754 0 0)
(-0.09761628949505256 0 0)
(-0.0928165933390835 0 0)
(-0.08648535527057766 0 0)
(-0.07847669573032527 0 0)
(-0.06870152699180483 0 0)
(-0.05713694128337224 0 0)
(-0.0438293293140322 0 0)
(-0.02889232521468745 0 0)
(-0.01249825544106895 0 0)
(0.005137476016116678 0 0)
(0.02376400109788517 0 0)
(0.04305097695790009 0 0)
(0.06241260548210694 0 0)
(0.0805872822862867 0 0)
(0.09510289493424068 0 0)
(0.1031369737571687 0 0)
(0.1052892265263236 0 0)
(0.1054283739768954 0 0)
(0.1053745063511284 0 0)
(0.1051573595738626 0 0)
(0.1045719446203687 0 0)
(0.1034132926588793 0 0)
(0.1014491482089676 0 0)
(0.09844328298510976 0 0)
(0.09416446855047603 0 0)
(0.08840013291608133 0 0)
(0.08096940344147256 0 0)
(0.07173585270636335 0 0)
(0.06062043778328811 0 0)
(0.04761184972481153 0 0)
(0.03276894267703612 0 0)
(0.01621536387940314 0 0)
(-0.001864565211417004 0 0)
(-0.02121358553363605 0 0)
(-0.04143959185473756 0 0)
(-0.06181419473637429 0 0)
(-0.08079357305284025 0 0)
(-0.09550529535343789 0 0)
(-0.1031032280776932 0 0)
(-0.1048899612947546 0 0)
(-0.104971615380662 0 0)
(-0.1049246664953619 0 0)
(-0.1046758774417743 0 0)
(-0.1040572968583015 0 0)
(-0.1028537930109692 0 0)
(-0.1008455160342653 0 0)
(-0.09781032887075895 0 0)
(-0.09353649154038107 0 0)
(-0.08783337047357163 0 0)
(-0.08054401847627579 0 0)
(-0.07155705462391236 0 0)
(-0.06081556075960408 0 0)
(-0.0483226200290167 0 0)
(-0.03414324412089799 0 0)
(-0.01840023684763226 0 0)
(-0.001264284092351561 0 0)
(0.01704920092572271 0 0)
(0.03624531145629727 0 0)
(0.05581500823341998 0 0)
(0.0746876045040954 0 0)
(0.09066040758963449 0 0)
(0.1006554861253851 0 0)
(0.1040273341882191 0 0)
(0.1043819557416757 0 0)
(0.104355294529817 0 0)
(0.1042075953888351 0 0)
(0.1037574018149425 0 0)
(0.1028104297728444 0 0)
(0.1011463615212122 0 0)
(0.09853888919865908 0 0)
(0.09476322856661472 0 0)
(0.08960750233682493 0 0)
(0.08288303249426889 0 0)
(0.07443525223279217 0 0)
(0.06415585250556868 0 0)
(0.05199330138647483 0 0)
(0.03795757451989556 0 0)
(0.02212025926280917 0 0)
(0.004616784084421044 0 0)
(-0.01434048050401935 0 0)
(-0.03441443081778688 0 0)
(-0.05498511296457272 0 0)
(-0.07474213803886556 0 0)
(-0.09108915809214103 0 0)
(-0.1007595349321233 0 0)
(-0.1036926375391231 0 0)
(-0.1039449230866066 0 0)
(-0.1039224424837574 0 0)
(-0.103744099495605 0 0)
(-0.1032602616957376 0 0)
(-0.1022638286012178 0 0)
(-0.1005461040501097 0 0)
(-0.09789216665085571 0 0)
(-0.09409391104784705 0 0)
(-0.08895948460627275 0 0)
(-0.08232458034326319 0 0)
(-0.07406259431960903 0 0)
(-0.06409218456486056 0 0)
(-0.05238349174390538 0 0)
(-0.03896295447806872 0 0)
(-0.02391262447092854 0 0)
(-0.007363321486778279 0 0)
(0.01050653892006318 0 0)
(0.02944228198814215 0 0)
(0.04901082291333826 0 0)
(0.06832805668459692 0 0)
(0.0855220981849469 0 0)
(0.09753554842797114 0 0)
(0.1025604773480806 0 0)
(0.1033618379921196 0 0)
(0.1033558904856913 0 0)
(0.1032678740930211 0 0)
(0.1029274059281544 0 0)
(0.1021644365308 0 0)
(0.1007661467905494 0 0)
(0.09851576700998221 0 0)
(0.09519429052718213 0 0)
(0.09059066687182864 0 0)
(0.08451090004001159 0 0)
(0.07678814104639214 0 0)
(0.06729316097658392 0 0)
(0.05594374735250897 0 0)
(0.04271164715163846 0 0)
(0.02762726295355172 0 0)
(0.01078413513872139 0 0)
(-0.007650491919319664 0 0)
(-0.02739765091850594 0 0)
(-0.04794217463759611 0 0)
(-0.06820312422666665 0 0)
(-0.08594418331039846 0 0)
(-0.09779198079085968 0 0)
(-0.1023174135462898 0 0)
(-0.1029297325140838 0 0)
(-0.1029239779909496 0 0)
(-0.1028102377541872 0 0)
(-0.1024434860148793 0 0)
(-0.1016343436131516 0 0)
(-0.1001798738832776 0 0)
(-0.09787149959493363 0 0)
(-0.09450487153785959 0 0)
(-0.08988874044273373 0 0)
(-0.08385399852028952 0 0)
(-0.07626233671850532 0 0)
(-0.06701418391497625 0 0)
(-0.05605535784248931 0 0)
(-0.04338140900050006 0 0)
(-0.02903868275205628 0 0)
(-0.01312306178877273 0 0)
(0.004218294740598347 0 0)
(0.02276797844231122 0 0)
(0.04216525644797245 0 0)
(0.06169258090631918 0 0)
(0.07980380143818555 0 0)
(0.09367468776108082 0 0)
(0.1006636850087525 0 0)
(0.1022411312537414 0 0)
(0.1023076444281202 0 0)
(0.1022571981823363 0 0)
(0.1020271706134861 0 0)
(0.1014521265932202 0 0)
(0.1003432620140965 0 0)
(0.09850372346580842 0 0)
(0.09573971059820521 0 0)
(0.09187211630172711 0 0)
(0.08674890735657641 0 0)
(0.08025940528421741 0 0)
(0.0723505111071744 0 0)
(0.06304566627144866 0 0)
(0.05247016704305223 0 0)
(0.04089541058163627 0 0)
(0.02883515402202524 0 0)
(0.01724443786208593 0 0)
(0.007738655624788542 0 0)
(0.002092996708312179 0 0)
(0.0002441247932713926 0 0)
(8.123469136189645e-06 0 0)
(5.048815769850629e-08 0 0)
(3.88205791850508e-11 0 0)
(-1.077625211315184e-12 0 0)
(-1.086315737212964e-12 0 0)
(-1.14714941849688e-12 0 0)
(-1.207983099780651e-12 0 0)
(-1.10369678900834e-12 0 0)
(-1.016791530031252e-12 0 0)
(-6.952420718162587e-13 0 0)
(-4.692883984759423e-13 0 0)
(-2.346441992379435e-13 0 0)
(-1.911915697494322e-13 0 0)
(-1.042863107724076e-13 0 0)
(-1.99882095647139e-13 0 0)
(-1.911915697494741e-13 0 0)
(-1.477389402609556e-13 0 0)
(-1.216673625678424e-13 0 0)
(-6.952420718163027e-14 0 0)
(-4.345262948849468e-14 0 0)
(3.13486877503841e-26 0 0)
(1.488751506534949e-27 0 0)
(-1.216673625678168e-13 0 0)
(-1.303578884655336e-13 0 0)
(-1.651199920563818e-13 0 0)
(-2.520252510334257e-13 0 0)
(-3.215494582150865e-13 0 0)
(-3.389305100104459e-13 0 0)
(-3.997641912944153e-13 0 0)
(-3.041684064196701e-13 0 0)
(-2.085726215449086e-13 0 0)
(-3.650020877035857e-13 0 0)
(-4.084547171921128e-13 0 0)
(-3.650020877035842e-13 0 0)
(-4.692883984760465e-13 0 0)
(-5.561936574529887e-13 0 0)
(-5.388126056576551e-13 0 0)
(-6.257178646346796e-13 0 0)
(-5.90955761043828e-13 0 0)
(-5.735747092485127e-13 0 0)
(-6.344083905324289e-13 0 0)
(-6.865515459186483e-13 0 0)
(-6.952420718164277e-13 0 0)
(-5.735747092484993e-13 0 0)
(-6.430989164302136e-13 0 0)
(-5.822652351462647e-13 0 0)
(-5.561936574530867e-13 0 0)
(-6.865515459187402e-13 0 0)
(-6.952420718163854e-13 0 0)
(-8.951241674636226e-13 0 0)
(-1.025482055929114e-12 0 0)
(-1.164530470292302e-12 0 0)
(-1.199292573883222e-12 0 0)
(-1.286197832860218e-12 0 0)
(-1.242745203371595e-12 0 0)
(-1.234054677474021e-12 0 0)
(-1.286197832860155e-12 0 0)
(-1.121077840803864e-12 0 0)
(-1.103696789008419e-12 0 0)
(-1.121077840803739e-12 0 0)
(-1.155839944394715e-12 0 0)
(-1.051553633622215e-12 0 0)
(-1.121077840803796e-12 0 0)
(-9.820294264406179e-13 0 0)
(-9.298862710543988e-13 0 0)
(-9.472673228498166e-13 0 0)
(-9.298862710543647e-13 0 0)
(-9.211957451565901e-13 0 0)
(-9.559578487474432e-13 0 0)
(-9.559578487475311e-13 0 0)
(-9.733389005428227e-13 0 0)
(-9.559578487474501e-13 0 0)
(-8.429810120773523e-13 0 0)
(-8.429810120773381e-13 0 0)
(-9.559578487475062e-13 0 0)
(-1.08631573721295e-12 0 0)
(-1.025482055929089e-12 0 0)
(-9.907199523382926e-13 0 0)
(-1.138458892599199e-12 0 0)
(-1.268816781064764e-12 0 0)
(-1.416555721325812e-12 0 0)
(-1.381793617734929e-12 0 0)
(-1.242745203371745e-12 0 0)
(-1.086315737212977e-12 0 0)
(-1.00810100413374e-12 0 0)
(-1.068934685417711e-12 0 0)
(-9.733389005428001e-13 0 0)
(-1.112387314906215e-12 0 0)
(-1.042863107724518e-12 0 0)
(-1.068934685417662e-12 0 0)
(-1.068934685417674e-12 0 0)
(-8.951241674634519e-13 0 0)
(-8.082189084865624e-13 0 0)
(-7.647662789980197e-13 0 0)
(-6.952420718163721e-13 0 0)
(-7.039325977141305e-13 0 0)
(-6.604799682255942e-13 0 0)
(-6.952420718164523e-13 0 0)
(-6.604799682255805e-13 0 0)
(-6.25717864634741e-13 0 0)
(-7.300041754072073e-13 0 0)
(-6.865515459186802e-13 0 0)
(-6.517894423277927e-13 0 0)
(-7.647662789980596e-13 0 0)
(-6.604799682255504e-13 0 0)
(-5.648841833508689e-13 0 0)
(-5.475031315554346e-13 0 0)
(-4.60597872578351e-13 0 0)
(-4.084547171921784e-13 0 0)
(-3.997641912944971e-13 0 0)
(-4.432168207829565e-13 0 0)
(-3.215494582151321e-13 0 0)
(-4.692883984761136e-13 0 0)
(-4.084547171921215e-13 0 0)
(-3.389305100105123e-13 0 0)
(-2.95477880521978e-13 0 0)
(-4.345262948852461e-13 0 0)
(-3.650020877036576e-13 0 0)
(-3.736926136013134e-13 0 0)
(-3.997641912944635e-13 0 0)
(-4.171452430898985e-13 0 0)
(-4.605978725784144e-13 0 0)
(-5.127410279646555e-13 0 0)
(-5.909557610438952e-13 0 0)
(-6.344083905324902e-13 0 0)
(-7.821473307934149e-13 0 0)
(-8.169094343842168e-13 0 0)
(-9.298862710544943e-13 0 0)
(-9.733389005428774e-13 0 0)
(-9.472673228497894e-13 0 0)
(-8.342904861796772e-13 0 0)
(-6.344083905324288e-13 0 0)
(-5.301220797600782e-13 0 0)
(-5.64884183350851e-13 0 0)
(-6.865515459186809e-13 0 0)
(-7.126231236117471e-13 0 0)
(-7.039325977140172e-13 0 0)
(-6.865515459186464e-13 0 0)
(-7.039325977139983e-13 0 0)
(-6.604799682254295e-13 0 0)
(-6.083368128392585e-13 0 0)
(-6.430989164300253e-13 0 0)
(-5.735747092484182e-13 0 0)
(-5.301220797599025e-13 0 0)
(-5.735747092483513e-13 0 0)
(-4.779789243737184e-13 0 0)
(-4.866694502713785e-13 0 0)
(-3.302399841127081e-13 0 0)
(-3.650020877035818e-13 0 0)
(-3.041684064196357e-13 0 0)
(-4.084547171920738e-13 0 0)
(-3.823831394989592e-13 0 0)
(-3.997641912943496e-13 0 0)
(-3.823831394989487e-13 0 0)
(-3.12858932317357e-13 0 0)
(-2.60715776931111e-13 0 0)
(-3.563115618058906e-13 0 0)
(-3.997641912944022e-13 0 0)
(-4.779789243737373e-13 0 0)
(-3.476210359082029e-13 0 0)
(-3.302399841127295e-13 0 0)
(-3.476210359081472e-13 0 0)
(-3.91073665396646e-13 0 0)
(-3.302399841127107e-13 0 0)
(-3.215494582150374e-13 0 0)
(-4.171452430897621e-13 0 0)
(-4.866694502714235e-13 0 0)
(-5.388126056576197e-13 0 0)
(-5.214315538622035e-13 0 0)
(-4.519073466805586e-13 0 0)
(-2.954778805219204e-13 0 0)
(-1.738105179540748e-13 0 0)
(-6.952420718165446e-14 0 0)
(-2.520252510334445e-13 0 0)
(-3.302399841127536e-13 0 0)
(-4.084547171920769e-13 0 0)
(-5.214315538621513e-13 0 0)
(-5.388126056576125e-13 0 0)
(-6.170273387369457e-13 0 0)
(-6.865515459185465e-13 0 0)
(-6.865515459186081e-13 0 0)
(-6.691704941231784e-13 0 0)
(-7.560757531002202e-13 0 0)
(-7.300041754071127e-13 0 0)
(-6.952420718162768e-13 0 0)
(-7.386947013048164e-13 0 0)
(-6.517894423278215e-13 0 0)
(-6.952420718162094e-13 0 0)
(-6.604799682254932e-13 0 0)
(-5.735747092484709e-13 0 0)
(-5.040505020668357e-13 0 0)
(-5.475031315553883e-13 0 0)
(-5.127410279644804e-13 0 0)
(-4.953599761691502e-13 0 0)
(-6.170273387370012e-13 0 0)
(-6.952420718163131e-13 0 0)
(-7.300041754071687e-13 0 0)
(-6.691704941232565e-13 0 0)
(-8.690525897703985e-13 0 0)
(-1.016791530031358e-12 0 0)
(-1.068934685417517e-12 0 0)
(-1.034172581826702e-12 0 0)
(-1.068934685417694e-12 0 0)
(-9.82029426440445e-13 0 0)
(-9.125052192589465e-13 0 0)
(-9.38576796952024e-13 0 0)
(-9.994104782359358e-13 0 0)
(-1.034172581826788e-12 0 0)
(-1.129768366701395e-12 0 0)
(-1.29488835875801e-12 0 0)
(-1.312269410553232e-12 0 0)
(-1.303578884655617e-12 0 0)
(-1.312269410553344e-12 0 0)
(-1.225364151576285e-12 0 0)
(-1.129768366701635e-12 0 0)
(-9.994104782360779e-13 0 0)
(-1.121077840803866e-12 0 0)
(-1.19929257388319e-12 0 0)
(-1.347031514144326e-12 0 0)
(-1.494770454404983e-12 0 0)
(-1.555604135689082e-12 0 0)
(-1.659890446461518e-12 0 0)
(-1.625128342870729e-12 0 0)
(-1.816319912620154e-12 0 0)
(-1.746795705438322e-12 0 0)
(-1.781557809029534e-12 0 0)
(-1.764176757233883e-12 0 0)
(-1.833700964415579e-12 0 0)
(-1.877153593904151e-12 0 0)
(-1.885844119801914e-12 0 0)
(-1.851082016210998e-12 0 0)
(-1.79024833492709e-12 0 0)
(-1.946677801085796e-12 0 0)
(-1.929296749290264e-12 0 0)
(-1.920606223392869e-12 0 0)
(-2.024892534164916e-12 0 0)
(-2.111797793142171e-12 0 0)
(-2.033583060062858e-12 0 0)
(-1.894534645699517e-12 0 0)
(-1.946677801085804e-12 0 0)
(-1.903225171597293e-12 0 0)
(-2.05096411185826e-12 0 0)
(-1.91191569749468e-12 0 0)
(-2.042273585960568e-12 0 0)
(-2.103107267244456e-12 0 0)
(-2.163940948528324e-12 0 0)
(-2.233465155710044e-12 0 0)
(-2.094416741346796e-12 0 0)
(-2.259536733403188e-12 0 0)
(-2.094416741346365e-12 0 0)
(-2.094416741346805e-12 0 0)
(-2.163940948528419e-12 0 0)
(-2.276917785198967e-12 0 0)
(-2.285608311096209e-12 0 0)
(-2.476799880845855e-12 0 0)
(-2.624538821106227e-12 0 0)
(-2.737515657776844e-12 0 0)
(-2.798349339060822e-12 0 0)
(-2.754896709572365e-12 0 0)
(-2.859183020344728e-12 0 0)
(-2.833111442651551e-12 0 0)
(-2.859183020344786e-12 0 0)
(-2.780968287264908e-12 0 0)
(-2.72882513187924e-12 0 0)
(-2.737515657776916e-12 0 0)
(-2.859183020344794e-12 0 0)
(-2.885254598037745e-12 0 0)
(-2.815730390856121e-12 0 0)
(-2.937397753424097e-12 0 0)
(-2.893945123935605e-12 0 0)
(-2.885254598037841e-12 0 0)
(-2.807039864958043e-12 0 0)
(-2.754896709572363e-12 0 0)
(-2.667991450595175e-12 0 0)
(-2.720134605981485e-12 0 0)
(-2.728825131879167e-12 0 0)
(-2.807039864958505e-12 0 0)
(-2.772277761367695e-12 0 0)
(-2.876564072139542e-12 0 0)
(-2.937397753424155e-12 0 0)
(-2.963469331117121e-12 0 0)
(-2.954778805219467e-12 0 0)
(-3.085136693684992e-12 0 0)
(-2.963469331117115e-12 0 0)
(-3.015612486503404e-12 0 0)
(-2.876564072140034e-12 0 0)
(-2.833111442651731e-12 0 0)
(-2.998231434707372e-12 0 0)
(-3.172041952662092e-12 0 0)
(-3.302399841127581e-12 0 0)
(-3.371924048309404e-12 0 0)
(-3.46751983318397e-12 0 0)
(-3.476210359081584e-12 0 0)
(-3.815140869092198e-12 0 0)
(-4.032404016534098e-12 0 0)
(-4.093237697818697e-12 0 0)
(-4.162761905000327e-12 0 0)
(-4.267048215772778e-12 0 0)
(-4.371334526545135e-12 0 0)
(-4.371334526545126e-12 0 0)
(-4.553835570396944e-12 0 0)
(-4.553835570397066e-12 0 0)
(-4.493001889113078e-12 0 0)
(-4.458239785521371e-12 0 0)
(-4.466930311420182e-12 0 0)
(-4.614669251680776e-12 0 0)
(-4.684193458862581e-12 0 0)
(-4.614669251680874e-12 0 0)
(-4.536454518601458e-12 0 0)
(-4.614669251681051e-12 0 0)
(-4.466930311419342e-12 0 0)
(-4.388715578340675e-12 0 0)
(-4.232286112182006e-12 0 0)
(-4.162761905000454e-12 0 0)
(-4.171452430898077e-12 0 0)
(-4.13669032730716e-12 0 0)
(-4.145380853205196e-12 0 0)
(-4.023713490637094e-12 0 0)
(-4.188833482693587e-12 0 0)
(-4.145380853204342e-12 0 0)
(-4.19752400859127e-12 0 0)
(-4.232286112181992e-12 0 0)
(-4.223595586284253e-12 0 0)
(-4.275738741670472e-12 0 0)
(-4.32788189705679e-12 0 0)
(-4.475620837317749e-12 0 0)
(-4.527763992703166e-12 0 0)
(-4.423477681931497e-12 0 0)
(-4.33657242295436e-12 0 0)
(-4.336572422954433e-12 0 0)
(-4.301810319363685e-12 0 0)
(-4.240976638079615e-12 0 0)
(-4.145380853204878e-12 0 0)
(-3.99764191294383e-12 0 0)
(-4.075856646023342e-12 0 0)
(-4.02371349063634e-12 0 0)
(-3.936808231660076e-12 0 0)
(-3.971570335250902e-12 0 0)
(-4.032404016534686e-12 0 0)
(-3.971570335250751e-12 0 0)
(-3.902046128069272e-12 0 0)
(-3.849902972683053e-12 0 0)
(-3.771688239603269e-12 0 0)
(-3.875974550376142e-12 0 0)
(-3.832521920887611e-12 0 0)
(-3.86728402447842e-12 0 0)
(-3.754307187807918e-12 0 0)
(-3.797759817296792e-12 0 0)
(-3.867284024478425e-12 0 0)
(-3.849902972683029e-12 0 0)
(-3.815140869091625e-12 0 0)
(-3.797759817296826e-12 0 0)
(-3.92811770576217e-12 0 0)
(-3.902046128069221e-12 0 0)
(-3.858593498580119e-12 0 0)
(-4.006332438841656e-12 0 0)
(-3.971570335250847e-12 0 0)
(-4.049785068329985e-12 0 0)
(-3.910736653966596e-12 0 0)
(-3.997641912943755e-12 0 0)
(-3.92811770576233e-12 0 0)
(-3.962879809353144e-12 0 0)
(-3.841212446784892e-12 0 0)
(-3.702164032422033e-12 0 0)
(-3.606568247547284e-12 0 0)
(-3.57180614395648e-12 0 0)
(-3.528353514467972e-12 0 0)
(-3.345852470615856e-12 0 0)
(-3.380614574207019e-12 0 0)
(-3.345852470616224e-12 0 0)
(-3.519662988570087e-12 0 0)
(-3.424067203695257e-12 0 0)
(-3.337161944718318e-12 0 0)
(-3.450138781388639e-12 0 0)
(-3.302399841127659e-12 0 0)
(-3.406686151899775e-12 0 0)
(-3.250256685741453e-12 0 0)
(-3.371924048309288e-12 0 0)
(-3.389305100104693e-12 0 0)
(-3.571806143956133e-12 0 0)
(-3.493591410877155e-12 0 0)
(-3.467519833184045e-12 0 0)
(-3.467519833184054e-12 0 0)
(-3.363233522411297e-12 0 0)
(-3.267637737536715e-12 0 0)
(-3.20680405625294e-12 0 0)
(-3.363233522411447e-12 0 0)
(-3.206804056252611e-12 0 0)
(-3.224185108048361e-12 0 0)
(-3.215494582150656e-12 0 0)
(-3.311090367025379e-12 0 0)
(-3.380614574207034e-12 0 0)
(-3.337161944718225e-12 0 0)
(-3.345852470616032e-12 0 0)
(-3.215494582150635e-12 0 0)
(-3.2850187893321e-12 0 0)
(-3.31109036702505e-12 0 0)
(-3.258947211639114e-12 0 0)
(-3.363233522411395e-12 0 0)
(-3.484900884979455e-12 0 0)
(-3.458829307285982e-12 0 0)
(-3.415376677797802e-12 0 0)
(-3.623949299342722e-12 0 0)
(-3.658711402933527e-12 0 0)
(-3.754307187807845e-12 0 0)
(-3.641330351138105e-12 0 0)
(-3.554425092161067e-12 0 0)
(-3.345852470616208e-12 0 0)
(-3.302399841127389e-12 0 0)
(-3.476210359081555e-12 0 0)
(-3.563115618058788e-12 0 0)
(-3.676092454728957e-12 0 0)
(-3.641330351137821e-12 0 0)
(-3.762997713705784e-12 0 0)
(-3.641330351138106e-12 0 0)
(-3.710854558319723e-12 0 0)
(-3.702164032422003e-12 0 0)
(-3.771688239603283e-12 0 0)
(-3.81514086909216e-12 0 0)
(-3.771688239603636e-12 0 0)
(-3.8846650762736e-12 0 0)
(-3.8325219208872e-12 0 0)
(-3.849902972682971e-12 0 0)
(-3.875974550376122e-12 0 0)
(-3.841212446785083e-12 0 0)
(-3.806450343193896e-12 0 0)
(-3.823831394989897e-12 0 0)
(-3.867284024478465e-12 0 0)
(-3.719545084217473e-12 0 0)
(-3.936808231659712e-12 0 0)
(-3.762997713705768e-12 0 0)
(-3.710854558319808e-12 0 0)
(-3.606568247547331e-12 0 0)
(-3.580496669853905e-12 0 0)
(-3.476210359081586e-12 0 0)
(-3.328471418820854e-12 0 0)
(-3.4153766777977e-12 0 0)
(-3.458829307286172e-12 0 0)
(-3.571806143956507e-12 0 0)
(-3.650020877035634e-12 0 0)
)
;

boundaryField
{
    inlet
    {
        type            zeroGradient;
    }
    outlet
    {
        type            pressureInletOutletVelocity;
        value           uniform (-3.650020877035634e-12 0 0);
    }
    frontAndBack
    {
        type            empty;
    }
}


// ************************************************************************* //
