/*--------------------------------*- C++ -*----------------------------------*\
| =========                 |                                                 |
| \\      /  F ield         | OpenFOAM: The Open Source CFD Toolbox           |
|  \\    /   O peration     | Version:  v2012                                 |
|   \\  /    A nd           | Website:  www.openfoam.com                      |
|    \\/     M anipulation  |                                                 |
\*---------------------------------------------------------------------------*/
FoamFile
{
    version     2.0;
    format      ascii;
    class       volVectorField;
    location    "0.004";
    object      UMean;
}
// * * * * * * * * * * * * * * * * * * * * * * * * * * * * * * * * * * * * * //

dimensions      [0 1 -1 0 0 0 0];


internalField   nonuniform List<vector> 
1000
(
(-6.077621732514367e-05 0 0)
(3.969854552550088e-05 0 0)
(8.269252532175374e-05 0 0)
(0.0001778443642020294 0 0)
(0.0002888892212632224 0 0)
(0.0004242423899488472 0 0)
(0.0005844034308012908 0 0)
(0.0007617085621931319 0 0)
(0.0009581633358892891 0 0)
(0.001166483407949722 0 0)
(0.001382396903918767 0 0)
(0.001598223802190326 0 0)
(0.001813963999729916 0 0)
(0.002026107822632169 0 0)
(0.002232851692384775 0 0)
(0.002428220026053357 0 0)
(0.002609520825839783 0 0)
(0.002771577082164089 0 0)
(0.002912845480734606 0 0)
(0.003029486116862826 0 0)
(0.003120862736256946 0 0)
(0.00318396655351167 0 0)
(0.003218939811487574 0 0)
(0.003223833617988348 0 0)
(0.003199710708983744 0 0)
(0.003145861740383641 0 0)
(0.003064482186215336 0 0)
(0.002955929788589715 0 0)
(0.002822909709639633 0 0)
(0.002665996608735855 0 0)
(0.002487888486100957 0 0)
(0.002290835750217826 0 0)
(0.002082595816596718 0 0)
(0.001870367421364392 0 0)
(0.001658515329860309 0 0)
(0.001447064470874641 0 0)
(0.001237840831690356 0 0)
(0.001033054470775653 0 0)
(0.0008364022585499801 0 0)
(0.0006519375432490107 0 0)
(0.0004841901673751787 0 0)
(0.0003370307477925523 0 0)
(0.000213828859924574 0 0)
(0.0001168459488702313 0 0)
(4.782101531498248e-05 0 0)
(7.700431069950711e-06 0 0)
(-2.863564487791564e-06 0 0)
(1.616329015903061e-05 0 0)
(6.449831161723122e-05 0 0)
(0.00014128140242319 0 0)
(0.0002454675917904317 0 0)
(0.0003758179440798839 0 0)
(0.0005311901321961333 0 0)
(0.000709662316104589 0 0)
(0.0009067358173056623 0 0)
(0.001113942874663763 0 0)
(0.001323551464208128 0 0)
(0.001533059628152206 0 0)
(0.001742079462265801 0 0)
(0.001949033001258558 0 0)
(0.002152313170223213 0 0)
(0.00234837981154613 0 0)
(0.002534025071821277 0 0)
(0.002704505187767169 0 0)
(0.002856169125992755 0 0)
(0.002984723697712919 0 0)
(0.00308770766153054 0 0)
(0.003162504180866459 0 0)
(0.003208401581471276 0 0)
(0.003224375907446419 0 0)
(0.003210962657691946 0 0)
(0.003168076559566724 0 0)
(0.003096902934187428 0 0)
(0.002997739891324738 0 0)
(0.002871815104188648 0 0)
(0.002719593384298266 0 0)
(0.002543563834741701 0 0)
(0.002348395238463676 0 0)
(0.002143463796982296 0 0)
(0.001936029366856933 0 0)
(0.001728832363359936 0 0)
(0.001522057343193 0 0)
(0.001316871493441248 0 0)
(0.001114997641526277 0 0)
(0.0009190681807157749 0 0)
(0.0007324071771983005 0 0)
(0.0005589581644172609 0 0)
(0.0004028347011695048 0 0)
(0.0002681007607254705 0 0)
(0.00015822428548998 0 0)
(7.596610676722144e-05 0 0)
(2.308188052284017e-05 0 0)
(5.003307711021899e-07 0 0)
(8.302038906124956e-06 0 0)
(4.616739355270398e-05 0 0)
(0.0001133940974604685 0 0)
(0.0002093375018740961 0 0)
(0.0003332866273018384 0 0)
(0.0004843454632292543 0 0)
(0.000660127411609505 0 0)
(0.000854696258198737 0 0)
(0.001058433614456501 0 0)
(0.001264031476534373 0 0)
(0.001469516490998646 0 0)
(0.001674615050184632 0 0)
(0.001878082149275605 0 0)
(0.002078662929761554 0 0)
(0.002273584835952953 0 0)
(0.002460174812913564 0 0)
(0.002634403180133324 0 0)
(0.002792713252780337 0 0)
(0.00293074450921257 0 0)
(0.003045259988447614 0 0)
(0.003132883498534051 0 0)
(0.003191876073695405 0 0)
(0.003220608231020696 0 0)
(0.003219071654162685 0 0)
(0.003187091515712257 0 0)
(0.003125615051367928 0 0)
(0.003034896076950058 0 0)
(0.002915920819908603 0 0)
(0.002769196308385602 0 0)
(0.002597387886366776 0 0)
(0.002405864972102268 0 0)
(0.002204497441774824 0 0)
(0.002000674529334152 0 0)
(0.001797030583895169 0 0)
(0.001593684440204556 0 0)
(0.001391598155077332 0 0)
(0.001192092119602045 0 0)
(0.0009973412003581434 0 0)
(0.0008100529769627516 0 0)
(0.0006336685005989178 0 0)
(0.0004719069335806189 0 0)
(0.0003287952992329459 0 0)
(0.0002080782767425904 0 0)
(0.0001132026818677792 0 0)
(4.674360742011697e-05 0 0)
(1.055489132399604e-05 0 0)
(5.452297176355154e-06 0 0)
(3.167487830615596e-05 0 0)
(8.882075284414552e-05 0 0)
(0.000176417582175493 0 0)
(0.0002937190025856614 0 0)
(0.000439706830437868 0 0)
(0.0006115305096517146 0 0)
(0.0008027148418474775 0 0)
(0.001003149666284352 0 0)
(0.001205500172437747 0 0)
(0.001407760752084197 0 0)
(0.001609723041476385 0 0)
(0.001810376773804845 0 0)
(0.002008688436471983 0 0)
(0.002202356224589484 0 0)
(0.002389115861705276 0 0)
(0.002565467544293183 0 0)
(0.002728179146798909 0 0)
(0.002873123155850605 0 0)
(0.002996920604984808 0 0)
(0.003095852665306714 0 0)
(0.003167479979073798 0 0)
(0.003209447685550791 0 0)
(0.003220908475413463 0 0)
(0.003201087942158494 0 0)
(0.003150427700984761 0 0)
(0.00306899633539004 0 0)
(0.002957702723781046 0 0)
(0.002817210878008135 0 0)
(0.00265038235209902 0 0)
(0.002462889919570885 0 0)
(0.002264873889285332 0 0)
(0.002064115659201684 0 0)
(0.001863465338665357 0 0)
(0.001663006272174437 0 0)
(0.001463547509549878 0 0)
(0.001266137931435644 0 0)
(0.001072617814064 0 0)
(0.0008852686704041243 0 0)
(0.0007071068258964883 0 0)
(0.0005414541617794278 0 0)
(0.0003921019969880918 0 0)
(0.0002627457066351993 0 0)
(0.0001570800759744919 0 0)
(7.817229090131607e-05 0 0)
(2.861054088049305e-05 0 0)
(1.001625537964749e-05 0 0)
(2.342531587603585e-05 0 0)
(6.906390950122765e-05 0 0)
(0.0001468764249797828 0 0)
(0.0002562790958908743 0 0)
(0.0003961769601571272 0 0)
(0.0005633971353615683 0 0)
(0.0007510032550985842 0 0)
(0.0009484177003125587 0 0)
(0.001147970218896341 0 0)
(0.001347472655883908 0 0)
(0.001546763173093297 0 0)
(0.001744973863181116 0 0)
(0.001941276705887526 0 0)
(0.002133688507233019 0 0)
(0.002320277369338326 0 0)
(0.002497957361905173 0 0)
(0.002663816400640439 0 0)
(0.002814023826469496 0 0)
(0.002945267825075718 0 0)
(0.003053748227748324 0 0)
(0.003136647576677131 0 0)
(0.003191092489013218 0 0)
(0.003215526842461291 0 0)
(0.003208483491624479 0 0)
(0.00316974962343925 0 0)
(0.003098938689328039 0 0)
(0.002996672101413342 0 0)
(0.002863568862582825 0 0)
(0.002702524322577076 0 0)
(0.002519381619914179 0 0)
(0.002324560703451069 0 0)
(0.00212649264935219 0 0)
(0.001928429590854205 0 0)
(0.001730485299322763 0 0)
(0.001533347438673173 0 0)
(0.001337852903985058 0 0)
(0.001145584977209554 0 0)
(0.0009584843729045936 0 0)
(0.0007792195637852672 0 0)
(0.0006107515576261736 0 0)
(0.0004565958618941458 0 0)
(0.0003202881759410275 0 0)
(0.0002055510383795581 0 0)
(0.0001156978045155395 0 0)
(5.37814052393213e-05 0 0)
(2.207049524537203e-05 0 0)
(2.234095344461355e-05 0 0)
(5.553783487703381e-05 0 0)
(0.0001222151375197462 0 0)
(0.0002222008284031688 0 0)
(0.0003545957853899485 0 0)
(0.0005162000981889808 0 0)
(0.0006998226721316873 0 0)
(0.0008943447179348986 0 0)
(0.001091405190707873 0 0)
(0.001288482050675641 0 0)
(0.001485401881941169 0 0)
(0.001681445400605032 0 0)
(0.001875915354508528 0 0)
(0.002067098268766963 0 0)
(0.002253311389243517 0 0)
(0.002431821602844533 0 0)
(0.002599999454562329 0 0)
(0.002754321436568696 0 0)
(0.002891612997296148 0 0)
(0.003008138009221069 0 0)
(0.003100890696578382 0 0)
(0.003166693386444661 0 0)
(0.003203446105962438 0 0)
(0.003209107961061466 0 0)
(0.00318279078454039 0 0)
(0.003123577934414621 0 0)
(0.003031611353217104 0 0)
(0.002907241314553102 0 0)
(0.002753121205818151 0 0)
(0.002574985998253533 0 0)
(0.002383458107317753 0 0)
(0.00218786487809776 0 0)
(0.001992127193542677 0 0)
(0.001796448836232278 0 0)
(0.001601413473653967 0 0)
(0.001407699695111008 0 0)
(0.001216677354071314 0 0)
(0.001030021168818474 0 0)
(0.0008500985164533959 0 0)
(0.0006795624788370066 0 0)
(0.0005216462543940607 0 0)
(0.0003796857570304237 0 0)
(0.0002573204206171973 0 0)
(0.0001579524072150125 0 0)
(8.49051279707258e-05 0 0)
(4.090525926612477e-05 0 0)
(2.832089504465834e-05 0 0)
(4.876149434863076e-05 0 0)
(0.0001034248924375921 0 0)
(0.000192696767518208 0 0)
(0.0003160985037600491 0 0)
(0.0004707340200714006 0 0)
(0.000649532339713489 0 0)
(0.0008409950172090641 0 0)
(0.001035744235353173 0 0)
(0.001230627044392385 0 0)
(0.001425390642755971 0 0)
(0.001619456343166576 0 0)
(0.001812216429662059 0 0)
(0.00200220321970277 0 0)
(0.002187913122370584 0 0)
(0.002366930856283839 0 0)
(0.002536850018529987 0 0)
(0.002694451732402093 0 0)
(0.002836711921027732 0 0)
(0.002960042496868114 0 0)
(0.003061358599933308 0 0)
(0.003137340059945159 0 0)
(0.003185497234939542 0 0)
(0.003203365080698893 0 0)
(0.003189460601371033 0 0)
(0.003142358295469445 0 0)
(0.003061646364531144 0 0)
(0.002947273242137245 0 0)
(0.002801385984664087 0 0)
(0.002629276707629764 0 0)
(0.002441452065981631 0 0)
(0.002248274323629984 0 0)
(0.002054678032134428 0 0)
(0.001861095146095267 0 0)
(0.001668014910028478 0 0)
(0.001475988137511256 0 0)
(0.001286202901806014 0 0)
(0.001100117511933106 0 0)
(0.0009198468036517935 0 0)
(0.0007477732836512785 0 0)
(0.0005868769445417181 0 0)
(0.000440271227623551 0 0)
(0.0003114700557916065 0 0)
(0.0002038526748113682 0 0)
(0.0001208875413451634 0 0)
(6.558814949504808e-05 0 0)
(4.077179316589098e-05 0 0)
(4.858173310509955e-05 0 0)
(9.081314606768175e-05 0 0)
(0.000168417525028354 0 0)
(0.0002814819383151039 0 0)
(0.0004276791804909381 0 0)
(0.0006005401494414307 0 0)
(0.0007885031642115591 0 0)
(0.0009809957636746462 0 0)
(0.001173818574679296 0 0)
(0.001366571473328998 0 0)
(0.001558767867864859 0 0)
(0.001749908113767785 0 0)
(0.001938702269336809 0 0)
(0.00212382452933558 0 0)
(0.002303102630090228 0 0)
(0.002474346321479355 0 0)
(0.002634593766118727 0 0)
(0.002780992968590211 0 0)
(0.002910119280938722 0 0)
(0.003018892500031367 0 0)
(0.003103945676665959 0 0)
(0.003162536864750526 0 0)
(0.003191903638562035 0 0)
(0.003190086076619571 0 0)
(0.00315522451732771 0 0)
(0.003086368280616237 0 0)
(0.00298301136103611 0 0)
(0.002846631377055443 0 0)
(0.002681769279270804 0 0)
(0.002498358189414352 0 0)
(0.002307709891562747 0 0)
(0.002116125268477586 0 0)
(0.001924531526493023 0 0)
(0.001733299877312529 0 0)
(0.001542918369259736 0 0)
(0.001354363343839632 0 0)
(0.001168967142604683 0 0)
(0.0009885668273371564 0 0)
(0.0008153743169596023 0 0)
(0.0006520743580574898 0 0)
(0.0005016320281678847 0 0)
(0.0003673449300319316 0 0)
(0.0002525787435031728 0 0)
(0.000160786837388976 0 0)
(9.521026794671145e-05 0 0)
(5.891565057908034e-05 0 0)
(5.450951011196351e-05 0 0)
(8.422563076134321e-05 0 0)
(0.000149594300072374 0 0)
(0.0002512472699618474 0 0)
(0.0003876548472646624 0 0)
(0.0005532724781074542 0 0)
(0.0007370320842342293 0 0)
(0.0009271537360101271 0 0)
(0.001118014489085385 0 0)
(0.001308826566584003 0 0)
(0.001499234176068521 0 0)
(0.001688782127322681 0 0)
(0.001876387103009987 0 0)
(0.002060827530925009 0 0)
(0.002240186159057844 0 0)
(0.002412418167705632 0 0)
(0.002574829233329329 0 0)
(0.002724699443682981 0 0)
(0.002858805311886837 0 0)
(0.002974092614546863 0 0)
(0.003067231541184584 0 0)
(0.003135314947413426 0 0)
(0.003175396770142348 0 0)
(0.003185154954610769 0 0)
(0.003162382247374879 0 0)
(0.003105661970164945 0 0)
(0.003014024225162511 0 0)
(0.002888242232450664 0 0)
(0.002731876258465382 0 0)
(0.002553866940735961 0 0)
(0.0023660581257614 0 0)
(0.002176453068626976 0 0)
(0.001986760765686569 0 0)
(0.001797342652037112 0 0)
(0.001608568327535405 0 0)
(0.001421288929527903 0 0)
(0.001236661358682752 0 0)
(0.001056344607095308 0 0)
(0.0008823374729006446 0 0)
(0.0007171238172890951 0 0)
(0.0005634650596221808 0 0)
(0.0004245017267324637 0 0)
(0.0003034898325320037 0 0)
(0.0002038655423793503 0 0)
(0.0001289492481119171 0 0)
(8.200061926812681e-05 0 0)
(6.592014373731852e-05 0 0)
(8.33195798403823e-05 0 0)
(0.0001361853561719588 0 0)
(0.0002257051084271253 0 0)
(0.0003511600815896242 0 0)
(0.0005081959980510235 0 0)
(0.0006867478689477998 0 0)
(0.0008742170938121114 0 0)
(0.001063155145231305 0 0)
(0.001252097841380203 0 0)
(0.001440741337194796 0 0)
(0.001628725182839468 0 0)
(0.001815096034483906 0 0)
(0.001998781662704367 0 0)
(0.002178039076409392 0 0)
(0.002350999758280168 0 0)
(0.002515166796597973 0 0)
(0.002667982503514847 0 0)
(0.002806387524960801 0 0)
(0.002927406598670699 0 0)
(0.003027765931139746 0 0)
(0.003104479983184207 0 0)
(0.003154492149628341 0 0)
(0.003175221722187243 0 0)
(0.003164205576186605 0 0)
(0.003119630605030088 0 0)
(0.003040126778816844 0 0)
(0.002925765310235774 0 0)
(0.002779082109018442 0 0)
(0.002607630979317994 0 0)
(0.002423235627139213 0 0)
(0.002235634572821465 0 0)
(0.002047807701399071 0 0)
(0.001860163049360749 0 0)
(0.001673000191620645 0 0)
(0.001487024788306728 0 0)
(0.001303267550843075 0 0)
(0.001123199251647673 0 0)
(0.0009486591412132639 0 0)
(0.0007819192514347171 0 0)
(0.0006255807008079267 0 0)
(0.0004825965235214304 0 0)
(0.0003561254355477229 0 0)
(0.0002495176491548467 0 0)
(0.0001661376882133509 0 0)
(0.000109325829266178 0 0)
(8.220687614236121e-05 0 0)
(8.764861874134061e-05 0 0)
(0.0001280318174681026 0 0)
(0.0002050082829395103 0 0)
(0.0003186519021710206 0 0)
(0.0004658493266121902 0 0)
(0.0006379916390921242 0 0)
(0.0008222687213960244 0 0)
(0.001009258502981478 0 0)
(0.00119636471806701 0 0)
(0.001383262861997325 0 0)
(0.001569666687571948 0 0)
(0.001754754943487512 0 0)
(0.00193758961314608 0 0)
(0.002116584289377299 0 0)
(0.002290038429641954 0 0)
(0.002455618956158059 0 0)
(0.002610939635728069 0 0)
(0.002753072015667547 0 0)
(0.002879164619122626 0 0)
(0.002985984665617239 0 0)
(0.003070564473384453 0 0)
(0.003129746322344659 0 0)
(0.003160827393091704 0 0)
(0.003161097751699232 0 0)
(0.003128498982412849 0 0)
(0.003061252312365505 0 0)
(0.00295888874585572 0 0)
(0.002822873961763071 0 0)
(0.002659280024336662 0 0)
(0.002479123231549417 0 0)
(0.002293712681683939 0 0)
(0.002107673262937305 0 0)
(0.001921783246145693 0 0)
(0.001736226954715034 0 0)
(0.001551607642398014 0 0)
(0.001368818093975692 0 0)
(0.001189171709903151 0 0)
(0.001014342731292073 0 0)
(0.0008464249146474097 0 0)
(0.0006878497087118299 0 0)
(0.0005414080212445391 0 0)
(0.0004101340025484415 0 0)
(0.0002972902561135342 0 0)
(0.0002062202109640129 0 0)
(0.0001403045210213723 0 0)
(0.0001027959487148828 0 0)
(9.6758164803477e-05 0 0)
(0.000124859048920429 0 0)
(0.00018915175429194 0 0)
(0.000290397142555918 0 0)
(0.0004266953475773355 0 0)
(0.0005911230518279185 0 0)
(0.0007714091013427759 0 0)
(0.0009563066083818491 0 0)
(0.00114159759164961 0 0)
(0.001326770514986158 0 0)
(0.001511554168579914 0 0)
(0.001695335942425343 0 0)
(0.001877201051187174 0 0)
(0.002055814201323234 0 0)
(0.002229515664955722 0 0)
(0.002396240188432996 0 0)
(0.002553639294179263 0 0)
(0.002699038675142275 0 0)
(0.002829584923359761 0 0)
(0.002942238618566596 0 0)
(0.003033937884458912 0 0)
(0.003101612338292166 0 0)
(0.003142346133579332 0 0)
(0.003153397613296378 0 0)
(0.003132367465622243 0 0)
(0.003077299123961499 0 0)
(0.00298712296710941 0 0)
(0.002862540552107293 0 0)
(0.002707978975120223 0 0)
(0.002533265313021719 0 0)
(0.002350477333316415 0 0)
(0.002166392263479041 0 0)
(0.001982341792200858 0 0)
(0.001798524331000661 0 0)
(0.001615380313256623 0 0)
(0.001433662887453808 0 0)
(0.001254472777541624 0 0)
(0.001079263136929257 0 0)
(0.0009098256777642636 0 0)
(0.0007482552964211829 0 0)
(0.0005968910730345946 0 0)
(0.0004582303350590312 0 0)
(0.0003348119492625993 0 0)
(0.0002290621112779994 0 0)
(0.0001430842968549016 0 0)
(7.833963026719339e-05 0 0)
(3.508733350992699e-05 0 0)
(1.141390833718314e-05 0 0)
(2.210571740473076e-06 0 0)
(1.890631208912679e-07 0 0)
(4.874857709518266e-09 0 0)
(2.493162452736575e-11 0 0)
(-1.120671449305025e-13 0 0)
(-1.85183227743933e-13 0 0)
(-1.393047536163637e-13 0 0)
(-1.247184248974062e-13 0 0)
(-1.184474914618511e-13 0 0)
(-8.937174276598085e-14 0 0)
(-8.100007789042232e-14 0 0)
(-9.574271103200079e-14 0 0)
(-1.089222999473618e-13 0 0)
(-9.10473261764733e-14 0 0)
(-1.592398196773769e-13 0 0)
(-1.39179710078261e-13 0 0)
(-1.476983011110707e-13 0 0)
(-1.527094209003112e-13 0 0)
(-1.639070697368468e-13 0 0)
(-1.841484924662167e-13 0 0)
(-1.419462983586535e-13 0 0)
(-1.912197045455348e-13 0 0)
(-1.786215680823435e-13 0 0)
(-1.735010351972974e-13 0 0)
(-1.755142361606203e-13 0 0)
(-1.864492935671703e-13 0 0)
(-1.951710803494061e-13 0 0)
(-2.10832783495988e-13 0 0)
(-2.260318255516281e-13 0 0)
(-1.71584742975953e-13 0 0)
(-1.797782208097424e-13 0 0)
(-1.155433552895854e-13 0 0)
(-1.190164395602032e-13 0 0)
(-1.065527249004475e-13 0 0)
(-9.786532509119687e-14 0 0)
(-1.057743288757942e-13 0 0)
(-8.152213466198719e-14 0 0)
(-7.080277735865538e-14 0 0)
(-4.346513384232577e-14 0 0)
(-9.734639440809565e-14 0 0)
(-6.694205811993507e-14 0 0)
(-6.700770597744511e-14 0 0)
(-2.071971426258069e-14 0 0)
(-4.748528359215079e-15 0 0)
(-5.28934166148958e-15 0 0)
(3.498092978246556e-14 0 0)
(-2.466796397799205e-14 0 0)
(-8.971873858517678e-16 0 0)
(-1.287948442394156e-14 0 0)
(-4.861067543516689e-15 0 0)
(-1.626503821790789e-14 0 0)
(-1.362974565270822e-15 0 0)
(1.879404377588792e-14 0 0)
(1.829386962350204e-14 0 0)
(5.766070150471382e-14 0 0)
(-1.156652727569225e-16 0 0)
(4.625985691876541e-14 0 0)
(4.339323380791321e-14 0 0)
(2.750957838121043e-14 0 0)
(2.000071391851907e-14 0 0)
(1.445190691548606e-14 0 0)
(-2.013200963365515e-15 0 0)
(-2.470860312787689e-14 0 0)
(4.689757896306448e-14 0 0)
(-6.172774258133044e-14 0 0)
(1.155402292009247e-14 0 0)
(-3.282392875045705e-15 0 0)
(2.850992668587991e-15 0 0)
(-4.795419686013001e-15 0 0)
(-5.683228806496223e-15 0 0)
(-7.058707725551498e-15 0 0)
(-9.146934811763501e-15 0 0)
(-8.774930285922759e-15 0 0)
(-2.119487970734534e-14 0 0)
(-1.466760701870676e-14 0 0)
(-7.205633882800517e-15 0 0)
(-3.641893047053099e-15 0 0)
(2.238279331931121e-15 0 0)
(-1.241057115603518e-15 0 0)
(2.740016528538309e-14 0 0)
(-4.306186843197862e-14 0 0)
(-2.146372331426835e-14 0 0)
(-3.36429639248671e-14 0 0)
(-2.727199565884426e-14 0 0)
(-3.121086710889151e-14 0 0)
(-2.524003816478693e-14 0 0)
(-1.192290135751592e-14 0 0)
(-1.751234751043759e-14 0 0)
(4.161448947847232e-14 0 0)
(-5.062387639837667e-14 0 0)
(2.029769232148785e-14 0 0)
(1.629629910240783e-14 0 0)
(2.666866058750719e-14 0 0)
(1.20448188071206e-14 0 0)
(9.472048010786114e-15 0 0)
(1.812818693551377e-14 0 0)
(-1.08412747529854e-14 0 0)
(-1.413617198182831e-14 0 0)
(1.631818172136084e-15 0 0)
(6.174024693483435e-15 0 0)
(-2.266414128024243e-15 0 0)
(-2.622475602729626e-14 0 0)
(-4.959851938597662e-14 0 0)
(-5.133975065396809e-14 0 0)
(-5.765444932783418e-14 0 0)
(-1.232679198555178e-13 0 0)
(-8.672081975836376e-14 0 0)
(-8.294763099631565e-14 0 0)
(-6.825188918152834e-14 0 0)
(-8.866837286422019e-14 0 0)
(-1.069559903108356e-13 0 0)
(-1.141459937513845e-13 0 0)
(-1.195947659239256e-13 0 0)
(-5.794517555393089e-14 0 0)
(-1.614499642132799e-13 0 0)
(-8.430747947310485e-14 0 0)
(-1.220331149168106e-13 0 0)
(-1.237337070349108e-13 0 0)
(-1.339153771244241e-13 0 0)
(-1.430966989091691e-13 0 0)
(-1.589709760704933e-13 0 0)
(-1.474763488309867e-13 0 0)
(-1.384700879995984e-13 0 0)
(-1.443721429977552e-13 0 0)
(-1.469667964132609e-13 0 0)
(-1.406239629432991e-13 0 0)
(-1.287698355317745e-13 0 0)
(-1.345374687264712e-13 0 0)
(-1.499428326199508e-13 0 0)
(-1.746014183325913e-13 0 0)
(-1.917417613171368e-13 0 0)
(-1.978157511801704e-13 0 0)
(-2.117987448278122e-13 0 0)
(-2.255597861953009e-13 0 0)
(-2.221460976052965e-13 0 0)
(-2.015420486154337e-13 0 0)
(-1.925482921378458e-13 0 0)
(-1.979189120990831e-13 0 0)
(-2.008511830674428e-13 0 0)
(-1.97553159750164e-13 0 0)
(-1.609216552647899e-13 0 0)
(-2.161908991034145e-13 0 0)
(-1.929202966636859e-13 0 0)
(-2.053464982620061e-13 0 0)
(-1.85201984274673e-13 0 0)
(-1.855239713852745e-13 0 0)
(-1.966966115141789e-13 0 0)
(-2.111016271029265e-13 0 0)
(-2.523659946747437e-13 0 0)
(-2.13486832592097e-13 0 0)
(-3.112083576145027e-13 0 0)
(-2.40067962702963e-13 0 0)
(-2.3186823269228e-13 0 0)
(-2.011512875588797e-13 0 0)
(-1.959213415779888e-13 0 0)
(-2.210894797083654e-13 0 0)
(-2.536539431171526e-13 0 0)
(-2.883816597349556e-13 0 0)
(-3.007047004143927e-13 0 0)
(-2.990822605075952e-13 0 0)
(-2.763462191932048e-13 0 0)
(-2.620256079927116e-13 0 0)
(-2.610127553340999e-13 0 0)
(-2.767244758959484e-13 0 0)
(-3.114772012213913e-13 0 0)
(-2.856119453661251e-13 0 0)
(-3.073788992602821e-13 0 0)
(-2.795035685301369e-13 0 0)
(-2.643014003860618e-13 0 0)
(-2.456417784136093e-13 0 0)
(-2.481145143794584e-13 0 0)
(-2.470297616864663e-13 0 0)
(-2.68459098027759e-13 0 0)
(-3.121180493541021e-13 0 0)
(-2.473767575046936e-13 0 0)
(-3.600910027448336e-13 0 0)
(-3.097297177764831e-13 0 0)
(-3.233625895174584e-13 0 0)
(-3.281892700879422e-13 0 0)
(-3.444699387481448e-13 0 0)
(-3.582466105579058e-13 0 0)
(-3.737301266626986e-13 0 0)
(-3.736269657437856e-13 0 0)
(-3.634796826272428e-13 0 0)
(-3.753119274196334e-13 0 0)
(-3.951532108270943e-13 0 0)
(-3.873067288115161e-13 0 0)
(-3.604192420323456e-13 0 0)
(-3.59522054646529e-13 0 0)
(-3.896794299468767e-13 0 0)
(-3.616759295902104e-13 0 0)
(-4.296621012532737e-13 0 0)
(-4.050847938404144e-13 0 0)
(-4.345669340351071e-13 0 0)
(-4.359767999270863e-13 0 0)
(-4.645054831438561e-13 0 0)
(-4.719674562797371e-13 0 0)
(-4.237600462550929e-13 0 0)
(-4.449205389895066e-13 0 0)
(-3.834710182804502e-13 0 0)
(-4.772255370567092e-13 0 0)
(-3.899045083155062e-13 0 0)
(-4.111994228533123e-13 0 0)
(-4.304655059855125e-13 0 0)
(-4.106148443127644e-13 0 0)
(-3.892292732097253e-13 0 0)
(-3.785192941718142e-13 0 0)
(-3.663869448879962e-13 0 0)
(-3.576245189558831e-13 0 0)
(-3.63357765177618e-13 0 0)
(-3.600784983909897e-13 0 0)
(-3.480618143799982e-13 0 0)
(-3.490434061540038e-13 0 0)
(-3.509722027291626e-13 0 0)
(-3.62516847383924e-13 0 0)
(-3.491028018346187e-13 0 0)
(-4.142129721214703e-13 0 0)
(-3.915300743107707e-13 0 0)
(-4.13025058509536e-13 0 0)
(-4.236537592477271e-13 0 0)
(-4.0218690984507e-13 0 0)
(-3.956346284487261e-13 0 0)
(-4.038624932555158e-13 0 0)
(-4.205808142990162e-13 0 0)
(-3.804824777199371e-13 0 0)
(-4.995864477568069e-13 0 0)
(-4.301341406095297e-13 0 0)
(-4.60729168293384e-13 0 0)
(-4.612387207110589e-13 0 0)
(-4.590285761752198e-13 0 0)
(-4.611636945882344e-13 0 0)
(-4.695134768446405e-13 0 0)
(-5.034096539341052e-13 0 0)
(-4.587128412415367e-13 0 0)
(-5.731339307767155e-13 0 0)
(-5.015715139240773e-13 0 0)
(-5.077705473252928e-13 0 0)
(-5.020560576341763e-13 0 0)
(-5.06829594701069e-13 0 0)
(-5.049508155411722e-13 0 0)
(-4.758656885799102e-13 0 0)
(-5.660127012821251e-13 0 0)
(-4.655777314830485e-13 0 0)
(-5.559341921115491e-13 0 0)
(-4.763033409631892e-13 0 0)
(-4.72789617542765e-13 0 0)
(-4.631518868439718e-13 0 0)
(-4.566965141897274e-13 0 0)
(-4.792074771355663e-13 0 0)
(-4.098301961111965e-13 0 0)
(-5.028125710397314e-13 0 0)
(-4.37752418168047e-13 0 0)
(-4.777632242705509e-13 0 0)
(-4.702137206579719e-13 0 0)
(-4.586784542686521e-13 0 0)
(-4.659559881857733e-13 0 0)
(-4.776569372631819e-13 0 0)
(-5.016371617815174e-13 0 0)
(-5.168143212180627e-13 0 0)
(-5.259956430028047e-13 0 0)
(-4.718517910070489e-13 0 0)
(-5.841815273675363e-13 0 0)
(-5.370119787090824e-13 0 0)
(-5.678164543191722e-13 0 0)
(-5.850818408417278e-13 0 0)
(-5.925688226853678e-13 0 0)
(-5.95301023992769e-13 0 0)
(-6.248206772488958e-13 0 0)
(-6.575570755225168e-13 0 0)
(-6.231638503690844e-13 0 0)
(-7.3193922415923e-13 0 0)
(-6.569850013357652e-13 0 0)
(-6.621993168743733e-13 0 0)
(-6.727561175780626e-13 0 0)
(-7.005064047702486e-13 0 0)
(-7.297728448616838e-13 0 0)
(-7.055612897977815e-13 0 0)
(-7.495109673502383e-13 0 0)
(-7.095189177785342e-13 0 0)
(-7.015005008981038e-13 0 0)
(-6.845414710436338e-13 0 0)
(-6.980805601311895e-13 0 0)
(-7.119603928598605e-13 0 0)
(-6.953796197082786e-13 0 0)
(-7.021788620922681e-13 0 0)
(-6.346928645816039e-13 0 0)
(-7.417676462536199e-13 0 0)
(-6.794334425125029e-13 0 0)
(-7.111288533315542e-13 0 0)
(-7.31948602424433e-13 0 0)
(-7.317329023213774e-13 0 0)
(-7.224234109100721e-13 0 0)
(-7.192004137156819e-13 0 0)
(-7.540938130214577e-13 0 0)
(-6.982368645537551e-13 0 0)
(-8.151056813472071e-13 0 0)
(-7.465568137625966e-13 0 0)
(-7.553098614294713e-13 0 0)
(-7.344463470980807e-13 0 0)
(-7.158523729831334e-13 0 0)
(-7.198944053520777e-13 0 0)
(-6.917439788381005e-13 0 0)
(-7.359093564937718e-13 0 0)
(-7.10312944245441e-13 0 0)
(-7.244616205810411e-13 0 0)
(-7.186189612633358e-13 0 0)
(-7.445279823570989e-13 0 0)
(-7.661605144477215e-13 0 0)
(-7.780365244784592e-13 0 0)
(-8.091598611106508e-13 0 0)
(-7.605585639410013e-13 0 0)
(-8.76630228179101e-13 0 0)
(-8.305110452405328e-13 0 0)
(-8.551102352726806e-13 0 0)
(-8.687431070136476e-13 0 0)
(-8.697528335837928e-13 0 0)
(-8.714127865519991e-13 0 0)
(-8.761300540266719e-13 0 0)
(-9.10166905096603e-13 0 0)
(-8.727163654366552e-13 0 0)
(-1.005021807008105e-12 0 0)
(-9.546386394204138e-13 0 0)
(-9.633885609988794e-13 0 0)
(-9.453260219208199e-13 0 0)
(-9.628758824926548e-13 0 0)
(-1.013415354502784e-12 0 0)
(-1.000936009400785e-12 0 0)
(-1.045470265493839e-12 0 0)
(-1.00382451513063e-12 0 0)
(-9.966876551939498e-13 0 0)
(-9.82232622189975e-13 0 0)
(-9.536507954695848e-13 0 0)
(-9.648390660407757e-13 0 0)
(-9.807008388482819e-13 0 0)
(-1.005593881194829e-12 0 0)
(-9.675712673481425e-13 0 0)
(-1.077847163595467e-12 0 0)
(-1.015738038222748e-12 0 0)
(-1.060331689996593e-12 0 0)
(-1.066064936218326e-12 0 0)
(-1.079135112037823e-12 0 0)
(-1.11494445526019e-12 0 0)
(-1.115513403358577e-12 0 0)
(-1.140040693356196e-12 0 0)
(-1.095915954850282e-12 0 0)
(-1.179973347247309e-12 0 0)
(-1.097819742717922e-12 0 0)
(-1.083230287910509e-12 0 0)
(-1.061610260173527e-12 0 0)
(-1.045542165528228e-12 0 0)
(-1.040812393699735e-12 0 0)
(-9.944399975966661e-13 0 0)
(-1.084105592677024e-12 0 0)
(-1.085102814893514e-12 0 0)
(-1.124516538101466e-12 0 0)
(-1.155233483234911e-12 0 0)
(-1.198636095308018e-12 0 0)
(-1.213644445968229e-12 0 0)
(-1.204872641770763e-12 0 0)
(-1.262799060793889e-12 0 0)
(-1.207854930154282e-12 0 0)
(-1.327593496147016e-12 0 0)
(-1.264312087604916e-12 0 0)
(-1.263705626445148e-12 0 0)
(-1.250338472222505e-12 0 0)
(-1.240325610909552e-12 0 0)
(-1.2263238607312e-12 0 0)
(-1.203931689146576e-12 0 0)
(-1.188588847022147e-12 0 0)
(-1.12124352349172e-12 0 0)
(-1.208708352301864e-12 0 0)
(-1.158994167643171e-12 0 0)
(-1.208105017230489e-12 0 0)
(-1.218902526745096e-12 0 0)
(-1.230034527724152e-12 0 0)
(-1.263383639334536e-12 0 0)
(-1.191120978668591e-12 0 0)
(-1.290599365401105e-12 0 0)
(-1.220259249133525e-12 0 0)
(-1.239231479951211e-12 0 0)
(-1.169304007359215e-12 0 0)
(-1.272830678637605e-12 0 0)
(-1.207445412567092e-12 0 0)
(-1.208752117540195e-12 0 0)
(-1.218361713442915e-12 0 0)
(-1.236358604663325e-12 0 0)
(-1.257212740729425e-12 0 0)
(-1.221872310774973e-12 0 0)
(-1.366897806259185e-12 0 0)
(-1.333733133867484e-12 0 0)
(-1.359679668022639e-12 0 0)
(-1.361183316568251e-12 0 0)
(-1.357669593147742e-12 0 0)
(-1.360833194661585e-12 0 0)
(-1.367638689222393e-12 0 0)
(-1.417571700072787e-12 0 0)
(-1.3688266028344e-12 0 0)
(-1.515774642716834e-12 0 0)
(-1.476673528354e-12 0 0)
(-1.501838540396047e-12 0 0)
(-1.53054228456602e-12 0 0)
(-1.542296377147184e-12 0 0)
(-1.538257470866509e-12 0 0)
(-1.529357497042651e-12 0 0)
(-1.528741657617534e-12 0 0)
(-1.459317485266372e-12 0 0)
(-1.557345366956929e-12 0 0)
(-1.485761067485316e-12 0 0)
(-1.484863880099469e-12 0 0)
(-1.452580764651422e-12 0 0)
(-1.431235832698249e-12 0 0)
(-1.47477599266346e-12 0 0)
(-1.423880146569827e-12 0 0)
(-1.506221316406362e-12 0 0)
(-1.437244174703795e-12 0 0)
(-1.472775296053931e-12 0 0)
(-1.484104240605538e-12 0 0)
(-1.481118826133484e-12 0 0)
(-1.484054223190298e-12 0 0)
(-1.474697840452083e-12 0 0)
(-1.501088279167492e-12 0 0)
(-1.449339010926271e-12 0 0)
(-1.596543390061799e-12 0 0)
(-1.536966396335668e-12 0 0)
(-1.565276253360866e-12 0 0)
(-1.589053282129915e-12 0 0)
(-1.598225225649196e-12 0 0)
(-1.636960587662871e-12 0 0)
(-1.679547290650328e-12 0 0)
(-1.71319963284055e-12 0 0)
(-1.612133193174078e-12 0 0)
(-1.721143023597996e-12 0 0)
(-1.680929021746206e-12 0 0)
(-1.695183985089301e-12 0 0)
(-1.698463251875878e-12 0 0)
(-1.716463269184695e-12 0 0)
(-1.748443154052937e-12 0 0)
(-1.698466377964333e-12 0 0)
(-1.808676626354013e-12 0 0)
(-1.769638033760296e-12 0 0)
(-1.774330292527459e-12 0 0)
(-1.815935403740515e-12 0 0)
)
;

boundaryField
{
    inlet
    {
        type            calculated;
        value           uniform (-6.077621732514367e-05 0 0);
    }
    outlet
    {
        type            calculated;
        value           uniform (-1.815935403740515e-12 0 0);
    }
    frontAndBack
    {
        type            empty;
    }
}


// ************************************************************************* //
