/*--------------------------------*- C++ -*----------------------------------*\
| =========                 |                                                 |
| \\      /  F ield         | OpenFOAM: The Open Source CFD Toolbox           |
|  \\    /   O peration     | Version:  v2012                                 |
|   \\  /    A nd           | Website:  www.openfoam.com                      |
|    \\/     M anipulation  |                                                 |
\*---------------------------------------------------------------------------*/
FoamFile
{
    version     2.0;
    format      ascii;
    class       volScalarField;
    location    "0.01";
    object      p;
}
// * * * * * * * * * * * * * * * * * * * * * * * * * * * * * * * * * * * * * //

dimensions      [1 -1 -2 0 0 0 0];


internalField   nonuniform List<scalar> 
1000
(
101311.5941096112
101314.2406070849
101307.4618647882
101302.1326704193
101296.2257783544
101290.9005840465
101286.3124216699
101282.3873805553
101278.9818900471
101276.6004758061
101275.8558716311
101275.8533851447
101276.1711479489
101277.0907206096
101278.9520851322
101281.8543224592
101285.6978805233
101290.3001586271
101295.50452726
101301.2048323516
101307.3189692132
101313.7602637169
101320.4250535045
101327.1918096949
101333.9252005012
101340.4851483248
101346.7464233618
101352.6343494043
101358.1586660372
101363.3726919658
101368.1343202764
101371.7042429311
101373.2179716629
101373.3935828938
101373.3425516549
101373.121176209
101372.4720366027
101371.1456053727
101368.9070525333
101365.6271500368
101361.3246946986
101356.1540066759
101350.3355355127
101344.077240107
101337.5349733891
101330.8204704858
101324.0301832324
101317.266914823
101310.6407091216
101304.242204653
101298.0979660875
101292.1637730006
101286.4615750132
101281.442525904
101278.1906604525
101277.1628353074
101277.0978948196
101277.1272377118
101277.3512223741
101277.9096606127
101279.0338683578
101280.9349511778
101283.7822234054
101287.6517537511
101292.5010686476
101298.1757280556
101304.4514064917
101311.0940172089
101317.9069404591
101324.7449041073
101331.5045170939
101338.1203635842
101344.5781060847
101350.9184399645
101357.1827113246
101363.2366129214
101368.4309957623
101371.5862640969
101372.4961596422
101372.554615818
101372.499135747
101372.3263012426
101371.8508106216
101370.9062752783
101369.2946213675
101366.8375119665
101363.40858388
101358.969996039
101353.5900146543
101347.4342527837
101340.7336515298
101333.7385969018
101326.6702500842
101319.6821549599
101312.8430676298
101306.1421128135
101299.5153465004
101292.9253243278
101286.5877214142
101281.3550867107
101278.4781724356
101277.7945095571
101277.774802353
101277.8049508081
101277.9886386509
101278.4289170959
101279.2972422151
101280.7664812315
101283.0052395764
101286.1469684875
101290.2616949093
101295.3312456751
101301.2398273231
101307.7894337276
101314.7378397693
101321.8464610196
101328.9266182727
101335.8770667253
101342.7000062612
101349.4715720985
101356.2330954784
101362.7494195365
101368.1498195254
101371.1681471962
101371.9298521958
101371.9705834239
101371.9267343234
101371.7888228104
101371.4162123835
101370.6771350339
101369.408910581
101367.4479052357
101364.647749237
101360.9070440049
101356.1941230637
101350.5634817989
101344.1591242989
101337.1978233304
101329.9269408109
101322.5651248065
101315.249770555
101308.0163517319
101300.8280344167
101293.6909029606
101286.9345148042
101281.5865265706
101278.8720054553
101278.2986887596
101278.2863513175
101278.3125666952
101278.4625722162
101278.8204246473
101279.5243138973
101280.7195147397
101282.557649845
101285.1773165002
101288.6838422346
101293.1257287892
101298.4751284198
101304.6218068174
101311.3854575724
101318.5456712598
101325.8874880863
101333.2547261073
101340.5872504225
101347.9042583149
101355.1900266697
101362.1272999234
101367.7356301425
101370.746530963
101371.4696254695
101371.5070698031
101371.4725990156
101371.3634384378
101371.0652335751
101370.469547354
101369.4387860721
101367.8274026213
101365.4925995005
101362.3139494458
101358.2137523906
101353.1757565168
101347.2592929544
101340.6011199021
101333.394681855
101325.8460128592
101318.1219128052
101310.3161402663
101302.4654201319
101294.6701481632
101287.4034697669
101281.8600371897
101279.2204255405
101278.7093299917
101278.699816988
101278.7218818616
101278.8462512332
101279.1427003747
101279.7266074488
101280.7223013826
101282.2647290823
101284.4863348832
101287.5027368725
101291.3938385141
101296.1849867884
101301.8351444198
101308.2365652512
101315.2280715399
101322.6253080094
101330.266433698
101338.0528520674
101345.9429650767
101353.8425039119
101361.3245976096
101367.2695362542
101370.3690018532
101371.0886618839
101371.1257751456
101371.0982521197
101371.0107670783
101370.7677750565
101370.2784384389
101369.424837558
101368.0782016782
101366.1051869429
101363.3818961412
101359.8094086335
101355.3299240519
101349.9422362483
101343.7106674767
101336.7577102
101329.2365955198
101321.2929532571
101313.0359207549
101304.5533888306
101296.0405387511
101288.1343803165
101282.2363949891
101279.5461718406
101279.0536103669
101279.0440417116
101279.0623226471
101279.1664689134
101279.4155906696
101279.9078831982
101280.7508337083
101282.0642164192
101283.970993593
101286.5871816321
101290.0072244977
101294.2880374635
101299.4367923418
101305.4056585863
101312.0956593545
101319.3744677058
101327.1098042554
101335.2026342111
101343.5803970463
101352.0878736497
101360.1963979473
101366.6351552028
101369.9800866512
101370.7595159263
101370.8020346669
101370.780314572
101370.7103698404
101370.5105634081
101370.1036545993
101369.3874959407
101368.2482262742
101366.5636581301
101364.2132346962
101361.089427743
101357.1105197568
101352.2344205194
101346.4691695601
101339.8721042344
101332.5340112153
101324.5544572441
101316.0240121895
101307.0464862477
101297.8768509818
101289.2768989652
101282.8411754986
101279.9022882204
101279.3570457863
101279.3424766706
101279.3565805519
101279.4429042838
101279.6525148483
101280.0707737484
101280.7916850373
101281.9218379182
101283.5739724394
101285.8599053604
101288.8794292016
101292.7075991455
101297.3840654463
101302.9064360359
101309.2293570184
101316.2741565715
101323.9516159325
101332.1852153168
101340.899675037
101349.913075187
101358.6435793134
101365.7148200343
101369.5145280229
101370.4565361991
101370.5163618921
101370.4998217166
101370.4454772645
101370.2818751647
101369.9424173669
101369.3373611772
101368.3655265012
101366.9157014886
101364.8736575683
101362.1301499875
101358.5905082116
101354.1859643427
101348.8833804484
101342.6871596441
101335.6308510557
101327.7632541369
101319.1408059779
101309.8556617054
101300.1753937358
101290.9063085365
101283.7651741893
101280.33673619
101279.6401322828
101279.6122169329
101279.6218602855
101279.6914844253
101279.8658378636
101280.2208330229
101280.8397714073
101281.8183033037
101283.25958788
101285.2694154036
101287.9478864079
101291.3797256795
101295.6257495928
101300.7163887793
101306.6485202114
101313.3901208138
101320.8951678312
101329.1182916198
101337.9996954637
101347.3642390352
101356.6401676873
101364.430655373
101368.9076821227
101370.1551320235
101370.2551168748
101370.2432553831
101370.2031737082
101370.0712371417
101369.7894655877
101369.2777162524
101368.4452916744
101367.1908377215
101365.4073114804
101362.987322465
101359.8300671104
101355.8502081621
101350.9859825754
101345.2019471689
101338.4852553774
101330.8393203928
101322.2830751906
101312.8804853662
101302.8715698832
101293.0238843447
101285.0705854843
101280.9054274259
101279.9219748189
101279.8640835159
101279.8694809185
101279.9236226671
101280.0656617472
101280.3646343635
101280.8952522616
101281.7443226762
101283.0066646236
101284.7817406301
101287.1674451304
101290.252985472
101294.1124022779
101298.7987856156
101304.3402380108
101310.7417068585
101317.9944844245
101326.084527744
101334.976295817
101344.524634256
101354.2203364661
101362.7404081633
101368.0871454419
101369.8251541184
101370.0089609447
101370.0019064007
101369.9746631147
101369.8706121719
101369.6393518815
101369.2081120823
101368.4947964928
101367.4065229099
101365.8432184388
101363.7009937448
101360.8770712751
101357.2765784141
101352.8188686628
101347.4402038738
101341.0928858064
101333.7437428986
101325.3770568739
101316.0218012449
101305.8663619466
101295.5791811969
101286.7974843871
101281.6800022647
101280.2272537604
101280.1048888141
101280.106228682
101280.146641676
101280.2592154978
101280.5078645977
101280.9602761515
101281.6961385598
101282.8032436514
101284.3751263354
101286.5064092965
101289.287730712
101292.80093778
101297.1140686725
101302.2772239284
101308.3230047963
101315.2724340719
101323.1389457255
101331.9132409086
101341.4911926632
101351.4563598121
101360.6364655512
101366.9757697192
101369.423124306
101369.7690776255
101369.7709813551
101369.754441465
101369.6745978491
101369.4878231437
101369.1270722032
101368.5173878917
101367.573058267
101366.2003548091
101364.2995175224
101361.7682780279
101358.5069723444
101354.4231936427
101349.4340728071
101343.467117191
101336.4614603372
101328.3721411095
101319.1931935731
101309.0529167976
101298.4905654283
101288.9564619049
101282.7423134618
101280.5944875931
101280.3399828362
101280.3361709598
101280.3648447629
101280.451118402
101280.6546377935
101281.0370971599
101281.6724437082
101282.6425638176
101284.0356852765
101285.9428508051
101288.4544007559
101291.6563853627
101295.6262245937
101300.4289349749
101306.1170270027
101312.734024697
101320.3156157982
101328.8767606048
101338.3559375966
101348.4381872957
101358.1467982393
101365.5058002192
101368.8853466556
101369.5245485674
101369.547725679
101369.539100594
101369.47991869
101369.3321053503
101369.033354167
101368.5148226877
101367.6968663783
101366.4914085518
101364.8029602276
101362.5312117077
101359.574804816
101355.8345493998
101351.2152699982
101345.6276354737
101338.9907200001
101331.2362570407
101322.3272584044
101312.334218729
101301.6625102587
101291.5225479367
101284.1688809573
101281.0824428934
101280.5769118788
101280.5618613895
101280.5805985235
101280.6439618917
101280.8074662696
101281.1272736728
101281.672654951
101282.5204691482
101283.7542452945
101285.4614937302
101287.7313097174
101290.6515899068
101294.3052725486
101298.7671636722
101304.1037141952
101310.3748394404
101317.6333038361
101325.9145967605
101335.1958101347
101345.2572805207
101355.3295161973
101363.6359197064
101368.1311848039
101369.2542871959
101369.3301456366
101369.3270029419
101369.2846833317
101369.1707194336
101368.9264042151
101368.4884508372
101367.7824323041
101366.7252949196
101365.2257605486
101363.1863021625
101360.5058272018
101357.0817394929
101352.8114637131
101347.5947925746
101341.3367842248
101333.9513449127
101325.375949552
101315.631097486
101304.9997215221
101294.4384098093
101286.0107532659
101281.7702676864
101280.8340700563
101280.7831356553
101280.7953679586
101280.8394801001
101280.9680170306
101281.2318450634
101281.6961355359
101282.433390568
101283.5231469572
101285.0498611576
101287.101182339
101289.7655056899
101293.1286288969
101297.2712130719
101302.268496528
101308.1909450807
101315.1031565435
101323.057201072
101332.063904886
101341.9852949144
101352.2488880919
101361.3511165296
101367.0696949191
101368.9213097347
101369.1281231839
101369.1434816341
101369.1167576956
101369.0272581228
101368.8208803062
101368.4397432217
101367.8165956306
101366.8758552507
101365.5331955944
101363.6964317179
101361.2669711441
101358.1417225393
101354.215160775
101349.3812347704
101343.5351999486
101336.576618491
101328.420437986
101319.0407951838
101308.6010736553
101297.7982317761
101288.4447812704
101282.8292596337
101281.1322667906
101280.8346673748
101280.6670886162
101280.6169171651
101280.699426424
101280.9472832491
101281.4405511907
101282.2439974398
101283.4048500591
101284.9617515582
101286.9563281266
101289.4393838053
101292.4729691517
101296.1305947682
101300.4999598014
101305.6862064024
101311.8078326682
101318.9806352894
101327.2797078413
101336.6739543912
101346.8033765559
101356.3858323342
101363.2915310633
101366.6288994313
101367.7805143791
101369.0784536673
101370.344304489
101371.7792990528
101373.3696365911
101375.0245306578
101376.5852593067
101377.8577940389
101378.5442166076
101378.4277940386
101377.4342819129
101375.3850035264
101372.0707701597
101367.3720824252
101361.2186478059
101353.567327508
101344.388801278
101333.7422216313
101321.9395996061
101309.7270270915
101298.7642665544
101291.2180679742
101287.312265202
101285.4170803941
101284.3702819191
101284.0153018167
101284.0515313652
101284.2668473165
101284.6610470595
101285.2931509985
101286.2455575304
101287.5770987641
101289.3372630344
101291.5815125849
101294.3790003247
101297.8127758573
101301.9752774011
101306.964669059
101312.8852517854
101319.8494429235
101327.9354020172
101337.0515810224
101346.7896975544
101356.3258140575
101364.1225795685
101369.1098902627
101370.9842853525
101372.0793060673
101373.096115865
101374.1919534166
101375.3895877418
101376.6658199713
101377.9377849304
101379.0601840084
101379.8731740181
101380.0946244877
101379.5204303646
101378.0414194589
101375.372817761
101371.3628898664
101365.9030578271
101358.9163920909
101350.3946760123
101340.4066035721
101329.1947529348
101317.3290312563
101305.9399366909
101296.9714241848
101291.7268051778
101289.160052759
101287.8327884279
101287.1868902266
101287.1479161415
101287.4458655056
101287.9264506777
101288.6207004175
101289.5609573762
101290.7805639111
101292.3208239181
101294.24930426
101296.669014673
101299.7078465117
101303.4972639746
101308.158673357
101313.8021001334
101320.5260903131
101328.3888686512
101337.3161788188
101347.0220088883
101356.8139659725
101365.6060760449
101372.0483221333
101375.1305582607
101376.2584158275
101377.2484235499
101378.0866829135
101378.9248315921
101379.7908016877
101380.6543937001
101381.4464112294
101382.0736555077
101382.336964003
101382.047758602
101381.0177085254
101378.9361589432
101375.6073112087
101370.8997512816
101364.7066180094
101356.9672685885
101347.697116726
101337.0620211659
101325.522596267
101313.9139448785
101303.7738176275
101296.9891212282
101293.5012220167
101291.7210393867
101290.6959896731
101290.3875488289
101290.5783036868
101291.0735396097
101291.8083378062
101292.7999958166
101294.0273872399
101295.4964199924
101297.2460420108
101299.3708431859
101302.012586026
101305.3372949176
101309.5119791076
101314.6901036258
101321.0034872172
101328.5403812419
101337.2747296992
101346.9966671017
101357.1386056033
101366.7990260312
101374.6658090932
101379.2465439293
101381.1640652165
101382.4610756166
101383.3302416724
101383.9554313914
101384.4546540082
101384.8713286524
101385.2262560441
101385.4690263099
101385.5181703616
101385.22014255
101384.3456424433
101382.6734565841
101379.9775771309
101376.0321868356
101370.6524434442
101363.7359460379
101355.2813116724
101345.3598992908
101334.2523411756
101322.6329458572
101311.6870006399
101303.3460167673
101298.6227525149
101296.1619923722
101294.5968936828
101293.8528466427
101293.747284882
101294.1043335014
101294.7749100306
101295.7563544846
101297.0141898237
101298.5213953806
101300.2743379608
101302.3158001647
101304.7429531846
101307.7017869595
101311.3767044035
101315.9705528983
101321.6701402563
101328.6200833562
101336.8854949416
101346.4061446474
101356.7604231398
101367.1388244105
101376.4291471124
101382.7735705214
101385.9794531895
101388.1264741456
101389.4397716475
101390.1932558852
101390.6412447636
101390.8049398122
101390.7247359915
101390.5198662695
101390.147073226
101389.5385800692
101388.5477716428
101386.9738888863
101384.5977626787
101381.2039737673
101376.5863501988
101370.5567752491
101362.9898769248
101353.8820334284
101343.3989147728
101332.0490831212
101320.7224610241
101310.9850780836
101304.6874534899
101301.3411811075
101299.0887071572
101297.8082747109
101297.2483962743
101297.2730516745
101297.7728794022
101298.5955450601
101299.7766538673
101301.2761535633
101303.0791993415
101305.1858690304
101307.6307608778
101310.4916094837
101313.8943026458
101318.0136189556
101323.0612269418
101329.2568481776
101336.7846564625
101345.6902472166
101355.7736091611
101366.3584216019
101376.7583249001
101385.0455859775
101389.8918582824
101393.4505978591
101395.7821321505
101397.2224005855
101398.0409095626
101398.400884019
101398.2759377402
101397.7449511891
101396.9574214974
101395.8712060912
101394.4909501087
101392.7002944597
101390.329698436
101387.1685006632
101383.0076670869
101377.6665713367
101370.9930476199
101362.8666312106
101353.240038014
101342.4123391586
101331.1835620962
101320.5155343966
101312.3815021445
101307.8167529296
101304.6335536161
101302.6228859202
101301.540905572
101301.0422203569
101301.1466102742
101301.7660622871
101302.7353625151
101304.10288592
101305.8436911621
101307.949575905
101310.4285345537
101313.3120523737
101316.6644321202
101320.5974570654
101325.2792335899
101330.9210343566
101337.7413205274
101345.873430941
101355.2743522539
101365.5875268345
101376.2990628373
101386.0841599285
101392.3740428928
101397.4189978388
101401.0972510164
101403.7360177345
101405.6402116013
101406.9068465322
101407.5880171917
101407.6884078305
101407.2140429867
101406.2405715347
101404.7815364422
101402.8016259277
101400.2727688585
101397.1108115118
101393.1813599024
101388.3101009139
101382.3172608197
101375.0462889746
101366.4133645619
101356.475006053
101345.7195584226
101334.7910220005
101325.0091276938
101318.8337279972
101314.1343705517
101310.7914946251
101308.5743874786
101307.199615244
101306.5562309212
101306.6422739556
101307.3408907139
101308.5196917449
101310.1159638719
101312.1167255845
101314.5002058104
101317.3274043416
101320.6618784757
101324.5619513726
101329.0929278108
101334.3779204069
101340.6175439584
101348.0410977612
101356.7724652035
101366.7507668966
101377.4786634557
101388.4520371615
101396.5670495699
101403.3750750285
101408.4731884642
101412.2625728475
101415.0974603855
101417.2552830151
101418.8279791152
101419.8644050786
101420.5325069597
101420.7592984039
101420.5333177937
101419.9464251214
101418.7916466152
101416.926108127
101414.1362090061
101410.1674497486
101404.7562064881
101397.7275569815
101389.0683849522
101378.8913253694
101367.6212256128
101356.0578965366
101345.3334458471
101337.5491311093
101331.8011136254
101326.8502025388
101322.7790248798
101319.4711211636
101316.9996984612
101315.4804602955
101314.8686019469
101315.2665274504
101316.4807218816
101318.2591160755
101320.4743007604
101323.1150442049
101326.2090767518
101329.927123392
101334.422882483
101339.8140569645
101346.2020830582
101353.6051490398
101361.939105416
101369.6339420949
101385.1370901236
)
;

boundaryField
{
    inlet
    {
        type            uniformFixedValue;
        uniformValue    sine;
        uniformValueCoeffs
        {
            frequency       constant 3000;
            scale           constant 50;
            level           constant 101325;
        }
        value           uniform 101325;
    }
    outlet
    {
        type            characteristicVelocityInletOutletPressure;
        UName           U;
        pName           p;
        TName           T;
        phiName         phi;
        rhoName         rho;
        U               (0 0 0);
        p               101325;
        T               300;
        value           uniform 101385.1370901236;
    }
    frontAndBack
    {
        type            empty;
    }
}


// ************************************************************************* //
