/*--------------------------------*- C++ -*----------------------------------*\
| =========                 |                                                 |
| \\      /  F ield         | OpenFOAM: The Open Source CFD Toolbox           |
|  \\    /   O peration     | Version:  v2012                                 |
|   \\  /    A nd           | Website:  www.openfoam.com                      |
|    \\/     M anipulation  |                                                 |
\*---------------------------------------------------------------------------*/
FoamFile
{
    version     2.0;
    format      ascii;
    class       volScalarField;
    location    "0.01";
    object      pMean;
}
// * * * * * * * * * * * * * * * * * * * * * * * * * * * * * * * * * * * * * //

dimensions      [1 -1 -2 0 0 0 0];


internalField   nonuniform List<scalar> 
1000
(
101325.0341630922
101325.0035545585
101325.0175676587
101325.030869658
101325.0494134825
101325.071837214
101325.0964588928
101325.1261626558
101325.1577982509
101325.1923155717
101325.2277718024
101325.263160445
101325.2984479754
101325.3332545583
101325.3670876767
101325.3992156014
101325.4289156409
101325.4556262012
101325.4787504622
101325.4980483623
101325.5130183651
101325.5235506539
101325.5292946795
101325.5302701044
101325.5263232658
101325.5176489041
101325.5042974917
101325.4866291598
101325.4648055036
101325.4391620263
101325.4098223476
101325.3774254432
101325.3431032982
101325.3083154916
101325.2734770149
101325.2387732185
101325.204362625
101325.1706734171
101325.1382458185
101325.107806949
101325.0800725857
101325.0557432227
101325.0353455005
101325.0192896504
101325.0078220638
101325.0011253868
101324.9992819961
101325.002325201
101325.0101871806
101325.0227362431
101325.0397926624
101325.0612074212
101325.0868397998
101325.1164076774
101325.1490523973
101325.1832349655
101325.2177269943
101325.2522122035
101325.2865728727
101325.32069933
101325.3541737934
101325.3866167934
101325.4173100204
101325.4456447462
101325.4708018822
101325.4922304654
101325.5093203202
101325.521817956
101325.5294295738
101325.5321810051
101325.5299938494
101325.5230441508
101325.5113393329
101325.4950775568
101325.4742275065
101325.448962609
101325.4195057541
101325.386985714
101325.3529902075
101325.3187918488
101325.2845635455
101325.2504420387
101325.2165436894
101325.1831579147
101325.150679549
101325.1196622628
101325.0907468164
101325.0646562354
101325.0420820889
101325.0236559235
101325.0098407528
101325.0009527756
101324.9971114715
101324.9983347699
101325.0045217138
101325.015585554
101325.0314342375
101325.0520665745
101325.0773966824
101325.1070026699
101325.1396017525
101325.1734332352
101325.2074358926
101325.2414381563
101325.275326601
101325.3090370778
101325.342232376
101325.3746402456
101325.4056735248
101325.4348279364
101325.4613314176
101325.4845871356
101325.5038535232
101325.5186909648
101325.5286280624
101325.5335593006
101325.5333431056
101325.5281326532
101325.5179209059
101325.5028640018
101325.4828801361
101325.4581201676
101325.4289165983
101325.3966357133
101325.3630076298
101325.3292258086
101325.295413602
101325.2616947762
101325.2281416799
101325.1950000589
101325.1625598578
101325.1312893461
101325.1017069611
101325.0744824363
101325.0502734145
101325.029791862
101325.0136169274
101325.0022586517
101324.9959988375
101324.9950163107
101324.9992930572
101325.0088140426
101325.0235075547
101325.0433935956
101325.0683282095
101325.0977507327
101325.1301283037
101325.1636290512
101325.1972581433
101325.2308941161
101325.2644295078
101325.2978270325
101325.3307995233
101325.363139427
101325.3943489159
101325.4240080712
101325.4514256185
101325.4760374843
101325.4970899633
101325.5140583783
101325.5263405032
101325.5336635843
101325.5357293713
101325.5325546044
101325.5240498968
101325.5103189943
101325.4912756875
101325.467107915
101325.4382652643
101325.4062776264
101325.3729724802
101325.3395211477
101325.3060373773
101325.2726356943
101325.2393583485
101325.2064190991
101325.1740412787
101325.1426264964
101325.1126041933
101325.0845744029
101325.0591338344
101325.0369906204
101325.0187596529
101325.0050637412
101324.9963292249
101324.9929171158
101324.9949750102
101325.0026329114
101325.0159039029
101325.0348504657
101325.0592711453
101325.0884453855
101325.1206044106
101325.1538264254
101325.1871541183
101325.2204942706
101325.2537446125
101325.2868863195
101325.3196703885
101325.3519338166
101325.383246338
101325.4132551844
101325.4413436238
101325.466998826
101325.4894957416
101325.5082869802
101325.5227049178
101325.5323533824
101325.5367885101
101325.5358634727
101325.5293488185
101325.517236929
101325.4993862737
101325.4759849879
101325.4475868669
101325.415893246
101325.3828627723
101325.349684558
101325.3164725002
101325.283332695
101325.2502880066
101325.217525781
101325.185221979
101325.1537247387
101325.1233937169
101325.0947643285
101325.068368844
101325.0448815439
101325.0249131838
101325.0091363346
101324.9980727609
101324.9922307141
101324.9919241712
101324.9974601172
101325.0089983962
101325.0267019352
101325.0503758857
101325.0791727621
101325.1110898651
101325.1440702473
101325.1771493256
101325.2102431921
101325.2432574773
101325.2761854409
101325.3088076249
101325.3409937953
101325.3723686414
101325.4026321174
101325.4312344246
101325.4577137649
101325.481390958
101325.5017242052
101325.518023725
101325.5298167265
101325.5365519508
101325.5379330904
101325.5335844432
101325.5233510056
101325.5069859308
101325.4846180767
101325.4568461925
101325.4255078767
101325.392733476
101325.3597887114
101325.3268089885
101325.2938925338
101325.2610495751
101325.2284443593
101325.1962186624
101325.1646769674
101325.1341233684
101325.1050345016
101325.0778847233
101325.0533018328
101325.031873325
101325.0142836365
101325.001110213
101324.9929624037
101324.9902955127
101324.9935813088
101325.0031458972
101325.019291178
101325.0418982704
101325.070081012
101325.1016691123
101325.1344191541
101325.1672835401
101325.2001644488
101325.232976501
101325.265718945
101325.2981998248
101325.3303117457
101325.3617246377
101325.3921794639
101325.4211865741
101325.4483300555
101325.4729811678
101325.4946178482
101325.5125557233
101325.5262774629
101325.5351619465
101325.5387952006
101325.536673399
101325.5284926399
101325.5138811912
101325.4928574716
101325.4659765639
101325.4351232954
101325.4026155243
101325.3698792644
101325.3371055232
101325.3043860735
101325.2717226871
101325.2392592855
101325.2071125379
101325.1755492555
101325.1448311037
101325.1153819224
101325.087625844
101325.0621411967
101325.0394842681
101325.0203284464
101325.0052783794
101324.9950060752
101324.9900723055
101324.9910816085
101324.998513289
101325.0128169493
101325.0340066205
101325.0612722637
101325.092391188
101325.1248990781
101325.1575689284
101325.1902568978
101325.2228871666
101325.2554627748
101325.2878155354
101325.319854578
101325.3512891241
101325.3818918884
101325.411225154
101325.4389127121
101325.4643763045
101325.4871194434
101325.5064780951
101325.5219135853
101325.5327656742
101325.5385348704
101325.5386195816
101325.5325875234
101325.5199448278
101325.5005679224
101325.4748824404
101325.4447000641
101325.4125000472
101325.379958953
101325.3473732449
101325.314834002
101325.2823357246
101325.2500040863
101325.2179367236
101325.1863679532
101325.1555261751
101325.1257893905
101325.0975383443
101325.0713036342
101325.0476079221
101325.027101248
101325.010395499
101324.9981945741
101324.9911304506
101324.989902918
101324.9951156304
101325.0073542092
101325.0267986498
101325.0528194245
101325.0832811343
101325.1155086194
101325.1479936224
101325.1805011747
101325.2129615091
101325.2453807234
101325.2776117728
101325.3095776948
101325.3410199998
101325.3717379206
101325.4013379229
101325.4294783292
101325.4556273961
101325.4793162859
101325.4999084807
101325.5168610102
101325.5294964933
101325.5372596091
101325.5394811193
101325.5356290984
101325.5251036965
101325.5076323586
101325.4834492309
101325.4541697331
101325.4223568199
101325.3900099725
101325.3576003938
101325.3252305192
101325.2928883338
101325.2606834004
101325.2286975477
101325.1971374709
101325.1662037629
101325.1362350271
101325.1075751261
101325.0807106683
101325.0561305399
101325.0344554669
101325.0162907122
101325.0023497335
101324.9933065902
101324.9899223634
101324.9928922664
101325.0029155939
101325.0203443028
101325.0447975923
101325.0743670666
101325.1062401383
101325.138540307
101325.1708752616
101325.2031724344
101325.235440806
101325.2675521833
101325.2994416374
101325.3308784852
101325.3616844882
101325.3915036503
101325.4200249632
101325.4467580676
101325.4712620901
101325.4929309107
101325.5112279919
101325.5254746855
101325.5350838443
101325.5393444244
101325.5376537825
101325.5293283854
101325.5139577303
101325.491557268
101325.4634477167
101325.4321496008
101325.4000118991
101325.3677706669
101325.3355633521
101325.3033721514
101325.2712925766
101325.2393924769
101325.2078544405
101325.1768555711
101325.1467004819
101325.1177008327
101325.0903035124
101325.0649649764
101325.0422739199
101325.0228200867
101325.0073114216
101324.996440883
101324.9910036871
101324.9917565253
101324.9994854266
101325.0146996101
101325.0372924791
101325.065695434
101325.0970925384
101325.1291952484
101325.1613628732
101325.1935007646
101325.2256205341
101325.2576110908
101325.28941856
101325.3208365839
101325.3517065917
101325.3817051552
101325.4105482719
101325.4377824518
101325.4629942997
101325.4856083672
101325.5051017737
101325.5208050459
101325.5321171107
101325.5383055918
101325.5387216546
101325.5326213388
101325.5194782259
101325.4990938629
101325.4724367756
101325.4418364106
101325.4099477623
101325.3778710783
101325.3458218535
101325.3137788738
101325.2818254501
101325.2500167028
101325.2185140487
101325.1874739766
101325.1571713585
101325.1278894017
101325.1000392127
101325.0740464507
101325.0504671494
101325.0298699389
101325.0129470226
101325.0003940034
101324.9930195887
101324.9916168619
101324.9970323905
101325.0099058478
101325.0303941524
101325.0573357089
101325.0880785728
101325.1199497329
101325.1519529547
101325.1839339687
101325.2159056208
101325.2477725111
101325.2794911738
101325.3108766591
101325.3417884391
101325.371931462
101325.4010461625
101325.4287120672
101325.4545419291
101325.4779907072
101325.4985532147
101325.5155761265
101325.5284570591
101325.5364574291
101325.5389016728
101325.5350064551
101325.5241557887
101325.5059629262
101325.4810317383
101325.4513645009
101325.4198024776
101325.3878926047
101325.3559981076
101325.324101955
101325.2922768213
101325.2605659057
101325.2291118201
101325.1980524858
101325.1676364894
101325.1381213294
101325.1098857774
101325.083326345
101325.0589668109
101325.0373515248
101325.0191504437
101325.0050506571
101324.9958591351
101324.9923861288
101324.9955153776
101325.0059866217
101325.0241861792
101325.0493761224
101325.0792292288
101325.1108005895
101325.1426383115
101325.1744642771
101325.2062878037
101325.2380277633
101325.2696503708
101325.3009898237
101325.3319221185
101325.3621774418
101325.3915186596
101325.4195555655
101325.4459262435
101325.470115345
101325.4916386009
101325.5098630715
101325.5241922257
101325.5338920282
101325.5382739054
101325.5365255931
101325.527975449
101325.5120868785
101325.4891066568
101325.4606457574
101325.4295341855
101325.3978154787
101325.3660858151
101325.3343541358
101325.3026778386
101325.2710851629
101325.2396982952
101325.2086327236
101325.1781127909
101325.148385768
101325.1197886677
101325.0926895163
101325.067616647
101325.0450595882
101325.0256884926
101325.0101817851
101324.9993462619
101324.9939475652
101324.9949571064
101325.0031336503
101325.0190616871
101325.0423524657
101325.071064261
101325.1022525364
101325.1338086867
101325.1653260267
101325.1967711708
101325.2280868786
101325.2592880075
101325.2903190728
101325.3210904703
101325.3514033331
101325.3810143724
101325.4096066929
101325.4367870121
101325.4619537822
101325.4845435385
101325.5039837593
101325.5193559678
101325.5300756602
101325.5353413327
101325.5347037724
101325.5270716749
101325.5119537612
101325.4895949133
101325.4612005843
101325.4296379512
101325.3969319514
101325.3650896111
101325.3336927871
101325.3035084033
101325.2747569012
101325.247400196
101325.2221205605
101325.1987904389
101325.1774562134
101325.158529673
101325.1416045019
101325.1273937217
101325.1159639709
101325.1073210136
101325.1020118892
101325.1002379423
101325.1026213957
101325.1104314902
101325.1236446647
101325.1442746885
101325.1715402674
101325.20309835
101325.2373324401
101325.2716455072
101325.3064268696
101325.3406322323
101325.3746010641
101325.408325272
101325.441473254
101325.4744937626
101325.5073004366
101325.5393714107
101325.5703279625
101325.5996035958
101325.6274477506
101325.6531440427
101325.6756610915
101325.6946818386
101325.7086280369
101325.7179279783
101325.7217336673
101325.7182744227
101325.7089666404
101325.6921838861
101325.6690765029
101325.6414775278
101325.6108573068
101325.5808524924
101325.5510353147
101325.5218657255
101325.4942453285
101325.4681453311
101325.4433952421
101325.4215656164
101325.4014000086
101325.3833608791
101325.3672551252
101325.3537420522
101325.3431152359
101325.335308383
101325.3306508472
101325.3291375835
101325.3320149439
101325.3401190735
101325.3530860535
101325.3740456528
101325.4010870546
101325.4346422681
101325.4703816461
101325.5068395405
101325.5439313287
101325.5806673292
101325.616821935
101325.6529907023
101325.6890402059
101325.7236478199
101325.7598767907
101325.7944813705
101325.8279359318
101325.8600610146
101325.8903209146
101325.9189456995
101325.9447348098
101325.9670034912
101325.9841902884
101325.9972990076
101326.0049665645
101326.006433885
101326.0016545662
101325.9905507266
101325.9740373757
101325.9506623635
101325.9238774015
101325.8967561047
101325.8697029164
101325.8428054357
101325.8172296556
101325.793236906
101325.7699830568
101325.7500128397
101325.7315199713
101325.7149613913
101325.7004149822
101325.687874049
101325.6786349999
101325.6721867182
101325.6687949181
101325.6681329718
101325.6720080304
101325.6806561055
101325.6952527136
101325.714778368
101325.7436175534
101325.7785248961
101325.8161591151
101325.8552436176
101325.8947537451
101325.9342476387
101325.9728727642
101326.0112834086
101326.0498192445
101326.0873647996
101326.1249255176
101326.1627963762
101326.199425259
101326.2341770181
101326.2669311264
101326.2985796734
101326.3275583721
101326.3531801623
101326.3738285642
101326.3899751041
101326.4015969742
101326.407819401
101326.4061368479
101326.4015979362
101326.389967944
101326.3722357871
101326.3500293069
101326.3264274886
101326.303209896
101326.2796582803
101326.2567751431
101326.2358034623
101326.2156869596
101326.1969299985
101326.1818775689
101326.1676979833
101326.1548373233
101326.1439644299
101326.1363365663
101326.1316714676
101326.1299007154
101326.1311685965
101326.135641829
101326.1459494873
101326.161583334
101326.1820313976
101326.2111287358
101326.2475397608
101326.2881078254
101326.3298117794
101326.3718311259
101326.4144639146
101326.4560029139
101326.4967424362
101326.5378282102
101326.5779247813
101326.617056959
101326.6580122964
101326.6975337309
101326.7347288759
101326.7702864941
101326.8047058457
101326.837097046
101326.865967938
101326.8912785982
101326.9092840011
101326.9251665969
101326.9349143971
101326.9386242102
101326.9360706536
101326.9309359477
101326.9185915146
101326.9008297301
101326.8810971953
101326.8619664963
101326.84277569
101326.8237236625
101326.8064650229
101326.7900947631
101326.7748871267
101326.7628093582
101326.7526391947
101326.7424685699
101326.7342405591
101326.7286165397
101326.726103217
101326.7262354461
101326.7302067618
101326.735044243
101326.7475873862
101326.7644548751
101326.7876884978
101326.8152731662
101326.8547495007
101326.8978226223
101326.942522442
101326.9875565877
101327.0332234184
101327.0784020421
101327.1221338548
101327.1655459835
101327.2085556323
101327.2501755845
101327.291826404
101327.3349930437
101327.3750166726
101327.4131848847
101327.4503029103
101327.4857563746
101327.5183345209
101327.5475315076
101327.5700210192
101327.5887195537
101327.6025062831
101327.611070413
101327.6113007503
101327.6103533493
101327.6040623975
101327.5894690207
101327.5740645188
101327.5583127801
101327.5437996083
101327.5294019351
101327.5161156105
101327.5055195382
101327.4945915562
101327.4858608469
101327.4813176578
101327.4763530669
101327.4715181965
101327.4693295504
101327.4698223541
101327.4730432796
101327.4793363012
101327.4880877288
101327.5003480623
101327.5204215981
101327.545987984
101327.5763483221
101327.6149345595
101327.6630907152
101327.7107239864
101327.7603911313
101327.8091129209
101327.8584423326
101327.9058938778
101327.9522614694
101327.9987114594
101328.0433185381
101328.086322927
101328.1319077743
101328.176232907
101328.2163862452
101328.2556170701
101328.294107851
101328.3302536059
101328.3629882062
101328.3915944269
101328.4124495705
101328.4311512274
101328.4440764387
101328.4504445959
101328.4503335332
101328.4497921243
101328.4412418737
101328.4278106664
101328.4151655427
101328.4041218945
101328.3940928012
101328.3858006682
101328.3798750941
101328.3760504491
101328.3722643849
101328.3733289392
101328.3774001596
101328.3788813704
101328.3827701624
101328.390134038
101328.3992723019
101328.411010509
101328.4267530575
101328.4422578994
101328.4668057455
101328.4963766988
101328.5345415885
101328.5752357859
101328.6280506573
101328.6857508486
101328.7395144988
101328.7957129284
101328.8506425824
101328.9042316787
101328.9557205919
101329.0066582211
101329.0558976834
101329.1034648297
101329.1500697066
101329.1992285383
101329.2442571494
101329.2867742113
101329.328730399
101329.3687860855
101329.4060017715
101329.440086876
101329.4668840508
101329.4902625762
101329.5081238768
101329.5218517574
101329.5256612604
101329.5304436706
101329.5300718745
101329.5196976504
101329.5130576076
101329.5064690719
101329.502616159
101329.4999469581
101329.5008472334
101329.5046084333
101329.5097665462
101329.5163797416
101329.5300867189
101329.5450834947
101329.5585426214
101329.5768791363
101329.5995331269
101329.6247260775
101329.6534275124
101329.685168303
101329.7201685138
101329.7619390789
101329.8101969251
101329.863617783
101329.9248373022
101329.9942357668
101330.0621797179
101330.1268668007
101330.1943301603
101330.2595112865
101330.3206620722
101330.3801780267
101330.4378945522
101330.4924617563
101330.5435220093
101330.5964085519
101330.6488334341
101330.6958558539
101330.7422102356
101330.7879466208
101330.8304175918
101330.8695604445
101330.9046562293
101330.9345780969
101330.9601645812
101330.9778493778
101330.9940756148
101331.004165887
)
;

boundaryField
{
    inlet
    {
        type            calculated;
        value           uniform 101325.0000000572;
    }
    outlet
    {
        type            calculated;
        value           uniform 101331.004165887;
    }
    frontAndBack
    {
        type            empty;
    }
}


// ************************************************************************* //
