/*--------------------------------*- C++ -*----------------------------------*\
| =========                 |                                                 |
| \\      /  F ield         | OpenFOAM: The Open Source CFD Toolbox           |
|  \\    /   O peration     | Version:  v2012                                 |
|   \\  /    A nd           | Website:  www.openfoam.com                      |
|    \\/     M anipulation  |                                                 |
\*---------------------------------------------------------------------------*/
FoamFile
{
    version     2.0;
    format      ascii;
    class       volScalarField;
    location    "0.01";
    object      rho;
}
// * * * * * * * * * * * * * * * * * * * * * * * * * * * * * * * * * * * * * //

dimensions      [1 -3 0 0 0 0 0];


internalField   nonuniform List<scalar> 
1000
(
1.176304873341861
1.176328610262388
1.176274763025589
1.176231165470092
1.176180046441462
1.176133297590267
1.176093694304086
1.176060385964744
1.176031594152883
1.176011212728557
1.176004485530083
1.176003845428454
1.176005843924039
1.176013222661803
1.176028654159138
1.176052798838406
1.176084806080903
1.176123158413619
1.176166542860129
1.176214056307197
1.176264991402249
1.176318605853151
1.176374024143478
1.176430231328263
1.176486105481678
1.176540490823375
1.176592358555984
1.176641102105386
1.176686816124901
1.176729955042781
1.176769352382588
1.176798889414028
1.176811400479512
1.176812837136253
1.176812412829634
1.176810598616847
1.176805253495629
1.176794291437119
1.176775762504339
1.176748594460587
1.176712940472252
1.176670078555176
1.176621836862858
1.176569941146539
1.176515685764821
1.17645999948862
1.176403684191163
1.176347593950126
1.176292642256024
1.176239581035756
1.176188630403161
1.176139423096685
1.176092140150373
1.176050522167051
1.176023558728519
1.176015037714769
1.176014500629482
1.17601474496847
1.176016602053807
1.176021231566601
1.176030553011764
1.176046317224496
1.176069928220397
1.176102016743861
1.176142230342681
1.176189287931588
1.176241328885335
1.176296411719654
1.176352905768288
1.176409606281467
1.176465655905125
1.17652051226197
1.17657405655601
1.176626626312924
1.176678564441839
1.176728757486578
1.176771823582163
1.176797983298701
1.176805527005667
1.176806011634377
1.176805551676537
1.176804118791296
1.176800176648327
1.176792345719635
1.176778983779231
1.176758612182296
1.176730183110154
1.176693382589262
1.176648776319737
1.176597737107581
1.176542179472329
1.17648417927968
1.176425570219128
1.176367625440033
1.176310915116876
1.17625534913805
1.176200397313519
1.176145749168488
1.176093193278407
1.176049799883209
1.176025941838816
1.176020272235423
1.176020108791697
1.176020358793417
1.176021882097059
1.176025533304001
1.176032734278167
1.176044918566808
1.17606348433024
1.176089538129984
1.176123660477822
1.176165700389422
1.176214697314704
1.176269008983331
1.176326626541965
1.1763855714663
1.17644427918915
1.176501910240814
1.176558482925002
1.176614628564824
1.176670689872733
1.176724717179943
1.176769491556913
1.1767945160472
1.17680083118631
1.176801168870083
1.176800805314964
1.17679966190706
1.176796572661397
1.176790445105633
1.176779930465003
1.176763672023652
1.176740456141219
1.176709441952379
1.176670366657851
1.176623681772096
1.176570580932661
1.17651286118458
1.176452573323755
1.176391530208936
1.176330871089384
1.176270890146624
1.17621128198048
1.176152097074751
1.176096068415748
1.176051718460391
1.17602920715842
1.17602445266093
1.176024350336802
1.176024567723806
1.176025811699779
1.176028779344957
1.176034616652023
1.176044528355765
1.176059771803195
1.176081496272388
1.176110575071718
1.176147410188827
1.176191770403861
1.176242741273529
1.176298827317698
1.176358200602545
1.176419078513172
1.17648016594445
1.176540964273997
1.176601632692858
1.17666204085175
1.176719558411153
1.176766056792053
1.17679101973437
1.176797014762474
1.176797325189909
1.176797039381518
1.176796134332529
1.176793661958482
1.176788723219598
1.176780177335437
1.176766817562031
1.176747459909163
1.176721105794446
1.176687110809644
1.176645339941412
1.176596284793452
1.176541078933792
1.176481325997023
1.176418734111979
1.176354686209136
1.17628995966081
1.176224858961875
1.176160216636069
1.176099956416692
1.176053985722786
1.176032095651621
1.1760278571481
1.176027778240098
1.176027961196095
1.176028992560995
1.176031450980125
1.176036293268271
1.176044550463429
1.176057341636354
1.176075765065923
1.176100779438506
1.176133047197894
1.176172778295572
1.176219632129786
1.176272714899212
1.176330689763273
1.176392027770824
1.176455386765534
1.176519949096296
1.176585369780454
1.176650867165749
1.176712902064132
1.176762191334299
1.176787888581101
1.17679385513281
1.176794162808259
1.176793934593732
1.176793209241568
1.176791194616429
1.176787137591321
1.176780060503483
1.176768895710668
1.176752537623346
1.176729958924785
1.176700339313461
1.176663199343021
1.17661852872713
1.176566860446275
1.176509209790488
1.176446846966556
1.176380979232234
1.176312511336755
1.176242171923207
1.176171579419276
1.176106016393559
1.17605710553762
1.17603479576981
1.17603071096733
1.176030631593025
1.176030783161252
1.176031646809193
1.176033712737413
1.176037795262888
1.176044785759985
1.176055677483058
1.176071490095181
1.176093185614971
1.176121547106984
1.17615704635306
1.176199742565884
1.176249238804124
1.176304713989941
1.176365070528157
1.176429211279697
1.176496314836085
1.176565779365341
1.176636317748392
1.176703546728411
1.176756930366787
1.176784662780347
1.176791124871954
1.176791477360934
1.176791297254695
1.17679071732126
1.176789060735138
1.176785687099115
1.17677974951703
1.17677030396692
1.176756337370126
1.176736850129815
1.176710950615323
1.176677961126057
1.176637532442269
1.176589730915008
1.17653503159852
1.176474186883482
1.17640802198448
1.176337287556151
1.176262844096797
1.176186805691991
1.176115489581733
1.176062119506956
1.176037747631525
1.176033225952772
1.176033105109898
1.176033222038576
1.176033937883125
1.176035676145381
1.176039144712265
1.176045123145365
1.176054495363078
1.176068196269297
1.17608715307678
1.176112193235416
1.176143938994424
1.176182718936528
1.176228512946541
1.176280944610177
1.176339361218372
1.176403022620394
1.176471293995426
1.176543550842437
1.176618284524015
1.176690670815046
1.17674929857478
1.176780801554736
1.176788611572482
1.176789107552846
1.176788970395083
1.176788519802063
1.176787163379997
1.176784348968969
1.176779332519869
1.176771275152222
1.176759254795049
1.176742324336371
1.176719577941467
1.176690230552466
1.176653711802755
1.176609746667001
1.176558371318483
1.176499863544719
1.176434627555137
1.176363130879188
1.176286137234642
1.176205865035543
1.176129000490145
1.176069780814658
1.176041349216119
1.176035572317461
1.176035340798365
1.176035420741578
1.176035998100052
1.176037443979281
1.176040387906299
1.176045520688377
1.176053635532724
1.176065587898999
1.176082255038711
1.176104466979775
1.176132926190468
1.176168136812553
1.176210350947036
1.176259542394204
1.176315445262755
1.176377677549436
1.176445862656687
1.176519504363134
1.176597150115573
1.17667405912332
1.176738650472564
1.176775769139157
1.176786111547477
1.176786940486153
1.176786842123944
1.176786509785851
1.176785415900277
1.176783079759268
1.176778836905627
1.176771935371871
1.176761534823392
1.176746747737019
1.17672668367266
1.176700506752898
1.17666750926911
1.176627178896587
1.176579221458696
1.17652353006294
1.17646013257004
1.176389185472118
1.176311218637589
1.17622822185159
1.176146559777454
1.176080605340349
1.176046064320637
1.176037908626354
1.176037428523533
1.176037473262198
1.176037922231032
1.176039100133162
1.176041579473036
1.176045979824302
1.176053021062555
1.176063489490182
1.176078209895374
1.176097994029604
1.176123581559387
1.176155586322036
1.176194448356187
1.17624040042535
1.176293483220947
1.176353624150831
1.176420706339002
1.176494434617933
1.1765736049574
1.176653995008165
1.176724635783783
1.176768965310751
1.176783374904513
1.176784898804328
1.176784840301488
1.176784614410097
1.176783751723316
1.176781834366667
1.17677825900889
1.176772344995604
1.176763322237186
1.176750361008031
1.176732599911944
1.176709186728703
1.176679334722018
1.176642375036371
1.176597778927094
1.176545150555368
1.176484214440783
1.176414839731932
1.176337266083334
1.17625305501245
1.176167749083264
1.176094925410946
1.176052487068624
1.176040439575291
1.176039424802899
1.176039435899056
1.176039771021458
1.17604070457393
1.176042766588443
1.176046518384885
1.176052620805121
1.176061801880849
1.176074837252275
1.176092511553115
1.176115576336016
1.176144710202413
1.176180477179925
1.17622329247986
1.176273426131597
1.176331052082921
1.176396281285866
1.176469036131272
1.176548452696903
1.176631077638923
1.176707191337207
1.176759750419173
1.176780041161747
1.17678290940107
1.176782925174342
1.176782788028512
1.176782126044429
1.176780577514089
1.176777586572047
1.176772531754922
1.176764702424751
1.176753321463987
1.176737561724964
1.176716575227798
1.176689535536435
1.176655676320447
1.176614310249916
1.176564835937826
1.176506748292503
1.176439673993413
1.176363562955983
1.1762794783728
1.176191891354183
1.176112828776359
1.176061296210055
1.176043484562248
1.176041373970365
1.176041342348311
1.176041580124761
1.176042295574297
1.17604398333477
1.176047155026928
1.176052423882832
1.176060468964775
1.176072021908715
1.176087837671652
1.176108665353146
1.1761352184316
1.176168138761569
1.176207965274971
1.176255133124082
1.176310002862871
1.176372869981455
1.176443858014211
1.176522456265968
1.176606052707047
1.176686548938357
1.176747562647451
1.176775582176584
1.176780881707499
1.176781073858564
1.176781002338986
1.176780511660466
1.176779286155172
1.176776809246257
1.176772510167176
1.176765728587002
1.176755734252724
1.176741735437141
1.176722900414887
1.176698388724754
1.176667377822853
1.176629078377559
1.176582749423002
1.176527719577565
1.176463422303368
1.176389550287922
1.176306687367218
1.176218194318994
1.176134108255514
1.176073126240031
1.176047530877296
1.176043338556456
1.176043213737215
1.176043369114497
1.176043894573287
1.176045250494616
1.176047902621816
1.176052425407221
1.176059456224945
1.17606968775032
1.176083845656013
1.176102668730015
1.176126885781487
1.17615718445019
1.176194184875898
1.176238437840171
1.176290439845589
1.176350628005249
1.176419296088618
1.176496253557476
1.176579678452164
1.176663190270102
1.176732059348361
1.176769329341684
1.176778640845859
1.176779269773113
1.176779243711004
1.1767788928377
1.17677794797475
1.176775922388167
1.176772291372754
1.176766437857669
1.176757673239473
1.176745240710547
1.17672833162885
1.176706107753405
1.17667771832501
1.1766423126888
1.176599059736486
1.176547171910334
1.176485934890743
1.176414829642626
1.17633402543452
1.176245867656806
1.176158288291411
1.17608840040889
1.176053234829484
1.176045471051611
1.176045048653311
1.176045150089742
1.176045515901781
1.176046581842393
1.176048769739162
1.176052620048224
1.176058734014454
1.176067771210578
1.176080431991287
1.176097443163719
1.176119537687235
1.176147426934883
1.176181779625727
1.176223219439446
1.176272330397057
1.176329647765126
1.176395602824554
1.176470284762658
1.176552548919886
1.176637648089353
1.176713115965838
1.176760528592941
1.176775880141734
1.176777594800251
1.176777722131431
1.176777500563274
1.176776758531
1.176775047478891
1.176771887520734
1.176766721079837
1.176758921500534
1.176747789616735
1.17673256108754
1.176712418415714
1.176686506758566
1.17665395103304
1.176613871715177
1.176565400012447
1.176507702717482
1.176440074048064
1.176362298860625
1.176275731177794
1.17618614979618
1.176108585207875
1.1760620169134
1.176047943982862
1.176045476017136
1.176044086297293
1.17604367022718
1.176044354467008
1.176046409918431
1.176050500539077
1.176057163426588
1.176066790218751
1.176079701342245
1.176096241950815
1.176116833286619
1.176141989826568
1.176172321041931
1.176208554011293
1.176251560389707
1.176302322489754
1.176361800098466
1.176430615349075
1.176508509753804
1.176592497732234
1.176671948398642
1.176729204098863
1.176756874092483
1.176766422013393
1.176777183051221
1.176787678011143
1.176799575270796
1.176812760392028
1.176826480671734
1.176839420190573
1.176849970340491
1.176855661221842
1.176854695996019
1.17684645912222
1.176829469196535
1.17680199173367
1.176763035684927
1.176712017796897
1.176648579767106
1.176572477677114
1.176484201005386
1.176386335830725
1.176285068001907
1.176194160837314
1.176131583464309
1.176099193788054
1.176083477430426
1.176074796519271
1.176071852727979
1.176072153173742
1.176073938752472
1.176077207783194
1.176082449708379
1.176090347828115
1.176101389997405
1.176115986571766
1.176134597429307
1.176157795953962
1.176186270730228
1.176220788142449
1.176262161982563
1.176311256837252
1.176369004478764
1.176436052478599
1.176511641125013
1.176592384550486
1.17667145096998
1.176736094458636
1.176777443840548
1.1767929841571
1.1768020627533
1.176810492892927
1.176819578208024
1.176829507461056
1.176840088307421
1.176850633734552
1.176859939129967
1.176866679308982
1.176868515260393
1.176863754832858
1.176851492892295
1.176829368379395
1.176796123067194
1.176750856368383
1.176692929898015
1.176622274775958
1.176539459649123
1.176446494885916
1.176348105235225
1.17625366467265
1.17617929397966
1.176135802530466
1.176114517264082
1.176103510615505
1.176098154341248
1.176097831139461
1.176100301962163
1.176104287336651
1.176110044572133
1.176117841865074
1.176127955693151
1.176140728548684
1.176156720702535
1.176176786317816
1.176201985850745
1.176233409324312
1.176272063273795
1.176318859757125
1.176374615520527
1.17643981283638
1.17651383537413
1.176594311044816
1.176675498620719
1.176748394319579
1.176801806101689
1.176827360184545
1.176836710919244
1.176844918753805
1.176851868476532
1.176858817264513
1.176865996689325
1.1768731563778
1.176879722654518
1.17688492285488
1.176887105822614
1.17688470814315
1.176876168437335
1.176858911140126
1.176831312794842
1.176792283584852
1.176740937075672
1.176676769822993
1.17659990877987
1.17651172817295
1.176416046330072
1.176319787332374
1.176235702819807
1.17617944110178
1.176150517460262
1.176135755054274
1.17612725465915
1.176124696859307
1.176126278729582
1.176130385562339
1.176136478999343
1.176144702470461
1.176154880762635
1.176167062845135
1.176181571669627
1.176199191588423
1.176221098103211
1.176248667852702
1.176283285560719
1.176326223527218
1.176378574419778
1.176441069492097
1.176513492050304
1.176594101291796
1.176678190613662
1.176758285312458
1.17682350735973
1.176861484762296
1.176877382163877
1.176888135103881
1.176895340957604
1.176900524106989
1.176904662914559
1.176908117349354
1.176911059862227
1.176913072536282
1.1769134799569
1.176911009158754
1.176903759124638
1.176889895842606
1.176867545480486
1.176834835667691
1.176790233568791
1.17673288964036
1.176662791668435
1.176580530397428
1.176488431708693
1.176392085998833
1.17630132153056
1.17623215575154
1.176192988407507
1.176172582498484
1.176159603808735
1.176153433731266
1.176152558351885
1.176155519213488
1.176161080028701
1.176169218726405
1.176179649384037
1.176192147908269
1.176206684144587
1.176223612834526
1.176243739716517
1.176268275317209
1.176298748633354
1.176336841508906
1.176384102646665
1.176441730732311
1.176510265043321
1.176589205426282
1.176675055434424
1.176761102924896
1.176838127018171
1.176890726188378
1.176917304562828
1.176935104298006
1.176945992058542
1.176952238731088
1.176955952721028
1.176957309807332
1.176956644880985
1.176954946423757
1.176951855822169
1.176946811182245
1.176938596998438
1.176925548864734
1.17690584969669
1.17687771341161
1.176839430461754
1.176789440809585
1.176726704400959
1.176651190390382
1.176564271433332
1.176470163371035
1.176376244735058
1.176295501476244
1.176243279871623
1.176215531282303
1.176196852739875
1.176186234764033
1.1761815919677
1.176181796425931
1.17618594125458
1.176192763202183
1.176202557511079
1.176214992025674
1.176229943617229
1.17624741289523
1.176267686714651
1.17629140960974
1.176319625374521
1.176353783148219
1.176395637859462
1.176447011058083
1.176509429338316
1.176583270049767
1.176666874012576
1.176754633096002
1.176840856507871
1.176909562713825
1.176949740392264
1.176979243498664
1.176998572519656
1.177010512662934
1.177017298266166
1.177020282521446
1.177019246684666
1.177014844684115
1.17700831587835
1.176999310896535
1.176987868234209
1.176973023212269
1.176953370222743
1.176927162690585
1.17689266743317
1.176848386644475
1.1767930583019
1.176725683009057
1.176645867896348
1.176556091699875
1.176462987118966
1.176374529310807
1.176307081331242
1.176269229429881
1.176242833333659
1.176226160126622
1.176217187915196
1.17621305261357
1.176213918263908
1.176219055018334
1.17622709282909
1.176238432825054
1.176252868157707
1.176270330775121
1.176290886920573
1.176314797610621
1.176342595962385
1.176375208762458
1.176414029758214
1.176460810514571
1.176517362036177
1.176584789326191
1.176662735011701
1.176748242076345
1.176837049329212
1.176918173344339
1.176970318921211
1.177012142859362
1.177042636122385
1.177064511709139
1.177080297532181
1.177090797919015
1.177096444787877
1.177097277010761
1.177093344515977
1.177085274405961
1.177073178955837
1.177056765406397
1.17703580097303
1.177009587893587
1.176977011848395
1.176936627490241
1.176886944069175
1.176826663192223
1.176755089255291
1.176672690040815
1.176583513723113
1.176492899478676
1.176411790312889
1.176360584261842
1.176321616831531
1.176293897132397
1.176275512371447
1.176264112400019
1.176258777280166
1.176259490781125
1.176265283904322
1.176275058806855
1.17628829543057
1.176304886104411
1.17632465026195
1.176348093662662
1.176375743232528
1.176408082450958
1.176445652640047
1.176489474391007
1.176541210813019
1.176602762683025
1.176675156527152
1.176757886810859
1.176846829408756
1.17693780435224
1.177005080296676
1.177061519721656
1.177103783043736
1.177135196686406
1.177158697498671
1.177176585457687
1.177189622747242
1.177198214365989
1.177203752481036
1.177205632256552
1.177203758426135
1.177198892091529
1.177189317744961
1.177173851361604
1.177150722883838
1.177117823472901
1.177072968575287
1.177014708573188
1.176942934221666
1.176858576089435
1.176765149166028
1.176669275029402
1.176580331757611
1.176515740983185
1.176468011463632
1.176426875159595
1.17639303429123
1.176365552567493
1.176345108142902
1.17633275829754
1.176327976982278
1.176331516538605
1.176341892026797
1.176357069579299
1.176375956500034
1.176398192344986
1.176423433604346
1.17645230987594
1.176485853965157
1.176526448644508
1.176577877530776
1.176642480960737
1.176718332895623
1.176786565390273
1.176925540654513
)
;

boundaryField
{
    inlet
    {
        type            calculated;
        value           uniform 1.176411716172193;
    }
    outlet
    {
        type            calculated;
        value           uniform 1.177109924683398;
    }
    frontAndBack
    {
        type            empty;
    }
}


// ************************************************************************* //
