/*--------------------------------*- C++ -*----------------------------------*\
| =========                 |                                                 |
| \\      /  F ield         | OpenFOAM: The Open Source CFD Toolbox           |
|  \\    /   O peration     | Version:  v2012                                 |
|   \\  /    A nd           | Website:  www.openfoam.com                      |
|    \\/     M anipulation  |                                                 |
\*---------------------------------------------------------------------------*/
FoamFile
{
    version     2.0;
    format      ascii;
    class       volScalarField;
    location    "0.01";
    object      T;
}
// * * * * * * * * * * * * * * * * * * * * * * * * * * * * * * * * * * * * * //

dimensions      [0 0 0 1 0 0 0];


internalField   nonuniform List<scalar> 
1000
(
299.9875533993536
299.9893362285902
299.982996439492
299.9783345091111
299.9738797474009
299.9700326780815
299.966545577329
299.9634166040516
299.9606742285739
299.9588196197869
299.9583301347625
299.9584860383121
299.9589174383103
299.959758951713
299.9613358361569
299.9637730285788
299.9669925442428
299.9708405159366
299.9751878472971
299.979950405461
299.9850653640426
299.990465293152
299.9960664588648
300.0017678150562
300.0074547694961
300.0130073563095
300.0183172277995
300.0233180602311
300.0280146273543
300.0324489564455
300.0364978997411
300.0395333835828
300.0408238456756
300.0409773221166
300.0409344633459
300.0407417974774
300.0401832906027
300.0390522401437
300.0371507183333
300.0343695343074
300.0307251512955
300.0263483508566
300.0214254040894
300.0161317590981
300.0105986610687
300.0049200094658
299.9991768478426
299.9934557431417
299.9878495835202
299.9824350327095
299.9772346713213
299.9722112677794
299.967383698555
299.963134107746
299.9603803500613
299.9595095830652
299.9594542356583
299.9594788203645
299.9596685346139
299.9601416726092
299.9610937297746
299.9627033442668
299.9651138055116
299.968389425039
299.9724941701097
299.9772972530253
299.9826087585074
299.9882305393581
299.9939961868664
299.9997827684548
300.0055028052354
300.0111009583787
300.0165651097921
300.0219296997469
300.0272297091442
300.0323515091285
300.0367459475357
300.0394152156347
300.0401849549202
300.0402344105642
300.0401874734087
300.040041251972
300.0396389974698
300.0388399548913
300.0374765507789
300.0353978945701
300.0324970447416
300.0287419260066
300.0241902145889
300.0189819442309
300.0133124375571
300.0073935012646
300.0014122506143
299.9954986156455
299.9897107955873
299.9840396048207
299.9784309387353
299.9728531114547
299.9674886855459
299.9630593663917
299.9606240434935
299.9600453139678
299.9600286346054
299.9600541605983
299.9602096594012
299.960582364006
299.9613174125676
299.9625611304125
299.9644562237329
299.9671156239007
299.9705985541417
299.974889561047
299.9798905533228
299.9854338624287
299.9913144192285
299.9973302713302
300.0033217359869
300.0092031466011
300.0149763806976
300.0207058706782
300.0264265899012
300.0319395921239
300.0365082907424
300.0390616923254
300.0397060616004
300.0397405209136
300.0397034295649
300.0395867659908
300.0392715564312
300.0386463292853
300.0375734573884
300.0359144976075
300.0335455972993
300.0303809294362
300.0263936399775
300.0216297547504
300.0162110262373
300.0103207907013
300.0041682977606
299.9979385379141
299.9917477758004
299.985626040055
299.9795421653933
299.9735013059793
299.9677824225007
299.9632554651288
299.9609576119901
299.960472293211
299.9604618519672
299.9604840478164
299.9606110333265
299.9609139625774
299.9615098137626
299.9625215574674
299.9640775298838
299.9662950287536
299.9692631722637
299.9730229580381
299.9775507417733
299.9827531392506
299.98847746672
299.9945371230575
300.0007501523276
300.0069843719556
300.0131888959865
300.0193799713422
300.0255442960247
300.0314134687707
300.0361580922715
300.0387052191307
300.0393169292481
300.0393486095838
300.0393194534134
300.0392271135369
300.0389748488609
300.0384709256417
300.0375989408627
300.0362357565763
300.0342605504844
300.0315714096967
300.0281025493962
300.0238401521112
300.0188343336808
300.013200718026
300.0071029065962
300.0007151808551
299.994178653292
299.9875726494989
299.9809282403198
299.9743303939912
299.9681796120729
299.9634872275587
299.9612527921445
299.9608201475915
299.9608120990699
299.9608307841572
299.9609360706189
299.9611870227862
299.9616813094461
299.9625241718595
299.9638298336708
299.9657103908756
299.9682636825383
299.9715572990379
299.975612633501
299.9803948760852
299.9858127507535
299.9917297679718
299.9979898436235
300.004455973844
300.0110446972422
300.0177207965776
300.0244044981883
300.0307346569675
300.035764072812
300.0383861314352
300.0389949398453
300.0390263420965
300.0390030655027
300.038929064538
300.0387235091908
300.0383095549328
300.0375874434964
300.0364482319055
300.0347791008611
300.03247521072
300.029452835638
300.0256630193763
300.0211046689654
300.0158321215657
300.0099489319772
300.0035846761503
299.9968625179091
299.9898747606451
299.9826957443202
299.9754906351126
299.9687986232905
299.9638061367312
299.9615288647438
299.9611119117465
299.9611038173755
299.9611193012105
299.9612074701135
299.9614183601135
299.9618350952206
299.9625486610171
299.9636604397271
299.9652745053733
299.9674890415339
299.9703839566148
299.9740073756913
299.9783653031261
299.9834171776475
299.9890791465504
299.995239139583
300.0017851425044
300.0086332915434
300.015722139196
300.0229203141782
300.029780528577
300.0352277477262
300.0380574728566
300.0387168459833
300.0387528217845
300.0387344548321
300.038675293164
300.0385062715912
300.0381620483676
300.0375562087856
300.0365924246961
300.0351673185279
300.0331788828718
300.0305361189614
300.0271698472663
300.0230443958008
300.0181664888206
300.0125845505659
300.0063753057564
299.9996229142884
299.9924039326659
299.9848061349344
299.9770452535034
299.9697660689889
299.9643184329365
299.9618306734337
299.9613691266817
299.9613567994233
299.9613687471492
299.9614418293284
299.9616192725931
299.9619733373905
299.9625835964484
299.9635402724363
299.9649387895064
299.9668737816742
299.9694296925319
299.9726700113471
299.9766282428496
299.9813022916598
299.9866536900475
299.9926157686879
299.9991129362072
300.0060803553793
300.0134542466552
300.0210806132917
300.0284671496632
300.0344495033649
300.0376639711033
300.0384608809156
300.0385114972456
300.0384975115485
300.0384515465739
300.0383131518575
300.0380259888077
300.0375141373483
300.0366919983776
300.0354654819904
300.0337379389342
300.0314169252491
300.0284223121928
300.0246958677736
300.0202094863317
300.0149668085221
300.0089961238278
300.002338618826
299.9950419402414
299.9871839640633
299.9789910460236
299.9711456003414
299.965100908932
299.962198756568
299.961609081466
299.9615854557507
299.9615936261822
299.9616525711288
299.9618001679577
299.9621006783955
299.9626246159921
299.96345294476
299.9646729809631
299.9663742612393
299.9686414959132
299.971546367105
299.975140304285
299.9794490016337
299.9844697392504
299.9901753267611
299.9965267195583
300.0034854229933
300.0110007336103
300.0189243586399
300.0267724822878
300.0333634030144
300.0371508901766
300.0382061936033
300.0382907818897
300.0382807527615
300.0382468522184
300.0381352442143
300.0378968802511
300.0374639618754
300.0367597589174
300.0356985226828
300.0341896861971
300.0321423795086
300.0294712927164
300.0261041847609
300.0219887408694
300.0170948953778
300.0114116832121
300.004941880784
299.9977013830889
299.9897441847431
299.9812732847841
299.9729382472402
299.9662061712886
299.9626804097987
299.9618479158865
299.9617989142504
299.9618034886945
299.9618493263084
299.9619695675368
299.9622226531029
299.9626718257742
299.9633905647773
299.9644591281341
299.9659616990862
299.9679811251946
299.970592889351
299.9738596224526
299.9778262061848
299.9825163561889
299.9879341749701
299.9940721950991
300.0009184227121
300.0084426624862
300.016521967721
300.0247254026971
300.0319336723663
300.0364569586152
300.0379272608654
300.0380827582089
300.0380767940844
300.0380537527885
300.0379657337787
300.0377700991356
300.0374052876786
300.0368018463079
300.0358811947113
300.0345586649111
300.0327463529773
300.0303572849473
300.0273111603542
300.0235396969464
300.0189888977547
300.0136183151498
300.0073997702394
300.000319830162
299.992402862204
299.9838081389432
299.9751012856165
299.9676681257095
299.9633362689145
299.9621065159758
299.9620029359818
299.9620040740788
299.9620382888035
299.9621335863612
299.9623440714777
299.9627270409517
299.9633499486003
299.9642871052271
299.965617678693
299.9674217507305
299.9697760205834
299.9727497336896
299.9764004317807
299.9807704569204
299.9858873223573
299.991768724301
299.9984259190355
300.005850908787
300.013955444421
300.0223870433954
300.0301538596657
300.0355169095608
300.0375873040026
300.0378799705265
300.0378815836288
300.037867595587
300.0378000539844
300.0376420513731
300.0373368698868
300.0368210964837
300.0360222177147
300.034860934703
300.0332528400597
300.031111395349
300.0283522530138
300.0248971890503
300.0206760290144
300.0156273546226
300.0096995586894
300.0028544645359
299.9950868664143
299.9865051670828
299.9775656084125
299.9694957308762
299.9642356267826
299.9624174957083
299.9622020583265
299.9621988342341
299.9622231100134
299.9622961435459
299.9624684251015
299.9627921787851
299.963329999068
299.9641511987938
299.9653304551724
299.9669448224488
299.9690707520035
299.971781052601
299.9751412138589
299.9792062101846
299.9840204123427
299.9896205651973
299.9960367602137
300.0032815261815
300.0113026556422
300.019833504386
300.0280476241691
300.0342734285308
300.0371324494499
300.0376731941909
300.0376928029993
300.0376855090943
300.0376354457974
300.03751040229
300.0372576696016
300.0368190079721
300.036127037598
300.0351072423902
300.0336788306722
300.0317569248919
300.029255749614
300.0260913489493
300.0221831448355
300.0174554808457
300.0118397850555
300.0052781662441
299.997739168153
299.989282266007
299.9802503584397
299.9716678465166
299.9654432633567
299.9628306142092
299.9624026821015
299.962389943587
299.9624058066722
299.9624594458852
299.9625978538522
299.9628685717145
299.9633302358907
299.964047904373
299.9650922783143
299.9665374241767
299.9684587428811
299.9709306108875
299.9740231947542
299.9777997618698
299.9823164892772
299.9876240013609
299.9937668469252
300.0007749300577
300.0086287146299
300.0171421721377
300.0256641254844
300.0326915643077
300.0364944938035
300.0374446038567
300.0375087786925
300.0375061217282
300.0374703226344
300.0373739139848
300.0371672316306
300.0367967360374
300.0361994619166
300.0353051436568
300.0340365538755
300.0323111722752
300.0300434526869
300.027146563768
300.0235336744494
300.0191199350301
300.0138249237208
300.0075756733988
300.0003191245434
299.9920724423668
299.9830748812562
299.9741359385994
299.9670023924617
299.9634128821381
299.9626203907206
299.9625772757815
299.9625876316851
299.9626249741011
299.9627337815412
299.9629571122269
299.9633501326983
299.9639742134516
299.9648966773704
299.9661890077381
299.9679253842695
299.970180609456
299.9730272754854
299.9765336120313
299.9807632409847
299.9857757238624
299.9916256316573
299.9983569063735
300.0059785606384
300.01437367965
300.0230577346431
300.0307586139942
300.0355965091196
300.0371629240943
300.0373378827257
300.0373508764016
300.0373282697428
300.0372525568486
300.0370779678684
300.0367555366646
300.0362283689564
300.0354325205832
300.0342966466211
300.032742748648
300.0306873995027
300.0280433545777
300.0247212946555
300.0206314350761
300.0156850707357
300.0097971090957
300.0028954394698
299.994957999621
299.9861228589206
299.9769797165708
299.9690627048076
299.9643093096456
299.9628728102086
299.9626208932851
299.9624790389654
299.9624365694794
299.9625064141727
299.9627162254936
299.9631337757043
299.9638138875291
299.9647965342875
299.9661144182763
299.9678027632777
299.9699045565505
299.9724722980105
299.9755681782381
299.9792663838689
299.9836558464166
299.9888367763172
299.9949070664387
300.0019301278414
300.0098794802303
300.0184503387546
300.0265578111057
300.0324001918522
300.0352235794007
300.0361978248561
300.0372958501045
300.0383667193262
300.0395806666159
300.0409260135481
300.0423259566244
300.0436462268918
300.0447226939913
300.0453033503666
300.0452048690966
300.0443644434194
300.0426309060327
300.0398272534892
300.0358523162111
300.0306465090213
300.024173174073
300.0164072999018
300.0073986924655
299.9974111140405
299.987075751277
299.9777973134102
299.9714100832297
299.9681040156751
299.9664998077666
299.9656137206035
299.9653132377267
299.9653439052868
299.9655261658239
299.9658598466448
299.9663949049644
299.9672010859854
299.9683281841565
299.969818080149
299.9717177052325
299.9740855714283
299.9769919432313
299.9805150183668
299.9847378234134
299.9897485563181
299.9956422548133
300.0024849295452
300.0101989527041
300.0184387047318
300.0265069839128
300.0331032218764
300.037322405497
300.0389080719076
300.0398344106554
300.0406945801836
300.0416215959464
300.0426347181574
300.0437143205691
300.0447903042108
300.0457397588853
300.0464274754632
300.0466148030918
300.0461290915082
300.0448779805175
300.0426205437758
300.0392283621151
300.0346094831519
300.0286986804984
300.021488812741
300.0130377740693
300.0035505770251
299.9935092771155
299.9838705224658
299.9762797778826
299.9718406247809
299.96966801792
299.968544551492
299.9679978249478
299.9679648346392
299.9682170368444
299.9686238315347
299.9692114809261
299.9700073590134
299.9710396848442
299.9723434137511
299.9739757265764
299.9760237970219
299.9785958482166
299.9818031120937
299.9857482880716
299.9905244191218
299.9962148035583
300.0028685835339
300.0104227658913
300.0186351837836
300.0269199029802
300.0343581866745
300.0398081411968
300.0424155296671
300.0433696177974
300.0442070892278
300.0449161877908
300.0456251887078
300.0463577205549
300.0470882371019
300.0477582049689
300.0482887888975
300.0485115204978
300.0482668859723
300.0473955731449
300.045634779621
300.0428188329725
300.0388364871749
300.0335972215989
300.0270495656311
300.0192063487667
300.0102076637357
300.0004430400972
299.9906190370052
299.982037123667
299.9762946626418
299.973342455371
299.9718356583343
299.9709680180235
299.9707069404677
299.9708684031493
299.9712875898961
299.9719095482467
299.9727489161344
299.97378780779
299.975031219126
299.9765121094181
299.9783105291125
299.9805464468931
299.9833603525362
299.9868935494761
299.9912758516216
299.9966187201824
300.0029967079315
300.0103876026307
300.0186136489451
300.0271944698471
300.0353673213972
300.0420223104177
300.0458972514348
300.0475192879895
300.0486164216303
300.0493516375475
300.0498804739769
300.0503027560434
300.0506552123581
300.0509554381914
300.0511607928002
300.0512023641183
300.050950271964
300.0502105530674
300.0487960761521
300.0465156359162
300.0431781569022
300.0386271808767
300.0327759380859
300.0256230689528
300.0172287209452
300.0078301009343
299.9979976088762
299.9887342587461
299.9816749420302
299.9776772630299
299.9755944753339
299.9742697567613
299.9736399800281
299.9735506295698
299.9738528432314
299.9744204316472
299.9752511391753
299.9763157787111
299.9775914739582
299.9790751431227
299.9808029881863
299.9828572395544
299.9853614368334
299.988471614781
299.9923593940359
299.9971827870948
300.003064059449
300.0100581521685
300.018113908941
300.0268744134631
300.035654688995
300.0435138860337
300.0488806728185
300.0515924589521
300.0534085455411
300.054519400444
300.0551567302794
300.0555356579581
300.0556741187092
300.0556062812536
300.0554329977344
300.0551176766016
300.0546029864575
300.0537649090949
300.0524336229744
300.0504237217291
300.0475529489084
300.0436468368869
300.038546145137
300.0321446555195
300.0244390958326
300.0155693938274
300.005965634477
299.9963807517789
299.9881401013305
299.9828101706106
299.9799779950046
299.978071538734
299.9769877867117
299.9765139043391
299.9765347720057
299.9769578265153
299.9776541296719
299.9786538109829
299.9799229623566
299.9814490101642
299.9832320098371
299.9853012314238
299.9877224486146
299.9906021795837
299.9940883032725
299.9983598917883
300.0036027931308
300.0099727223268
300.0175080779392
300.0260394194179
300.0349943734232
300.0437922484782
300.0508024372585
300.054901703412
300.0579118144324
300.0598838684526
300.0611020549737
300.0617943474066
300.0620988114691
300.0619931351499
300.0615440347385
300.0608779487462
300.0599592251339
300.0587917847861
300.0572772002011
300.0552720543027
300.05259813345
300.0490785750973
300.0445605106901
300.0389151023629
300.0320402770661
300.023895817802
300.014734517674
300.0052331301351
299.9962055339276
299.9893218025682
299.9854585373319
299.9827644452822
299.9810626889565
299.9801469267684
299.9797248482649
299.9798132006712
299.980337491562
299.9811578851841
299.9823153156156
299.9837886611111
299.9855709656212
299.9876689797276
299.9901093327945
299.9929464234755
299.9962748235916
300.0002367519552
300.005010926784
300.0107821052812
300.017662962505
300.025616914454
300.0343420997482
300.0434036405993
300.0516808449785
300.0570011358961
300.0612682437999
300.0643792769426
300.066611068397
300.0682215526672
300.0692928071683
300.0698689051374
300.0699538123466
300.0695526298869
300.0687293345555
300.0674953621281
300.0658208273226
300.0636819693539
300.06100758944
300.0576839814562
300.0535636503141
300.048494446666
300.0423438200699
300.035040693351
300.0266326723911
300.0175327146355
300.0082856113213
300.0000081181759
299.9947821509263
299.9908051498929
299.987976040822
299.9860996404362
299.9849361138249
299.9843915854896
299.9844644061471
299.9850556793061
299.9860533529822
299.987404337986
299.9890976306979
299.9911147870371
299.9935074111821
299.9963292672267
299.9996296829945
300.0034638847607
300.0079360008943
300.0132157118603
300.0194969219221
300.0268842827863
300.0353260843169
300.0444013915292
300.0536836687854
300.0605475960118
300.0663057331913
300.0706174684205
300.0738222269231
300.0762196722874
300.078044485142
300.0793744566949
300.0802509373002
300.080815984945
300.0810078368506
300.0808168685583
300.080320858086
300.0793447042456
300.0777674643157
300.07540828316
300.0720515938464
300.0674740397455
300.0615272602359
300.0541998833498
300.0455875108835
300.0360508831192
300.0262687356124
300.01720106095
300.0106264944732
300.0057802375151
300.0016122677918
299.9981882932144
299.9954023903971
299.9932984668379
299.9919495596361
299.9913572094384
299.9916327880107
299.9925819864559
299.993977093216
299.9957194889864
299.9978678038132
300.0005916973122
300.0042360194926
300.0089923358964
300.0146013438862
300.0203983392212
300.0258402266851
300.0311688867275
300.0365478481704
300.0469997521123
)
;

boundaryField
{
    inlet
    {
        type            fixedValue;
        value           uniform 300;
    }
    outlet
    {
        type            characteristicVelocityInletOutletTemperature;
        UName           U;
        pName           p;
        TName           T;
        phiName         phi;
        rhoName         rho;
        U               (0 0 0);
        p               101325;
        T               300;
        value           uniform 300;
    }
    frontAndBack
    {
        type            empty;
    }
}


// ************************************************************************* //
