/*--------------------------------*- C++ -*----------------------------------*\
| =========                 |                                                 |
| \\      /  F ield         | OpenFOAM: The Open Source CFD Toolbox           |
|  \\    /   O peration     | Version:  v2012                                 |
|   \\  /    A nd           | Website:  www.openfoam.com                      |
|    \\/     M anipulation  |                                                 |
\*---------------------------------------------------------------------------*/
FoamFile
{
    version     2.0;
    format      ascii;
    class       volVectorField;
    location    "0.01";
    object      U;
}
// * * * * * * * * * * * * * * * * * * * * * * * * * * * * * * * * * * * * * //

dimensions      [0 1 -1 0 0 0 0];


internalField   nonuniform List<vector> 
1000
(
(-0.001001959737566739 0 0)
(-0.03284970478697709 0 0)
(-0.04106581127028777 0 0)
(-0.05635489533710928 0 0)
(-0.07038981599963846 0 0)
(-0.08350707249256747 0 0)
(-0.09471233373871117 0 0)
(-0.1043010050134719 0 0)
(-0.1126514099841555 0 0)
(-0.1185355323299462 0 0)
(-0.120327721954758 0 0)
(-0.1202734094895397 0 0)
(-0.1195636928363716 0 0)
(-0.1172893103568738 0 0)
(-0.1127360824707023 0 0)
(-0.1056296791189587 0 0)
(-0.09621807148635902 0 0)
(-0.08494782846667631 0 0)
(-0.072205424014688 0 0)
(-0.05825147629055863 0 0)
(-0.04328330434161097 0 0)
(-0.02751153826541731 0 0)
(-0.01119547561521484 0 0)
(0.005363417304392785 0 0)
(0.02184104754462583 0 0)
(0.03790253354298315 0 0)
(0.05323301898639828 0 0)
(0.06763519882220895 0 0)
(0.08114071557135914 0 0)
(0.09390565336143161 0 0)
(0.1055790844469188 0 0)
(0.1143120094714668 0 0)
(0.1179887017399601 0 0)
(0.1184071200321039 0 0)
(0.118332744891464 0 0)
(0.1177547981170868 0 0)
(0.1161789767387133 0 0)
(0.1129317617214999 0 0)
(0.1074527592932738 0 0)
(0.09942674072745555 0 0)
(0.08890163221525961 0 0)
(0.07624969917693505 0 0)
(0.06200702621881252 0 0)
(0.04668886344273208 0 0)
(0.03068252311210797 0 0)
(0.01425317394848982 0 0)
(-0.002374271278921653 0 0)
(-0.01893874756614426 0 0)
(-0.03515175746955616 0 0)
(-0.05080010813987342 0 0)
(-0.06584978334000523 0 0)
(-0.08040522286650217 0 0)
(-0.09436433843966767 0 0)
(-0.1066159396357382 0 0)
(-0.1145700086304351 0 0)
(-0.1171302436491771 0 0)
(-0.1173192987878743 0 0)
(-0.1171663230208906 0 0)
(-0.1166687494541325 0 0)
(-0.1152853635046489 0 0)
(-0.1125346109383719 0 0)
(-0.1078808771671032 0 0)
(-0.1009098546296815 0 0)
(-0.09143241623097875 0 0)
(-0.07955760829358094 0 0)
(-0.06566759626688043 0 0)
(-0.05030582253017167 0 0)
(-0.034039158793914 0 0)
(-0.01735635566683985 0 0)
(-0.0006241817045185809 0 0)
(0.01591220796156935 0 0)
(0.03211135360903201 0 0)
(0.04793150975243345 0 0)
(0.0634423869761921 0 0)
(0.07874714375740788 0 0)
(0.09356268374420432 0 0)
(0.1063073632385844 0 0)
(0.1140373401240159 0 0)
(0.1162252839218641 0 0)
(0.116338783493647 0 0)
(0.1162764202892788 0 0)
(0.1158085819531829 0 0)
(0.1146588148981112 0 0)
(0.1123461851843809 0 0)
(0.1084017869188261 0 0)
(0.1023883508922579 0 0)
(0.09400005736454001 0 0)
(0.0831405927967947 0 0)
(0.0699724834121563 0 0)
(0.0549050457427294 0 0)
(0.03850983127469298 0 0)
(0.02139452673450443 0 0)
(0.004089705177954586 0 0)
(-0.01302427091013407 0 0)
(-0.02976214787220592 0 0)
(-0.04615253301425173 0 0)
(-0.06237816619520902 0 0)
(-0.07853453392142179 0 0)
(-0.09405511331125424 0 0)
(-0.1068401249659246 0 0)
(-0.1138703351054855 0 0)
(-0.1155724763617518 0 0)
(-0.1156539621968614 0 0)
(-0.1155190860490579 0 0)
(-0.1151030610621669 0 0)
(-0.1140150144583961 0 0)
(-0.1118897527295889 0 0)
(-0.1082930109873694 0 0)
(-0.1028120175334593 0 0)
(-0.09511739367760992 0 0)
(-0.08504110270918595 0 0)
(-0.07263125853129976 0 0)
(-0.05816747411975632 0 0)
(-0.04212948359646666 0 0)
(-0.02511557334134174 0 0)
(-0.007718601082821302 0 0)
(0.009604860529959486 0 0)
(0.02662116193007716 0 0)
(0.04333170888479487 0 0)
(0.0599002559538378 0 0)
(0.07642818783582363 0 0)
(0.09237412006076991 0 0)
(0.1056135421848247 0 0)
(0.1130075639446696 0 0)
(0.1148440506269546 0 0)
(0.1149198887463326 0 0)
(0.1148661669429638 0 0)
(0.1144970161734041 0 0)
(0.1135946779077966 0 0)
(0.1117854253747283 0 0)
(0.1086816771421333 0 0)
(0.1038822788081199 0 0)
(0.09703196938769505 0 0)
(0.08788013969167877 0 0)
(0.07634542732662192 0 0)
(0.06256387729146487 0 0)
(0.04689310930341366 0 0)
(0.02985994199911812 0 0)
(0.01206104063538662 0 0)
(-0.005965433180944408 0 0)
(-0.02386991451418723 0 0)
(-0.04156658227424782 0 0)
(-0.05916593726304486 0 0)
(-0.07665671796772307 0 0)
(-0.09320252090856727 0 0)
(-0.1062769611081005 0 0)
(-0.1129118189903925 0 0)
(-0.114335574110898 0 0)
(-0.1143933191354646 0 0)
(-0.1142827070239425 0 0)
(-0.1139402643674206 0 0)
(-0.1130567582772665 0 0)
(-0.1113337908116238 0 0)
(-0.1084078908643639 0 0)
(-0.1039077172997586 0 0)
(-0.0974917440941214 0 0)
(-0.08890478783268323 0 0)
(-0.07803107139462426 0 0)
(-0.06493560669883178 0 0)
(-0.04988424740478881 0 0)
(-0.03332301189408425 0 0)
(-0.01579867894312401 0 0)
(0.002167232358574803 0 0)
(0.02020372799622874 0 0)
(0.03815938849160615 0 0)
(0.05606296099575846 0 0)
(0.07387772821012661 0 0)
(0.09085492500950537 0 0)
(0.1045984612426305 0 0)
(0.1119713877790433 0 0)
(0.1137182984212585 0 0)
(0.1137919261873784 0 0)
(0.113750788666512 0 0)
(0.113457583794051 0 0)
(0.1127356566605348 0 0)
(0.1112774213070459 0 0)
(0.1087548943493872 0 0)
(0.1048110948184442 0 0)
(0.09909916062343879 0 0)
(0.09132255849136293 0 0)
(0.08128779401955882 0 0)
(0.06895711544044275 0 0)
(0.05448018780848663 0 0)
(0.03818873494900459 0 0)
(0.02054863332672986 0 0)
(0.002066429536132278 0 0)
(-0.01683853047924715 0 0)
(-0.03593775814805757 0 0)
(-0.05515842729497284 0 0)
(-0.07425743972045903 0 0)
(-0.09205190559058074 0 0)
(-0.1056086947050144 0 0)
(-0.1120622101246482 0 0)
(-0.1133295721236307 0 0)
(-0.1133759132785751 0 0)
(-0.1132839185066595 0 0)
(-0.1129995735852259 0 0)
(-0.1122677927638838 0 0)
(-0.1108384868003534 0 0)
(-0.1084009890887695 0 0)
(-0.1046247740757943 0 0)
(-0.09918370704843474 0 0)
(-0.09179696156883568 0 0)
(-0.08227138666405988 0 0)
(-0.07054219758410454 0 0)
(-0.05670652496597205 0 0)
(-0.04103226025281875 0 0)
(-0.02392006294341193 0 0)
(-0.005816952959505886 0 0)
(0.01289021052966731 0 0)
(0.03195552548853745 0 0)
(0.05126185158366498 0 0)
(0.07058151876074173 0 0)
(0.0888930673615855 0 0)
(0.103457097022651 0 0)
(0.1110443194712066 0 0)
(0.1127861280213538 0 0)
(0.1128632740666711 0 0)
(0.1128321348760137 0 0)
(0.1125955409492091 0 0)
(0.1120077134052281 0 0)
(0.110809754666542 0 0)
(0.1087208407012838 0 0)
(0.1054249583887071 0 0)
(0.1005980699176382 0 0)
(0.09393557829721726 0 0)
(0.08519252795974598 0 0)
(0.07422905810879199 0 0)
(0.06104606696234306 0 0)
(0.045798526606621 0 0)
(0.02877966413891307 0 0)
(0.01036632003387648 0 0)
(-0.009075719970784742 0 0)
(-0.02928054659717767 0 0)
(-0.05004771163961225 0 0)
(-0.07090107785872998 0 0)
(-0.09026026411870318 0 0)
(-0.1046877665296979 0 0)
(-0.111267261753389 0 0)
(-0.1124870009405773 0 0)
(-0.1125290534726198 0 0)
(-0.1124526898315151 0 0)
(-0.1122146662361018 0 0)
(-0.1115996710537299 0 0)
(-0.1103946479019934 0 0)
(-0.1083310771694017 0 0)
(-0.105115583359775 0 0)
(-0.1004455704676092 0 0)
(-0.09403892548108383 0 0)
(-0.08566641737783906 0 0)
(-0.07518626979560016 0 0)
(-0.06257823357529203 0 0)
(-0.04796315752018124 0 0)
(-0.03158835915697551 0 0)
(-0.01377372946226489 0 0)
(0.005164436649511979 0 0)
(0.02497871155279976 0 0)
(0.04547866347739192 0 0)
(0.06628872514543205 0 0)
(0.08613456553500051 0 0)
(0.101904377772702 0 0)
(0.1100896691345977 0 0)
(0.1119803988943724 0 0)
(0.1120747568066478 0 0)
(0.1120522848721093 0 0)
(0.111861072393545 0 0)
(0.111378334249376 0 0)
(0.1103820347571138 0 0)
(0.1086294866746588 0 0)
(0.1058411444102944 0 0)
(0.1017199379998188 0 0)
(0.09596964301353704 0 0)
(0.08832473659062502 0 0)
(0.07858667504120308 0 0)
(0.06665566260200272 0 0)
(0.05254910266814556 0 0)
(0.03640178066587071 0 0)
(0.01843774831624918 0 0)
(-0.00109153389266398 0 0)
(-0.02196640141978942 0 0)
(-0.04394544985800847 0 0)
(-0.0664045450905181 0 0)
(-0.08746075917654313 0 0)
(-0.1032065632387884 0 0)
(-0.1103976140588446 0 0)
(-0.1117456113564033 0 0)
(-0.111794803346118 0 0)
(-0.1117335985128778 0 0)
(-0.1115373437367725 0 0)
(-0.1110195276842801 0 0)
(-0.1099958407607908 0 0)
(-0.1082310427542443 0 0)
(-0.1054640599844021 0 0)
(-0.1014176768679753 0 0)
(-0.09581989019981858 0 0)
(-0.08842784480104102 0 0)
(-0.07905549126365105 0 0)
(-0.06760377997780685 0 0)
(-0.05408215796495994 0 0)
(-0.03860550864197691 0 0)
(-0.02136231401881168 0 0)
(-0.002565268694439827 0 0)
(0.0175925682986178 0 0)
(0.03891657662708766 0 0)
(0.06096745257840448 0 0)
(0.08233715184613204 0 0)
(0.09965223851680986 0 0)
(0.1089473899935978 0 0)
(0.1112384498062735 0 0)
(0.1113788441998678 0 0)
(0.11136488019525 0 0)
(0.1112130692896289 0 0)
(0.1108188582969473 0 0)
(0.1099874593738026 0 0)
(0.1085067815699593 0 0)
(0.1061282879420156 0 0)
(0.1025814378730153 0 0)
(0.09758549790956629 0 0)
(0.09087126296550557 0 0)
(0.08220857169951638 0 0)
(0.07143166297094702 0 0)
(0.05845702265388551 0 0)
(0.04329094825745476 0 0)
(0.02601790529449029 0 0)
(0.006763571258473391 0 0)
(-0.01433723393809017 0 0)
(-0.03706973853719421 0 0)
(-0.06077672811781671 0 0)
(-0.08346891841548182 0 0)
(-0.1009431280877073 0 0)
(-0.1093363880532676 0 0)
(-0.1110544449949254 0 0)
(-0.111131316958609 0 0)
(-0.111084635930919 0 0)
(-0.110928600841458 0 0)
(-0.1104970854567506 0 0)
(-0.1096284731356049 0 0)
(-0.1081133216421985 0 0)
(-0.1057174325960123 0 0)
(-0.1021874193321482 0 0)
(-0.09726594196954781 0 0)
(-0.09070881522062849 0 0)
(-0.08230637610511726 0 0)
(-0.07190854872595023 0 0)
(-0.05944436125441871 0 0)
(-0.04492403337636432 0 0)
(-0.02842165253335385 0 0)
(-0.01004609617496126 0 0)
(0.01008500982863311 0 0)
(0.03181763888651077 0 0)
(0.05473079424855106 0 0)
(0.07743718141439811 0 0)
(0.09650959992720937 0 0)
(0.1074593268927382 0 0)
(0.1105005322842173 0 0)
(0.1107421664639424 0 0)
(0.1107367625213136 0 0)
(0.1106199143014653 0 0)
(0.1103036643358346 0 0)
(0.1096131350401419 0 0)
(0.10836078063532 0 0)
(0.1063235727935152 0 0)
(0.1032547757289055 0 0)
(0.09889115241735036 0 0)
(0.09296858238238988 0 0)
(0.08524207114632802 0 0)
(0.07550457032012835 0 0)
(0.06360224344681717 0 0)
(0.04944502865013277 0 0)
(0.03300451175911537 0 0)
(0.0142936479950812 0 0)
(-0.006645962352638474 0 0)
(-0.02966639438725609 0 0)
(-0.0541754578321573 0 0)
(-0.07828163832061276 0 0)
(-0.09774599588205186 0 0)
(-0.1079468724766633 0 0)
(-0.1103658191317328 0 0)
(-0.1105121126658487 0 0)
(-0.1104783161646589 0 0)
(-0.1103604566905354 0 0)
(-0.110007617245737 0 0)
(-0.1092764569541621 0 0)
(-0.107977497547664 0 0)
(-0.1058984374358809 0 0)
(-0.1028066778326019 0 0)
(-0.09846026904854024 0 0)
(-0.09261982515982459 0 0)
(-0.08506481432951339 0 0)
(-0.07561363071530718 0 0)
(-0.06413968745080301 0 0)
(-0.0505753947271385 0 0)
(-0.03490427646368244 0 0)
(-0.01714591796052447 0 0)
(0.002658240446802277 0 0)
(0.02441657219293264 0 0)
(0.04778273428854608 0 0)
(0.0715179265358855 0 0)
(0.09237260773480936 0 0)
(0.1054486185642064 0 0)
(0.1096929963101776 0 0)
(0.1101420658494487 0 0)
(0.1101464562336559 0 0)
(0.1100600816583652 0 0)
(0.1098131001056867 0 0)
(0.109245714082886 0 0)
(0.1081904099310089 0 0)
(0.1064448172403517 0 0)
(0.1037826328102971 0 0)
(0.09995759963872682 0 0)
(0.09471474863500988 0 0)
(0.0878043798669324 0 0)
(0.07899529910967507 0 0)
(0.06808726888584821 0 0)
(0.05492226089856397 0 0)
(0.03938709348368742 0 0)
(0.02140334313430396 0 0)
(0.0009266832988395596 0 0)
(-0.02197800776534263 0 0)
(-0.04684287198196433 0 0)
(-0.07202273510425913 0 0)
(-0.09351771409086033 0 0)
(-0.1060532743790258 0 0)
(-0.1096189947090049 0 0)
(-0.1099204961992666 0 0)
(-0.1098981660174431 0 0)
(-0.1098149649888755 0 0)
(-0.1095334132451421 0 0)
(-0.1089258743679626 0 0)
(-0.1078182912923791 0 0)
(-0.1060162770315825 0 0)
(-0.10330476255859 0 0)
(-0.09945613130654103 0 0)
(-0.09423842968918836 0 0)
(-0.08742787080225686 0 0)
(-0.07882456078489913 0 0)
(-0.06826495242296295 0 0)
(-0.05562625372048915 0 0)
(-0.04082460569845055 0 0)
(-0.02380887530701893 0 0)
(-0.004553073515643285 0 0)
(0.01691861627430561 0 0)
(0.04036050442750742 0 0)
(0.06475581611110198 0 0)
(0.08722257552996719 0 0)
(0.1027262527689456 0 0)
(0.10870828135297 0 0)
(0.109560631550845 0 0)
(0.1095801326946156 0 0)
(0.1095201433069844 0 0)
(0.1093339840567843 0 0)
(0.108874772092022 0 0)
(0.1079920757040363 0 0)
(0.1065002146738179 0 0)
(0.1041901895969943 0 0)
(0.1008312729931958 0 0)
(0.09617919278320572 0 0)
(0.08998546428747667 0 0)
(0.08200633096707674 0 0)
(0.0720128272047842 0 0)
(0.05980144376600877 0 0)
(0.04519845466896243 0 0)
(0.0280556836585603 0 0)
(0.008256783278019351 0 0)
(-0.01421590656639486 0 0)
(-0.03904049664854366 0 0)
(-0.06489257350328929 0 0)
(-0.08823249510688205 0 0)
(-0.1034547633433184 0 0)
(-0.108720322063307 0 0)
(-0.1093423035502085 0 0)
(-0.1093346954389076 0 0)
(-0.1092816295849043 0 0)
(-0.1090631366765986 0 0)
(-0.1085666552788119 0 0)
(-0.1076301655098833 0 0)
(-0.1060741605432663 0 0)
(-0.1036982465562556 0 0)
(-0.1002875135904816 0 0)
(-0.09561828740357807 0 0)
(-0.08946794166957298 0 0)
(-0.08162698824398468 0 0)
(-0.07190826103460214 0 0)
(-0.06015128595363078 0 0)
(-0.04622425926131813 0 0)
(-0.03002278957802148 0 0)
(-0.01146541080058021 0 0)
(0.009486063571075261 0 0)
(0.0326891361611659 0 0)
(0.05737068088294799 0 0)
(0.08112780399893478 0 0)
(0.09912624577713358 0 0)
(0.1073938931480931 0 0)
(0.1089676342931073 0 0)
(0.1090314103696567 0 0)
(0.1089920205895012 0 0)
(0.1088583402926247 0 0)
(0.1084935001682157 0 0)
(0.1077627576027192 0 0)
(0.1064940603168106 0 0)
(0.1044931447049836 0 0)
(0.1015432323041011 0 0)
(0.09741104898083496 0 0)
(0.09185266480186871 0 0)
(0.08461940556443547 0 0)
(0.07546607505749302 0 0)
(0.06416029680472612 0 0)
(0.05048675366833885 0 0)
(0.03424629338351614 0 0)
(0.0152659459539979 0 0)
(-0.006544880318870954 0 0)
(-0.03100601152758589 0 0)
(-0.05712539668779723 0 0)
(-0.0819513126007335 0 0)
(-0.09996472042929411 0 0)
(-0.1075259285924677 0 0)
(-0.1087560350510383 0 0)
(-0.108784036376793 0 0)
(-0.1087545169151177 0 0)
(-0.1085903938414457 0 0)
(-0.1081926566497385 0 0)
(-0.1074092968165006 0 0)
(-0.1060735317570381 0 0)
(-0.1039973066486307 0 0)
(-0.1009768437779708 0 0)
(-0.09679679438871167 0 0)
(-0.09123816341952885 0 0)
(-0.084087395285283 0 0)
(-0.07514292416562283 0 0)
(-0.06421950963702222 0 0)
(-0.05115243438569857 0 0)
(-0.03579847873088243 0 0)
(-0.01803262338802551 0 0)
(0.002235855661566399 0 0)
(0.02495666170271224 0 0)
(0.04958606794940441 0 0)
(0.07423060907049069 0 0)
(0.09454934643701413 0 0)
(0.1055519222388398 0 0)
(0.1083086496309449 0 0)
(0.1084970456239155 0 0)
(0.1084717767354329 0 0)
(0.1083815851650463 0 0)
(0.1080982548016847 0 0)
(0.1075011116652855 0 0)
(0.1064296346648319 0 0)
(0.1047024586982321 0 0)
(0.1021153152930184 0 0)
(0.0984456662204105 0 0)
(0.09345595628769361 0 0)
(0.08689756490666929 0 0)
(0.07851762036201512 0 0)
(0.06806660556319982 0 0)
(0.05530169915998454 0 0)
(0.03998794321788691 0 0)
(0.02191002127246557 0 0)
(0.0009174156949133431 0 0)
(-0.02293359234945567 0 0)
(-0.04895467648721427 0 0)
(-0.07481437311277547 0 0)
(-0.09545637816001938 0 0)
(-0.1058385330954079 0 0)
(-0.1081228772286283 0 0)
(-0.108244041613008 0 0)
(-0.1082308953543894 0 0)
(-0.1081127768625843 0 0)
(-0.1078020886935788 0 0)
(-0.1071548528618606 0 0)
(-0.1060158754436069 0 0)
(-0.1042077226696039 0 0)
(-0.1015368660325837 0 0)
(-0.09779676519702331 0 0)
(-0.09277412813558167 0 0)
(-0.08625518684678585 0 0)
(-0.07803008709312363 0 0)
(-0.06789716735374031 0 0)
(-0.05566806970966752 0 0)
(-0.04116941872914744 0 0)
(-0.02424126890568767 0 0)
(-0.004752013216812194 0 0)
(0.0173213749468012 0 0)
(0.04162691295140021 0 0)
(0.06675345552483912 0 0)
(0.08901731922743428 0 0)
(0.1029785999998643 0 0)
(0.1074699674455486 0 0)
(0.1079366499180414 0 0)
(0.1079101990492437 0 0)
(0.1078355461103059 0 0)
(0.1076272082974904 0 0)
(0.1071706145400684 0 0)
(0.1063098006018324 0 0)
(0.1048677818555756 0 0)
(0.102644437229604 0 0)
(0.09942059665738189 0 0)
(0.09496102427209731 0 0)
(0.08901790334729336 0 0)
(0.08133481521403622 0 0)
(0.07165067220831366 0 0)
(0.05970349667827967 0 0)
(0.0452356776026336 0 0)
(0.02800441427215056 0 0)
(0.007815673495938433 0 0)
(-0.01535598455890724 0 0)
(-0.04104415735802432 0 0)
(-0.06747826149295007 0 0)
(-0.09018820042509099 0 0)
(-0.1035345846532701 0 0)
(-0.1071347553964645 0 0)
(-0.1073547896049549 0 0)
(-0.1071416586710718 0 0)
(-0.1067181920907362 0 0)
(-0.1062983588560216 0 0)
(-0.1058304107427554 0 0)
(-0.105142789195866 0 0)
(-0.1040037310678832 0 0)
(-0.1021488307929568 0 0)
(-0.09928324137447699 0 0)
(-0.09509693057762775 0 0)
(-0.08928842993506329 0 0)
(-0.0815830557053724 0 0)
(-0.0717436623232765 0 0)
(-0.05958207291359973 0 0)
(-0.04497242043225112 0 0)
(-0.02784192871427586 0 0)
(-0.008140502183674601 0 0)
(0.01411321999671717 0 0)
(0.03864716374529862 0 0)
(0.06437321423840511 0 0)
(0.08795735923716075 0 0)
(0.1039359497854684 0 0)
(0.1099532530930247 0 0)
(0.1101134903316901 0 0)
(0.1081467768835197 0 0)
(0.104861738521508 0 0)
(0.1005507975111989 0 0)
(0.09545315027785885 0 0)
(0.0896945463093247 0 0)
(0.08334181387733532 0 0)
(0.0765381679369532 0 0)
(0.06922287295712516 0 0)
(0.06079056107389533 0 0)
(0.05264773659801176 0 0)
(0.04393918905317498 0 0)
(0.03440180927088862 0 0)
(0.02377682788931765 0 0)
(0.01182219901560512 0 0)
(-0.001793258549602905 0 0)
(-0.01758389502479655 0 0)
(-0.03610377728998618 0 0)
(-0.05734982865624938 0 0)
(-0.08001526665361171 0 0)
(-0.1002851579790175 0 0)
(-0.1130287865243054 0 0)
(-0.117840411498337 0 0)
(-0.1188253874367134 0 0)
(-0.1184446413410774 0 0)
(-0.1170788089118097 0 0)
(-0.1152784529046507 0 0)
(-0.1138940949360481 0 0)
(-0.1126202128756457 0 0)
(-0.1111751760706607 0 0)
(-0.1092742102300742 0 0)
(-0.1065955213572645 0 0)
(-0.1028347145236154 0 0)
(-0.09768728618091416 0 0)
(-0.09083690412360738 0 0)
(-0.08199042049245962 0 0)
(-0.07091944738078174 0 0)
(-0.05746339272361749 0 0)
(-0.04148820752979889 0 0)
(-0.02285516492428433 0 0)
(-0.001533611237814719 0 0)
(0.02206185333382236 0 0)
(0.04674820200419968 0 0)
(0.07036456219750935 0 0)
(0.08902499835798565 0 0)
(0.09993833527530253 0 0)
(0.1025044534606443 0 0)
(0.1016903015557056 0 0)
(0.09945256017215573 0 0)
(0.09600373394557332 0 0)
(0.0915339036295633 0 0)
(0.08615383566229183 0 0)
(0.08003567340225737 0 0)
(0.0733979131791906 0 0)
(0.0663768951069911 0 0)
(0.05814848485490923 0 0)
(0.0500623851196382 0 0)
(0.04146673121797718 0 0)
(0.03202047193238883 0 0)
(0.02145305759663098 0 0)
(0.009573298771446243 0 0)
(-0.003897118163363237 0 0)
(-0.01936460568548958 0 0)
(-0.03727465185049546 0 0)
(-0.0576602604087552 0 0)
(-0.07966106379690802 0 0)
(-0.1009075504471273 0 0)
(-0.1168960025569141 0 0)
(-0.1247032206140293 0 0)
(-0.1269260537904694 0 0)
(-0.1271231640773432 0 0)
(-0.1263723234545132 0 0)
(-0.1244283561492814 0 0)
(-0.1228892915673954 0 0)
(-0.1212949624801567 0 0)
(-0.1195991895952513 0 0)
(-0.1175622544504768 0 0)
(-0.1149045136674386 0 0)
(-0.1113329831769911 0 0)
(-0.1065340027792879 0 0)
(-0.1001790951715532 0 0)
(-0.09196237721894412 0 0)
(-0.08164012787375277 0 0)
(-0.06904710834726706 0 0)
(-0.05408228646230483 0 0)
(-0.03667147973657556 0 0)
(-0.01678773069845676 0 0)
(0.005311475426121382 0 0)
(0.02881982887644877 0 0)
(0.05196665609542475 0 0)
(0.07216584853056249 0 0)
(0.08610494682387645 0 0)
(0.09121313010528363 0 0)
(0.09143362467518795 0 0)
(0.09007093037741211 0 0)
(0.08754486070330203 0 0)
(0.08403156356984844 0 0)
(0.07957703714609281 0 0)
(0.07423928667999809 0 0)
(0.06815125452434385 0 0)
(0.06143940048832301 0 0)
(0.05380782275425099 0 0)
(0.0457733479899612 0 0)
(0.03726483172507859 0 0)
(0.02790829492200764 0 0)
(0.01748076653003971 0 0)
(0.005729720529363458 0 0)
(-0.007655624478015715 0 0)
(-0.02292616436707021 0 0)
(-0.04030322876024422 0 0)
(-0.05991874107727155 0 0)
(-0.08127763687657365 0 0)
(-0.1028212775093383 0 0)
(-0.1211470285940849 0 0)
(-0.1319788651179185 0 0)
(-0.1356460492636175 0 0)
(-0.1361956883008886 0 0)
(-0.1355518985722284 0 0)
(-0.1338898173065551 0 0)
(-0.1319667141848636 0 0)
(-0.1301898045551914 0 0)
(-0.1282839180249695 0 0)
(-0.1261569730890374 0 0)
(-0.1235396145604051 0 0)
(-0.1201518707050144 0 0)
(-0.1156573435965188 0 0)
(-0.1097041395235597 0 0)
(-0.1019675511895076 0 0)
(-0.09219433466024866 0 0)
(-0.08022645536657884 0 0)
(-0.06600427923142296 0 0)
(-0.04953803717930229 0 0)
(-0.03087162313885254 0 0)
(-0.01018900796418611 0 0)
(0.01196203620826222 0 0)
(0.03424004250249296 0 0)
(0.05467372521031507 0 0)
(0.07026585656533434 0 0)
(0.07760126574114803 0 0)
(0.07883227377288368 0 0)
(0.07800526321469904 0 0)
(0.07601360499342133 0 0)
(0.07313363030325633 0 0)
(0.06947716929056064 0 0)
(0.06504052678487524 0 0)
(0.05985747895858954 0 0)
(0.05396837314857545 0 0)
(0.04719020301852504 0 0)
(0.03984399935039187 0 0)
(0.03163856108294264 0 0)
(0.02246746904110253 0 0)
(0.01217657305730297 0 0)
(0.0005528337339837442 0 0)
(-0.01264805786717076 0 0)
(-0.02768242106144108 0 0)
(-0.044737626583759 0 0)
(-0.06387938244154563 0 0)
(-0.08476325442096042 0 0)
(-0.1062503254934748 0 0)
(-0.1259447761472855 0 0)
(-0.1395332745034608 0 0)
(-0.1449546636259073 0 0)
(-0.145908107223386 0 0)
(-0.1453289090626394 0 0)
(-0.1437797141151438 0 0)
(-0.1412203162620135 0 0)
(-0.1390241879752749 0 0)
(-0.1367651445167234 0 0)
(-0.1344448124759115 0 0)
(-0.1318750316621276 0 0)
(-0.128776217023463 0 0)
(-0.1247684081974736 0 0)
(-0.1194149928405169 0 0)
(-0.1122983182079012 0 0)
(-0.1031012367033395 0 0)
(-0.09165797664377778 0 0)
(-0.07795118983843909 0 0)
(-0.06205568768776566 0 0)
(-0.0440787011326279 0 0)
(-0.02426092166299816 0 0)
(-0.003124628179709436 0 0)
(0.01821132782323624 0 0)
(0.03821348497545046 0 0)
(0.05463674265865006 0 0)
(0.06341186936998668 0 0)
(0.06522025975991164 0 0)
(0.06433699717534319 0 0)
(0.06209981192045996 0 0)
(0.0591630249175029 0 0)
(0.05590998515620804 0 0)
(0.05199087878672146 0 0)
(0.04767571664563455 0 0)
(0.04276024833262094 0 0)
(0.03718240872582052 0 0)
(0.03084428192182022 0 0)
(0.02360832780436529 0 0)
(0.01527470299014693 0 0)
(0.005610500826063856 0 0)
(-0.005622966303833323 0 0)
(-0.01863353239162388 0 0)
(-0.03355580021675088 0 0)
(-0.05043321143090196 0 0)
(-0.06925368701821799 0 0)
(-0.08983654033474074 0 0)
(-0.1111998041036231 0 0)
(-0.1315361470634952 0 0)
(-0.1475530934407621 0 0)
(-0.1553036811905463 0 0)
(-0.1568320421908436 0 0)
(-0.1561457066592233 0 0)
(-0.1541709003445411 0 0)
(-0.1516725270688129 0 0)
(-0.14828472134076 0 0)
(-0.1456151501340124 0 0)
(-0.1427948770217218 0 0)
(-0.1399633494924505 0 0)
(-0.1368924253437698 0 0)
(-0.1332742934492213 0 0)
(-0.1286516263376266 0 0)
(-0.1225041956033019 0 0)
(-0.1143545332013895 0 0)
(-0.1038591122446131 0 0)
(-0.09086176700526057 0 0)
(-0.07541534777260656 0 0)
(-0.05775094846336763 0 0)
(-0.03823511781112919 0 0)
(-0.01746623046625542 0 0)
(0.003681893933783876 0 0)
(0.02357940752605916 0 0)
(0.04046999433584179 0 0)
(0.05034430820865526 0 0)
(0.05242886881306795 0 0)
(0.05090474474270674 0 0)
(0.04750179414643141 0 0)
(0.04337660673376333 0 0)
(0.0391881943924174 0 0)
(0.03520991463377453 0 0)
(0.03090760226377493 0 0)
(0.02678646065159387 0 0)
(0.0221150305820179 0 0)
(0.01695503502351283 0 0)
(0.01100989002551536 0 0)
(0.004014514384108938 0 0)
(-0.004388162400044559 0 0)
(-0.01453741072075335 0 0)
(-0.02671806552920639 0 0)
(-0.04112886937671674 0 0)
(-0.05784707540997611 0 0)
(-0.07672103687657433 0 0)
(-0.09734054654231013 0 0)
(-0.1188072337533318 0 0)
(-0.1395131541358978 0 0)
(-0.1572884079127761 0 0)
(-0.1678126240671398 0 0)
(-0.1703118295646148 0 0)
(-0.1692516213700726 0 0)
(-0.166518140070218 0 0)
(-0.1629644560387319 0 0)
(-0.1594701967968896 0 0)
(-0.155458573712257 0 0)
(-0.1522549874733382 0 0)
(-0.1489219775358497 0 0)
(-0.1454981525020224 0 0)
(-0.1417484332557186 0 0)
(-0.1373876960716314 0 0)
(-0.1319860403493634 0 0)
(-0.1250009661555222 0 0)
(-0.1158902339904141 0 0)
(-0.1042499306000756 0 0)
(-0.08992350708665317 0 0)
(-0.07304119904181153 0 0)
(-0.05396114942290637 0 0)
(-0.03325672499249969 0 0)
(-0.01182739012929757 0 0)
(0.008658699486744803 0 0)
(0.02631760689412226 0 0)
(0.03865732267958392 0 0)
(0.04204991905768415 0 0)
(0.03977217896945532 0 0)
(0.03478744311944442 0 0)
(0.02847083802540459 0 0)
(0.02205441317071771 0 0)
(0.01592340440343946 0 0)
(0.01017046922102873 0 0)
(0.004222945118339105 0 0)
(-0.00106207379000424 0 0)
(-0.006347300283286343 0 0)
(-0.01195810168075512 0 0)
(-0.01816667349558046 0 0)
(-0.02541930264491963 0 0)
(-0.03420665984878016 0 0)
(-0.04505142292315907 0 0)
(-0.05836855824199043 0 0)
(-0.07434360881625854 0 0)
(-0.09291164915014703 0 0)
(-0.1137205128612938 0 0)
(-0.1359420122327793 0 0)
(-0.1575079356298595 0 0)
(-0.1761794313088433 0 0)
(-0.1894178798255722 0 0)
(-0.1933749398622556 0 0)
(-0.1914921420140678 0 0)
(-0.1870142054689448 0 0)
(-0.1813828774855155 0 0)
(-0.1758958587393447 0 0)
(-0.1710090047408361 0 0)
(-0.1659174989230523 0 0)
(-0.1621378024866905 0 0)
(-0.1582895269448234 0 0)
(-0.1541242758713762 0 0)
(-0.1495456499998429 0 0)
(-0.1442543067699653 0 0)
(-0.1379360400433524 0 0)
(-0.130083632814478 0 0)
(-0.1200844359437918 0 0)
(-0.1073967385364624 0 0)
(-0.09180213812463904 0 0)
(-0.07351122523214344 0 0)
(-0.05310105511862673 0 0)
(-0.03165488906654521 0 0)
(-0.01086889650704471 0 0)
(0.007043401860783213 0 0)
(0.02095113270941016 0 0)
(0.02558309503458534 0 0)
(0.02285440467247192 0 0)
(0.01678603506195675 0 0)
(0.008667942192307565 0 0)
(0.0002401106790143561 0 0)
(-0.007832153425241512 0 0)
(-0.01560452622465855 0 0)
(-0.02345276823760219 0 0)
(-0.03127888900896413 0 0)
(-0.03965749389933519 0 0)
(-0.04824531053804375 0 0)
(-0.05752653035851188 0 0)
(-0.06757094886924295 0 0)
(-0.07866338707512244 0 0)
(-0.09090182238704089 0 0)
(-0.1044021924377718 0 0)
(-0.1193123329349871 0 0)
(-0.135822501309392 0 0)
(-0.1540537630069848 0 0)
(-0.1737982136280275 0 0)
(-0.1937900323978739 0 0)
(-0.2120901818208363 0 0)
(-0.2264880193913165 0 0)
(-0.2323902549541748 0 0)
(-0.2313130099584405 0 0)
(-0.2263176035558336 0 0)
(-0.2182397800264376 0 0)
(-0.2085350926399282 0 0)
(-0.198707573032755 0 0)
(-0.1899388791770692 0 0)
(-0.1826505124500967 0 0)
(-0.176172967559539 0 0)
(-0.1717567686326085 0 0)
(-0.1671154188284709 0 0)
(-0.1615652610923029 0 0)
(-0.1550429890438655 0 0)
(-0.1473038763322694 0 0)
(-0.1381534655048587 0 0)
(-0.1272423303530538 0 0)
(-0.1141544655690497 0 0)
(-0.09859560010830469 0 0)
(-0.08056258704331706 0 0)
(-0.05926092353725412 0 0)
(-0.03684463955791933 0 0)
(-0.009988629641270019 0 0)
)
;

boundaryField
{
    inlet
    {
        type            zeroGradient;
    }
    outlet
    {
        type            characteristicPressureInletOutletVelocity;
        UName           U;
        pName           p;
        TName           T;
        phiName         phi;
        rhoName         rho;
        U               (0 0 0);
        p               101325;
        T               300;
        value           uniform (-0.009988629641270019 0 0);
    }
    frontAndBack
    {
        type            empty;
    }
}


// ************************************************************************* //
