/*--------------------------------*- C++ -*----------------------------------*\
| =========                 |                                                 |
| \\      /  F ield         | OpenFOAM: The Open Source CFD Toolbox           |
|  \\    /   O peration     | Version:  v2012                                 |
|   \\  /    A nd           | Website:  www.openfoam.com                      |
|    \\/     M anipulation  |                                                 |
\*---------------------------------------------------------------------------*/
FoamFile
{
    version     2.0;
    format      ascii;
    class       volVectorField;
    location    "0.01";
    object      UMean;
}
// * * * * * * * * * * * * * * * * * * * * * * * * * * * * * * * * * * * * * //

dimensions      [0 1 -1 0 0 0 0];


internalField   nonuniform List<vector> 
1000
(
(-3.193201594066066e-05 0 0)
(4.056673484826474e-06 0 0)
(2.476085110681427e-05 0 0)
(6.419167510084469e-05 0 0)
(0.0001105024816414224 0 0)
(0.0001615052905339724 0 0)
(0.0002255951354877793 0 0)
(0.0002944734610194637 0 0)
(0.0003740135405291466 0 0)
(0.0004578004798746496 0 0)
(0.0005448414514166528 0 0)
(0.0006315105068574161 0 0)
(0.0007177948110121146 0 0)
(0.0008029892498102899 0 0)
(0.0008857897758969763 0 0)
(0.0009644743772116863 0 0)
(0.001037185771222779 0 0)
(0.001102507739035784 0 0)
(0.001159201470818604 0 0)
(0.00120632074723675 0 0)
(0.001243107752083223 0 0)
(0.001268747558177805 0 0)
(0.001282962267945401 0 0)
(0.001285200853306165 0 0)
(0.001275684306946747 0 0)
(0.001254304324762989 0 0)
(0.001221768410092039 0 0)
(0.001178391551806117 0 0)
(0.001125107847297382 0 0)
(0.00106221177979455 0 0)
(0.0009905312127514976 0 0)
(0.0009111353356289234 0 0)
(0.0008272584973700061 0 0)
(0.000741996711984664 0 0)
(0.000656834316719512 0 0)
(0.0005718434931161977 0 0)
(0.0004876711041677013 0 0)
(0.0004051906029007707 0 0)
(0.0003258599985502799 0 0)
(0.0002513370433085334 0 0)
(0.0001834837748242429 0 0)
(0.0001239186915789822 0 0)
(7.401483451162318e-05 0 0)
(3.469799865881138e-05 0 0)
(6.641315066173866e-06 0 0)
(-9.761030128302253e-06 0 0)
(-1.426083486458976e-05 0 0)
(-6.824196660107429e-06 0 0)
(1.242121014955813e-05 0 0)
(4.313632461189827e-05 0 0)
(8.490226538488676e-05 0 0)
(0.0001373213497386058 0 0)
(0.0002000593287559785 0 0)
(0.000272442648827266 0 0)
(0.0003523808180177218 0 0)
(0.0004360728526851555 0 0)
(0.0005205065583857354 0 0)
(0.0006048934104042306 0 0)
(0.0006891083202428401 0 0)
(0.0007725412337851731 0 0)
(0.0008546149463066409 0 0)
(0.0009339200798963352 0 0)
(0.001009182718720667 0 0)
(0.001078427293058525 0 0)
(0.001140136597693885 0 0)
(0.001192473403162462 0 0)
(0.001234427935197537 0 0)
(0.00126489702715307 0 0)
(0.001283651602142578 0 0)
(0.001290267305167993 0 0)
(0.001285031598722376 0 0)
(0.001267893712314155 0 0)
(0.001239367048573258 0 0)
(0.001199452963889261 0 0)
(0.001148542433292638 0 0)
(0.00108657482489936 0 0)
(0.00101460181943871 0 0)
(0.0009349101145239469 0 0)
(0.0008518396069283361 0 0)
(0.0007680180604524461 0 0)
(0.0006843333636751591 0 0)
(0.0006007927759841871 0 0)
(0.0005178496279584393 0 0)
(0.0004361326860895064 0 0)
(0.0003566608417351417 0 0)
(0.0002807375156284322 0 0)
(0.0002099838237414829 0 0)
(0.0001461159464750676 0 0)
(9.088284489905107e-05 0 0)
(4.576695152610609e-05 0 0)
(1.196746105422485e-05 0 0)
(-9.803689738415797e-06 0 0)
(-1.918602800038676e-05 0 0)
(-1.621251617173842e-05 0 0)
(-1.05442544516827e-06 0 0)
(2.600873654132999e-05 0 0)
(6.483309942531479e-05 0 0)
(0.0001153211512026692 0 0)
(0.0001773419677621202 0 0)
(0.0002497960939073644 0 0)
(0.0003296395858196582 0 0)
(0.0004124504412031343 0 0)
(0.0004957157437643895 0 0)
(0.0005788992567036851 0 0)
(0.0006619637244798224 0 0)
(0.0007443810701024629 0 0)
(0.0008257663093536279 0 0)
(0.000904991039620149 0 0)
(0.0009810815418451889 0 0)
(0.001052338793041739 0 0)
(0.001117339111873982 0 0)
(0.001174155144744798 0 0)
(0.001221433848767883 0 0)
(0.001257637231500512 0 0)
(0.001282078631982591 0 0)
(0.001294035321780767 0 0)
(0.001293619310869793 0 0)
(0.001280745437058803 0 0)
(0.001255866968631676 0 0)
(0.001218905252795231 0 0)
(0.001170109796815318 0 0)
(0.001109386792194893 0 0)
(0.001038028567368598 0 0)
(0.0009589231586816293 0 0)
(0.0008767454964968071 0 0)
(0.0007939516095467924 0 0)
(0.0007112888475543973 0 0)
(0.0006287172856756623 0 0)
(0.0005466413732277001 0 0)
(0.0004654985697588159 0 0)
(0.0003861434682183253 0 0)
(0.0003095782764262379 0 0)
(0.0002372152713572934 0 0)
(0.0001705506256660567 0 0)
(0.0001113383125168447 0 0)
(6.117197252243623e-05 0 0)
(2.161874530361746e-05 0 0)
(-6.218987553582481e-06 0 0)
(-2.150117196531706e-05 0 0)
(-2.394607737414907e-05 0 0)
(-1.344339799413749e-05 0 0)
(9.823661384431192e-06 0 0)
(4.583722925160587e-05 0 0)
(9.447995655298301e-05 0 0)
(0.0001555533037676674 0 0)
(0.0002275411204319724 0 0)
(0.0003068566175655276 0 0)
(0.0003888392278946997 0 0)
(0.0004712086009144141 0 0)
(0.0005534866766211414 0 0)
(0.0006356861676563199 0 0)
(0.000717341908694013 0 0)
(0.0007981761809909476 0 0)
(0.0008772401479569137 0 0)
(0.0009537570113223461 0 0)
(0.001026256042840929 0 0)
(0.001093489035303279 0 0)
(0.001153630834701929 0 0)
(0.001205277449018041 0 0)
(0.001246703756344187 0 0)
(0.001276880627132884 0 0)
(0.001294697383140148 0 0)
(0.001299862263799525 0 0)
(0.001291977296139901 0 0)
(0.001271271804633478 0 0)
(0.001237559313572167 0 0)
(0.001191060124631606 0 0)
(0.001131793389168689 0 0)
(0.001061314259349127 0 0)
(0.0009829296237665376 0 0)
(0.0009015359623885234 0 0)
(0.0008195567893415237 0 0)
(0.0007376990896866418 0 0)
(0.0006558961372563488 0 0)
(0.0005745048827052685 0 0)
(0.0004938472875066441 0 0)
(0.0004146550739818082 0 0)
(0.0003377272304394179 0 0)
(0.0002642978724642232 0 0)
(0.000195653156718336 0 0)
(0.0001334368423849467 0 0)
(7.91952610859335e-05 0 0)
(3.462001122306533e-05 0 0)
(1.052062270564945e-06 0 0)
(-2.027835464806392e-05 0 0)
(-2.86785132273336e-05 0 0)
(-2.359757667153439e-05 0 0)
(-4.899663767215094e-06 0 0)
(2.76389544201247e-05 0 0)
(7.39729624622386e-05 0 0)
(0.0001337978984145811 0 0)
(0.0002051705655649183 0 0)
(0.0002839576526851718 0 0)
(0.0003652489718798894 0 0)
(0.0004468889333895695 0 0)
(0.0005284399807552905 0 0)
(0.0006099393106241874 0 0)
(0.0006909734630741542 0 0)
(0.0007713417072758686 0 0)
(0.0008502235406820677 0 0)
(0.0009269878679045338 0 0)
(0.001000348484764286 0 0)
(0.00106921929826479 0 0)
(0.001131921000662169 0 0)
(0.001187099401222068 0 0)
(0.001232993990273895 0 0)
(0.001268394580916582 0 0)
(0.001291908874161768 0 0)
(0.00130286880821012 0 0)
(0.001300496393738686 0 0)
(0.001284656827221992 0 0)
(0.001254911068730669 0 0)
(0.001211325376089699 0 0)
(0.00115394104720947 0 0)
(0.001084545485327762 0 0)
(0.001006884230873742 0 0)
(0.0009261565548241216 0 0)
(0.0008448515211212499 0 0)
(0.0007636583369485334 0 0)
(0.0006824930357998817 0 0)
(0.0006016761571138074 0 0)
(0.000521446867899284 0 0)
(0.00044244094675017 0 0)
(0.0003653068726216423 0 0)
(0.0002911272141653587 0 0)
(0.0002210108209168547 0 0)
(0.0001564625163064655 0 0)
(9.892774737921586e-05 0 0)
(5.010566664551614e-05 0 0)
(1.144084200530828e-05 0 0)
(-1.55856268417941e-05 0 0)
(-2.993718955054334e-05 0 0)
(-3.063907791339933e-05 0 0)
(-1.713924083754968e-05 0 0)
(1.116100093981921e-05 0 0)
(5.444798152935591e-05 0 0)
(0.0001124496475046943 0 0)
(0.0001828955645907723 0 0)
(0.0002610928389099724 0 0)
(0.0003417883916577445 0 0)
(0.0004228234992366229 0 0)
(0.0005037728526895676 0 0)
(0.0005846896604882705 0 0)
(0.0006652067101456288 0 0)
(0.0007451724101157714 0 0)
(0.0008238718742866413 0 0)
(0.0009007827469730716 0 0)
(0.0009747737127185609 0 0)
(0.001044896355818512 0 0)
(0.001109622727567558 0 0)
(0.001167684773400463 0 0)
(0.001217361866538226 0 0)
(0.001257362403068231 0 0)
(0.001286133386018036 0 0)
(0.001302717299848736 0 0)
(0.001305997612780403 0 0)
(0.001295452958879456 0 0)
(0.001270311087674578 0 0)
(0.001230353811778158 0 0)
(0.001175506913006948 0 0)
(0.001107637696985861 0 0)
(0.001030852208861963 0 0)
(0.0009507430719267363 0 0)
(0.0008700169656471179 0 0)
(0.0007893893453035883 0 0)
(0.0007087710059246104 0 0)
(0.0006284488769894487 0 0)
(0.0005486032771014811 0 0)
(0.0004697894198438068 0 0)
(0.0003925460975327278 0 0)
(0.0003178229150657838 0 0)
(0.0002465819803658018 0 0)
(0.000180188672790013 0 0)
(0.000119972839576456 0 0)
(6.757837082132303e-05 0 0)
(2.447704379177398e-05 0 0)
(-7.712852491829168e-06 0 0)
(-2.770770196295533e-05 0 0)
(-3.418618943709622e-05 0 0)
(-2.619391314201401e-05 0 0)
(-2.725876037912107e-06 0 0)
(3.674608069495839e-05 0 0)
(9.213659215187772e-05 0 0)
(0.0001610802298006627 0 0)
(0.0002384710988744138 0 0)
(0.000318602263188752 0 0)
(0.0003991111206067322 0 0)
(0.0004795440341735728 0 0)
(0.0005599586763885614 0 0)
(0.0006400299428532144 0 0)
(0.0007196417388569974 0 0)
(0.0007981677059818557 0 0)
(0.000875163808900286 0 0)
(0.0009496321758141962 0 0)
(0.00102073796181241 0 0)
(0.001087098871966897 0 0)
(0.001147537523921675 0 0)
(0.001200414896317392 0 0)
(0.001244418350541376 0 0)
(0.001277919467312809 0 0)
(0.001299756644233416 0 0)
(0.001308558983890561 0 0)
(0.001303456846401856 0 0)
(0.00128334688708416 0 0)
(0.001247672706666275 0 0)
(0.001196124826343076 0 0)
(0.001130428395987807 0 0)
(0.001054837715060203 0 0)
(0.0009753715311753638 0 0)
(0.0008951643455673551 0 0)
(0.0008150364458614728 0 0)
(0.0007349029638783519 0 0)
(0.0006550183790804784 0 0)
(0.0005755222030384616 0 0)
(0.0004968995256847365 0 0)
(0.0004196060586194204 0 0)
(0.0003444782034245368 0 0)
(0.0002723582734304393 0 0)
(0.0002044791382168664 0 0)
(0.0001420595062725334 0 0)
(8.665685419553718e-05 0 0)
(3.972573886718639e-05 0 0)
(2.940498629164214e-06 0 0)
(-2.225121055971442e-05 0 0)
(-3.428022240528138e-05 0 0)
(-3.185703203017267e-05 0 0)
(-1.361337255937384e-05 0 0)
(2.135233211986064e-05 0 0)
(7.327057023222187e-05 0 0)
(0.000139972868539094 0 0)
(0.0002162118526594638 0 0)
(0.0002957518851494361 0 0)
(0.000375781119060481 0 0)
(0.0004557489196149676 0 0)
(0.0005357102595528867 0 0)
(0.0006153818162984549 0 0)
(0.0006946716107920575 0 0)
(0.0007730278980312837 0 0)
(0.0008500688606354132 0 0)
(0.0009249082046859824 0 0)
(0.0009968044068101823 0 0)
(0.001064506170532767 0 0)
(0.001126925993192489 0 0)
(0.001182521191333024 0 0)
(0.00122999506385706 0 0)
(0.001267700147481173 0 0)
(0.001294345766156677 0 0)
(0.001308385830300146 0 0)
(0.001308676830404075 0 0)
(0.001293833642822902 0 0)
(0.001262969080883567 0 0)
(0.00121546096278654 0 0)
(0.001152682615255694 0 0)
(0.001078741048559038 0 0)
(0.001000018443676732 0 0)
(0.0009202973478778673 0 0)
(0.0008406254363212783 0 0)
(0.000760935992700075 0 0)
(0.0006814523660362003 0 0)
(0.0006022825221342393 0 0)
(0.0005238506001047381 0 0)
(0.0004465474591214259 0 0)
(0.0003711140045626606 0 0)
(0.0002982941109825414 0 0)
(0.0002292002341374711 0 0)
(0.0001649491725507639 0 0)
(0.0001070012340542531 0 0)
(5.676834169784197e-05 0 0)
(1.592744147871892e-05 0 0)
(-1.398078345577699e-05 0 0)
(-3.122690052701714e-05 0 0)
(-3.427457888685354e-05 0 0)
(-2.146710829522776e-05 0 0)
(8.446337300585786e-06 0 0)
(5.608894161117086e-05 0 0)
(0.0001197481831836329 0 0)
(0.0001943739212429986 0 0)
(0.000273229752649332 0 0)
(0.0003528023715213884 0 0)
(0.0004323362044544147 0 0)
(0.0005118731720879242 0 0)
(0.0005911700128522145 0 0)
(0.0006701543046174583 0 0)
(0.0007483392338832504 0 0)
(0.0008253918811497732 0 0)
(0.0009005210672950698 0 0)
(0.0009730629747230073 0 0)
(0.001041881240886962 0 0)
(0.001105972091816305 0 0)
(0.001163890875364182 0 0)
(0.001214377552760204 0 0)
(0.001255803881317277 0 0)
(0.001286808280369941 0 0)
(0.001305737470027787 0 0)
(0.001311251810010293 0 0)
(0.00130175123622892 0 0)
(0.001276060980299357 0 0)
(0.001233224978245469 0 0)
(0.001174116679063356 0 0)
(0.001102390421879053 0 0)
(0.001024606847951051 0 0)
(0.0009453685918409189 0 0)
(0.0008661242279455094 0 0)
(0.0007868517419373866 0 0)
(0.000707747185623726 0 0)
(0.0006288911154350342 0 0)
(0.0005506549997568814 0 0)
(0.0004733771146461422 0 0)
(0.0003977151426435812 0 0)
(0.0003243316845831489 0 0)
(0.0002542337051237267 0 0)
(0.0001884453766743138 0 0)
(0.0001283300609502014 0 0)
(7.524185574972407e-05 0 0)
(3.082631002139875e-05 0 0)
(-3.336443145113288e-06 0 0)
(-2.542941717762785e-05 0 0)
(-3.375190007703676e-05 0 0)
(-2.643868667096201e-05 0 0)
(-1.94522262180681e-06 0 0)
(4.075986370394688e-05 0 0)
(0.0001005860484085577 0 0)
(0.0001730224784734077 0 0)
(0.0002510130699274449 0 0)
(0.0003301293338427467 0 0)
(0.0004092478389341305 0 0)
(0.0004883777036778107 0 0)
(0.0005673122906138833 0 0)
(0.0006459971216866721 0 0)
(0.0007240013236726801 0 0)
(0.0008010344140323643 0 0)
(0.0008763858308634564 0 0)
(0.0009494581928304595 0 0)
(0.001019215354623559 0 0)
(0.001084730198540335 0 0)
(0.001144651460750901 0 0)
(0.001197767822885385 0 0)
(0.001242491979930715 0 0)
(0.00127743492590646 0 0)
(0.001300890060011054 0 0)
(0.001311389706195849 0 0)
(0.001307184703689957 0 0)
(0.001286873014191893 0 0)
(0.00124918543343304 0 0)
(0.001194433921191428 0 0)
(0.001125575130462292 0 0)
(0.001049044299232851 0 0)
(0.0009703245986660087 0 0)
(0.0008914894652961671 0 0)
(0.0008126162291899855 0 0)
(0.0007338788539608344 0 0)
(0.0006553327315332265 0 0)
(0.0005773031803172271 0 0)
(0.0005000827333523651 0 0)
(0.0004242581070765188 0 0)
(0.0003504221957115438 0 0)
(0.0002794893871841858 0 0)
(0.0002124007411981771 0 0)
(0.0001504265043078787 0 0)
(9.485551843476338e-05 0 0)
(4.728178478309398e-05 0 0)
(9.285777807920746e-06 0 0)
(-1.728236115616891e-05 0 0)
(-3.062614412704498e-05 0 0)
(-2.874404182146546e-05 0 0)
(-9.86413208201861e-06 0 0)
(2.741721867168161e-05 0 0)
(8.269238667687472e-05 0 0)
(0.0001522680984048212 0 0)
(0.0002290954182116223 0 0)
(0.0003077252600550484 0 0)
(0.0003864405886463375 0 0)
(0.0004651733129876194 0 0)
(0.0005437502826501481 0 0)
(0.0006221337567718656 0 0)
(0.0006999426529447954 0 0)
(0.0007769244220995321 0 0)
(0.0008524380215205276 0 0)
(0.0009259444645554294 0 0)
(0.0009964946581039222 0 0)
(0.001063231590488036 0 0)
(0.001124891181239851 0 0)
(0.001180316795735064 0 0)
(0.001227974685416971 0 0)
(0.001266478921219943 0 0)
(0.001294108464064877 0 0)
(0.001309322156681477 0 0)
(0.001310278063665971 0 0)
(0.001295407746449416 0 0)
(0.001263178110898197 0 0)
(0.001213355164184762 0 0)
(0.001148053857695671 0 0)
(0.001073224999505747 0 0)
(0.0009951213068357331 0 0)
(0.0009166858410340518 0 0)
(0.0008382001334600576 0 0)
(0.0007598240019990079 0 0)
(0.0006815891834557105 0 0)
(0.0006037802425309488 0 0)
(0.0005266494464509693 0 0)
(0.000450721147332821 0 0)
(0.0003765272794992907 0 0)
(0.0003049005927159263 0 0)
(0.0002367069458947405 0 0)
(0.0001731290918174229 0 0)
(0.0001153874080548007 0 0)
(6.501241213939582e-05 0 0)
(2.355845685891706e-05 0 0)
(-7.129722094377265e-06 0 0)
(-2.521218412368688e-05 0 0)
(-2.861002205124374e-05 0 0)
(-1.539005329643904e-05 0 0)
(1.615921291769308e-05 0 0)
(6.62847464980605e-05 0 0)
(0.0001322778319639162 0 0)
(0.0002075053591113521 0 0)
(0.0002855663757652101 0 0)
(0.0003638845066717196 0 0)
(0.0004422263343786403 0 0)
(0.0005204463215237946 0 0)
(0.0005985223554176972 0 0)
(0.0006761180569083565 0 0)
(0.000753016090303554 0 0)
(0.0008286362178951643 0 0)
(0.0009024921639229274 0 0)
(0.0009737114772267075 0 0)
(0.00104150154937393 0 0)
(0.001104678683742217 0 0)
(0.001162143580746769 0 0)
(0.001212423050139154 0 0)
(0.001254154220416726 0 0)
(0.001285629128706262 0 0)
(0.001305273537997685 0 0)
(0.001311197665502963 0 0)
(0.001301721067781637 0 0)
(0.001275107236846833 0 0)
(0.001230642409182766 0 0)
(0.001169567006628732 0 0)
(0.001097017678979124 0 0)
(0.001019719174995346 0 0)
(0.0009416886063268191 0 0)
(0.0008635816437634102 0 0)
(0.0007855642330996881 0 0)
(0.000707645240489934 0 0)
(0.0006300732645616612 0 0)
(0.0005530638277825864 0 0)
(0.0004770860515870496 0 0)
(0.0004026171224387607 0 0)
(0.0003304172745368939 0 0)
(0.0002612833444721009 0 0)
(0.0001963164527213183 0 0)
(0.0001366680013839862 0 0)
(8.37987136209529e-05 0 0)
(3.921983875378414e-05 0 0)
(4.743743784055805e-06 0 0)
(-1.778370673142027e-05 0 0)
(-2.625258064531702e-05 0 0)
(-1.862585827547018e-05 0 0)
(7.040865186536309e-06 0 0)
(5.15653654840281e-05 0 0)
(0.0001132656046010333 0 0)
(0.0001863174408404857 0 0)
(0.0002636439529562671 0 0)
(0.0003415605439942017 0 0)
(0.0004195163138673102 0 0)
(0.0004973777079896683 0 0)
(0.0005751374327526221 0 0)
(0.00065249996637478 0 0)
(0.0007292813581897808 0 0)
(0.0008049562254676597 0 0)
(0.0008790868713272266 0 0)
(0.000950869204502781 0 0)
(0.001019569635924161 0 0)
(0.001084077618561626 0 0)
(0.001143350311491009 0 0)
(0.001195978282925229 0 0)
(0.00124063408083355 0 0)
(0.001275640055898049 0 0)
(0.001299425500560696 0 0)
(0.001310094309003807 0 0)
(0.001305885956027627 0 0)
(0.001284936396111322 0 0)
(0.001246139427321957 0 0)
(0.001189879570323329 0 0)
(0.00112030722916069 0 0)
(0.001044132202847415 0 0)
(0.0009665243773018001 0 0)
(0.0008887546081148334 0 0)
(0.0008110464971635888 0 0)
(0.0007334020423393996 0 0)
(0.0006560484710418519 0 0)
(0.000579183640230445 0 0)
(0.0005032220343473766 0 0)
(0.0004285872241692485 0 0)
(0.0003559989382463514 0 0)
(0.0002861497747858799 0 0)
(0.0002200590532941472 0 0)
(0.0001588488070120071 0 0)
(0.0001038246027807819 0 0)
(5.641880713473731e-05 0 0)
(1.846123301411306e-05 0 0)
(-8.295526858114938e-06 0 0)
(-2.178192562391079e-05 0 0)
(-1.984178958568324e-05 0 0)
(-3.635891873618327e-07 0 0)
(3.799782600794545e-05 0 0)
(9.456615929156479e-05 0 0)
(0.0001644158063189536 0 0)
(0.0002406796595211832 0 0)
(0.0003182620156508619 0 0)
(0.000396296741162001 0 0)
(0.0004745167809329679 0 0)
(0.0005526838130029959 0 0)
(0.0006305208718073093 0 0)
(0.0007077921093934527 0 0)
(0.0007838572442446936 0 0)
(0.000858246336998318 0 0)
(0.0009301934610484192 0 0)
(0.0009991245263722137 0 0)
(0.001064079218338715 0 0)
(0.001124073699871273 0 0)
(0.001178084054173691 0 0)
(0.001225362882699288 0 0)
(0.001264253780380574 0 0)
(0.001293239546504975 0 0)
(0.001310353396593158 0 0)
(0.001314357006801526 0 0)
(0.001301717737680134 0 0)
(0.001272314376263611 0 0)
(0.001225276460434266 0 0)
(0.001163388882935196 0 0)
(0.001092937291469087 0 0)
(0.00101852205707837 0 0)
(0.000941986493106681 0 0)
(0.0008630764666697099 0 0)
(0.0007822482522439482 0 0)
(0.0006987283597603133 0 0)
(0.0006118477137297471 0 0)
(0.0005222386310263838 0 0)
(0.0004302571320170396 0 0)
(0.0003359122392177465 0 0)
(0.0002414282106181551 0 0)
(0.0001471405703260835 0 0)
(5.735356076033552e-05 0 0)
(-2.84233844777264e-05 0 0)
(-0.0001069500715451234 0 0)
(-0.0001757326967707508 0 0)
(-0.0002326065858017226 0 0)
(-0.0002751059075136601 0 0)
(-0.0002992801970620799 0 0)
(-0.0003059827471254385 0 0)
(-0.0002904931628894055 0 0)
(-0.0002536746031386727 0 0)
(-0.0002007035473108958 0 0)
(-0.000137206401586565 0 0)
(-6.936891671263557e-05 0 0)
(1.115096392172466e-06 0 0)
(7.291631834858979e-05 0 0)
(0.0001464029817778486 0 0)
(0.0002188136254711332 0 0)
(0.0002905718463845689 0 0)
(0.0003616274325030589 0 0)
(0.0004306931006072513 0 0)
(0.0004969666146390199 0 0)
(0.0005593287652279679 0 0)
(0.0006200180105198723 0 0)
(0.0006771664711231815 0 0)
(0.0007287112697522011 0 0)
(0.0007734601532426724 0 0)
(0.0008110423624814258 0 0)
(0.0008385675016269744 0 0)
(0.0008536608906695632 0 0)
(0.0008572089009404961 0 0)
(0.0008426145663545415 0 0)
(0.0008122934867886056 0 0)
(0.0007652698786108476 0 0)
(0.000702420642155744 0 0)
(0.0006297878201448749 0 0)
(0.0005497925109757421 0 0)
(0.0004671332076825208 0 0)
(0.000383372496483711 0 0)
(0.0002983820861232032 0 0)
(0.0002115345489003104 0 0)
(0.0001222095644262605 0 0)
(2.974109433914672e-05 0 0)
(-6.382485760854672e-05 0 0)
(-0.0001615026593090034 0 0)
(-0.0002604861025947068 0 0)
(-0.0003581699821277996 0 0)
(-0.0004525899116549237 0 0)
(-0.0005429357114679029 0 0)
(-0.000627450830962411 0 0)
(-0.0007030831044782526 0 0)
(-0.0007678570602852655 0 0)
(-0.0008202711392006251 0 0)
(-0.0008552068201045112 0 0)
(-0.0008740433419265061 0 0)
(-0.0008724233326003525 0 0)
(-0.0008494576564680647 0 0)
(-0.0008086432818276496 0 0)
(-0.0007529686990679045 0 0)
(-0.0006927969934942241 0 0)
(-0.0006292819940607143 0 0)
(-0.0005633425219303753 0 0)
(-0.000495189528950191 0 0)
(-0.0004276355195542599 0 0)
(-0.0003607004553860707 0 0)
(-0.0002968687527290344 0 0)
(-0.0002305374415962572 0 0)
(-0.0001728561440586458 0 0)
(-0.0001154772248797923 0 0)
(-6.200214964015493e-05 0 0)
(-9.317235718113708e-06 0 0)
(3.913803949442739e-05 0 0)
(8.13343303967152e-05 0 0)
(0.0001168242313538503 0 0)
(0.0001438337440921101 0 0)
(0.0001578868087861928 0 0)
(0.0001599364636498693 0 0)
(0.0001463594769312528 0 0)
(0.0001144100939119115 0 0)
(6.559060646486794e-05 0 0)
(1.381178645910973e-06 0 0)
(-7.494863054140816e-05 0 0)
(-0.0001616385268645802 0 0)
(-0.0002519115768810279 0 0)
(-0.0003434177890773002 0 0)
(-0.0004353813549693049 0 0)
(-0.000527773345395202 0 0)
(-0.0006230637047260484 0 0)
(-0.0007206958639020787 0 0)
(-0.0008171745038710167 0 0)
(-0.0009201744830118462 0 0)
(-0.001022370892695147 0 0)
(-0.001127393629049914 0 0)
(-0.00122649165310958 0 0)
(-0.001322195126522609 0 0)
(-0.00141362233309693 0 0)
(-0.001497071381454155 0 0)
(-0.001570129551884204 0 0)
(-0.001632686795783455 0 0)
(-0.001680601996134603 0 0)
(-0.0017098188715481 0 0)
(-0.001724530904536249 0 0)
(-0.00171722809784807 0 0)
(-0.001688568149924748 0 0)
(-0.001644196702882516 0 0)
(-0.00159223132636032 0 0)
(-0.001536156463493341 0 0)
(-0.001477207991698957 0 0)
(-0.001415758065937301 0 0)
(-0.001351965645888653 0 0)
(-0.001291527192627509 0 0)
(-0.001231547488419901 0 0)
(-0.001172788072829217 0 0)
(-0.001117012906314993 0 0)
(-0.001067154140979198 0 0)
(-0.001022258147822116 0 0)
(-0.0009745598480094277 0 0)
(-0.0009301803592412613 0 0)
(-0.0008916977049593585 0 0)
(-0.0008588628561065324 0 0)
(-0.0008329165348211523 0 0)
(-0.0008189223327069588 0 0)
(-0.0008178039436391102 0 0)
(-0.0008296754061819221 0 0)
(-0.000863252110038802 0 0)
(-0.000913068142332782 0 0)
(-0.0009776399109050532 0 0)
(-0.001058568613946745 0 0)
(-0.001150411194259159 0 0)
(-0.001248900958191082 0 0)
(-0.001349640640095331 0 0)
(-0.001452191909056943 0 0)
(-0.001551208688834699 0 0)
(-0.001656098119918035 0 0)
(-0.001759986871248006 0 0)
(-0.001866310781358222 0 0)
(-0.001970055285773105 0 0)
(-0.002082300173417641 0 0)
(-0.002192720098757728 0 0)
(-0.002298954300581944 0 0)
(-0.002400325708031845 0 0)
(-0.002499085386313469 0 0)
(-0.002591280886999736 0 0)
(-0.00267369120467447 0 0)
(-0.002745919963390695 0 0)
(-0.002806541888740146 0 0)
(-0.002849240520127312 0 0)
(-0.002877688872258865 0 0)
(-0.002887459756136959 0 0)
(-0.002873626401994999 0 0)
(-0.002842494677263597 0 0)
(-0.002799694989073979 0 0)
(-0.002752453463845892 0 0)
(-0.00270112048061907 0 0)
(-0.002648128734259093 0 0)
(-0.002587632388602762 0 0)
(-0.002533227977816933 0 0)
(-0.002477999999581621 0 0)
(-0.002426192435939109 0 0)
(-0.002371239400622777 0 0)
(-0.002329417712746708 0 0)
(-0.002288857618169395 0 0)
(-0.002249478055621209 0 0)
(-0.002209442418864364 0 0)
(-0.002175440144592913 0 0)
(-0.002147150801677726 0 0)
(-0.002123879660161329 0 0)
(-0.002109514251079332 0 0)
(-0.002109553828246586 0 0)
(-0.002120730439851215 0 0)
(-0.002150432480934604 0 0)
(-0.002201553656636718 0 0)
(-0.002267558324627021 0 0)
(-0.002349689706617087 0 0)
(-0.002445826859657847 0 0)
(-0.002551928132113954 0 0)
(-0.002662443935453885 0 0)
(-0.00277597737256856 0 0)
(-0.002885884121567974 0 0)
(-0.003000281159555274 0 0)
(-0.003115886364624836 0 0)
(-0.003231970100555082 0 0)
(-0.003344455203239013 0 0)
(-0.003463214926628643 0 0)
(-0.003583117979542295 0 0)
(-0.003698734779251189 0 0)
(-0.003807580306648682 0 0)
(-0.003913319213103082 0 0)
(-0.004015019522371824 0 0)
(-0.004107625810682503 0 0)
(-0.004190113517239858 0 0)
(-0.004263447734988138 0 0)
(-0.00432012151665186 0 0)
(-0.004360824812731126 0 0)
(-0.004388248191665068 0 0)
(-0.004393934918297615 0 0)
(-0.004376169078332442 0 0)
(-0.004344840779522247 0 0)
(-0.004307490694656233 0 0)
(-0.004265400414876874 0 0)
(-0.004219609018963392 0 0)
(-0.004169283405360934 0 0)
(-0.004115675858718501 0 0)
(-0.004068185363374118 0 0)
(-0.004019853195978113 0 0)
(-0.003973722689878216 0 0)
(-0.003928176046452789 0 0)
(-0.003898366574501621 0 0)
(-0.00386379374866255 0 0)
(-0.003830460412096008 0 0)
(-0.003800006358264318 0 0)
(-0.003776925231923441 0 0)
(-0.003758885017096769 0 0)
(-0.003747252206176587 0 0)
(-0.003747337896345368 0 0)
(-0.003760043244365931 0 0)
(-0.003785503227715919 0 0)
(-0.003835748078657272 0 0)
(-0.003904021777306892 0 0)
(-0.003983298788746707 0 0)
(-0.004081748781782567 0 0)
(-0.004193641391987303 0 0)
(-0.004312578615393092 0 0)
(-0.004436167742723492 0 0)
(-0.004562382886605184 0 0)
(-0.00468314920896146 0 0)
(-0.004813060194406248 0 0)
(-0.004943431850425652 0 0)
(-0.005072179406705487 0 0)
(-0.005194641077963462 0 0)
(-0.005332349065126569 0 0)
(-0.005457819212655169 0 0)
(-0.005578199380432131 0 0)
(-0.00569278820153132 0 0)
(-0.005804614787057035 0 0)
(-0.005909405510082244 0 0)
(-0.00600403047994668 0 0)
(-0.006088975460361108 0 0)
(-0.006162991201630059 0 0)
(-0.006216932512663001 0 0)
(-0.006260386420351065 0 0)
(-0.006287696792580721 0 0)
(-0.006287355834863772 0 0)
(-0.006271093258432878 0 0)
(-0.006246056194232477 0 0)
(-0.006214462338347802 0 0)
(-0.006177793495860568 0 0)
(-0.006139306697658325 0 0)
(-0.006089427428843917 0 0)
(-0.006046549412571314 0 0)
(-0.006005867931233065 0 0)
(-0.0059663978327639 0 0)
(-0.0059234054937973 0 0)
(-0.005896036092462939 0 0)
(-0.0058705475063484 0 0)
(-0.005841792041650253 0 0)
(-0.005816479885729904 0 0)
(-0.005797438075260109 0 0)
(-0.00578529726230045 0 0)
(-0.005778577764379036 0 0)
(-0.00578069144284431 0 0)
(-0.005796708510445345 0 0)
(-0.005822906072844548 0 0)
(-0.005867195876304482 0 0)
(-0.005936646030711029 0 0)
(-0.00601912172416356 0 0)
(-0.00611622084321375 0 0)
(-0.006229996358716495 0 0)
(-0.006355372988245155 0 0)
(-0.006487364570410887 0 0)
(-0.006625532788918391 0 0)
(-0.006760274129653166 0 0)
(-0.006900230734162217 0 0)
(-0.007045598681172937 0 0)
(-0.007193698917571546 0 0)
(-0.007336952287736813 0 0)
(-0.00748290718735362 0 0)
(-0.007636885321904625 0 0)
(-0.007770664682948049 0 0)
(-0.007905170169050979 0 0)
(-0.008032485721759741 0 0)
(-0.008155880317260243 0 0)
(-0.00826890323846396 0 0)
(-0.008373151146015225 0 0)
(-0.008467222102030667 0 0)
(-0.008547220100455454 0 0)
(-0.008607155990721402 0 0)
(-0.008659590537750542 0 0)
(-0.008692582569336797 0 0)
(-0.008696956489892693 0 0)
(-0.008689951649460268 0 0)
(-0.008678093194036557 0 0)
(-0.008657211530696641 0 0)
(-0.008631467677291494 0 0)
(-0.008599089453273085 0 0)
(-0.008560565609248519 0 0)
(-0.008529661050729007 0 0)
(-0.008496429869607561 0 0)
(-0.008468162103183921 0 0)
(-0.008437463886273422 0 0)
(-0.008425376906714297 0 0)
(-0.008405138224006575 0 0)
(-0.008387150155153593 0 0)
(-0.008374284529984257 0 0)
(-0.008369068434686893 0 0)
(-0.008369383182533406 0 0)
(-0.008378733737766798 0 0)
(-0.008399428668534737 0 0)
(-0.008431982955440622 0 0)
(-0.008475733235770394 0 0)
(-0.008545512416186767 0 0)
(-0.0086362150733939 0 0)
(-0.008732588373870476 0 0)
(-0.008851338074585963 0 0)
(-0.008987509559162643 0 0)
(-0.009131328241801141 0 0)
(-0.009282500488434389 0 0)
(-0.009439791949144573 0 0)
(-0.009591655705900901 0 0)
(-0.009756770508360327 0 0)
(-0.00992022976955822 0 0)
(-0.01009378724741185 0 0)
(-0.01025643950205509 0 0)
(-0.01043978311950257 0 0)
(-0.01061002291332363 0 0)
(-0.01076794982321001 0 0)
(-0.01093232557857987 0 0)
(-0.01109056431177483 0 0)
(-0.0112424258084776 0 0)
(-0.01138459029621776 0 0)
(-0.0115184565817909 0 0)
(-0.01163885721076927 0 0)
(-0.01173923959104672 0 0)
(-0.01182536013040635 0 0)
(-0.01189559983245538 0 0)
(-0.01194353681658031 0 0)
(-0.01196888804283548 0 0)
(-0.01198649867035489 0 0)
(-0.011997725305237 0 0)
(-0.0119975131856234 0 0)
(-0.01199291396423582 0 0)
(-0.01197214989164787 0 0)
(-0.01195801084464279 0 0)
(-0.01193667740248862 0 0)
(-0.01192390066253656 0 0)
(-0.01190015023971915 0 0)
(-0.01189923297012255 0 0)
(-0.0119002342868562 0 0)
(-0.01188011605132814 0 0)
(-0.01188205507868259 0 0)
(-0.01188727850395189 0 0)
(-0.01189791680451026 0 0)
(-0.01191435211701873 0 0)
(-0.01194727740746838 0 0)
(-0.0119898989582232 0 0)
(-0.01205254165243251 0 0)
(-0.01210535486939792 0 0)
(-0.01226509325372661 0 0)
)
;

boundaryField
{
    inlet
    {
        type            calculated;
        value           uniform (-3.193201594066066e-05 0 0);
    }
    outlet
    {
        type            calculated;
        value           uniform (-0.01226509325372661 0 0);
    }
    frontAndBack
    {
        type            empty;
    }
}


// ************************************************************************* //
