/*--------------------------------*- C++ -*----------------------------------*\
| =========                 |                                                 |
| \\      /  F ield         | OpenFOAM: The Open Source CFD Toolbox           |
|  \\    /   O peration     | Version:  v2012                                 |
|   \\  /    A nd           | Website:  www.openfoam.com                      |
|    \\/     M anipulation  |                                                 |
\*---------------------------------------------------------------------------*/
FoamFile
{
    version     2.0;
    format      ascii;
    class       volScalarField;
    location    "0.019";
    object      rho;
}
// * * * * * * * * * * * * * * * * * * * * * * * * * * * * * * * * * * * * * //

dimensions      [1 -3 0 0 0 0 0];


internalField   nonuniform List<scalar> 
1000
(
1.176213189049684
1.176253591697689
1.176204234265027
1.176099326315098
1.176065671773149
1.17598935765357
1.175929978774841
1.175891783772744
1.175862490164959
1.175827293033997
1.175811249778127
1.175798825843692
1.175806167670942
1.175818639010058
1.175841227578758
1.175888141091592
1.175921720423995
1.175981207332444
1.176059587421854
1.17611882443566
1.176198503250994
1.176286662262676
1.176368933631848
1.176454048149582
1.176539183085573
1.176623381542486
1.176699353733937
1.176766240781055
1.176834851022803
1.176887281626196
1.176924291990393
1.17694308814787
1.176967067097622
1.17696770782917
1.176965655250483
1.176954731731697
1.176928013394772
1.176903835601286
1.176858592089159
1.176801896378831
1.17675083678388
1.176677492085867
1.176603586510376
1.17653995836245
1.176454209012266
1.176377971288601
1.176311927711542
1.176230450352259
1.176157355764098
1.17609120887129
1.176021199578313
1.17595429050285
1.175903549488863
1.175850784295267
1.175819787304864
1.175792998225896
1.175779200781641
1.175770201954595
1.175770293695415
1.175778578862932
1.175800146777902
1.17582192195008
1.175861819707842
1.175915290863461
1.175967667793796
1.17604279953145
1.17611664784421
1.176194752384232
1.176284233580835
1.176371121299641
1.17645520358716
1.176540821876693
1.176620314594235
1.176690929138507
1.176760600851559
1.176823119994439
1.176863590759948
1.176890777118003
1.176916234411808
1.176924979869571
1.176923569149353
1.176913946075018
1.17689416217398
1.176874992785133
1.176833241092195
1.176786439053028
1.176743172130938
1.176672037186259
1.176607010795844
1.176532380407265
1.176451774267603
1.176373637141246
1.176293507060525
1.176217257213013
1.176138407645114
1.176068139372764
1.175998445956205
1.175934173764817
1.175878599473659
1.17582065462683
1.175783567965627
1.175762967990649
1.175736862535583
1.175727129065324
1.175731960063867
1.175731561623612
1.175748774266074
1.175773020001262
1.175799434050596
1.17584859561135
1.175897454238648
1.175954852562011
1.176031294405952
1.17610324583416
1.176183026334127
1.176272913302551
1.176361365038372
1.176444534056522
1.17652584881304
1.176607803842439
1.176675101514737
1.17674672582263
1.176788850491303
1.17682913039065
1.176852839321701
1.176866353818658
1.176873502190001
1.176864356702211
1.176848178955842
1.176832257666474
1.176801840601458
1.176754093431692
1.176714181818189
1.176656836304849
1.176586447133855
1.176524007964085
1.176448004418153
1.176365055720279
1.176289398923048
1.176208763249099
1.176130334784373
1.176054697512342
1.175980680666073
1.175920271410029
1.175858659989595
1.175801365539305
1.17576654455297
1.175739090123126
1.175713944228098
1.175704531727566
1.175697713810212
1.17570337924218
1.175711582659735
1.175732229087424
1.175755181643979
1.17579297151317
1.175843828034695
1.175894464903992
1.175961240139808
1.176031710989419
1.176105804032844
1.176192268799768
1.176277438391895
1.176363731496246
1.176449519957396
1.176531457989791
1.176611511263287
1.176676913353942
1.176741831872417
1.176775566488321
1.176809326557417
1.176825310145217
1.176834843366573
1.176830462844509
1.176819423611424
1.176803341663783
1.176775147448632
1.17673636958138
1.176696677471555
1.176642457633271
1.176577851791743
1.176513054875942
1.176438553330723
1.176361167572506
1.176279283951384
1.176199897382185
1.176121644098105
1.1760386021549
1.175965602153884
1.175893608744567
1.17582783890077
1.175764640730402
1.175727526219017
1.17569372693087
1.175669587925252
1.175658262504197
1.175647102496693
1.175648285158958
1.175659252824688
1.175673082611525
1.175689795480859
1.175728711743663
1.175770967416663
1.175812778750702
1.175879229781991
1.1759423076277
1.176011055000717
1.176095868695643
1.176174760773473
1.176257730942181
1.176344088046255
1.176426171332321
1.176500078416839
1.176575729457373
1.176646528603091
1.176688502736305
1.176724508925947
1.176747802695641
1.176761619892433
1.176763033755466
1.176756109941649
1.176738768611777
1.176720369870377
1.176691324439267
1.176643958412456
1.176604529493213
1.176548632007466
1.176480388431839
1.176418621390804
1.176342115659774
1.176259947328153
1.176187845189948
1.176103618654327
1.176021926161454
1.175949779055063
1.175873396673609
1.175800471558816
1.175745796068146
1.175688556403394
1.175659269912883
1.175632758501637
1.175620889760463
1.175610049596469
1.175609124064397
1.175616390663668
1.175633108480778
1.175648530991497
1.175676548859377
1.175719734050406
1.175758367358704
1.175816470925592
1.175879378610017
1.175944257448906
1.176022388818908
1.176098166709322
1.17618329301007
1.176268568423283
1.176346028921797
1.17642761554135
1.176508962479466
1.176566487189713
1.176636227445784
1.176667366968314
1.176698129687338
1.176712094611413
1.176719211696674
1.176716233289545
1.176700577718163
1.176688578852147
1.176658228609003
1.176614201752086
1.176583304337577
1.176526906595464
1.176464473314559
1.176404774218451
1.17632976335625
1.176259356931457
1.176180672005203
1.176097086982941
1.176026571490896
1.175944974404403
1.17586350711917
1.175807954851283
1.175733254779784
1.175672147587952
1.175636400781666
1.175614745792969
1.175593748826937
1.175585252321633
1.175582027557621
1.175583544854741
1.175601495046079
1.175617044199592
1.1756331079573
1.175677480028668
1.175715447684768
1.1757597794837
1.175826578781899
1.175884743199684
1.175953366388256
1.176036212836594
1.176115115012487
1.176193996649681
1.176277117849838
1.176366076993405
1.176429236173786
1.17651098736639
1.176577611793127
1.176623654163911
1.176655379160949
1.1766788277002
1.176688704291027
1.176689555359586
1.176680193156443
1.176663768372949
1.176638931574808
1.17660373104175
1.176567283074575
1.176517585903439
1.176457197436731
1.176395447818377
1.176329121413287
1.176253161841595
1.176174589834454
1.176100619674027
1.176020449293727
1.17593759010342
1.17586580176069
1.175792597839985
1.175718843539233
1.175660155908189
1.17560721400098
1.175579871714333
1.175558100833768
1.175545411969565
1.175540729722737
1.175544285052099
1.175557334649991
1.175566164539195
1.175588204623075
1.175625188183265
1.17565621646511
1.175701995861246
1.175766248994116
1.17581887617684
1.175883487128573
1.175966098340503
1.176036434487413
1.17611539583193
1.176198844975944
1.176275700189743
1.176356781333117
1.176427198761796
1.176495333015884
1.17655631999257
1.176594889495026
1.176614979440345
1.176634566157676
1.176637568291266
1.176635091687696
1.176621407154289
1.176599322636081
1.176572502953601
1.176535942197211
1.176490758474741
1.176440456424942
1.176381825607257
1.176318058276053
1.17624923185354
1.176175911563279
1.176103409873932
1.176024119430819
1.175949211056352
1.175870910196204
1.175798209855232
1.17572949188465
1.175666827520488
1.175601940481791
1.1755693084948
1.175545853297728
1.175529519858455
1.175524278839487
1.17552422260683
1.175528427865587
1.175548937689526
1.175567054180557
1.175591348904377
1.175638340844017
1.175676211123729
1.175724628369798
1.175789314539094
1.175848952859862
1.175917234289996
1.175994072772019
1.1760716574104
1.176146498011748
1.176225387479109
1.176302977961304
1.176372537492228
1.176441783561762
1.176504858703471
1.17655500939669
1.176575103980741
1.176603876710913
1.17661062259694
1.176607612434574
1.176602167626324
1.176583096105533
1.17656776462886
1.176533745501634
1.176489243371128
1.176451237102047
1.176390474345063
1.176329472054471
1.176270971706971
1.176198859446751
1.176122629826473
1.176052525545464
1.175976435033224
1.175901795382213
1.175829154110199
1.175760912283363
1.175697619900216
1.175633857263887
1.175589009406568
1.175563942980651
1.175551193320557
1.175537069317853
1.175537766914679
1.175544733693163
1.175558306994128
1.175572613516004
1.175599271897857
1.175636200522774
1.175670863656728
1.175725283222816
1.175780835426468
1.175832585689421
1.175905410762002
1.17597779314017
1.176045407671573
1.176124780832119
1.176205693378554
1.176280623791379
1.176358638699587
1.176429425816673
1.176493393478991
1.176554794192813
1.176590653857375
1.176613995466411
1.17663160185956
1.176635430982389
1.176628941237703
1.176615402885525
1.176601483960181
1.176571568530543
1.176537829078911
1.176501942959219
1.176443528857096
1.176388356085642
1.176329110606612
1.176256033595167
1.176184480068118
1.176114292994197
1.176033055974594
1.175958168638637
1.175886630435112
1.175805747843312
1.175748605341043
1.175682144012161
1.175623921025616
1.175594554646444
1.175574119516007
1.175559223968418
1.175556766228773
1.175560736139319
1.175568459727067
1.175586612654755
1.175606389101597
1.175634761046375
1.175674682976378
1.175715470992791
1.175767099409097
1.175823676825964
1.175884299720758
1.175953447843688
1.176028284478936
1.17610296001562
1.176177077798018
1.176254307814421
1.17633632832363
1.176399256445128
1.176473552935521
1.176539023337658
1.176584332055933
1.176612818116895
1.176634474998364
1.176645841407959
1.176640215467787
1.176628248955127
1.176615397423486
1.176593413423839
1.176554014742585
1.176517462989486
1.176467540813113
1.176403216177503
1.176348721976624
1.176280080319346
1.176204216302142
1.176132012044876
1.176055138732555
1.17597486768766
1.175901094554596
1.175830798461895
1.175759455950233
1.175692455636342
1.17563914156582
1.175590678624316
1.175561414895126
1.175551440924946
1.175536610601014
1.17553886445613
1.175547618984922
1.175562182928495
1.175576211567995
1.175609418282617
1.175641924207842
1.175681664156134
1.175734342273929
1.175790672391087
1.175847217069298
1.175914347674701
1.175989567450822
1.176057719237445
1.176130490100521
1.176210788551191
1.176283540449795
1.176354535480148
1.176425684199264
1.176485621966482
1.176544031402817
1.176577706749967
1.176598150289417
1.176614627972003
1.176617112639074
1.17660998359819
1.176597633668349
1.176576894777285
1.176545624671469
1.176513700543808
1.176467280210087
1.176414056816943
1.176360798216821
1.176294631380209
1.176226555309359
1.176154442672505
1.176079556975115
1.176005111657024
1.175928346921803
1.175857216020927
1.175785474623585
1.175715000511921
1.17566473542081
1.175601732998529
1.175580503600046
1.175554892295432
1.175542915135604
1.175542189011256
1.17555027750817
1.175559264061592
1.175579743982072
1.175600599826697
1.175630212568924
1.175676403415022
1.17571668601747
1.17577008044523
1.175829422005821
1.175890151908084
1.175959689717134
1.176031347587614
1.176107050120349
1.176180432787965
1.176258262389519
1.176329584395545
1.176398562568066
1.176465263065246
1.176530169116283
1.176568120740771
1.176604942134743
1.176624146539748
1.176631220026762
1.176627881104895
1.176618530162736
1.17660308041751
1.176576928051931
1.176543757657655
1.17650835804936
1.176451660459183
1.176399197772847
1.176340351028807
1.176267468829231
1.176203365465902
1.176126762407588
1.176048528944548
1.175977217761412
1.175896324762988
1.175826890153524
1.175759167385941
1.175693012913875
1.175633551174273
1.175598055620268
1.175570712358035
1.175552346405415
1.175549998562488
1.175552510746476
1.175561777693503
1.175582272183509
1.175602192958162
1.175628902491761
1.175672288709402
1.175708854539361
1.175757863247612
1.175818232139959
1.175870380951687
1.175938252172526
1.176010782293978
1.176079595825659
1.176154983093569
1.176233117260192
1.176307972820787
1.176383092165117
1.176450079827831
1.176518845826682
1.17657668742617
1.176615114977407
1.17664546570673
1.176662091161676
1.176666240355574
1.176661819619722
1.176650318497535
1.176632497587537
1.176600984246704
1.176560089605055
1.176521042491695
1.176465663396559
1.176401536984207
1.176346600225177
1.176275745620736
1.176199021178707
1.176132257813346
1.176055319782682
1.175981591710468
1.175912918000677
1.175836528530301
1.175779260597991
1.175716676191165
1.175660698255497
1.175629628597298
1.175600903920166
1.175590362181891
1.175579815729926
1.175580336533531
1.175591081544336
1.175606442799236
1.175624303982778
1.17564842316029
1.175684573473423
1.17571925028975
1.17576078896841
1.175815937608735
1.175866190413894
1.175920926771222
1.175987178894163
1.17604755710668
1.176110176945781
1.17617704671474
1.176243741519536
1.176298004568641
1.176359544135459
1.176413872215739
1.176457344770215
1.176489571303419
1.176514578956476
1.176532862822649
1.176539081843987
1.176537339501751
1.176529198602338
1.17651335624332
1.176488110609115
1.176456620217716
1.176420248520324
1.176378358417167
1.176325786977533
1.176273279502473
1.176220001437867
1.176152082312486
1.176092004512536
1.176028316009412
1.175962349678583
1.175902223996684
1.175838932140593
1.175779016746648
1.175728360726459
1.175673741417478
1.175648053912124
1.175618828839929
1.175606952340614
1.175595375631508
1.17560006995383
1.175608771630809
1.175624377371662
1.175647694153659
1.175672111714715
1.175708926698018
1.175747614334935
1.175788064608188
1.175843136029614
1.175891818017945
1.175947036670243
1.176010082223607
1.176071141909389
1.176135354056731
1.176199327807766
1.176262012452174
1.176328119445939
1.176381293301095
1.176439424319045
1.176480699000214
1.176509885208294
1.176537909623192
1.176553053547355
1.176552412964952
1.176551959209208
1.176538581483245
1.176517250177743
1.1764953038626
1.176457042796351
1.176410238619452
1.176369303728201
1.176309985867889
1.176247885153001
1.176193410653924
1.176121971267578
1.176057134096352
1.175995446857923
1.175928625321219
1.175869165849251
1.175810334700853
1.175753261869245
1.175701385235178
1.175668080482995
1.175639582100602
1.175615933301434
1.175609710749871
1.17560629777962
1.175613536107263
1.175625685708093
1.175652826894667
1.175670974810097
1.175707006348977
1.175750800109533
1.175784345944359
1.17583885672264
1.175886535990481
1.17593826161197
1.176000359655218
1.176052920273707
1.176115969966971
1.176180376230231
1.17624059415514
1.176303329337307
1.176363884966933
1.176421821690732
1.176464590425728
1.176504519547151
1.176536122211179
1.176552023218733
1.17656091438894
1.176562093135489
1.176552138416391
1.17653151922331
1.176510418987963
1.176474768356044
1.176426944232107
1.176386738970715
1.176329525722966
1.176263383413672
1.176209268138385
1.176138718281436
1.176067083599843
1.176001128163676
1.175933248437418
1.175869327461431
1.175806243467503
1.175749652113916
1.175699578666761
1.175652086287373
1.175625471681932
1.175603077304958
1.175587319256503
1.175579842900708
1.175581602445264
1.175590259732345
1.175608415074815
1.175630341523879
1.17565887832326
1.175697593076128
1.175736607013626
1.175784546258966
1.175837661783742
1.175889742842061
1.175947963151074
1.176003778219397
1.176065363386124
1.176127444502624
1.176186338914684
1.17624805096048
1.17631055804286
1.176359133644338
1.176414780535623
1.176452522467549
1.176483941297903
1.176503666329926
1.17652030734059
1.176524900702102
1.176517093762696
1.176506166202949
1.176481896622922
1.176454643966703
1.176418350218406
1.176372788253274
1.176326750473914
1.176268526740741
1.176208622592068
1.176150876754998
1.176082009863908
1.176016537551996
1.175952774301508
1.175885847536367
1.175827358057865
1.175768725021378
1.175717505117701
1.175665161167997
1.175637078455486
1.175614952288748
1.175599933482112
1.175589602428949
1.17558775467596
1.175591410355572
1.175606203193787
1.175623467606087
1.175644638037202
1.175680806364913
1.175720902415594
1.175763647428208
1.175821769978607
1.175872099365697
1.175928756888939
1.175993710816747
1.176046816708968
1.176105756455813
1.176168047096954
1.176222505967448
1.17627964308973
1.176336410633256
1.176392007705361
1.17643391002635
1.176474527094105
1.176502306404615
1.176521218422482
1.176534852075369
1.176536541906781
1.176528324588562
1.176511947922113
1.176486251577984
1.176450528990826
1.176411448104992
1.176362036628899
1.176301981675026
1.17624797420819
1.176184892099281
1.176115735869098
1.176052763308501
1.175982684426164
1.175918120395747
1.175855164125388
1.175794058473519
1.175738024746792
1.175688655912201
1.175646526070693
1.175626205286138
1.175601077598865
1.175594768660781
1.175586655009227
1.175592603500415
1.175603488387614
1.175618528361472
1.17564400141491
1.175666268266655
1.17570025188257
1.175745389696561
1.175786927669271
1.175844219829068
1.175905917222824
1.175961208099987
1.17602747045561
1.176090435980713
1.176149314031996
1.176207407378179
1.176260748144108
1.176316520296247
1.176360422276611
1.176411869027796
1.176443357829238
1.176483044503555
1.176503267708664
1.176527313544128
1.176540090582038
1.176538276846092
1.176528225176833
1.176508384153443
1.176473875296457
1.176435614152822
1.176386864460154
1.176327941553532
1.176266686603209
1.176203472869867
1.176131979443485
1.176059336093569
1.175990436139878
1.175917567075672
1.175851969191996
1.175786524771417
1.175724515404691
1.175672501601203
1.175621181767722
1.175590828700802
1.175571017482612
1.175550041670685
1.175539950679817
1.175544323551568
1.175551317357143
1.175565117405032
1.175587696526299
1.175612243454505
1.175640947972748
1.175683195823032
1.175724992202858
1.175771560672148
1.175830021195172
1.175885406592414
1.17594316902746
1.176008393314198
1.176073632519118
1.176135033843461
1.176196648479435
1.176256814919628
1.176304962398801
1.176351096819416
1.176384961472356
1.176403692184678
1.176427459359968
1.176445213151225
1.176458088741592
1.176466749407509
1.176465954853005
1.176448556545548
1.176429921870749
1.176391146443276
1.176339592292647
1.176292482706956
1.176232097697456
1.176167868784241
1.176107992155566
1.176041123220653
1.175970565338539
1.1759055967685
1.175839309138499
1.175770778068665
1.175717746003246
1.175657699167394
1.175606757720929
1.175569641422287
1.175551104509322
1.175531500132576
1.175517718989783
1.175516080351272
1.175525514941456
1.175538739739549
1.175553855767223
1.175582515786911
1.175606838896316
1.175641811992915
1.175688309962852
1.17572353855105
1.175768693076181
1.175830358484659
1.175868186135015
1.175916205380669
1.176019056248089
)
;

boundaryField
{
    inlet
    {
        type            calculated;
        value           uniform 1.176271021779363;
    }
    outlet
    {
        type            calculated;
        value           uniform 1.176026281390702;
    }
    frontAndBack
    {
        type            empty;
    }
}


// ************************************************************************* //
