/*--------------------------------*- C++ -*----------------------------------*\
| =========                 |                                                 |
| \\      /  F ield         | OpenFOAM: The Open Source CFD Toolbox           |
|  \\    /   O peration     | Version:  v2012                                 |
|   \\  /    A nd           | Website:  www.openfoam.com                      |
|    \\/     M anipulation  |                                                 |
\*---------------------------------------------------------------------------*/
FoamFile
{
    version     2.0;
    format      ascii;
    class       volScalarField;
    location    "0.019";
    object      T;
}
// * * * * * * * * * * * * * * * * * * * * * * * * * * * * * * * * * * * * * //

dimensions      [0 0 0 1 0 0 0];


internalField   nonuniform List<scalar> 
1000
(
299.9863358872817
299.979836927174
299.9713613284732
299.9624151044331
299.9599998492556
299.9527156623743
299.9470404864509
299.9434415913597
299.941254913701
299.9382171538167
299.9375129213676
299.9370177711557
299.9379131644661
299.9397390224462
299.9421555073679
299.9470374176405
299.9505499341298
299.9566328875402
299.9646010588307
299.9705921889235
299.9786347426362
299.987522999919
299.995808452337
300.0043999313972
300.0130199543401
300.0215659790942
300.0292846418279
300.0360872291472
300.0430778812131
300.0484300241081
300.0522167346061
300.0541499295591
300.0566066399483
300.0566921704527
300.0565144810398
300.0554159499179
300.0526993776149
300.0502419440755
300.0456317608097
300.0398514393705
300.0346430120239
300.0271575069781
300.0196122524944
300.0131135516783
300.0043561161942
299.9965691107006
299.9898229821194
299.9815027448096
299.9740395911977
299.967286860975
299.960140609427
299.9533111056315
299.948132753074
299.9427483299232
299.9395859487561
299.9368525133829
299.9354452029231
299.9345269647997
299.9345368355847
299.9353836186505
299.9375855303992
299.9398083732457
299.9438810398012
299.9493392449073
299.9546852534086
299.9623539483107
299.969891492096
299.9778630810722
299.9869958395077
299.9958636110458
300.0044447695059
300.0131824077974
300.0212945861735
300.0285005310897
300.0356099236079
300.0419893043185
300.0461187907938
300.0488927054386
300.0514901222372
300.0523823777141
300.0522384182079
300.0512565632649
300.049237984833
300.0472819990372
300.043021947957
300.0382465375929
300.033831456961
300.0265728541896
300.0199372838396
300.012321265383
300.0040952889916
299.9961209200599
299.987942841818
299.9801604970984
299.9721125226197
299.9649401502824
299.9578262014527
299.9512654187571
299.9455923052046
299.9396770682033
299.9358910158572
299.93378802864
299.9311229306509
299.9301292394001
299.9306224664157
299.9305817584529
299.932339041867
299.9348142742692
299.9375107441118
299.9425295152403
299.9475171131979
299.9533762581959
299.961179293359
299.9685235538504
299.9766666404793
299.985841002765
299.9948684646262
300.0033564375556
300.0116548320581
300.0200182227439
300.0268856335344
300.0341942968394
300.0384926369922
300.0426026783881
300.04502186684
300.0464007907362
300.0471301632244
300.0461971246354
300.0445464893889
300.0429219539117
300.0398183036972
300.0349464578039
300.030873824318
300.0250220701459
300.0178393487976
300.0114673641486
300.0037110122232
299.9952456120396
299.9875240167726
299.9792940307443
299.9712889931909
299.9635685771708
299.9560132830471
299.9498468113269
299.9435573806298
299.937708510049
299.9341537583611
299.9313510158553
299.9287838587945
299.9278229585901
299.9271269179986
299.9277053274633
299.9285428856435
299.9306507454064
299.9329939544323
299.9368518584766
299.9420436634332
299.9472127754973
299.9540292315373
299.9612227396532
299.9687855429937
299.9776109546461
299.9863038376267
299.9951109357646
300.0038662275296
300.0122282449709
300.0203975327998
300.0270715093415
300.0336958994437
300.0371381763442
300.0405830101047
300.0422139293253
300.0431866383163
300.0427397128412
300.0416133879096
300.0399724575689
300.0370956068965
300.0331388668988
300.0290886578278
300.0235558144634
300.0169631596704
300.0103506588828
300.002747475488
299.9948497523659
299.9864926725707
299.9783900472846
299.9704028510216
299.9619265835209
299.95447497623
299.9471259074196
299.9404119031697
299.9339602323088
299.9301712735091
299.9267206761666
299.9242562776896
299.9231000623963
299.9219606760301
299.9220814209397
299.9232012226347
299.9246131843242
299.9263194062999
299.9302924679295
299.9346063820883
299.9388746579378
299.94565836335
299.9520974331811
299.9591149107662
299.9677722605732
299.9758247326183
299.9842931722326
299.993106928636
300.0014841643208
300.009026720449
300.0167468609649
300.0239716983874
300.0282549214136
300.0319290673939
300.0343059811018
300.0357158839505
300.0358601510831
300.0351536984126
300.0333842589276
300.0315068256776
300.0285429854551
300.0237097134394
300.0196860523049
300.0139818320542
300.0070175953961
300.000713843584
299.9929057987893
299.9845196164058
299.9771603703398
299.9685633768162
299.9602247987223
299.9528601744985
299.9450629584027
299.9376184188894
299.9320367427034
299.9261931056275
299.923203168804
299.920496503162
299.9192847938086
299.9181780643675
299.9180835505886
299.9188254748699
299.9205323487434
299.9221068867585
299.9249672943004
299.9293762841825
299.9333202313301
299.9392518689215
299.9456738719926
299.9522966162929
299.9602721139588
299.9680070588344
299.9766957957239
299.9853995248524
299.9933052799867
300.0016317974387
300.0099335261868
300.0158039748757
300.0229207590231
300.0260983968511
300.0292375324538
300.0306625355207
300.0313887458788
300.0310848705219
300.0294874224076
300.0282629975256
300.0251659503647
300.0206733506995
300.0175202600265
300.0117649072747
300.0053935376976
299.9993007955501
299.9916452913251
299.9844594248936
299.9764282759585
299.9678967780983
299.9606989784467
299.9523696864234
299.9440533955595
299.9383823901824
299.9307563194286
299.9245178349457
299.9208683092593
299.9186574066255
299.916513740457
299.9156462998694
299.9153170064136
299.9154719299839
299.9173046588174
299.9188921921696
299.920532120002
299.9250624030485
299.928938563647
299.9334642436086
299.9402837647746
299.9462213115785
299.953226327409
299.9616831359978
299.9697368336991
299.9777882222186
299.9862720076913
299.9953511983767
300.0017971422037
300.0101400407775
300.0169391012622
300.0216376162138
300.0248749902436
300.0272677674508
300.0282755800247
300.0283624466758
300.0274071522778
300.0257311092327
300.0231966405622
300.0196046500146
300.0158852046503
300.0108135275477
300.0046508053057
299.9983488672989
299.9915795802216
299.9838269363157
299.9758073725062
299.9682571446461
299.9600737936957
299.9516156986413
299.9442873671982
299.9368143200718
299.9292847955377
299.9232932408727
299.9178881385719
299.9150965426325
299.9128737769267
299.9115782513041
299.9111001600628
299.9114631974624
299.9127956072589
299.9136970834376
299.9159472995499
299.9197233023339
299.9228910698934
299.9275647066647
299.9341244721738
299.9394969732713
299.9460926099595
299.9545256747277
299.9617053365318
299.9697651142268
299.9782827046783
299.9861269487268
299.9944021855374
300.0015888343276
300.0085421609623
300.0147659889315
300.0187019322232
300.0207520601217
300.0227507916316
300.0230571529898
300.0228044349456
300.0214079975784
300.0191543671978
300.0164174843095
300.0126864749021
300.0080754251273
300.0029418609718
299.9969581957913
299.9904501168605
299.9834253741359
299.9759418192227
299.9685415407477
299.960447962521
299.9528014951539
299.9448084036737
299.937386742741
299.9303714152035
299.9239738456598
299.917349210864
299.9140175735013
299.9116228176464
299.9099551709824
299.9094200655116
299.9094143280407
299.9098436816898
299.9119377853259
299.9137874519567
299.9162678389642
299.9210656423417
299.924931899935
299.9298748472133
299.9364786743089
299.9425668187289
299.949537111753
299.9573807230033
299.9653001642291
299.9729392383967
299.980991279288
299.9889104654735
299.9960097191313
300.0030767197488
300.009513796498
300.0146317265801
300.0166823658659
300.0196185476084
300.020306931099
300.0199997717509
300.0194441631203
300.0174980028787
300.0159334057994
300.01246178708
300.0079203466644
300.0040414993418
299.9978403621847
299.9916145585788
299.9856436901288
299.9782835702941
299.970502854594
299.9633470161438
299.9555799832254
299.9479607301018
299.9405451955261
299.9335786003644
299.9271170234188
299.9206072376184
299.916028479086
299.9134692399701
299.9121675287739
299.9107254532352
299.9107966799223
299.9115080166914
299.912893850753
299.9143545101609
299.9170762710846
299.9208465808985
299.9243853812896
299.9299412232984
299.9356125287891
299.9408954185679
299.9483296606347
299.9557184117327
299.9626202132706
299.9707220177415
299.9789806086587
299.9866283763736
299.9945906731521
300.0018150019184
300.0083431261159
300.0146091719437
300.0182685975852
300.0206505339494
300.0224471893949
300.022837939046
300.022175721906
300.0207942117326
300.0193738069822
300.0163210336834
300.0128779839142
300.0092156474377
300.0032543466435
299.9976235762201
299.9915769531514
299.9841185120482
299.9768152470958
299.9696512747556
299.9613590927866
299.9537147746046
299.9464120719478
299.9381551515987
299.9323216382958
299.9255364269284
299.9195922567482
299.9165940577751
299.9145076674241
299.9129868539722
299.9127359210644
299.9131412579912
299.9139298341905
299.9157832463272
299.9178023452989
299.9206989844356
299.9247748393778
299.9289388829569
299.9342096228975
299.9399854715799
299.9461740031625
299.9532326878463
299.9608718048262
299.9684941814394
299.9760593386846
299.9839418998687
299.9923130752891
299.9987354747408
300.0063177473592
300.0129991385307
300.0176228670072
300.020529821582
300.0227398117333
300.0238996438003
300.0233255692141
300.0221044904162
300.0207930231001
300.0185496088512
300.0145291335426
300.0107989381755
300.0057041626958
299.9991396359214
299.9935779569668
299.9865721459664
299.9788291844596
299.9714592970271
299.9636125711724
299.9554188492938
299.9478880178684
299.9407119071547
299.9334287653972
299.9265885984121
299.9211456117594
299.9161977173683
299.9132099412553
299.9121916394574
299.910677448155
299.9109075782335
299.911801431728
299.9132884398607
299.9147206911435
299.9181110710867
299.9214297735292
299.9254869165655
299.9308649202748
299.936615587789
299.9423879385798
299.9492407844062
299.9569191563198
299.9638757922233
299.9713036481957
299.9794995513989
299.9869249622218
299.9941708123507
300.0014320274868
300.0075489220422
300.0135097223722
300.0169462614643
300.0190324804962
300.0207139639745
300.0209675241672
300.0202400558686
300.0189797825927
300.01686343662
300.0136724039606
300.0104144627756
300.0056771351669
300.0002454621429
299.9948099001422
299.9880568481589
299.9811087025681
299.9737482197848
299.9661045711159
299.9585055429907
299.9506694242295
299.943408236302
299.9360844240039
299.9288897214873
299.9237580570838
299.9173258034739
299.9151583555401
299.9125434546684
299.9113206079629
299.9112464811745
299.9120723282763
299.9129898672882
299.9150808628725
299.9172102058765
299.9202334851075
299.9249493692058
299.9290618360503
299.9345128542196
299.9405708526502
299.9467702859643
299.9538687483557
299.9611833510954
299.9689105370264
299.9764006947823
299.9843444137692
299.9916237177504
299.9986635417363
300.0054706552107
300.0120944917406
300.0159674571651
300.0197249836672
300.0216847477294
300.0224065594888
300.0220658509212
300.0211116353544
300.0195350485263
300.0168662750444
300.0134813191287
300.0098686304603
300.0040825092212
299.9987284070373
299.9927224325062
299.985283983099
299.9787411851889
299.9709223067366
299.9629368235031
299.955657604349
299.9473999789803
299.9403118476816
299.9333982015915
299.9266444108525
299.9205737692981
299.9169498095159
299.9141581199942
299.912282975015
299.9120432751102
299.9122997767698
299.9132459361466
299.9153384382038
299.9173722783234
299.9200991833509
299.9245287811268
299.9282617878772
299.9332650117826
299.9394280592224
299.9447515148313
299.9516798560362
299.959083658812
299.9661077041602
299.9738025419053
299.9817774779236
299.9894174766274
299.9970841293748
300.0039206381592
300.0109383596341
300.0168411239854
300.0207625324005
300.0238597165231
300.0255562305643
300.0259796113311
300.0255285460433
300.0243549341167
300.0225364087698
300.0193205895549
300.0151474326927
300.0111626237795
300.0055110172577
299.9989666142044
299.9933597913508
299.9861281970849
299.9782972609779
299.9714827783739
299.9636295043905
299.9561036120665
299.9490934049013
299.9412953146814
299.9354490661243
299.92905978118
299.9233449060761
299.9201728608135
299.9172401829809
299.9161639089221
299.9150871361658
299.9151403074131
299.916237367715
299.917805738506
299.9196292851615
299.9220917039777
299.9257824728634
299.9293226754206
299.9335632591676
299.939193284812
299.9443232936584
299.949910815391
299.9566737942689
299.9628369475748
299.9692287298955
299.9760541120258
299.9828614245263
299.9883997519628
299.9946804933512
300.0002251042449
300.0046617415408
300.0079505547126
300.0105026414412
300.012368536563
300.0130031827752
300.0128253836426
300.0119946081973
300.0103778883848
300.0078015078915
300.004587793082
300.0008758825853
299.9966006421463
299.9912351737846
299.9858761524164
299.9804382423541
299.9735058383136
299.9673736277935
299.9608726555441
299.9541389880914
299.9480013263352
299.9415402865192
299.935423733353
299.9302522942772
299.9246761231471
299.9220535916119
299.9190698485666
299.9178573070207
299.9166753558786
299.9171546297891
299.9180430586728
299.9196363547334
299.9220168892664
299.9245097527581
299.928268300543
299.9322179248679
299.9363473458898
299.9419694176455
299.9469389920985
299.9525756912431
299.9590112701626
299.9652438966851
299.9717981503513
299.9783278738789
299.9847258190953
299.9914728495664
299.996899769848
300.0028324319253
300.0070446843096
300.0100232107546
300.0128831267191
300.0144285542241
300.0143632077009
300.0143169002072
300.0129517197778
300.0107748596148
300.0085351653365
300.0046304865002
299.9998538960133
299.9956760916054
299.9896220567759
299.9832838809497
299.9777237796621
299.9704319607429
299.9638138908344
299.9575170718123
299.9506960077779
299.9446262789643
299.9386204801357
299.9327940451841
299.9274979544635
299.9240978088941
299.9211882695133
299.9187738372463
299.918138557099
299.9177900927728
299.9185291118153
299.9197695358184
299.9225405791724
299.9243933174025
299.9280718420733
299.9325428368671
299.9359673587021
299.9415321622863
299.9463994485054
299.9516795425195
299.9580184270613
299.963383569568
299.9698191773049
299.9763931188838
299.9825393609552
299.9889423441521
299.9951226859225
300.0010355685289
300.0054003388194
300.00947520893
300.0127002766069
300.0143230412884
300.0152303650356
300.0153506295445
300.0143347887987
300.0122306081091
300.0100772962584
300.0064390254674
300.0015584384577
299.9974551275677
299.9916158824761
299.9848653195554
299.9793419475909
299.972140925405
299.9648290791297
299.9580966091157
299.9511675139453
299.9446423424982
299.9382023927771
299.932425099445
299.9273130691436
299.9224644467138
299.9197472403508
299.9174608564582
299.9158519987095
299.9150886860158
299.9152683494369
299.9161522382327
299.9180058699274
299.9202444661942
299.9231579057123
299.9271104495382
299.9310933624182
299.9359873925108
299.9414097662743
299.9467263141172
299.9526694879401
299.9583669710536
299.9646532499773
299.9709900251164
299.9770013444586
299.9833000568705
299.9896797310577
299.994637414991
300.0003166193569
300.0041683907024
300.0073748290212
300.0093878262921
300.0110860468553
300.0115548126336
300.0107581272246
300.0096429642579
300.0071661929216
300.0043849489459
300.0006809776265
299.9960310306894
299.9913323451436
299.9853898942103
299.9792757371216
299.9733816229591
299.9663522821844
299.9596691856231
299.9531603475713
299.9463283879728
299.9403575281444
299.9343718599818
299.9291428325413
299.9237989443131
299.920931875289
299.9186728840291
299.9171395421686
299.9160847806736
299.9158961089409
299.9162693553765
299.9177796809336
299.9195423121608
299.9217036900992
299.9253962764943
299.9294897461575
299.933853509892
299.9397871171428
299.9449249275221
299.9507085463761
299.9573390044616
299.9627597912547
299.9687759317746
299.975133979624
299.9806924548992
299.986524153109
299.9923179550184
299.9979921385886
300.0022685637128
300.0064137259516
300.0092486668091
300.0111786870122
300.0125699922244
300.012742462838
300.0119039171503
300.0102326253773
300.0076102690455
300.0039646761271
299.9999761993425
299.9949333165395
299.9888041101026
299.9832918450093
299.9768532328183
299.9697944536825
299.963366604777
299.9562132049981
299.9496225279578
299.9431957746909
299.9369577842941
299.9312373640959
299.926197259858
299.9218960921655
299.9198214446683
299.9172560129298
299.9166119043385
299.9157835299191
299.9163908680932
299.9175021830071
299.919037715528
299.9216384314528
299.9239117059298
299.9273811622342
299.9319893598022
299.9362298341643
299.9420785399664
299.9483768373036
299.9540208699567
299.960784726841
299.9672118742459
299.9732215928793
299.9791511011921
299.9845953580007
299.9902876155073
299.9947682980706
300.0000188364904
300.0032324652573
300.0072826679578
300.0093465084485
300.0118004055153
300.0131043215202
300.012919261944
300.0118934663309
300.009868670737
300.0063469734518
300.0024422344427
299.9974669551481
299.9914533278265
299.9852014604955
299.9787494809533
299.9714521808413
299.9640372586014
299.9570042200539
299.9495657734241
299.9428693408848
299.9361883808255
299.9298578997963
299.9245477026441
299.9193082490874
299.9162093312476
299.914186628012
299.9120450361299
299.9110147408052
299.9114612137531
299.9121752762754
299.9135842296453
299.9158895166087
299.9183956846165
299.9213262274246
299.9256394816531
299.9299065886246
299.9346607352962
299.9406289425336
299.9462831179063
299.9521797681262
299.9588380444177
299.96549754429
299.9717650600829
299.9780540177353
299.9841948883581
299.9891087222882
299.9938161528743
299.9972706579131
299.999181044349
300.0016045715628
300.0034136885978
300.0047251980175
300.0056065325696
300.0055235194234
300.0037458885605
300.0018441615827
299.997893579546
299.9926471162231
299.9878627007956
299.9817312430205
299.9752135298697
299.9691450948767
299.9623659714897
299.9552055108579
299.9486003010679
299.9418298218784
299.9347908630945
299.9292818451746
299.9230406239849
299.9176750794007
299.9136442381956
299.9114661601781
299.9091050107909
299.9074749546785
299.906982709984
299.9074246079695
299.9084105093102
299.9096889148235
299.9124014546832
299.9147506611646
299.9183547276235
299.9234696179549
299.9281392939351
299.934374465236
299.943785633442
299.9487293324782
299.9601721031175
299.9667442347389
)
;

boundaryField
{
    inlet
    {
        type            fixedValue;
        value           uniform 300;
    }
    outlet
    {
        type            inletOutlet;
        inletValue      uniform 300;
        value           uniform 299.9705714871841;
    }
    frontAndBack
    {
        type            empty;
    }
}


// ************************************************************************* //
