/*--------------------------------*- C++ -*----------------------------------*\
| =========                 |                                                 |
| \\      /  F ield         | OpenFOAM: The Open Source CFD Toolbox           |
|  \\    /   O peration     | Version:  v2012                                 |
|   \\  /    A nd           | Website:  www.openfoam.com                      |
|    \\/     M anipulation  |                                                 |
\*---------------------------------------------------------------------------*/
FoamFile
{
    version     2.0;
    format      ascii;
    class       volVectorField;
    location    "0.019";
    object      U;
}
// * * * * * * * * * * * * * * * * * * * * * * * * * * * * * * * * * * * * * //

dimensions      [0 1 -1 0 0 0 0];


internalField   nonuniform List<vector> 
1000
(
(-0.003898780370519806 0 0)
(-0.03026695999307477 0 0)
(-0.03214731597359118 0 0)
(-0.05315373181538833 0 0)
(-0.05594656014953259 0 0)
(-0.06474430381669731 0 0)
(-0.07507830600175859 0 0)
(-0.07559323292863313 0 0)
(-0.07600414493753996 0 0)
(-0.0759435645217454 0 0)
(-0.07093025924544893 0 0)
(-0.06474780457287392 0 0)
(-0.05674155345650324 0 0)
(-0.04673480859371248 0 0)
(-0.03552978698163764 0 0)
(-0.01859674695385077 0 0)
(-0.006451503830141107 0 0)
(0.01149717077310197 0 0)
(0.0323052965663062 0 0)
(0.04620501558902277 0 0)
(0.06801665324574256 0 0)
(0.08570181468612295 0 0)
(0.1022231774067316 0 0)
(0.1206753450056423 0 0)
(0.1353710146160557 0 0)
(0.1488565434057288 0 0)
(0.1598826992686092 0 0)
(0.1715491724877685 0 0)
(0.1787866517329406 0 0)
(0.1844603738043367 0 0)
(0.1855814702976227 0 0)
(0.185140471697623 0 0)
(0.1849593634916301 0 0)
(0.1784593745853065 0 0)
(0.1732160741632809 0 0)
(0.1666255009189051 0 0)
(0.1567475559735062 0 0)
(0.1488748990095886 0 0)
(0.1354849995660573 0 0)
(0.1205532830718541 0 0)
(0.107004843874751 0 0)
(0.088459015329502 0 0)
(0.07091674968543557 0 0)
(0.05328924670500382 0 0)
(0.03619673405643213 0 0)
(0.01874880156890138 0 0)
(0.0006405823289435956 0 0)
(-0.01377774866091166 0 0)
(-0.02944600422713399 0 0)
(-0.04352356431670567 0 0)
(-0.05477254060561224 0 0)
(-0.06411217946592163 0 0)
(-0.07369871928052169 0 0)
(-0.07797161726197653 0 0)
(-0.07890186312443269 0 0)
(-0.07758132687696986 0 0)
(-0.07404725936260625 0 0)
(-0.06718795492758708 0 0)
(-0.0593625539140064 0 0)
(-0.05138406773586999 0 0)
(-0.03919055618739776 0 0)
(-0.02776553560623622 0 0)
(-0.01500280136308552 0 0)
(0.003223395320101686 0 0)
(0.01752563060029692 0 0)
(0.03633661235141737 0 0)
(0.05595390030882002 0 0)
(0.07253386153478646 0 0)
(0.09225153058089416 0 0)
(0.1091042741216192 0 0)
(0.124890388220451 0 0)
(0.1392342932704559 0 0)
(0.1509879807114785 0 0)
(0.1633086226671996 0 0)
(0.1715558500057904 0 0)
(0.1787392470464977 0 0)
(0.1815732102757211 0 0)
(0.1805210208242422 0 0)
(0.1795647473516573 0 0)
(0.1754043421061433 0 0)
(0.1692877783579976 0 0)
(0.1620962542842709 0 0)
(0.1546921152691943 0 0)
(0.1475331797474083 0 0)
(0.1355722785872169 0 0)
(0.1239582440589761 0 0)
(0.1131191499442489 0 0)
(0.09538911955599304 0 0)
(0.07944788164965846 0 0)
(0.06410470218370985 0 0)
(0.04464845342555599 0 0)
(0.02668052812424686 0 0)
(0.009721927116217553 0 0)
(-0.007179877011072846 0 0)
(-0.02174648503773961 0 0)
(-0.03586380237827581 0 0)
(-0.04768515581790382 0 0)
(-0.05794316657777038 0 0)
(-0.06722317509124925 0 0)
(-0.0734621006686783 0 0)
(-0.07498825160172513 0 0)
(-0.07389403529891911 0 0)
(-0.07046103777263106 0 0)
(-0.06537490080692533 0 0)
(-0.05567578113014317 0 0)
(-0.04852035543685451 0 0)
(-0.03715565268449687 0 0)
(-0.02630052232199217 0 0)
(-0.01431024408567733 0 0)
(0.001572612093782552 0 0)
(0.01558691209462159 0 0)
(0.03236976716670135 0 0)
(0.0503800938776417 0 0)
(0.06703876385632204 0 0)
(0.08593181128398242 0 0)
(0.1042259308965685 0 0)
(0.1201913009542366 0 0)
(0.1361699198468922 0 0)
(0.1508032854622251 0 0)
(0.1615967482135814 0 0)
(0.171999803606901 0 0)
(0.179870226130174 0 0)
(0.1831549043610154 0 0)
(0.1851071655747727 0 0)
(0.1831436127401375 0 0)
(0.1801111861807884 0 0)
(0.1737825849391851 0 0)
(0.1674408267312061 0 0)
(0.1598410163120416 0 0)
(0.1525548182435538 0 0)
(0.1437925810351995 0 0)
(0.1292663612862817 0 0)
(0.1199855889508278 0 0)
(0.1066636083511478 0 0)
(0.08889880947685365 0 0)
(0.07583888044921835 0 0)
(0.05697152054149104 0 0)
(0.03980604627670027 0 0)
(0.02243630253403966 0 0)
(0.004196250083259307 0 0)
(-0.01228488952725343 0 0)
(-0.02806396929969557 0 0)
(-0.04090410532070259 0 0)
(-0.05390890848432765 0 0)
(-0.06244336376406551 0 0)
(-0.06949585131826511 0 0)
(-0.07280529164654419 0 0)
(-0.07198449791694457 0 0)
(-0.0688817292603793 0 0)
(-0.06433520051156816 0 0)
(-0.05765041549573912 0 0)
(-0.04799107158465234 0 0)
(-0.03832451758147244 0 0)
(-0.02731988956626011 0 0)
(-0.01581353137930368 0 0)
(-0.001952768880430535 0 0)
(0.01373285502223261 0 0)
(0.02840837644635483 0 0)
(0.04499317392488355 0 0)
(0.06243289264537128 0 0)
(0.0785418697077558 0 0)
(0.09667607768691175 0 0)
(0.1140267442890548 0 0)
(0.1288834132438639 0 0)
(0.1442921573821171 0 0)
(0.1578725552358866 0 0)
(0.1671912817378204 0 0)
(0.1788805802631744 0 0)
(0.1843605794652022 0 0)
(0.1850361273901355 0 0)
(0.1850843799151642 0 0)
(0.1817128874801784 0 0)
(0.1767109356256109 0 0)
(0.1702283479325241 0 0)
(0.1626839706449716 0 0)
(0.1557911799034651 0 0)
(0.1480956250543613 0 0)
(0.13627365501163 0 0)
(0.1266774078387239 0 0)
(0.1158042879558191 0 0)
(0.1000248576444979 0 0)
(0.08646157842980103 0 0)
(0.07189025032879667 0 0)
(0.05433663485183469 0 0)
(0.03735007226290932 0 0)
(0.02119718004637818 0 0)
(0.003278154921157156 0 0)
(-0.0123953627490794 0 0)
(-0.02666938624887091 0 0)
(-0.04000055128544605 0 0)
(-0.05002435045771344 0 0)
(-0.05859474102233598 0 0)
(-0.06342258924759719 0 0)
(-0.06363910541607397 0 0)
(-0.06081397823624596 0 0)
(-0.05675595931854348 0 0)
(-0.0501129067933468 0 0)
(-0.04214567088685749 0 0)
(-0.03194590792872688 0 0)
(-0.02151973886030366 0 0)
(-0.01116922845707339 0 0)
(0.002374613027322241 0 0)
(0.01690256188182264 0 0)
(0.03004713829768895 0 0)
(0.04765373128352639 0 0)
(0.06315437390303366 0 0)
(0.07942820666124478 0 0)
(0.09725941785137797 0 0)
(0.1127572204522336 0 0)
(0.1296423730263637 0 0)
(0.1443222518743557 0 0)
(0.1580700868203831 0 0)
(0.1718346164669744 0 0)
(0.180793813867257 0 0)
(0.1895436566419396 0 0)
(0.1937339879575823 0 0)
(0.194312659145761 0 0)
(0.1917055415383124 0 0)
(0.1883787283071202 0 0)
(0.181785509042787 0 0)
(0.1744278049007686 0 0)
(0.1666122248015119 0 0)
(0.1596006578945708 0 0)
(0.1493995626776469 0 0)
(0.1377239136881829 0 0)
(0.1287487949111143 0 0)
(0.1142647264098548 0 0)
(0.1000208194893712 0 0)
(0.08739442040794347 0 0)
(0.07095360641811935 0 0)
(0.054206791435185 0 0)
(0.03817839351166885 0 0)
(0.0219320755173422 0 0)
(0.005219779941558862 0 0)
(-0.01014676733478992 0 0)
(-0.02371261841639496 0 0)
(-0.03436029500931299 0 0)
(-0.04691807722333617 0 0)
(-0.05274771359497439 0 0)
(-0.05309907554838307 0 0)
(-0.05269716422226831 0 0)
(-0.04897418560978788 0 0)
(-0.04187146174713186 0 0)
(-0.0349360050721223 0 0)
(-0.02599618937724132 0 0)
(-0.01446872831988913 0 0)
(-0.005231085860258581 0 0)
(0.006811714587659399 0 0)
(0.02309265566588449 0 0)
(0.03364416827043862 0 0)
(0.05019699262842502 0 0)
(0.067534479735191 0 0)
(0.08029741661332608 0 0)
(0.09924073599516163 0 0)
(0.1168935029568055 0 0)
(0.1311289151377614 0 0)
(0.14761088399497 0 0)
(0.1634371987866853 0 0)
(0.1762786203891855 0 0)
(0.1861343571335168 0 0)
(0.199696385428248 0 0)
(0.2057127266450851 0 0)
(0.207022246041376 0 0)
(0.2068269774513004 0 0)
(0.2040338128398515 0 0)
(0.1976388132596719 0 0)
(0.1904622953791849 0 0)
(0.1828616049769912 0 0)
(0.1757392948194539 0 0)
(0.1662370114754348 0 0)
(0.153891588621529 0 0)
(0.1446583453047288 0 0)
(0.1309089543768114 0 0)
(0.1165697275333382 0 0)
(0.1051907942290135 0 0)
(0.08871455384264246 0 0)
(0.07165700722173965 0 0)
(0.05673762197648023 0 0)
(0.04009479173599588 0 0)
(0.0220470801225379 0 0)
(0.006691822191452035 0 0)
(-0.007398713426276735 0 0)
(-0.02438697672966344 0 0)
(-0.03338759782698906 0 0)
(-0.04407152799724166 0 0)
(-0.04719978270028898 0 0)
(-0.0479952366046263 0 0)
(-0.04541438725229797 0 0)
(-0.03972329834403134 0 0)
(-0.032461617131859 0 0)
(-0.02623856315657331 0 0)
(-0.01360390985991751 0 0)
(-0.003851184958065285 0 0)
(0.005632216385181204 0 0)
(0.02292648562615508 0 0)
(0.03397132477298554 0 0)
(0.04780206531774592 0 0)
(0.06625856896135515 0 0)
(0.07835588066381091 0 0)
(0.09508382535140815 0 0)
(0.1121075075837774 0 0)
(0.1248629591557663 0 0)
(0.1414863745295563 0 0)
(0.1566867714837189 0 0)
(0.1671226120804248 0 0)
(0.1839100431338344 0 0)
(0.1915251439340681 0 0)
(0.2014625224314835 0 0)
(0.2061677719487122 0 0)
(0.2047827829134298 0 0)
(0.2042622952347338 0 0)
(0.199714584685694 0 0)
(0.1923919749189345 0 0)
(0.1853063769105615 0 0)
(0.1782318586508439 0 0)
(0.1700676187992061 0 0)
(0.1582714061271631 0 0)
(0.1487909396932205 0 0)
(0.1382050552083714 0 0)
(0.1239237345626692 0 0)
(0.1119712749225112 0 0)
(0.09766240081348665 0 0)
(0.08241946035978287 0 0)
(0.06698698459536992 0 0)
(0.05123358093110998 0 0)
(0.03512887309049093 0 0)
(0.01980845311405194 0 0)
(0.004521703853464435 0 0)
(-0.01048659236910691 0 0)
(-0.02078497289787239 0 0)
(-0.03295535243190187 0 0)
(-0.03985630703982699 0 0)
(-0.04112106192760089 0 0)
(-0.03896001739467695 0 0)
(-0.03640559636591236 0 0)
(-0.02852381862357116 0 0)
(-0.0206700976533944 0 0)
(-0.01057798147527326 0 0)
(-0.001319679957275591 0 0)
(0.009279608622792713 0 0)
(0.02417802796954177 0 0)
(0.03616094364657296 0 0)
(0.04941068262660397 0 0)
(0.06637266300486462 0 0)
(0.07962875406984583 0 0)
(0.09515992746497716 0 0)
(0.1113261629666831 0 0)
(0.1269409035455111 0 0)
(0.1418774494826332 0 0)
(0.1565507608012853 0 0)
(0.1710671447211599 0 0)
(0.1828057166796471 0 0)
(0.195138388973199 0 0)
(0.2048026814630933 0 0)
(0.2134195726178099 0 0)
(0.2143783075803864 0 0)
(0.2138269023998827 0 0)
(0.2128634464434136 0 0)
(0.2056279997980493 0 0)
(0.1997781674808209 0 0)
(0.1920256167890342 0 0)
(0.1828030023876293 0 0)
(0.1736411887172236 0 0)
(0.1635800951638047 0 0)
(0.1508665338849289 0 0)
(0.1389860736699584 0 0)
(0.1251293731156093 0 0)
(0.1108655313212866 0 0)
(0.0974346990053105 0 0)
(0.08050262762083733 0 0)
(0.06392541602046407 0 0)
(0.04980284241553107 0 0)
(0.03258901682908234 0 0)
(0.01777850443033828 0 0)
(0.003926231827296744 0 0)
(-0.009942214065917833 0 0)
(-0.02117956703534832 0 0)
(-0.03053594747677647 0 0)
(-0.03414672554136528 0 0)
(-0.03390600480997761 0 0)
(-0.03268869883122334 0 0)
(-0.02629266507496356 0 0)
(-0.019136623594764 0 0)
(-0.01142963899461685 0 0)
(-0.001329139034452626 0 0)
(0.008820494988528717 0 0)
(0.02027298242456712 0 0)
(0.03427794047735896 0 0)
(0.0466817945895084 0 0)
(0.06199186785551532 0 0)
(0.07700315860804598 0 0)
(0.09016302564721602 0 0)
(0.1064752358776542 0 0)
(0.1222608017038841 0 0)
(0.1363397150475038 0 0)
(0.1517163789784221 0 0)
(0.1660188385259387 0 0)
(0.179402807023132 0 0)
(0.1923165965308059 0 0)
(0.2027550608814374 0 0)
(0.2138761449257346 0 0)
(0.2182930467878628 0 0)
(0.2185717360222332 0 0)
(0.2180617323900438 0 0)
(0.2130448415832836 0 0)
(0.2061579474267669 0 0)
(0.1991495267618803 0 0)
(0.189832732852256 0 0)
(0.1819261914965135 0 0)
(0.1699664005778881 0 0)
(0.1574136479785709 0 0)
(0.1468183466106362 0 0)
(0.1302039356604943 0 0)
(0.1165488759447088 0 0)
(0.1035233675312492 0 0)
(0.08465421799325396 0 0)
(0.07047594183986969 0 0)
(0.05514227742937807 0 0)
(0.0378240516560423 0 0)
(0.02252598673879548 0 0)
(0.007925640736550351 0 0)
(-0.006420434628856952 0 0)
(-0.01870571525407924 0 0)
(-0.02920779904728663 0 0)
(-0.03721526363646732 0 0)
(-0.03704203593289433 0 0)
(-0.03642068498867062 0 0)
(-0.03200456707747198 0 0)
(-0.02564166267646857 0 0)
(-0.01769959305550139 0 0)
(-0.008905280794172733 0 0)
(0.00126010976623741 0 0)
(0.01300254741673744 0 0)
(0.02656560291849201 0 0)
(0.03952794579662181 0 0)
(0.055345965484969 0 0)
(0.06940051368305926 0 0)
(0.08439760038264128 0 0)
(0.1003674308086243 0 0)
(0.1145601620770512 0 0)
(0.1304595424164857 0 0)
(0.1448701848868987 0 0)
(0.1573281612404545 0 0)
(0.1711757701667047 0 0)
(0.1834671470931973 0 0)
(0.1937496152717524 0 0)
(0.2036601955734812 0 0)
(0.211681724469798 0 0)
(0.2132514458927686 0 0)
(0.2120199796777139 0 0)
(0.2103216564421202 0 0)
(0.2035248867996126 0 0)
(0.1962637037502822 0 0)
(0.1877945411657397 0 0)
(0.1798618222587576 0 0)
(0.1684369317423318 0 0)
(0.1570311982201079 0 0)
(0.145516191951351 0 0)
(0.1298876323745592 0 0)
(0.1170133620811913 0 0)
(0.1018159233242059 0 0)
(0.08664168178323993 0 0)
(0.07180250016817739 0 0)
(0.05409743546047096 0 0)
(0.04016278217829423 0 0)
(0.02476759152433471 0 0)
(0.009042476386268072 0 0)
(-0.002145200164443166 0 0)
(-0.01794480231371338 0 0)
(-0.02700112481369862 0 0)
(-0.03796047824539325 0 0)
(-0.04150774737194099 0 0)
(-0.04034884034653682 0 0)
(-0.03962928925849492 0 0)
(-0.03381202194518707 0 0)
(-0.02676324607905786 0 0)
(-0.01870741347485849 0 0)
(-0.008073881705167546 0 0)
(0.001643047782960973 0 0)
(0.01487174474963784 0 0)
(0.02967645914894489 0 0)
(0.04220229609736722 0 0)
(0.05899928925525999 0 0)
(0.07458874038774507 0 0)
(0.08911313550811584 0 0)
(0.1061642173611533 0 0)
(0.1210338919757497 0 0)
(0.1351541150865831 0 0)
(0.1492963446777672 0 0)
(0.1631185687250808 0 0)
(0.1735214518347525 0 0)
(0.1867945349044347 0 0)
(0.1949569799083579 0 0)
(0.2040578057858853 0 0)
(0.2080571916719087 0 0)
(0.2081126976336911 0 0)
(0.2074820567178677 0 0)
(0.2027139825222141 0 0)
(0.1962041291672386 0 0)
(0.188872125619973 0 0)
(0.1814781086873665 0 0)
(0.1731453914605148 0 0)
(0.1613495002110996 0 0)
(0.1514275750740548 0 0)
(0.1392665560413943 0 0)
(0.1231889847077667 0 0)
(0.1112389983778026 0 0)
(0.09774809348331991 0 0)
(0.07968421664276924 0 0)
(0.0663804315680354 0 0)
(0.05182978071902332 0 0)
(0.03603201560691859 0 0)
(0.02274143240273725 0 0)
(0.007948349153556671 0 0)
(-0.004714699225354437 0 0)
(-0.01385816024284629 0 0)
(-0.02662081528732776 0 0)
(-0.03181366915315822 0 0)
(-0.03202649246434618 0 0)
(-0.03109494641404168 0 0)
(-0.02733542069301839 0 0)
(-0.02065313424903063 0 0)
(-0.01256278684684168 0 0)
(-0.003234794556497149 0 0)
(0.005798895346944844 0 0)
(0.01870641530002163 0 0)
(0.03084662676972948 0 0)
(0.04517391005732575 0 0)
(0.06039026385264331 0 0)
(0.07460661765198107 0 0)
(0.09011096173133355 0 0)
(0.1060725547058797 0 0)
(0.1203941697720065 0 0)
(0.1359589268074085 0 0)
(0.1508405776278699 0 0)
(0.1632212019937729 0 0)
(0.1765410089515012 0 0)
(0.188625825391778 0 0)
(0.1972560934909107 0 0)
(0.2074865262748099 0 0)
(0.214615978458762 0 0)
(0.2154635549490905 0 0)
(0.2151567100695841 0 0)
(0.2135236348601991 0 0)
(0.2071218430800237 0 0)
(0.200535867352905 0 0)
(0.1935617363502745 0 0)
(0.1844383499143843 0 0)
(0.1732640261409916 0 0)
(0.1632793176977203 0 0)
(0.1493040495955698 0 0)
(0.1342914263282015 0 0)
(0.1220350373229742 0 0)
(0.1062494387419067 0 0)
(0.09031662875895369 0 0)
(0.07579872903981899 0 0)
(0.05831005950609097 0 0)
(0.04354306334505252 0 0)
(0.03024747435394477 0 0)
(0.01433142738098603 0 0)
(0.002149271093618606 0 0)
(-0.007313373634787063 0 0)
(-0.02129035441559823 0 0)
(-0.0281793784017288 0 0)
(-0.03051667836870831 0 0)
(-0.02977834668137195 0 0)
(-0.028351201839594 0 0)
(-0.02301947548884587 0 0)
(-0.01548404251103006 0 0)
(-0.008684663318156731 0 0)
(0.001574639277856768 0 0)
(0.01224267907606649 0 0)
(0.02376578026758844 0 0)
(0.03950437246523363 0 0)
(0.05323386923381639 0 0)
(0.06927064892214962 0 0)
(0.08451231292235943 0 0)
(0.09935316181214604 0 0)
(0.1165967411328929 0 0)
(0.1314373246754763 0 0)
(0.1452001242898368 0 0)
(0.1599259686590063 0 0)
(0.1721196305471348 0 0)
(0.1845162420552602 0 0)
(0.1950159700187922 0 0)
(0.2030597925276099 0 0)
(0.2102435655344722 0 0)
(0.2135776302136388 0 0)
(0.2129296701383209 0 0)
(0.2121009067695733 0 0)
(0.2062170327600695 0 0)
(0.1987764509407582 0 0)
(0.1915369752799881 0 0)
(0.1844822353419054 0 0)
(0.1750003163013474 0 0)
(0.1634522209498943 0 0)
(0.1541079810434263 0 0)
(0.1381674277692039 0 0)
(0.1232456784556344 0 0)
(0.1108052366186022 0 0)
(0.09368519568385766 0 0)
(0.07774656160433524 0 0)
(0.06278930979602425 0 0)
(0.04676501295051155 0 0)
(0.03171282952085532 0 0)
(0.01912091264249835 0 0)
(0.004750151143622447 0 0)
(-0.007106554518985474 0 0)
(-0.0157970248959423 0 0)
(-0.02500309544819969 0 0)
(-0.02903194877561065 0 0)
(-0.03002755350966572 0 0)
(-0.02990393821216368 0 0)
(-0.02428841218376383 0 0)
(-0.01816556002693721 0 0)
(-0.01193392643789274 0 0)
(-0.002311692261143688 0 0)
(0.007243874934469542 0 0)
(0.01796429456736984 0 0)
(0.03341760838170114 0 0)
(0.04589797691366215 0 0)
(0.06113845376175641 0 0)
(0.07974403152356656 0 0)
(0.09363948419206941 0 0)
(0.1109779038503346 0 0)
(0.1285151521557136 0 0)
(0.1428071780397614 0 0)
(0.1579660689946221 0 0)
(0.1714125029005821 0 0)
(0.1836889051598635 0 0)
(0.1944533097231535 0 0)
(0.2045616052137283 0 0)
(0.2120339888563007 0 0)
(0.2183596807133898 0 0)
(0.2192654818405187 0 0)
(0.2182282931347231 0 0)
(0.2161955035780068 0 0)
(0.2095497316706512 0 0)
(0.2031195183107362 0 0)
(0.1967230806467248 0 0)
(0.1892558481037793 0 0)
(0.18131722110448 0 0)
(0.1708703251276475 0 0)
(0.1606037630468896 0 0)
(0.1486995448830297 0 0)
(0.1359168456361495 0 0)
(0.1227508606280438 0 0)
(0.1091235107596564 0 0)
(0.09582113074209836 0 0)
(0.08013084625367384 0 0)
(0.06659686887351517 0 0)
(0.05371936027813481 0 0)
(0.04068154039876354 0 0)
(0.03044405863075043 0 0)
(0.01849013553308291 0 0)
(0.01136739780754386 0 0)
(0.003068992213561728 0 0)
(0.0001231130270361256 0 0)
(-0.0001756961702545088 0 0)
(-0.0001664476423666555 0 0)
(0.004482440433391771 0 0)
(0.009271877845672509 0 0)
(0.01605561100855553 0 0)
(0.02406141111477056 0 0)
(0.03261604372049305 0 0)
(0.04201243653848396 0 0)
(0.05445330423447148 0 0)
(0.06582209124296891 0 0)
(0.07723685325015525 0 0)
(0.09143862930400273 0 0)
(0.1035869275964665 0 0)
(0.1162379899113855 0 0)
(0.1287898362414533 0 0)
(0.1399946089595466 0 0)
(0.151210831692026 0 0)
(0.1608871898228258 0 0)
(0.1687778679392355 0 0)
(0.1780722257667901 0 0)
(0.1835912707999919 0 0)
(0.1888087068513948 0 0)
(0.1930336580736471 0 0)
(0.1925276960255558 0 0)
(0.1919001692644338 0 0)
(0.1909111000105018 0 0)
(0.1860855945566422 0 0)
(0.1802939141004976 0 0)
(0.1755376333861811 0 0)
(0.1683309176028202 0 0)
(0.1618541316525119 0 0)
(0.1541368692938711 0 0)
(0.1436707661484664 0 0)
(0.1345945653683105 0 0)
(0.1244287442159336 0 0)
(0.1119301793937063 0 0)
(0.1008776411743038 0 0)
(0.08959792521946204 0 0)
(0.0764147085714708 0 0)
(0.06433029698693847 0 0)
(0.05300273907849783 0 0)
(0.04161003890817785 0 0)
(0.0318849899488186 0 0)
(0.02414954523776162 0 0)
(0.01554716262635009 0 0)
(0.01050027478402694 0 0)
(0.009105021825392266 0 0)
(0.007691967739362602 0 0)
(0.01010742463992132 0 0)
(0.01277878815424933 0 0)
(0.01789014439754274 0 0)
(0.02387208840491831 0 0)
(0.03066431723053142 0 0)
(0.03885463093908956 0 0)
(0.04717791775269316 0 0)
(0.05796293963741738 0 0)
(0.0690658928118919 0 0)
(0.08105871000038278 0 0)
(0.09513338868803591 0 0)
(0.1069945222549204 0 0)
(0.1200686456316256 0 0)
(0.1335093653736939 0 0)
(0.1444654409897839 0 0)
(0.1555932545115955 0 0)
(0.1656187691514987 0 0)
(0.1740610966696208 0 0)
(0.1796475434785938 0 0)
(0.1860407934274897 0 0)
(0.1895014396408363 0 0)
(0.1893786679773379 0 0)
(0.1899980499088718 0 0)
(0.1873483960527058 0 0)
(0.1827904707380443 0 0)
(0.177462135647285 0 0)
(0.1723357657639617 0 0)
(0.1660089564371858 0 0)
(0.1600687032987572 0 0)
(0.1520644326083892 0 0)
(0.1443491277233177 0 0)
(0.1351843395804799 0 0)
(0.1258077849201908 0 0)
(0.1153901304797454 0 0)
(0.1041631660877699 0 0)
(0.09370486032847034 0 0)
(0.08233482397548528 0 0)
(0.06874244111234475 0 0)
(0.05735740189286855 0 0)
(0.04574551816384862 0 0)
(0.03386266484341564 0 0)
(0.02460840630179325 0 0)
(0.01652567488714258 0 0)
(0.009569190633775355 0 0)
(0.005449945279877297 0 0)
(0.005620291140068654 0 0)
(0.006664219795467555 0 0)
(0.01004274317952433 0 0)
(0.0139070694133069 0 0)
(0.0206819323990117 0 0)
(0.02633202233244845 0 0)
(0.03491645437998864 0 0)
(0.04084665489709773 0 0)
(0.05027765103053318 0 0)
(0.06220027143209554 0 0)
(0.07109818573881313 0 0)
(0.08417469795381904 0 0)
(0.09823864528871178 0 0)
(0.1094332343651907 0 0)
(0.1234172295006836 0 0)
(0.1368549674727435 0 0)
(0.1474876042768395 0 0)
(0.1583914531280187 0 0)
(0.1676925644819592 0 0)
(0.1755382798352416 0 0)
(0.1811510891679531 0 0)
(0.1849177896512988 0 0)
(0.1872996667040216 0 0)
(0.186958945938833 0 0)
(0.1851859793980296 0 0)
(0.1810682092712807 0 0)
(0.1768472634600507 0 0)
(0.1709441795424671 0 0)
(0.165818471303413 0 0)
(0.1591360686004537 0 0)
(0.1539069787047055 0 0)
(0.1473309487364677 0 0)
(0.1377685822913277 0 0)
(0.1311774243771615 0 0)
(0.1226652923144696 0 0)
(0.1108414741330735 0 0)
(0.1013970881736885 0 0)
(0.0916739133589336 0 0)
(0.079012483148042 0 0)
(0.06879798009796209 0 0)
(0.05764446535910604 0 0)
(0.04622904866593834 0 0)
(0.03745982169229059 0 0)
(0.02830819462365118 0 0)
(0.02003603619698188 0 0)
(0.01527424725050712 0 0)
(0.01432167837558688 0 0)
(0.01503445807388431 0 0)
(0.01567804635812255 0 0)
(0.02166960658314017 0 0)
(0.02708180139398444 0 0)
(0.03392384291774554 0 0)
(0.04205511655465501 0 0)
(0.04899739504715755 0 0)
(0.05761918634486583 0 0)
(0.06823428652937004 0 0)
(0.07679662873507669 0 0)
(0.08882645342405122 0 0)
(0.1013593307303621 0 0)
(0.1124463737781968 0 0)
(0.1257375787516233 0 0)
(0.1388247982949938 0 0)
(0.149884608737818 0 0)
(0.1615966906052649 0 0)
(0.17225309995999 0 0)
(0.1804689485676918 0 0)
(0.1864634510899139 0 0)
(0.1937215385554477 0 0)
(0.1968312126323716 0 0)
(0.1961951911189795 0 0)
(0.1959770011437616 0 0)
(0.1934279172891421 0 0)
(0.1875433759713708 0 0)
(0.1838319138005894 0 0)
(0.1774914451296741 0 0)
(0.1720053942658665 0 0)
(0.1656164223590851 0 0)
(0.1581944593829234 0 0)
(0.1503846658026306 0 0)
(0.1424013474662671 0 0)
(0.1337224752548325 0 0)
(0.1223597822316897 0 0)
(0.1125859144011831 0 0)
(0.1019569187451318 0 0)
(0.08913091189681104 0 0)
(0.07770995858492562 0 0)
(0.06572859155764162 0 0)
(0.05460832369882677 0 0)
(0.04356754277650406 0 0)
(0.03372531828106161 0 0)
(0.02537817497538275 0 0)
(0.01830223540907927 0 0)
(0.0153846669980154 0 0)
(0.01376171473275258 0 0)
(0.0158275276768363 0 0)
(0.01846982957894184 0 0)
(0.02420155900521556 0 0)
(0.03050078344267757 0 0)
(0.03831715057238735 0 0)
(0.04636437004401844 0 0)
(0.05471964206037221 0 0)
(0.06466487970044102 0 0)
(0.07423814828200777 0 0)
(0.08360982626774874 0 0)
(0.0949506255052508 0 0)
(0.1059359679895665 0 0)
(0.1172369080448571 0 0)
(0.1301111981803998 0 0)
(0.1420894964978024 0 0)
(0.1544429600470452 0 0)
(0.1658688475933818 0 0)
(0.1761752531307141 0 0)
(0.1851273234465125 0 0)
(0.1912103004027641 0 0)
(0.1952557810418034 0 0)
(0.1969774681051877 0 0)
(0.1954961241235257 0 0)
(0.1914839245724071 0 0)
(0.1863086671741718 0 0)
(0.1804685714707061 0 0)
(0.1736665730224216 0 0)
(0.167176512436141 0 0)
(0.160894048873577 0 0)
(0.15445332988834 0 0)
(0.1464342013947299 0 0)
(0.1404791940041052 0 0)
(0.1318564429557339 0 0)
(0.1219349050954717 0 0)
(0.1140575016442678 0 0)
(0.1033898466491799 0 0)
(0.09294594132729764 0 0)
(0.08157311167574131 0 0)
(0.07022467348955319 0 0)
(0.05913892405364752 0 0)
(0.04838184807330285 0 0)
(0.03811162773371447 0 0)
(0.03009999965415032 0 0)
(0.02122914282071221 0 0)
(0.01662124949095191 0 0)
(0.0160631144148521 0 0)
(0.01608391271412283 0 0)
(0.01831372818601436 0 0)
(0.02281296123791525 0 0)
(0.02778566266254705 0 0)
(0.03545336971837288 0 0)
(0.04297330751191058 0 0)
(0.05188661695867301 0 0)
(0.06064241087507182 0 0)
(0.07091880848299868 0 0)
(0.0824641545660596 0 0)
(0.09232259960908763 0 0)
(0.1035256937922822 0 0)
(0.1147755832256411 0 0)
(0.1247379017146773 0 0)
(0.1358693463073884 0 0)
(0.1470336201102757 0 0)
(0.1575932602529161 0 0)
(0.1691649708371266 0 0)
(0.1791752891338889 0 0)
(0.1862134380699943 0 0)
(0.1955958149812136 0 0)
(0.1983493965189975 0 0)
(0.1974409408732204 0 0)
(0.1951402753439978 0 0)
(0.1881450354033223 0 0)
(0.1840055546935821 0 0)
(0.1747486587279707 0 0)
(0.1664856611738908 0 0)
(0.1593188693277465 0 0)
(0.1532723438343369 0 0)
(0.1459905693918683 0 0)
(0.140179273865889 0 0)
(0.1336502434762068 0 0)
(0.1256863433284974 0 0)
(0.1187939481276752 0 0)
(0.1100492270046047 0 0)
(0.1011400850385155 0 0)
(0.09217582661665591 0 0)
(0.08168325458141877 0 0)
(0.07215953460670008 0 0)
(0.0623106622074065 0 0)
(0.05295895883294515 0 0)
(0.04477442748314663 0 0)
(0.03645784621129824 0 0)
(0.03135093018857251 0 0)
(0.02960366141180668 0 0)
(0.03070364617275592 0 0)
(0.03030453046118484 0 0)
(0.03456842527303185 0 0)
(0.0404433388220769 0 0)
(0.04781958689041529 0 0)
(0.05511251413863947 0 0)
(0.0632930756135561 0 0)
(0.07311930480019664 0 0)
(0.08131732572090115 0 0)
(0.0917447854304633 0 0)
(0.1033240139331091 0 0)
(0.112975142486021 0 0)
(0.1250181095433713 0 0)
(0.1366958699103267 0 0)
(0.1472989847989746 0 0)
(0.1589561789879196 0 0)
(0.167748937681803 0 0)
(0.177653731722281 0 0)
(0.1869066895390043 0 0)
(0.1934484206218107 0 0)
(0.2011574171716234 0 0)
(0.2079061548328917 0 0)
(0.2107796137413037 0 0)
(0.2121312826330394 0 0)
(0.2108537092689731 0 0)
(0.2052002050045323 0 0)
(0.1992107153833174 0 0)
(0.1910615181956931 0 0)
(0.181552214783082 0 0)
(0.1730532564191589 0 0)
(0.1663139667025816 0 0)
(0.159522468671569 0 0)
(0.1522259396498822 0 0)
(0.1470280121654077 0 0)
(0.139199065740422 0 0)
(0.1299072483988332 0 0)
(0.1216103599591386 0 0)
(0.1116527656396046 0 0)
(0.1002605591433929 0 0)
(0.08961996908889494 0 0)
(0.07951911346563324 0 0)
(0.07037747924143499 0 0)
(0.05906778673155402 0 0)
(0.05266741876106499 0 0)
(0.04451082637216784 0 0)
(0.04157728714816807 0 0)
(0.03983474450339963 0 0)
(0.04181804442385047 0 0)
(0.04306448881473404 0 0)
(0.04794829820431456 0 0)
(0.05402815238552916 0 0)
(0.06226840315722347 0 0)
(0.06887908991404841 0 0)
(0.07723638412578156 0 0)
(0.08828286450822176 0 0)
(0.097504584358797 0 0)
(0.1074270670425573 0 0)
(0.119659031779321 0 0)
(0.1312302744992671 0 0)
(0.1386662215847375 0 0)
(0.1535145213529026 0 0)
(0.1624785334689223 0 0)
(0.1776331094807747 0 0)
)
;

boundaryField
{
    inlet
    {
        type            zeroGradient;
    }
    outlet
    {
        type            pressureInletOutletVelocity;
        value           uniform (0.1776331094807747 0 0);
    }
    frontAndBack
    {
        type            empty;
    }
}


// ************************************************************************* //
