/*--------------------------------*- C++ -*----------------------------------*\
| =========                 |                                                 |
| \\      /  F ield         | OpenFOAM: The Open Source CFD Toolbox           |
|  \\    /   O peration     | Version:  v2012                                 |
|   \\  /    A nd           | Website:  www.openfoam.com                      |
|    \\/     M anipulation  |                                                 |
\*---------------------------------------------------------------------------*/
FoamFile
{
    version     2.0;
    format      ascii;
    class       volVectorField;
    location    "0.019";
    object      UMean;
}
// * * * * * * * * * * * * * * * * * * * * * * * * * * * * * * * * * * * * * //

dimensions      [0 1 -1 0 0 0 0];


internalField   nonuniform List<vector> 
1000
(
(0.001299847618148238 0 0)
(0.001453914148694861 0 0)
(0.001300830145821606 0 0)
(0.001341856546021174 0 0)
(0.001474862050586529 0 0)
(0.001406089954528405 0 0)
(0.001485421047890123 0 0)
(0.001618318372706769 0 0)
(0.001573131644207835 0 0)
(0.001657785149419432 0 0)
(0.001803536069438654 0 0)
(0.001789240407624601 0 0)
(0.001846125198169867 0 0)
(0.002030632507715517 0 0)
(0.00200012340390261 0 0)
(0.002042956409518078 0 0)
(0.002216577512811465 0 0)
(0.002228452638726843 0 0)
(0.002194393571391123 0 0)
(0.00232726991926157 0 0)
(0.00236855558153406 0 0)
(0.002327267987792968 0 0)
(0.002358794208829099 0 0)
(0.002410855853122243 0 0)
(0.00237510015412293 0 0)
(0.002347788333552272 0 0)
(0.002342594877427695 0 0)
(0.002316675425118755 0 0)
(0.002266104918229628 0 0)
(0.002203403430711285 0 0)
(0.002179792294461955 0 0)
(0.002110917128243554 0 0)
(0.002033106431840231 0 0)
(0.001972882770634105 0 0)
(0.001936673921143967 0 0)
(0.001836155208877706 0 0)
(0.001788147660897511 0 0)
(0.001748910380936196 0 0)
(0.001660887028598605 0 0)
(0.001648672895910085 0 0)
(0.001575466554796834 0 0)
(0.001528443627382939 0 0)
(0.00152588546743325 0 0)
(0.001500728008652104 0 0)
(0.001428638544832079 0 0)
(0.001478522065959031 0 0)
(0.00148881794955067 0 0)
(0.001442092413376928 0 0)
(0.001488520952955557 0 0)
(0.001559663147374907 0 0)
(0.001540399654073224 0 0)
(0.0015810395072562 0 0)
(0.001678348137912937 0 0)
(0.001709679539574873 0 0)
(0.00175337097149003 0 0)
(0.00185892818134212 0 0)
(0.001914956566144177 0 0)
(0.001970555427043214 0 0)
(0.002067542221203906 0 0)
(0.002124339825036976 0 0)
(0.002210377601383839 0 0)
(0.002278422394686963 0 0)
(0.002340161154673648 0 0)
(0.002412479522699886 0 0)
(0.00248175908377865 0 0)
(0.00250666520329906 0 0)
(0.00255554223535042 0 0)
(0.002607998790975731 0 0)
(0.002624361155878244 0 0)
(0.002620970832258204 0 0)
(0.002645022269274977 0 0)
(0.002640271669756161 0 0)
(0.002619516315851867 0 0)
(0.002600900854305524 0 0)
(0.002569770503020913 0 0)
(0.002525302510193693 0 0)
(0.002484287599351405 0 0)
(0.00243307394172792 0 0)
(0.002379804732102351 0 0)
(0.002310536220219948 0 0)
(0.002252042558569305 0 0)
(0.002209264751481589 0 0)
(0.002141455030285288 0 0)
(0.002072487078758896 0 0)
(0.002044064429656949 0 0)
(0.00199454275745286 0 0)
(0.001936641332421035 0 0)
(0.001914272817874976 0 0)
(0.001869677717637821 0 0)
(0.001849594636268439 0 0)
(0.001846850316311666 0 0)
(0.001814610204473438 0 0)
(0.001827572873192245 0 0)
(0.001854401923939469 0 0)
(0.001859982850747363 0 0)
(0.001878393137288049 0 0)
(0.001949305440182763 0 0)
(0.001978713050935424 0 0)
(0.00201918920155085 0 0)
(0.002102506762543798 0 0)
(0.002162372651909117 0 0)
(0.002221477347034655 0 0)
(0.002312068277259707 0 0)
(0.002387105100005678 0 0)
(0.002440498254711504 0 0)
(0.002553523262635715 0 0)
(0.002620836039450082 0 0)
(0.002672779654809707 0 0)
(0.002789945959528354 0 0)
(0.00285317332207101 0 0)
(0.002874297973998546 0 0)
(0.002985984131661195 0 0)
(0.003040139664440771 0 0)
(0.003012705393349187 0 0)
(0.003109820646477694 0 0)
(0.003156634570852537 0 0)
(0.003094977147297392 0 0)
(0.003145687056344375 0 0)
(0.003178459500186691 0 0)
(0.003113741332487855 0 0)
(0.00308572161574814 0 0)
(0.003101454936779133 0 0)
(0.003038621401742689 0 0)
(0.002976899893686571 0 0)
(0.002964755853421701 0 0)
(0.002905273468393127 0 0)
(0.002818628541684368 0 0)
(0.002801249027280242 0 0)
(0.002741461960164847 0 0)
(0.002674249491100389 0 0)
(0.002640966878803518 0 0)
(0.002610027853784298 0 0)
(0.00254600559991256 0 0)
(0.002527644738969526 0 0)
(0.002509633097466996 0 0)
(0.002452772194416183 0 0)
(0.002464549203476628 0 0)
(0.002471915209943228 0 0)
(0.002427057600075803 0 0)
(0.002466501087067563 0 0)
(0.00251329301443484 0 0)
(0.002502872955583502 0 0)
(0.002547365954494828 0 0)
(0.002627643582887194 0 0)
(0.002657920319541813 0 0)
(0.002704396694266128 0 0)
(0.002813667711590498 0 0)
(0.002866236793014118 0 0)
(0.002926724458249988 0 0)
(0.003034170976350849 0 0)
(0.003112653886719653 0 0)
(0.003157952754756574 0 0)
(0.00328303645359485 0 0)
(0.003357346895077727 0 0)
(0.00340969941764889 0 0)
(0.003511779181157939 0 0)
(0.003595875108431325 0 0)
(0.003623615295111898 0 0)
(0.003697684158778346 0 0)
(0.003779322150357309 0 0)
(0.00376645296082095 0 0)
(0.003829428805054995 0 0)
(0.003881802860435611 0 0)
(0.003851463497378979 0 0)
(0.003856444737761396 0 0)
(0.003911477269328036 0 0)
(0.003852434121586273 0 0)
(0.003807288519761477 0 0)
(0.003832434718108154 0 0)
(0.003782860538098955 0 0)
(0.003698040505107971 0 0)
(0.003691883333814692 0 0)
(0.003644292416431976 0 0)
(0.003566485615284548 0 0)
(0.003529122280714113 0 0)
(0.003494817642106536 0 0)
(0.003433709979681446 0 0)
(0.003405849798451042 0 0)
(0.003372807110351234 0 0)
(0.003332011652928223 0 0)
(0.003302352043958251 0 0)
(0.003297852218815011 0 0)
(0.003276868517600168 0 0)
(0.003259147715041315 0 0)
(0.003285443615175324 0 0)
(0.003281057232166274 0 0)
(0.003298577162996023 0 0)
(0.00335216006066833 0 0)
(0.003379041387312923 0 0)
(0.003431315580150876 0 0)
(0.003492477593315613 0 0)
(0.003552982798560922 0 0)
(0.003626020303312755 0 0)
(0.003709186429650987 0 0)
(0.003794019214576649 0 0)
(0.003867079472547549 0 0)
(0.003956046203402368 0 0)
(0.00405408091790069 0 0)
(0.004115483193287862 0 0)
(0.004234835122823411 0 0)
(0.004299564754763448 0 0)
(0.00439046551583756 0 0)
(0.004475864928256867 0 0)
(0.004551073224721082 0 0)
(0.004605701398727596 0 0)
(0.00467041195118074 0 0)
(0.004737041587785874 0 0)
(0.004761797775789377 0 0)
(0.004799474768075878 0 0)
(0.004838035516092075 0 0)
(0.004851445397380512 0 0)
(0.004857606458102279 0 0)
(0.004863860880472464 0 0)
(0.004854396489813766 0 0)
(0.004822197037060068 0 0)
(0.004800132415888569 0 0)
(0.004783852105860882 0 0)
(0.004731949478088204 0 0)
(0.004689398501346805 0 0)
(0.004663927952289592 0 0)
(0.004610774076968652 0 0)
(0.004559136860165743 0 0)
(0.00454600621906823 0 0)
(0.004492006461831461 0 0)
(0.004467964188576591 0 0)
(0.004452877664094046 0 0)
(0.004420363684989337 0 0)
(0.004396143399504487 0 0)
(0.004409892211365606 0 0)
(0.004389330563942867 0 0)
(0.00438508203921926 0 0)
(0.004422168145891325 0 0)
(0.004439710263855124 0 0)
(0.004459166652353554 0 0)
(0.004515788686987436 0 0)
(0.004580221197792297 0 0)
(0.004615703615822964 0 0)
(0.004688117702105073 0 0)
(0.004772079110860827 0 0)
(0.004854171563133777 0 0)
(0.004932447188931601 0 0)
(0.005024810479278201 0 0)
(0.005117921978871156 0 0)
(0.005205807748321612 0 0)
(0.00528201170272601 0 0)
(0.005399706249696425 0 0)
(0.005479633636011575 0 0)
(0.005552066082332262 0 0)
(0.005673035484523706 0 0)
(0.00573121776327612 0 0)
(0.005798301082339405 0 0)
(0.005885777879551495 0 0)
(0.005946302760415634 0 0)
(0.005971657129013389 0 0)
(0.006035467176973079 0 0)
(0.006073826417631829 0 0)
(0.006086525034063891 0 0)
(0.006117827071756856 0 0)
(0.006124378187592687 0 0)
(0.006114063033395771 0 0)
(0.006108865254007102 0 0)
(0.006093986958559468 0 0)
(0.006051651289757936 0 0)
(0.006052092132386449 0 0)
(0.006001356347031365 0 0)
(0.005950909525482151 0 0)
(0.005942113651033395 0 0)
(0.005885642253428679 0 0)
(0.00584674859228584 0 0)
(0.005836431559395064 0 0)
(0.005795685685111645 0 0)
(0.005777323271431468 0 0)
(0.00576094668925096 0 0)
(0.005740308062682939 0 0)
(0.00574113236752422 0 0)
(0.005737148579817834 0 0)
(0.005736226993862278 0 0)
(0.005756978250529004 0 0)
(0.005781569044316841 0 0)
(0.005804070632100622 0 0)
(0.005862668040359043 0 0)
(0.005912023144717454 0 0)
(0.005968677680969274 0 0)
(0.006032176774433001 0 0)
(0.006113220078761437 0 0)
(0.006196684643582606 0 0)
(0.006284310874838787 0 0)
(0.006372677443932629 0 0)
(0.006469121024375329 0 0)
(0.006563601713731197 0 0)
(0.006648234984918065 0 0)
(0.006744712197572036 0 0)
(0.00684911697281748 0 0)
(0.006926759244553124 0 0)
(0.007027024156354483 0 0)
(0.007119951407399584 0 0)
(0.007184840513029431 0 0)
(0.007270690290356737 0 0)
(0.00733623972568727 0 0)
(0.007388510223050634 0 0)
(0.007437716782951755 0 0)
(0.007485732087838422 0 0)
(0.007514204378045487 0 0)
(0.007538728543738812 0 0)
(0.007563458753607945 0 0)
(0.007568342603420352 0 0)
(0.00755592083938367 0 0)
(0.007544762080697396 0 0)
(0.007546703817927503 0 0)
(0.007496256294128648 0 0)
(0.007476981631871278 0 0)
(0.007458534274857999 0 0)
(0.007409566723688288 0 0)
(0.007376557525016421 0 0)
(0.007331400714474206 0 0)
(0.007331776403853423 0 0)
(0.007290360638949361 0 0)
(0.007262215640217219 0 0)
(0.00726289070086457 0 0)
(0.007246294635537287 0 0)
(0.007232383889753282 0 0)
(0.007236246113088607 0 0)
(0.007255524755554256 0 0)
(0.00724996761368207 0 0)
(0.007285395672607471 0 0)
(0.007307397707154869 0 0)
(0.007372420049012854 0 0)
(0.007410569107793216 0 0)
(0.007482367100891576 0 0)
(0.00754107408457253 0 0)
(0.007611906440871619 0 0)
(0.007715366551588283 0 0)
(0.007789964377256572 0 0)
(0.007893445334108106 0 0)
(0.007990883218313238 0 0)
(0.008083670071039035 0 0)
(0.008179118790487687 0 0)
(0.00829821592336199 0 0)
(0.008368342372124386 0 0)
(0.008471401821269641 0 0)
(0.008583355593598331 0 0)
(0.00867549419677412 0 0)
(0.008742201442200804 0 0)
(0.008841602345095794 0 0)
(0.008915469843739823 0 0)
(0.00897087347476719 0 0)
(0.009029098225309657 0 0)
(0.00909736830365511 0 0)
(0.009109448622173154 0 0)
(0.00915651567674175 0 0)
(0.009198611533049388 0 0)
(0.009200626586519777 0 0)
(0.009198355214343304 0 0)
(0.009214866714397188 0 0)
(0.009190449818627372 0 0)
(0.009177763082730247 0 0)
(0.009167282002023555 0 0)
(0.009138964109134177 0 0)
(0.009089135732297016 0 0)
(0.00909360211822602 0 0)
(0.009051571327706046 0 0)
(0.009005902451843651 0 0)
(0.009017013791199329 0 0)
(0.008981892438117698 0 0)
(0.008970067248159897 0 0)
(0.008972291615705764 0 0)
(0.008963224645156434 0 0)
(0.008951344066172685 0 0)
(0.008985027100156199 0 0)
(0.008989553409714676 0 0)
(0.008999420127831779 0 0)
(0.009044482129288618 0 0)
(0.009083185914997476 0 0)
(0.00913622163875347 0 0)
(0.009201055523203199 0 0)
(0.009269800044120039 0 0)
(0.009334155526556443 0 0)
(0.009423244355487539 0 0)
(0.009518009774904111 0 0)
(0.009606896582625949 0 0)
(0.009721203769333419 0 0)
(0.009800872432660862 0 0)
(0.009914039161885428 0 0)
(0.01000170996460732 0 0)
(0.0101169184838878 0 0)
(0.01019993722943897 0 0)
(0.01029983955404805 0 0)
(0.01041282872412271 0 0)
(0.01049276689447083 0 0)
(0.01057040898526335 0 0)
(0.01066185883792112 0 0)
(0.01073015990525368 0 0)
(0.01078385812756612 0 0)
(0.01084552663307509 0 0)
(0.01088384537784749 0 0)
(0.01093202545265519 0 0)
(0.01095592359344693 0 0)
(0.01098086163217544 0 0)
(0.01100769483528674 0 0)
(0.01099010413749645 0 0)
(0.01098206750934514 0 0)
(0.01100569935923892 0 0)
(0.01096176492031997 0 0)
(0.01094209347946963 0 0)
(0.01094850097687666 0 0)
(0.01088512696432605 0 0)
(0.0108743066264027 0 0)
(0.01085452088687659 0 0)
(0.01083240032235723 0 0)
(0.01079662448613924 0 0)
(0.01080854774547767 0 0)
(0.01080589896101614 0 0)
(0.01076869288489944 0 0)
(0.01079271210420314 0 0)
(0.01081486026601001 0 0)
(0.0107920506396078 0 0)
(0.01083024342539123 0 0)
(0.0108738340543094 0 0)
(0.01088260893830227 0 0)
(0.01093138293045642 0 0)
(0.01103001183172479 0 0)
(0.01106556154006151 0 0)
(0.01112600488033876 0 0)
(0.01122559943737864 0 0)
(0.01131129100935102 0 0)
(0.01138646469639767 0 0)
(0.01150156546559904 0 0)
(0.01160648856432074 0 0)
(0.01167917427354181 0 0)
(0.01178962224236193 0 0)
(0.01189812816315727 0 0)
(0.01197184296975413 0 0)
(0.01208343849927188 0 0)
(0.01217808623758158 0 0)
(0.01227942711442304 0 0)
(0.01233843971029879 0 0)
(0.01244006206348928 0 0)
(0.01251403767028537 0 0)
(0.01256276111030783 0 0)
(0.01262571950679552 0 0)
(0.01268262662272835 0 0)
(0.01270427100164263 0 0)
(0.01274504701728982 0 0)
(0.01277834263267015 0 0)
(0.01278806667760463 0 0)
(0.01278436393203127 0 0)
(0.01280509522716266 0 0)
(0.01277300514715406 0 0)
(0.01275600434870363 0 0)
(0.01276363609505016 0 0)
(0.01271530895855752 0 0)
(0.01268548361987191 0 0)
(0.01267693627295167 0 0)
(0.01263198932347189 0 0)
(0.01260675432524476 0 0)
(0.01259256848368116 0 0)
(0.0125668454165252 0 0)
(0.01256451794687925 0 0)
(0.01254650916103831 0 0)
(0.01253995456505504 0 0)
(0.01255716650151187 0 0)
(0.01255469773987123 0 0)
(0.01255652759476431 0 0)
(0.0125926880017848 0 0)
(0.01263229116121447 0 0)
(0.01265229882332408 0 0)
(0.01269893363491458 0 0)
(0.01280076436592586 0 0)
(0.01283278791432777 0 0)
(0.01289477414022172 0 0)
(0.0130109971075934 0 0)
(0.01308309040601798 0 0)
(0.01315894202978791 0 0)
(0.01328253348935043 0 0)
(0.01337478254783716 0 0)
(0.01344445336843703 0 0)
(0.01357573952468047 0 0)
(0.01365055075073891 0 0)
(0.01373696732871213 0 0)
(0.01384361103954993 0 0)
(0.01393853092463189 0 0)
(0.01402144407186041 0 0)
(0.01409498814968027 0 0)
(0.0141814973421004 0 0)
(0.01425521316632382 0 0)
(0.01428706633614797 0 0)
(0.01435689229949634 0 0)
(0.01440802923275535 0 0)
(0.01440972887151589 0 0)
(0.01444375102521096 0 0)
(0.01450494607582633 0 0)
(0.01448176359655111 0 0)
(0.014457377541397 0 0)
(0.01450159635122264 0 0)
(0.01446447412814144 0 0)
(0.01441536168715872 0 0)
(0.01444236674482838 0 0)
(0.0144055329487629 0 0)
(0.0143380882253657 0 0)
(0.0143436438671385 0 0)
(0.01432162058128418 0 0)
(0.01426462137287775 0 0)
(0.01425164225083843 0 0)
(0.01427150945668839 0 0)
(0.0142287669825202 0 0)
(0.01421554652913063 0 0)
(0.01425677624516088 0 0)
(0.01424302864889048 0 0)
(0.01422199466340304 0 0)
(0.01429083579432647 0 0)
(0.01430876686666757 0 0)
(0.01431724902623327 0 0)
(0.01439236569397809 0 0)
(0.01444975258225514 0 0)
(0.01450810020400145 0 0)
(0.01458431352638026 0 0)
(0.01466061788583477 0 0)
(0.01473590042436816 0 0)
(0.01485308869512588 0 0)
(0.01493737743447264 0 0)
(0.01503426220857089 0 0)
(0.01514925529758294 0 0)
(0.01522559837311596 0 0)
(0.01532310274198249 0 0)
(0.01543049503450205 0 0)
(0.0155143876095795 0 0)
(0.01561899913365228 0 0)
(0.01570735444580822 0 0)
(0.01578710617523613 0 0)
(0.01587664892170811 0 0)
(0.01595287909328754 0 0)
(0.01599512571041031 0 0)
(0.0160595091855512 0 0)
(0.01612051130192094 0 0)
(0.01612840148862917 0 0)
(0.01617313643170321 0 0)
(0.01621223679170938 0 0)
(0.01622238194846386 0 0)
(0.01621892826724887 0 0)
(0.01621825400858978 0 0)
(0.01621377655224241 0 0)
(0.01619493889216504 0 0)
(0.01618135619303858 0 0)
(0.01616086562863066 0 0)
(0.01613203843532043 0 0)
(0.01610658924673046 0 0)
(0.01608261793309438 0 0)
(0.01604886062049403 0 0)
(0.01602966820366894 0 0)
(0.01602380858855882 0 0)
(0.01602382035452678 0 0)
(0.01599095892621061 0 0)
(0.01600593436386412 0 0)
(0.01602731585475397 0 0)
(0.01601701052365311 0 0)
(0.01602527594481573 0 0)
(0.0160873835302731 0 0)
(0.01608314784087272 0 0)
(0.01612981636161725 0 0)
(0.0162177604189391 0 0)
(0.01626539102090309 0 0)
(0.01630406344092457 0 0)
(0.01643259667687423 0 0)
(0.01648957078095895 0 0)
(0.01655995156981668 0 0)
(0.01668986884350726 0 0)
(0.01678700546527833 0 0)
(0.01685976706882931 0 0)
(0.01697751052260739 0 0)
(0.01707983817488343 0 0)
(0.01715054114309552 0 0)
(0.01724318985498722 0 0)
(0.01736481595258769 0 0)
(0.01743903850512093 0 0)
(0.01752072722321053 0 0)
(0.01762787865477179 0 0)
(0.01768195070760457 0 0)
(0.01774655293637863 0 0)
(0.0178245648481475 0 0)
(0.01786201981572294 0 0)
(0.01788040198424564 0 0)
(0.01793892385891779 0 0)
(0.01797324477922869 0 0)
(0.01798238847843103 0 0)
(0.01798423527117712 0 0)
(0.01798921453280724 0 0)
(0.01799203848081114 0 0)
(0.01796312215546968 0 0)
(0.01794014523185398 0 0)
(0.01795394188134495 0 0)
(0.01790113088170035 0 0)
(0.01786999115357771 0 0)
(0.01785580900879585 0 0)
(0.01782921223529801 0 0)
(0.0177735420795703 0 0)
(0.01778839465677685 0 0)
(0.0177733126094174 0 0)
(0.0177450885326184 0 0)
(0.01774984898976505 0 0)
(0.01777332379367639 0 0)
(0.01774577681509394 0 0)
(0.01777719873792639 0 0)
(0.01780483309171629 0 0)
(0.01782101909611741 0 0)
(0.01783998605834363 0 0)
(0.01792511290410726 0 0)
(0.01797754052275121 0 0)
(0.01801963485334974 0 0)
(0.0181089100336539 0 0)
(0.01819552971765224 0 0)
(0.01826556480928796 0 0)
(0.01836240493974339 0 0)
(0.01846912759352157 0 0)
(0.01856742336086431 0 0)
(0.01866173588569413 0 0)
(0.01874579243305948 0 0)
(0.01885067136978498 0 0)
(0.01894471840820394 0 0)
(0.01901297735940371 0 0)
(0.01913782034413009 0 0)
(0.01922087310490161 0 0)
(0.01928382352218115 0 0)
(0.01938253194120179 0 0)
(0.01945427636752136 0 0)
(0.01949626483946543 0 0)
(0.01955589688537239 0 0)
(0.01961143369778333 0 0)
(0.01962048781723715 0 0)
(0.01966770380933956 0 0)
(0.01969801885017913 0 0)
(0.01969833370322305 0 0)
(0.01970221863430574 0 0)
(0.0197003967105402 0 0)
(0.01966811975061743 0 0)
(0.01968052787609177 0 0)
(0.01963068133375358 0 0)
(0.01962048053826085 0 0)
(0.01959925262563116 0 0)
(0.01954411250898903 0 0)
(0.0195147850422786 0 0)
(0.0194998787997733 0 0)
(0.01944727113878429 0 0)
(0.0194527758209127 0 0)
(0.01943692715470809 0 0)
(0.01941559752679189 0 0)
(0.01941624100448412 0 0)
(0.01942122878467973 0 0)
(0.01942582304430724 0 0)
(0.01943276836891231 0 0)
(0.01945765266719523 0 0)
(0.01948255540161057 0 0)
(0.01951188384212022 0 0)
(0.01958813706156367 0 0)
(0.01963074908335912 0 0)
(0.01967993859537958 0 0)
(0.01978226148582456 0 0)
(0.01983362142706341 0 0)
(0.01991306028925994 0 0)
(0.02002883756396165 0 0)
(0.02011113465735787 0 0)
(0.02019952766507468 0 0)
(0.02030333139762762 0 0)
(0.02039270917693728 0 0)
(0.02046291402534576 0 0)
(0.0205625511183893 0 0)
(0.02066506974376873 0 0)
(0.02074676324088455 0 0)
(0.02083549739773012 0 0)
(0.02092610881907866 0 0)
(0.02098365703807729 0 0)
(0.02106260985288253 0 0)
(0.02113529090180458 0 0)
(0.02115731897431662 0 0)
(0.02121960216188381 0 0)
(0.02126001120702563 0 0)
(0.0212966788491203 0 0)
(0.02132142848469734 0 0)
(0.02133960576143168 0 0)
(0.0213566298215942 0 0)
(0.02134378671670622 0 0)
(0.02135296877734861 0 0)
(0.02135141764157628 0 0)
(0.02134739016857361 0 0)
(0.02132867937649761 0 0)
(0.02131009768343608 0 0)
(0.0213018153663205 0 0)
(0.02127468702795387 0 0)
(0.02123691805995286 0 0)
(0.02124883948451636 0 0)
(0.02125778355368019 0 0)
(0.02123181965717593 0 0)
(0.02123778378565026 0 0)
(0.0212526450724008 0 0)
(0.0212617429284658 0 0)
(0.0212522383890422 0 0)
(0.02129753401562374 0 0)
(0.02131728000446934 0 0)
(0.02133104950098101 0 0)
(0.02138908178495183 0 0)
(0.0214616537183297 0 0)
(0.02148797084812244 0 0)
(0.02155844594880013 0 0)
(0.02163452046657291 0 0)
(0.02170975846538105 0 0)
(0.02179094277080355 0 0)
(0.02187754942993414 0 0)
(0.02198353228870537 0 0)
(0.02206876308690638 0 0)
(0.02215440726548612 0 0)
(0.02223713209344754 0 0)
(0.02231691145206099 0 0)
(0.02241699322144783 0 0)
(0.02252200455774036 0 0)
(0.02257738202942083 0 0)
(0.02269770682557443 0 0)
(0.02275924195660906 0 0)
(0.02282145459792334 0 0)
(0.02289258953348884 0 0)
(0.02296543481148966 0 0)
(0.02298430131092129 0 0)
(0.02304530988069768 0 0)
(0.0230929019171577 0 0)
(0.02311222499532968 0 0)
(0.02313785345164996 0 0)
(0.02315828818275174 0 0)
(0.02316274793143987 0 0)
(0.02314360957227604 0 0)
(0.02318146125126478 0 0)
(0.0231399962789131 0 0)
(0.02313407643607958 0 0)
(0.02314792383858487 0 0)
(0.0230939598790709 0 0)
(0.02308753003666237 0 0)
(0.02304858492857638 0 0)
(0.02305132371220167 0 0)
(0.02302941497935006 0 0)
(0.02303688162683553 0 0)
(0.02302815487265516 0 0)
(0.02304617068681045 0 0)
(0.02303313869052327 0 0)
(0.02303489883935005 0 0)
(0.02308313454592974 0 0)
(0.02308780404053378 0 0)
(0.0230981252756918 0 0)
(0.02315231129357577 0 0)
(0.02322669554326603 0 0)
(0.02325133859087507 0 0)
(0.0232916587628015 0 0)
(0.02341191952985602 0 0)
(0.02344759157018885 0 0)
(0.02352284192749386 0 0)
(0.02363595776825707 0 0)
(0.02372461339156255 0 0)
(0.02378246887959374 0 0)
(0.02391102233868793 0 0)
(0.02398792938765753 0 0)
(0.02404650225427155 0 0)
(0.02413961949297802 0 0)
(0.02426595707014101 0 0)
(0.02431509964530015 0 0)
(0.02440361615223468 0 0)
(0.02451575088076705 0 0)
(0.0245665008223473 0 0)
(0.02459657742036809 0 0)
(0.02471733591483491 0 0)
(0.02473765320274432 0 0)
(0.0247619567089553 0 0)
(0.02483373602789893 0 0)
(0.0248705784031648 0 0)
(0.02487404757163416 0 0)
(0.02489755426627374 0 0)
(0.02492418344939534 0 0)
(0.02491045374695452 0 0)
(0.02490168110976543 0 0)
(0.02491672562954286 0 0)
(0.02490170404421643 0 0)
(0.02487445086385176 0 0)
(0.02487268930938561 0 0)
(0.02485293938055752 0 0)
(0.02481453114910778 0 0)
(0.02477799784042214 0 0)
(0.02481375295462339 0 0)
(0.02476279513096137 0 0)
(0.02477145210313161 0 0)
(0.02480141499627326 0 0)
(0.02478180923373475 0 0)
(0.02478363733103498 0 0)
(0.02482607578777945 0 0)
(0.02482052452428919 0 0)
(0.02484936762525168 0 0)
(0.02489937649166475 0 0)
(0.02495041303033449 0 0)
(0.02498795936609916 0 0)
(0.02505737760857126 0 0)
(0.02512901061959595 0 0)
(0.02519992387708368 0 0)
(0.0252593400754386 0 0)
(0.02537581429385734 0 0)
(0.0254596524696328 0 0)
(0.02554249422615596 0 0)
(0.02564228738599989 0 0)
(0.02575268293918449 0 0)
(0.02581325148994419 0 0)
(0.02589808571593979 0 0)
(0.02601496942151785 0 0)
(0.02609607784842391 0 0)
(0.02617144458422066 0 0)
(0.02627259437360286 0 0)
(0.02636930487562411 0 0)
(0.02640969423547408 0 0)
(0.02648464451719987 0 0)
(0.02655507659155009 0 0)
(0.0265749725350615 0 0)
(0.02663800520006802 0 0)
(0.02668392517200734 0 0)
(0.02671327490271471 0 0)
(0.02672767937962481 0 0)
(0.02675370707066609 0 0)
(0.02676610496704394 0 0)
(0.02675732024242663 0 0)
(0.02675763735913993 0 0)
(0.0267716828332267 0 0)
(0.02674530079105655 0 0)
(0.02674581393944745 0 0)
(0.02672645187701062 0 0)
(0.02670478894772192 0 0)
(0.02668795658090599 0 0)
(0.02667293985588802 0 0)
(0.02666104280079919 0 0)
(0.02667466303548861 0 0)
(0.02666721244769849 0 0)
(0.0266828875728408 0 0)
(0.02669887219172722 0 0)
(0.02670949706295685 0 0)
(0.02672006889063051 0 0)
(0.0267543087312478 0 0)
(0.02678183111093244 0 0)
(0.02683421521071784 0 0)
(0.02688893510175456 0 0)
(0.02693333489149613 0 0)
(0.02700760268171995 0 0)
(0.02707936723107159 0 0)
(0.02714893392235921 0 0)
(0.02723885149446124 0 0)
(0.02732439790155 0 0)
(0.02742459122653502 0 0)
(0.02751815284470059 0 0)
(0.02761110056333132 0 0)
(0.02768858769268996 0 0)
(0.02778141461037974 0 0)
(0.02787639999104179 0 0)
(0.02795644362902184 0 0)
(0.0280568246705652 0 0)
(0.02812643096228758 0 0)
(0.02824298429890873 0 0)
(0.02829364329774336 0 0)
(0.02836735761497803 0 0)
(0.02842962328464722 0 0)
(0.02847558338277662 0 0)
(0.02850287501144522 0 0)
(0.02856895916792483 0 0)
(0.0286054689778159 0 0)
(0.02862287121256058 0 0)
(0.02864132188600447 0 0)
(0.02866697572631235 0 0)
(0.02867054786223784 0 0)
(0.02865058127389503 0 0)
(0.02866770415354311 0 0)
(0.02866574467925979 0 0)
(0.02863291931569688 0 0)
(0.02865754765141411 0 0)
(0.02859691526990749 0 0)
(0.02858262467928775 0 0)
(0.02857519339258673 0 0)
(0.02856925380664134 0 0)
(0.02854654148102604 0 0)
(0.02854884037830092 0 0)
(0.02857149822454953 0 0)
(0.02856942198698055 0 0)
(0.02857979979930526 0 0)
(0.02861510718037276 0 0)
(0.02862360239422974 0 0)
(0.02863111843924068 0 0)
(0.02869684511800807 0 0)
(0.02874709150709032 0 0)
(0.02879592865484526 0 0)
(0.02884153929308245 0 0)
(0.0289467304993258 0 0)
(0.02900517965662511 0 0)
(0.02906026000350974 0 0)
(0.02918237108278838 0 0)
(0.02926432639323047 0 0)
(0.02934005817127238 0 0)
(0.02947006654589149 0 0)
(0.02955137099938809 0 0)
(0.02959674005405597 0 0)
(0.02971402438465855 0 0)
(0.02981960985577254 0 0)
(0.02988452810651356 0 0)
(0.0299641728428073 0 0)
(0.03009119653482567 0 0)
(0.03013043210714511 0 0)
(0.03021577178616846 0 0)
(0.03029687093442895 0 0)
(0.03034940204290176 0 0)
(0.03034740399910545 0 0)
(0.03043283097858908 0 0)
(0.03046705019618605 0 0)
(0.03049462140720824 0 0)
(0.03050801010438375 0 0)
(0.03053858893098195 0 0)
(0.03053845970896844 0 0)
(0.03054970807493286 0 0)
(0.03053969376471238 0 0)
(0.03054418895198617 0 0)
(0.03052112802449385 0 0)
(0.03053801943563971 0 0)
(0.03051497370967484 0 0)
(0.03045251079001658 0 0)
(0.03046193965537692 0 0)
(0.03044160268480506 0 0)
(0.03042839498869209 0 0)
(0.03044281459527052 0 0)
(0.03042978664947088 0 0)
(0.03042700577313971 0 0)
(0.03045602958059559 0 0)
(0.03049477811368775 0 0)
(0.03048702077010118 0 0)
(0.03051898293499279 0 0)
(0.03055958961856159 0 0)
(0.03061149377486845 0 0)
(0.03066362315381102 0 0)
(0.03073859000754333 0 0)
(0.03078185819352653 0 0)
(0.03088301255242371 0 0)
(0.03095694332590957 0 0)
(0.03104529474417137 0 0)
(0.03114290377026611 0 0)
(0.03123536818529406 0 0)
(0.03133781061674188 0 0)
(0.03145777119600115 0 0)
(0.03152397360328152 0 0)
(0.03160251957619552 0 0)
(0.03171623624875644 0 0)
(0.0318208450169454 0 0)
(0.03188892525658849 0 0)
(0.03200962837420496 0 0)
(0.03207261682012517 0 0)
(0.03215062852732789 0 0)
(0.0322463961552263 0 0)
(0.03230065321005441 0 0)
(0.03237726363057296 0 0)
(0.03238295495327633 0 0)
(0.03244600626008747 0 0)
(0.03250531032471143 0 0)
(0.0325173773486491 0 0)
(0.03252866622353269 0 0)
(0.03257825914984008 0 0)
(0.03256070980131946 0 0)
(0.03257123138789839 0 0)
(0.03260852966627282 0 0)
(0.03256751111816596 0 0)
(0.03257764035606205 0 0)
(0.03259071802971845 0 0)
(0.03258549991363361 0 0)
(0.03250326737637833 0 0)
(0.0325529608480381 0 0)
(0.03251523484504271 0 0)
(0.03253149782292334 0 0)
(0.03256520857081352 0 0)
(0.03253380766361336 0 0)
(0.03255010559300139 0 0)
(0.03261287397957183 0 0)
(0.03260682854256243 0 0)
(0.03265471996461503 0 0)
(0.0327039994403899 0 0)
(0.03271264514771637 0 0)
(0.03281025428318155 0 0)
(0.03286414630829009 0 0)
(0.03292680194433167 0 0)
(0.03300318172361175 0 0)
(0.03309411239877283 0 0)
(0.03319615018532279 0 0)
(0.03328141630617513 0 0)
(0.03338048311531822 0 0)
(0.03348291349990277 0 0)
(0.03360201428425535 0 0)
(0.03370333619462569 0 0)
(0.03375242168218584 0 0)
(0.03381141974123893 0 0)
(0.03404702470006681 0 0)
(0.03399658228755442 0 0)
(0.03416579113375638 0 0)
(0.034306948938315 0 0)
(0.03427308193817265 0 0)
(0.03440955093132592 0 0)
(0.03461607866118308 0 0)
(0.0343400076344924 0 0)
(0.03460234089612613 0 0)
(0.03485331956834066 0 0)
)
;

boundaryField
{
    inlet
    {
        type            calculated;
        value           uniform (0.001299847618148238 0 0);
    }
    outlet
    {
        type            calculated;
        value           uniform (0.03485331956834066 0 0);
    }
    frontAndBack
    {
        type            empty;
    }
}


// ************************************************************************* //
