/*--------------------------------*- C++ -*----------------------------------*\
| =========                 |                                                 |
| \\      /  F ield         | OpenFOAM: The Open Source CFD Toolbox           |
|  \\    /   O peration     | Version:  v2012                                 |
|   \\  /    A nd           | Website:  www.openfoam.com                      |
|    \\/     M anipulation  |                                                 |
\*---------------------------------------------------------------------------*/
FoamFile
{
    version     2.0;
    format      ascii;
    class       volScalarField;
    location    "0.0145";
    object      p;
}
// * * * * * * * * * * * * * * * * * * * * * * * * * * * * * * * * * * * * * //

dimensions      [1 -1 -2 0 0 0 0];


internalField   nonuniform List<scalar> 
1000
(
101339.1623972418
101336.68714936
101343.5208383592
101348.9646697804
101355.0562371493
101360.5883816764
101365.3986808173
101369.5492362823
101373.0576365945
101375.3761433459
101376.086911058
101376.0929073824
101375.6764951253
101374.5340954464
101372.3782532234
101369.1521717245
101364.9880764882
101360.0847750041
101354.6067757595
101348.664884946
101342.3455505665
101335.7406715913
101328.9577900629
101322.1151964683
101315.3343232971
101308.7357049291
101302.4296980374
101296.4934081964
101290.950588247
101285.8026653356
101281.200633203
101277.7076030574
101275.9552853011
101275.5760066545
101275.5841639077
101275.9258563842
101276.7967176878
101278.4259592186
101280.9968306627
101284.5863012914
101289.1368978543
101294.4831082059
101300.4142251941
101306.735889566
101313.3002654085
101320.0008082253
101326.7494238639
101333.4571491609
101340.0309410631
101346.3908051658
101352.4916298997
101358.3123145127
101363.783076316
101368.6029426205
101372.0469805903
101373.5875738682
101373.8991039957
101373.9101120646
101373.6268838508
101372.904627539
101371.5503292026
101369.3840995184
101366.2802458369
101362.2004301628
101357.2054627615
101351.4426163491
101345.1107408442
101338.4168628857
101331.5424000772
101324.6285335324
101317.7780652191
101311.0641894525
101304.5341730583
101298.2109337438
101292.1253627065
101286.4137611745
101281.5066301269
101278.2072078173
101276.8523039203
101276.5882459683
101276.5841323293
101276.8608743361
101277.5401074707
101278.7855501829
101280.7593617847
101283.5910476463
101287.3493346889
101292.024202921
101297.5227453697
101303.6826641715
101310.3012665443
101317.1712291495
101324.1126573937
101330.9932155776
101337.7326279103
101344.29723565
101350.6847912928
101356.8718362809
101362.7090754188
101367.7633722884
101371.2261397977
101372.6749812653
101372.9800337143
101373.0354223734
101372.824937037
101372.2680173563
101371.2031811118
101369.4788631824
101366.9626573966
101363.5631750784
101359.2475366664
101354.0545736148
101348.0969664147
101341.5480184579
101334.6147903922
101327.5034106217
101320.3859464163
101313.3803734158
101306.5472463578
101299.9048197427
101293.4884192703
101287.4773572675
101282.3717629408
101279.0029740084
101277.6566353611
101277.3803888199
101277.3382782628
101277.5547182017
101278.1053485341
101279.1321480053
101280.7723298831
101283.1498770481
101286.3561535896
101290.4343568179
101295.367095132
101301.0712813494
101307.4040504443
101314.1807368671
101321.2031791419
101328.2923143079
101335.313479111
101342.187193752
101348.8820236514
101355.3589875771
101361.4495899278
101366.7127504999
101370.3626044962
101371.9298960753
101372.2812738941
101372.38235361
101372.2376468895
101371.8066597575
101370.9442623505
101369.5168874307
101367.4016500474
101364.4980967956
101360.7412111812
101356.1155576747
101350.6654230615
101344.4964147519
101337.7662281847
101330.6636691715
101323.3787489994
101316.0742770599
101308.8684685065
101301.8344204342
101295.0490741637
101288.7267303007
101283.3879097578
101279.8511038727
101278.416794391
101278.1065241224
101278.0257949826
101278.1854580379
101278.6270069709
101279.48204564
101280.8728524887
101282.9141445388
101285.7002522306
101289.2936008263
101293.7138595775
101298.9297662205
101304.8563508523
101311.3600412368
101318.2737441698
101325.4211911787
101332.6424570752
101339.8117743193
101346.8446415552
101353.6615649175
101360.0672755025
101365.6078624202
101369.5206685753
101371.2879233952
101371.7071827527
101371.8363874229
101371.7513854767
101371.4241897237
101370.7260858074
101369.5330991614
101367.7306466327
101365.2186915723
101361.9199470675
101357.791776666
101352.8366425924
101347.1079529435
101340.7096596246
101333.7873639006
101326.5096532912
101319.0453565655
101311.5456079711
101304.134243252
101296.9388516355
101290.220227013
101284.5399268476
101280.7287655836
101279.1326121683
101278.7767979878
101278.6705468727
101278.7804280366
101279.1327870336
101279.8469268728
101281.0351732698
101282.8043800127
101285.2481262659
101288.4377117825
101292.4128631464
101297.1740159054
101302.6774076439
101308.8345368772
101315.5184171424
101322.5784217811
101329.8596658457
101337.2187844649
101344.5352147486
101351.6933823723
101358.4700640317
101364.3804482429
101368.6569568227
101370.7110260191
101371.2230360513
101371.3673082883
101371.3340166527
101371.0903352094
101370.5267434371
101369.5273431903
101367.9839556859
101365.7979455578
101362.8860651525
101359.1905934402
101354.6883382668
101349.396721638
101343.3767566558
101336.7310427081
101329.5939628135
101322.1166120374
101314.4539841703
101306.7561031405
101299.1860217487
101292.0375116252
101285.9155544919
101281.6986649391
101279.8359442085
101279.4083881394
101279.2847485823
101279.348958384
101279.6261624732
101280.2222779973
101281.2413342256
101282.7832667781
101284.939393095
101287.7850673663
101291.3716315856
101295.7198617507
101300.8149049584
101306.6034101143
101312.9949252164
101319.8699325365
101327.0931334515
101334.5248511173
101342.0289676345
101349.4666872622
101356.603894098
101362.9377034872
101367.674936066
101370.1344132016
101370.8020446112
101370.9508571731
101370.9646922143
101370.7884469663
101370.3354299508
101369.4981181406
101368.1742036999
101366.2664931966
101363.6884400295
101360.3732991422
101356.2813728283
101351.4050401071
101345.7727990821
101339.4508468975
101332.5390230449
101325.1617334329
101317.4608077465
101309.5911152184
101301.7306617446
101294.180382077
101287.5647891196
101282.8307813511
101280.573688138
101280.0138734305
101279.883062333
101279.9063714294
101280.118630707
101280.6112013372
101281.4823825406
101282.8273724406
101284.7356994594
101287.2843102864
101290.5306488979
101294.5080824547
101299.2218278437
101304.6450723064
101310.7174881544
101317.3489372882
101324.4280727713
101331.8295659829
101339.4172855483
101347.0436136618
101354.4838564004
101361.2478284338
101366.5133387442
101369.5004497056
101370.4218706816
101370.5814682195
101370.6361805118
101370.5133172432
101370.1567189992
101369.4596035624
101368.3253660861
101366.6589383955
101364.372266574
101361.3932223338
101357.6714162826
101353.1818431776
101347.9287970758
101341.9491778588
101335.3121833755
101328.1145640601
101320.4771236838
101312.545992037
101304.5009652668
101296.6295567957
101289.5343371784
101284.2020006717
101281.4018717274
101280.6092096992
101280.4748562207
101280.4573464792
101280.6155334192
101281.0196911996
101281.761303782
101282.9316426345
101284.6193636138
101286.9031599644
101289.8449805239
101293.4867725731
101297.8476411382
101302.9200587136
101308.6671490176
101315.023667171
101321.9012164435
101329.193104482
101336.7739742367
101344.4976403934
101352.156842363
101359.3072309235
101365.1256924304
101368.7366787293
101370.042733148
101370.255853775
101370.3304215828
101370.2551608274
101369.9816656516
101369.4076633189
101368.44123003
101366.9900099982
101364.9640957999
101362.2864657868
101358.8992983742
101354.7660448872
101349.8739053281
101344.2375482656
101337.9010904747
101330.9361748086
101323.4408736083
101315.5453262166
101307.4206251065
101299.3260642766
101291.8015405873
101285.8373940019
101282.3770007647
101281.2306452822
101281.0571820552
101281.0111491584
101281.1247016387
101281.4494545236
101282.0759516047
101283.0903029485
101284.579970283
101286.6251751812
101289.2913078885
101292.6263053894
101296.6592512561
101301.3972696252
101306.8220860046
101312.8889428438
101319.5295201183
101326.6556747835
101334.1569698835
101341.8944271405
101349.6794250866
101357.1377856517
101363.4928965368
101367.7831261628
101369.6234156641
101369.9651499867
101370.0441024912
101370.0072409687
101369.8022115796
101369.334269652
101368.516402441
101367.2587038152
101365.469350417
101363.066834685
101359.9875001676
101356.1863921034
101351.6380604662
101346.3400149027
101340.3161912417
101333.6172520311
101326.3202505936
101318.535529455
101310.4186984903
101302.2009869771
101294.3406270888
101287.7640039258
101283.5634306552
101281.91411654
101281.627199524
101281.5700504319
101281.6467651607
101281.9038988265
101282.4290876121
101283.3031899703
101284.6121423554
101286.4386287868
101288.8518179555
101291.9042325691
101295.6319959211
101300.0530627883
101305.1635886179
101310.9354865999
101317.3175859412
101324.2384374812
101331.6032893032
101339.2858344554
101347.1161622339
101354.7911379791
101361.6290273951
101366.606230318
101369.1017977057
101369.7024901471
101369.7763126652
101369.7679279422
101369.61985754
101369.2433261861
101368.5557004679
101367.4707624267
101365.8965241391
101363.7474671259
101360.9540911097
101357.4642958053
101353.2431274983
101348.2751609837
101342.568266945
101336.1555298593
101329.0956940986
101321.4797399927
101313.4445498174
101305.1942196453
101297.1042672251
101289.9801638594
101285.0007495791
101282.7094207157
101282.2010940221
101282.1374970024
101282.1827510852
101282.3823299635
101282.818620018
101283.567958098
101284.7133689632
101286.3390541181
101288.5178671199
101291.3067141427
101294.747610723
101298.8670577305
101303.6726118735
101309.1497442292
101315.2614668727
101321.9503392732
101329.1370079308
101336.7112803716
101344.5192464544
101352.3114882312
101359.5364467905
101365.1872495429
101368.4202533545
101369.4376923762
101369.5294491389
101369.5441616466
101369.4395314224
101369.1389095947
101368.5635358657
101367.6329842896
101366.2558439414
101364.3422403222
101361.8163767796
101358.6198051499
101354.7101624102
101350.0620022643
101344.6703427345
101338.5538175304
101331.7558072357
101324.3489789003
101316.4494414944
101308.2367863314
101300.017960259
101292.4532044605
101286.716378192
101283.6756702762
101282.7918280589
101282.7062104061
101282.7250674763
101282.8778997435
101283.2376823035
101283.875941214
101284.872319982
101286.3120825019
101288.2722757605
101290.8143733514
101293.9851034302
101297.8173696123
101302.3277968007
101307.5131925626
101313.3487529903
101319.7893597251
101326.7696684397
101334.1946580505
101341.9259356232
101349.7561765919
101357.2623922227
101363.5320056047
101367.5282984934
101369.1044806271
101369.3230705968
101369.3328331327
101369.2575658678
101369.0213632732
101368.5437994592
101367.7504298872
101366.5518792389
101364.8558230077
101362.5812135137
101359.6632784251
101356.0525314389
101351.7150184372
101346.6352824325
101340.819879652
101334.2991534689
101327.1301119934
101319.4098290424
101311.2948598009
101303.0379777127
101295.1598136243
101288.7219602434
101284.8533833338
101283.4517684269
101283.2650466937
101283.2731966259
101283.3861539488
101283.6819438709
101284.2254617925
101285.0903399136
101286.3610277789
101288.1182471113
101290.4280829917
101293.3417733832
101296.897916903
101301.1209953137
101306.0175951993
101311.5737304377
101317.7551337113
101324.5078694523
101331.7511566815
101339.3646671508
101347.1711987092
101354.841924597
101361.6257246378
101366.3947698485
101368.6626669499
101369.1448126843
101369.1374411939
101369.0892712452
101368.8997443354
101368.5020325107
101367.8248477816
101366.7845340442
101365.288041333
101363.2489940987
101360.5959477772
101357.2726508497
101353.2376800765
101348.4665645276
101342.9552459586
101336.7225732886
101329.8124262242
101322.3036938233
101314.3294916581
101306.1045840306
101298.0379996987
101291.0131973626
101286.2897331897
101284.2372968996
101283.8258615876
101283.8255109995
101283.9083530248
101284.1514168914
101284.6136851957
101285.3632325628
101286.4812733771
101288.0508802093
101290.1427715278
101292.8127735191
101296.104407012
101300.0485816846
101304.6602676835
101309.935369207
101315.849646153
101322.3593204764
101329.3975379639
101336.8609553641
101344.5925556669
101352.3312615357
101359.5056839369
101365.0236009819
101368.046454131
101368.9300695526
101368.9878569655
101368.9388884583
101368.7822534652
101368.4498992169
101367.8715731302
101366.9697823056
101365.6529463791
101363.8315228159
101361.4287873642
101358.382047252
101354.6421806564
101350.1759739269
101344.9696409509
101339.031707862
101332.3948176589
101325.1217049389
101317.3242184094
101309.1882672971
101301.0372902361
101293.5626285498
101288.0082283385
101285.1988928905
101284.4198331877
101284.3750635491
101284.439988527
101284.6350057103
101285.0285160638
101285.6782520327
101286.6600916858
101288.0583148023
101289.9478082414
101292.3884781006
101295.4278842329
101299.1023369444
101303.4342483066
101308.4285544007
101314.0705737644
101320.3263750547
101327.1412169353
101334.4267861338
101342.044898954
101349.7822332168
101357.2096085968
101363.3813094507
101367.2004501507
101368.6701348876
101368.8621352146
101368.8037435833
101368.6785916246
101368.3952732123
101367.8956480001
101367.1110104506
101365.9536366571
101364.3319989996
101362.1643650466
101359.3816550027
101355.9276361166
101351.7613188508
101346.8601754594
101341.2229237337
101334.8714167023
101327.8542696801
101320.2630374157
101312.2573477461
101304.1012978298
101296.3292645669
101290.0374228088
101286.3727454907
101285.0761677476
101284.9107409771
101284.9701627234
101285.1214335725
101285.4579348045
101286.0238947121
101286.8869434237
101288.1294245161
101289.830384647
101292.0547462559
101294.8543929688
101298.2702361066
101302.3304698523
101307.0473358262
101312.4148271559
101318.4081050331
101324.9827217638
101332.0664614526
101339.5423897557
101347.2272384977
101354.7846820217
101361.4759054843
101366.1239438759
101368.2787385688
101368.7260993557
101368.7058218042
101368.5922293944
101368.3448025403
101367.9092139347
101367.2210402154
101366.201425132
101364.7590817263
101362.8082461624
101360.2750144016
101357.0968553508
101353.2246052482
101348.6268672985
101343.2932074487
101337.2358064493
101330.4916588108
101323.1335954368
101315.2951014172
101307.2001067883
101299.2640759968
101292.3650749983
101287.7939880561
101285.859995198
101285.464009348
101285.4906159317
101285.6153070894
101285.9029659103
101286.3983468703
101287.1602637583
101288.2654892854
101289.7942795026
101291.8161717151
101294.3882064676
101297.5562820952
101301.3538019373
101305.7990148048
101310.8929631464
101316.6184485436
101322.940168995
101329.8004190627
101337.1014318215
101344.6830764796
101352.2802708646
101359.3402929039
101364.7761589362
101367.6939383631
101368.5870287328
101368.6418601333
101368.5359373919
101368.323917832
101367.933537255
101367.3185997061
101366.4117812881
101365.1264838681
101363.3750456464
101361.0775928776
101358.1638175363
101354.5763444253
101350.2757511282
101345.243667283
101339.4841432024
101333.0247456494
101325.9220957432
101318.2842464135
101310.3022756546
101302.3043103766
101294.9679517085
101289.5267916916
101286.8293519212
101286.0553294851
101286.00046311
101286.1126942971
101286.3510444185
101286.7923723209
101287.4733832513
101288.4609619458
101289.8339180821
101291.6654391428
101294.0184714572
101296.946047777
101300.4886039806
101304.670232004
101309.497018202
101314.9569739218
101321.020867938
101327.6409364187
101334.7380256
101342.1803326846
101349.7525813309
101357.0286001209
101363.118351615
101366.8905457885
101368.3596179216
101368.5839881695
101368.5126495157
101368.3272619794
101367.9740905758
101367.415005934
101366.595584494
101365.4404935515
101363.8642330109
101361.7844536999
101359.1249012424
101355.8179454945
101351.8116495433
101347.0772087107
101341.6119465064
101335.4381163924
101328.602881171
101321.1938538579
101313.3695139766
101305.395524002
101297.7927455604
101291.6051825265
101288.0005328849
101286.7259524841
101286.5208733975
101286.5840619097
101286.7829962201
101287.1774757634
101287.7969532776
101288.6947310183
101289.9391133314
101291.6000923221
101293.7439614276
101296.4326471889
101299.7186149301
101303.6372143894
101308.202284022
101313.4059366694
101319.2204561427
101325.6011171601
101332.4812700555
101339.7509996264
101347.2306979375
101354.5980714155
101361.1678352468
101365.8138614461
101367.9564847333
101368.503470832
101368.5177839354
101368.3657227962
101368.0587258079
101367.5377573736
101366.7740755145
101365.710572042
101364.2752940817
101362.3903479882
101359.9742495693
101356.9470082833
101353.2407908571
101348.8109022005
101343.6420246093
101337.7499427485
101331.17968167
101324.008187519
101316.3687690394
101308.484862842
101300.756821035
101294.0119556363
101289.4774936012
101287.5529237291
101287.096107857
101287.0513827598
101287.2011454488
101287.5332711202
101288.100249945
101288.93516984
101290.0897676926
101291.6208344989
101293.5860853145
101296.0481448263
101299.0719594066
101302.712534782
101307.0022940724
101311.945493641
101317.5185863871
101323.6742900562
101330.3457856101
101337.4348107827
101344.7871994812
101352.1534386417
101359.015117352
101364.3783532382
101367.351346458
101368.325324738
101368.4725555375
101368.420163577
101368.1854689378
101367.7249631292
101367.0071999059
101365.9941773169
101364.6404555381
101362.8926282722
101360.683975993
101357.9312692758
101354.5445264192
101350.447641338
101345.5980629011
101339.9958953337
101333.6832635039
101326.738295061
101319.2841450472
101311.5172754643
101303.75553907
101296.640161769
101291.3195149888
101288.5813088515
101287.7578955874
101287.6271543881
101287.6614995597
101287.8881237297
101288.3593446461
101289.120655184
101290.2151640713
101291.678296161
101293.538233539
101295.8286556443
101298.6037946339
101301.9376224881
101305.9035559058
101310.5468599658
101315.8661344277
101321.8111280792
101328.297996945
101335.2214857077
101342.4398136678
101349.7513482618
101356.7769635478
101362.6914535911
101366.4921873052
101368.0296922791
101368.3344777618
101368.3706343071
101368.2508594533
101367.9338501705
101367.3454594387
101366.422794476
101365.1137631732
101363.3904690462
101361.2424650437
101358.6510666191
101355.5667827575
101351.9003859241
101347.5260811948
101342.3149610883
101336.2168006263
101329.3718456905
101321.9942072681
101314.5863493591
101306.05992877
)
;

boundaryField
{
    inlet
    {
        type            uniformFixedValue;
        uniformValue    sine;
        uniformValueCoeffs
        {
            frequency       constant 3000;
            scale           constant 50;
            level           constant 101325;
        }
        value           uniform 101326.3578702043;
    }
    outlet
    {
        type            pressureOutletNSCBC;
        pInf            101325;
        gamma           1.4;
        etaAc           1;
        fieldInf        1;
        lInf            2.25;
        value           uniform 101302.2600252943;
    }
    frontAndBack
    {
        type            empty;
    }
}


// ************************************************************************* //
