/*--------------------------------*- C++ -*----------------------------------*\
| =========                 |                                                 |
| \\      /  F ield         | OpenFOAM: The Open Source CFD Toolbox           |
|  \\    /   O peration     | Version:  v2012                                 |
|   \\  /    A nd           | Website:  www.openfoam.com                      |
|    \\/     M anipulation  |                                                 |
\*---------------------------------------------------------------------------*/
FoamFile
{
    version     2.0;
    format      ascii;
    class       volScalarField;
    location    "0.0145";
    object      pMean;
}
// * * * * * * * * * * * * * * * * * * * * * * * * * * * * * * * * * * * * * //

dimensions      [1 -1 -2 0 0 0 0];


internalField   nonuniform List<scalar> 
1000
(
101325.3809020023
101325.3612513987
101325.3535000227
101325.3473692238
101325.3342459688
101325.3192837591
101325.2998199702
101325.2804776843
101325.2585769275
101325.2358581879
101325.2122177759
101325.1881394653
101325.1642363773
101325.1405699947
101325.1176572483
101325.0958844094
101325.075805043
101325.0578105794
101325.0421624399
101325.0292590458
101325.0192307845
101325.0123097017
101325.0085839854
101325.0081700066
101325.0110099598
101325.0170818823
101325.0262769844
101325.038424703
101325.0532581218
101325.0706929046
101325.090437263
101325.1121905373
101325.1351861657
101325.1587013013
101325.1821895242
101325.2056202718
101325.2288051194
101325.2514731779
101325.2732283879
101325.2936216717
101325.3121971975
101325.3284286999
101325.3420405225
101325.3527653605
101325.3603797635
101325.3648562078
101325.3660159208
101325.3639546972
101325.3586145274
101325.350215653
101325.3387918244
101325.3244918272
101325.3074779611
101325.2879773673
101325.2664172218
101325.2436520267
101325.2205123257
101325.1973133667
101325.1742372528
101325.1513893071
101325.1289598095
101325.1072813126
101325.0867269508
101325.0678693637
101325.0509897608
101325.0366696769
101325.0251890007
101325.0168129486
101325.0116580461
101325.0098714099
101325.0113852787
101325.0161567253
101325.0241419722
101325.0352395269
101325.0492895724
101325.0661901846
101325.0856850187
101325.1072231494
101325.129842697
101325.1528137977
101325.1757543605
101325.1986284949
101325.2212839047
101325.2435836993
101325.2651677255
101325.2857256617
101325.3048511648
101325.3220451349
101325.3368618884
101325.348999197
101325.3580704356
101325.3639464787
101325.3664609345
101325.3656556747
101325.36149026
101325.3541344304
101325.3436570765
101325.3301530241
101325.3136768752
101325.294612713
101325.2733699645
101325.2509608843
101325.2282026096
101325.2054220784
101325.1827269208
101325.1602415968
101325.1380977211
101325.116537384
101325.0958811382
101325.076574427
101325.058972124
101325.0435522831
101325.0307388568
101325.0208966366
101325.0142142004
101325.0109723819
101325.0110993295
101325.0146884613
101325.0215591204
101325.0317597903
101325.0450975222
101325.0614185347
101325.0805055625
101325.1016918925
101325.123991143
101325.1465905862
101325.1692259433
101325.1917634905
101325.2140942175
101325.2361488403
101325.2575993075
101325.2782289394
101325.2976045839
101325.3154362102
101325.3311083708
101325.3444063097
101325.3548408566
101325.3621919989
101325.3662111261
101325.3668387249
101325.3640119898
101325.3578065976
101325.3483309427
101325.3356912069
101325.3199228881
101325.3014301152
101325.2806595226
101325.2586310957
101325.2362043113
101325.2137462839
101325.1913835366
101325.1692006297
101325.147275282
101325.1258943895
101325.1052319933
101325.0856789447
101325.0676421808
101325.0514597442
101325.037600627
101325.0264985629
101325.0184086879
101325.0136331801
101325.0122942215
101325.0145268519
101325.0201984139
101325.0293789151
101325.0419058909
101325.0576392819
101325.0762149725
101325.0970676519
101325.1190679095
101325.1414198494
101325.163733745
101325.1860742663
101325.2081692385
101325.2300176666
101325.2513806618
101325.2720229074
101325.2915814103
101325.3098309571
101325.3261845676
101325.340391343
101325.3519962518
101325.3607137751
101325.3661877925
101325.3683411365
101325.3669470409
101325.3621129939
101325.3537644406
101325.3421182592
101325.3272106219
101325.309350709
101325.2891244993
101325.2674723044
101325.2453631656
101325.2231572384
101325.2011148535
101325.1791978302
101325.1574830438
101325.1362648845
101325.1156476669
101325.0960019338
101325.0776195829
101325.0609384143
101325.0462539702
101325.0341159124
101325.0247886917
101325.0186177092
101325.0158340949
101325.0166092307
101325.0209895707
101325.0289719384
101325.0405330653
101325.055551256
101325.0735458676
101325.0940328407
101325.115772013
101325.1379395762
101325.1600059818
101325.1821960344
101325.2041197562
101325.2258101356
101325.2470739506
101325.2677390013
101325.287459768
101325.3059741993
101325.3229064804
101325.3378480702
101325.3504406685
101325.3603439635
101325.367234389
101325.3708096659
101325.3709130737
101325.3675237379
101325.3604873343
101325.3499855899
101325.3360706143
101325.3190003892
101325.2993658771
101325.2781303308
101325.2563109452
101325.2343746465
101325.2125650387
101325.1909146458
101325.1694111059
101325.1483277468
101325.1278081607
101325.1081254873
101325.0895013555
101325.0724562364
101325.0571371282
101325.0441468345
101325.0337429489
101325.0263822643
101325.022175883
101325.0215639964
101325.0245542214
101325.0312887373
101325.0416985213
101325.0558032646
101325.0731547176
101325.0931549097
101325.114654869
101325.1366532361
101325.1585958377
101325.1805230534
101325.2024040171
101325.223987556
101325.2451722373
101325.2658600215
101325.2857001002
101325.3044608589
101325.3218206837
101325.3374049485
101325.3508161064
101325.3617707888
101325.3698996009
101325.3748337378
101325.3764029855
101325.3744659779
101325.3688718037
101325.3596230656
101325.3468291055
101325.3307385914
101325.311779137
101325.291042298
101325.2694838201
101325.2478994499
101325.226123015
101325.204810227
101325.1835139312
101325.1625774993
101325.1421270333
101325.1224525363
101325.1037146619
101325.0863215836
101325.0705595683
101325.0568524388
101325.0455351111
101325.0371136506
101325.0316226337
101325.0296909622
101325.0312883997
101325.0367193322
101325.0458748628
101325.058900591
101325.075454175
101325.0948590045
101325.1160640462
101325.1378890081
101325.1597810062
101325.1814407625
101325.2033065426
101325.2248228844
101325.2459559282
101325.2666356362
101325.2866062597
101325.3055991712
101325.3232699871
101325.3394221514
101325.3535322548
101325.3654036179
101325.3746070691
101325.3808692351
101325.3837985714
101325.383285914
101325.3791463487
101325.3712994285
101325.3597335908
101325.3447360978
101325.326643516
101325.3064657241
101325.2852426133
101325.263930099
101325.2423670095
101325.2212533905
101325.2001819451
101325.1793756554
101325.159003905
101325.1393543687
101325.1205495197
101325.1029044608
101325.0867795611
101325.0724951281
101325.0604232919
101325.0509941123
101325.0445367865
101325.0412466604
101325.0415313591
101325.0456106155
101325.053511144
101325.0653075978
101325.080857963
101325.0995936654
101325.1203753609
101325.1420453853
101325.163822936
101325.1854182059
101325.2070815737
101325.2286350556
101325.2497128065
101325.2704239365
101325.2904626412
101325.3096822566
101325.3276605322
101325.3442464364
101325.3590020794
101325.3716747194
101325.3818206562
101325.3893138701
101325.3934719348
101325.3943684961
101325.3916556499
101325.3852877833
101325.3750464033
101325.3612403391
101325.3441846771
101325.3246859028
101325.3038835531
101325.2827828244
101325.2616210736
101325.2404084326
101325.2196946222
101325.1990424568
101325.1787848479
101325.1591240265
101325.1403082952
101325.1225115285
101325.1060287936
101325.0913066512
101325.0785879085
101325.0683117421
101325.0609126843
101325.0564138925
101325.055482566
101325.0582287723
101325.0648324707
101325.0753687468
101325.089759793
101325.1076552806
101325.1279205748
101325.1493817915
101325.1710196231
101325.1926975898
101325.2139560177
101325.2356137123
101325.2567244075
101325.2774476528
101325.2975509459
101325.316964122
101325.3352506465
101325.352189916
101325.3675180658
101325.3808866464
101325.3919144257
101325.4004378955
101325.40581657
101325.4080588059
101325.4067172852
101325.4017901154
101325.3930154558
101325.3804760436
101325.3645408153
101325.3459041325
101325.3256061307
101325.3047629241
101325.2839498991
101325.262809765
101325.2423312089
101325.2218940572
101325.2017110147
101325.1820892513
101325.1632196314
101325.1453419686
101325.1286021155
101325.1134713863
101325.1002103734
101325.0892371227
101325.0808666364
101325.075525288
101325.0733188662
101325.074780153
101325.080067716
101325.0893332325
101325.1024648147
101325.1193296782
101325.1389859086
101325.1601474994
101325.1816605425
101325.2032837485
101325.2244759324
101325.2459985873
101325.2672006663
101325.2879060733
101325.3081185963
101325.3276408234
101325.3462494811
101325.3635539659
101325.3793274807
101325.393345503
101325.4051986903
101325.4145615926
101325.4212695864
101325.4245999783
101325.4246377691
101325.4211197113
101325.4138166814
101325.4026875441
101325.3879315246
101325.3702886127
101325.3506193624
101325.3301043131
101325.3095218217
101325.2888104685
101325.2681799022
101325.2480836107
101325.2280271723
101325.2084929724
101325.1895557439
101325.1716281605
101325.1547208083
101325.1392120706
101325.1254856214
101325.1139037387
101325.1047023705
101325.0985376048
101325.095119376
101325.0954253184
101325.0994204948
101325.1073765582
101325.1192697968
101325.1349520155
101325.1538190103
101325.1745899324
101325.1959800621
101325.21746059
101325.238857092
101325.2598473156
101325.2812586576
101325.3020579703
101325.3223566159
101325.3420068766
101325.3608495218
101325.3785570776
101325.3947396819
101325.4093317105
101325.4219144787
101325.4321441458
101325.439874612
101325.4443425539
101325.4457375072
101325.4435507242
101325.4377000288
101325.4280584336
101325.4145948698
101325.3980029302
101325.3791309001
101325.35906757
101325.3386614537
101325.3184368449
101325.2976995232
101325.2779189259
101325.2580651569
101325.2385645748
101325.2196439305
101325.2015859386
101325.1846174833
101325.1687981592
101325.1546741726
101325.1425241891
101325.1326642543
101325.1255217459
101325.1213391924
101325.1204204281
101325.1231334886
101325.1298016842
101325.140397025
101325.1548919999
101325.1727420875
101325.1930596066
101325.2142065311
101325.2355381238
101325.2570057602
101325.2778618868
101325.2992086677
101325.3201267186
101325.3404537213
101325.3602739256
101325.3792653319
101325.3973686425
101325.4139620298
101325.4290701772
101325.4422805783
101325.4533787071
101325.4618735741
101325.4677893498
101325.470171676
101325.4693370642
101325.4649040808
101325.4567120144
101325.4447139218
101325.4291988934
101325.4112838637
101325.3916541383
101325.3715950299
101325.3516489315
101325.3313730778
101325.3113694791
101325.2918760191
101325.2724811851
101325.2536225034
101325.2354653542
101325.2183723455
101325.2024274157
101325.1878303354
101325.1752717567
101325.1647951368
101325.1567867292
101325.1518968415
101325.1496935851
101325.151310868
101325.1566967448
101325.1659964295
101325.1792768156
101325.1960224716
101325.2156592096
101325.2365255087
101325.2577729338
101325.2790777593
101325.3002538454
101325.3209612783
101325.3421799939
101325.3626343733
101325.3825820105
101325.4017603578
101325.4200962022
101325.437264555
101325.4526307206
101325.4666967794
101325.4784287737
101325.4877782251
101325.4947389244
101325.4982017252
101325.4987535165
101325.495621567
101325.4888959262
101325.4783508941
101325.4641688231
101325.447067173
101325.4283450999
101325.4084230457
101325.3887582891
101325.369057563
101325.3488539951
101325.3297252162
101325.3105125912
101325.2916584245
101325.2734964274
101325.2561954277
101325.240222903
101325.225154427
101325.2123882544
101325.2012005698
101325.1925420266
101325.1866437758
101325.1837588947
101325.1841319749
101325.188244652
101325.1962821144
101325.208256624
101325.2239589143
101325.2425793987
101325.2633305466
101325.2841488218
101325.3054754962
101325.3267124487
101325.3472825917
101325.3684517321
101325.3890807237
101325.4090848467
101325.4284974012
101325.4470263827
101325.464619865
101325.4804968901
101325.4950756455
101325.5075297279
101325.5177649562
101325.5254211038
101325.5304660889
101325.5318868156
101325.5301279917
101325.5248244166
101325.5157180554
101325.5029866877
101325.4868506346
101325.4689427987
101325.4495005949
101325.4300226468
101325.4106482792
101325.3909700626
101325.3715269695
101325.3527121924
101325.3339481534
101325.3158240436
101325.298411135
101325.282211736
101325.2671553462
101325.2536117561
101325.2422258008
101325.232868695
101325.2260559717
101325.2225910056
101325.2215613936
101325.2246492729
101325.2314053636
101325.2421151027
101325.2566424172
101325.2743555514
101325.2944429113
101325.3152898842
101325.3362388999
101325.3575429923
101325.3784279096
101325.3989137919
101325.4199145947
101325.4400803999
101325.4596411384
101325.4784258096
101325.496236867
101325.5129029967
101325.5274889503
101325.5410309389
101325.5518985534
101325.5604417997
101325.5665819791
101325.5690642851
101325.5687100982
101325.5646644808
101325.5570568106
101325.5457118094
101325.5309020938
101325.5136076034
101325.494990719
101325.4756478261
101325.4566419394
101325.4374305772
101325.4178123097
101325.3993850385
101325.3807798462
101325.362623615
101325.3452051647
101325.3287347226
101325.313690043
101325.2995083034
101325.2879654966
101325.2779547301
101325.2704355916
101325.2659075269
101325.2642826979
101325.2660658402
101325.2715419648
101325.2810377593
101325.2942880574
101325.31110384
101325.3302786112
101325.3511080728
101325.3719079716
101325.3929445272
101325.4140094912
101325.434400474
101325.455283978
101325.4756928818
101325.4953578288
101325.5144091045
101325.5324531531
101325.5495890862
101325.5647238741
101325.5788634036
101325.5905416163
101325.5998162014
101325.6067124931
101325.6108973942
101325.6113153711
101325.6086710271
101325.6024811926
101325.5925676161
101325.5791430005
101325.5626999193
101325.544761958
101325.5259532563
101325.5069199181
101325.4882837922
101325.4691020546
101325.4502454934
101325.4321139425
101325.4140248078
101325.396618474
101325.3800042046
101325.3647067187
101325.350506419
101325.338203673
101325.3278429455
101325.3196492806
101325.3141436818
101325.3120958118
101325.3122950531
101325.316862659
101325.3250120567
101325.3370899264
101325.3527740197
101325.3712874772
101325.391508932
101325.4123693959
101325.4331546762
101325.4543073585
101325.4749671357
101325.4951727476
101325.5160492124
101325.5358654902
101325.5550915953
101325.5734464953
101325.5908059291
101325.6068682729
101325.6208884289
101325.6336081124
101325.6439100514
101325.6514508434
101325.6568543862
101325.6583572976
101325.6571260238
101325.6521350402
101325.6437570744
101325.6316550229
101325.6164787159
101325.5990396603
101325.5807853039
101325.5621753032
101325.5435939194
101325.5251426194
101325.5059858572
101325.4882612543
101325.4703165571
101325.452843299
101325.4362150824
101325.4205854226
101325.4064679052
101325.3932989169
101325.3827948209
101325.3742179244
101325.3675509423
101325.3645181053
101325.3643973616
101325.3674418569
101325.37437823
101325.3852617052
101325.3997710183
101325.4175067422
101325.4371196745
101325.4577834825
101325.4786891029
101325.4993326902
101325.5205466787
101325.5405670788
101325.5611024016
101325.5813721023
101325.6007233443
101325.619400687
101325.6370219418
101325.6536315399
101325.6681603371
101325.6816748528
101325.6926729262
101325.7010856725
101325.7071350398
101325.7106631278
101325.7098943524
101325.7064876759
101325.6994080493
101325.6887942258
101325.6748256308
101325.6583173574
101325.6403899856
101325.6222950885
101325.6038811304
101325.5858425836
101325.5673780655
101325.5487954138
101325.5315557857
101325.5141180119
101325.4974516782
101325.4816805455
101325.4672722903
101325.4540540274
101325.4428222368
101325.4335534474
101325.4268507578
101325.4222656287
101325.4217935702
101325.4233051171
101325.4294083387
101325.438839025
101325.4522876802
101325.4689737787
101325.4882186569
101325.5083278439
101325.529186197
101325.5499809895
101325.5706492646
101325.5916204074
101325.6110514912
101325.6319947808
101325.6515784846
101325.6703786527
101325.6883943566
101325.7052480537
101325.7207532079
101325.7341220301
101325.7461617693
101325.7559036612
101325.7622396164
101325.7667899749
101325.7680257322
101325.7654668614
101325.7597447619
101325.750542892
101325.7378688051
101325.7224556554
101325.7050818138
101325.6872335595
101325.6694067814
101325.6511519376
101325.6337893647
101325.6151028137
101325.5975204056
101325.5805921829
101325.5637913876
101325.5479796491
101325.5332706679
101325.520020125
101325.5079571346
101325.4985952333
101325.4911916874
101325.4859873196
101325.4839649126
101325.4857401924
101325.4895632618
101325.4982394249
101325.5103114676
101325.5260140411
101325.5444851585
101325.5645743406
101325.5848361326
101325.6057372314
101325.6264213849
101325.6471101121
101325.6677676886
101325.6867857066
101325.7074784572
101325.726603127
101325.7448537013
101325.7622048466
101325.7781308234
101325.792258223
101325.8047945946
101325.815054315
101325.8232822491
101325.8276086478
101325.8305477431
101325.8292488823
101325.8250513324
101325.8170812437
101325.8058146393
101325.7914190047
101325.7750628192
101325.7573168543
101325.7397560828
101325.7222106099
101325.7042567865
101325.6874829368
101325.6685372979
101325.6523848709
101325.6358054524
101325.6195575985
101325.6048052347
101325.5911879257
101325.5790431149
101325.568605569
101325.5608804351
101325.5555771703
101325.552136745
101325.5525876046
101325.556615545
101325.5630819717
101325.5743194733
101325.588772299
101325.6064017603
101325.6260050906
101325.646528242
101325.6668298033
101325.6876706726
101325.7083250758
101325.7287727497
101325.7494454587
101325.7675970297
101325.7880301816
101325.8067093606
101325.8244076782
101325.8410548611
101325.8556197889
101325.8686464357
101325.8798877983
101325.8886177681
101325.8949881123
101325.8974705243
101325.8985092704
101325.8947277518
101325.8889792497
101325.8788141066
101325.8657024955
101325.8500624437
101325.8331321579
101325.815561421
101325.7981722004
101325.7809344664
101325.7632860863
101325.7472660309
101325.7283204281
101325.713199154
101325.6973435827
101325.681609626
101325.6685971644
101325.6551023817
101325.6447408035
101325.6361861604
101325.6300155767
101325.6271328605
101325.6255807985
101325.6283006358
101325.634771156
101325.6459312146
)
;

boundaryField
{
    inlet
    {
        type            calculated;
        value           uniform 101325.3658509396;
    }
    outlet
    {
        type            calculated;
        value           uniform 101325.6518247625;
    }
    frontAndBack
    {
        type            empty;
    }
}


// ************************************************************************* //
