/*--------------------------------*- C++ -*----------------------------------*\
| =========                 |                                                 |
| \\      /  F ield         | OpenFOAM: The Open Source CFD Toolbox           |
|  \\    /   O peration     | Version:  v2012                                 |
|   \\  /    A nd           | Website:  www.openfoam.com                      |
|    \\/     M anipulation  |                                                 |
\*---------------------------------------------------------------------------*/
FoamFile
{
    version     2.0;
    format      ascii;
    class       volScalarField;
    location    "0.0145";
    object      rho;
}
// * * * * * * * * * * * * * * * * * * * * * * * * * * * * * * * * * * * * * //

dimensions      [1 -3 0 0 0 0 0];


internalField   nonuniform List<scalar> 
1000
(
1.176543103222273
1.176519932718994
1.176572983349941
1.176616204373652
1.176667425847998
1.176713891418876
1.176752934755468
1.17678566291677
1.176813049271495
1.176830922362942
1.176835934319259
1.176835300975133
1.176831100600289
1.176821102525323
1.176802976054729
1.176776078035892
1.176741530857127
1.176700995477846
1.176655797048094
1.17660681549632
1.176554742000739
1.176500317663009
1.176444409051185
1.176387966376395
1.176331968526175
1.17627739976061
1.176225175522252
1.176175945305207
1.17612991911709
1.176087123208458
1.17604882746926
1.176019716957813
1.17600504467388
1.17600181477987
1.176001800239102
1.176004541087222
1.176011738173607
1.176025264556615
1.176046615322659
1.176076425707224
1.176114215514609
1.176158604733327
1.176207838950931
1.176260301135366
1.176314762008386
1.176370336812265
1.176426295866954
1.176481903964005
1.176536393117845
1.176589103960691
1.176639666134343
1.176687907517237
1.176733251332514
1.176773203443665
1.176801754576209
1.176814529758939
1.176817115596816
1.176817213007687
1.176814875248455
1.176808895781243
1.176797673519931
1.176779717515495
1.176753985657435
1.176720159938008
1.176678744662382
1.176630961189652
1.17657845854377
1.176522953516537
1.176465950546414
1.17640862044473
1.176351815759914
1.176296143439904
1.176241995320622
1.17618956127084
1.176139097304135
1.176091733629682
1.176051040341109
1.176023678876517
1.176012442787294
1.17601025292188
1.176010218591623
1.17601251317465
1.176018145608499
1.176028473692752
1.176044842160809
1.176068324871973
1.176099491586754
1.17613825895084
1.176183856199992
1.176234937148308
1.176289820708341
1.176346787509577
1.176404345753093
1.17646139811091
1.176517279006888
1.176571709440527
1.176624670870239
1.176675968889091
1.176724365787816
1.176766270638618
1.176794979895375
1.176806991930367
1.17680952104645
1.176809980260633
1.176808235179418
1.176803617888818
1.176794789555595
1.176780493540478
1.17675963199943
1.176731447092337
1.176695666002489
1.176652610412737
1.17660321427593
1.17654891421578
1.176491426835303
1.176432461127269
1.176373443783076
1.176315353072446
1.176258691189322
1.176203609590928
1.176150401309872
1.176100553446036
1.176058213689741
1.176030276618571
1.176019111471567
1.176016820552944
1.176016471319005
1.176018266239283
1.176022832595728
1.176031347799805
1.176044949713153
1.176064666438374
1.176091255515514
1.176125074979606
1.176165980359281
1.176213282362228
1.176265795999908
1.176321989720779
1.176380220165126
1.176439002458266
1.176497219989441
1.176554213787862
1.176609723290644
1.176663425383492
1.176713923167318
1.176757559859279
1.176787820309812
1.176800814416961
1.17680372760174
1.176804565619219
1.176803365874363
1.17679979263849
1.176792642666057
1.176780808544066
1.176763271390365
1.17673919824863
1.176708049903506
1.176669698151303
1.176624509903531
1.176573360479686
1.176517557111996
1.176458665065082
1.1763982597122
1.176337690991852
1.176277939165831
1.176219610436385
1.176163342931903
1.176110913911719
1.176066640192066
1.176037309842853
1.176025415179255
1.176022842103097
1.176022172603801
1.17602349666716
1.176027158400928
1.176034249184984
1.176045783035541
1.176062711233199
1.176085815948987
1.176115614712107
1.176152270427794
1.176195523596338
1.176244669324575
1.176298599707951
1.176355928939811
1.176415195227279
1.176475072403309
1.176534517626245
1.17659283029071
1.176649351364911
1.176702461969786
1.176748398952237
1.176780839587451
1.176795491576147
1.176798967552187
1.176800038745662
1.176799333994298
1.17679662126068
1.176790833402609
1.176780942545528
1.176765998651701
1.176745172246911
1.176717822418964
1.176683595481631
1.176642511608915
1.176595013338171
1.17654196227559
1.176484565397985
1.176424220353006
1.176362326892667
1.17630013815613
1.176238681017435
1.176179013562151
1.176123298587525
1.176076193224615
1.176044587766046
1.176031350967676
1.17602840019823
1.176027519044208
1.176028430263059
1.176031352338058
1.176037274643468
1.176047128663674
1.176061800483365
1.176082066065824
1.176108516565316
1.17614148125255
1.176180963519136
1.176226600205356
1.176277657145583
1.176333081071668
1.176391622750686
1.176451997729048
1.176513017173104
1.176573681405891
1.176633032193603
1.17668921885283
1.176738222018674
1.17677367817428
1.176790708126079
1.176794953083478
1.176796149199125
1.176795873164839
1.176793852824591
1.176789180173755
1.176780894303342
1.176768098284295
1.176749974280069
1.176725831986411
1.176695192684629
1.176657863880141
1.176613989768151
1.176564075941251
1.176508972804209
1.176449794338576
1.176387793172459
1.176324254358601
1.176260421844241
1.176197647724674
1.176138368217945
1.176087600532787
1.176052630541943
1.176037183158669
1.176033637443891
1.176032612091093
1.176033144558413
1.176035443371251
1.176040386900428
1.176048837833373
1.176061624891421
1.176079505297745
1.176103103852959
1.176132846180699
1.176168904379732
1.176211155049232
1.176259155516476
1.176312155455827
1.17636916355599
1.176429057712446
1.176490679599191
1.176552900490591
1.176614569551725
1.176673745733885
1.176726259781536
1.176765535897866
1.176785927070753
1.176791462268058
1.17679269603127
1.176792810715025
1.176791349473648
1.176787593575873
1.176780651552111
1.176769675157325
1.176753858524761
1.17673248402052
1.176704998135695
1.176671071558277
1.176630640876646
1.176583942110006
1.176531523834455
1.176474213582969
1.176413042629411
1.176349186795756
1.176283930122792
1.176218748619784
1.176156137829355
1.176101276859954
1.176062018653379
1.176043300831594
1.176038658315518
1.176037573493759
1.176037766777368
1.176039527006919
1.176043611842259
1.176050836456207
1.176061990289578
1.176077815741761
1.176098950838045
1.176125871828092
1.176158855252181
1.176197944165857
1.176242915982949
1.176293270181701
1.17634825905441
1.176406959065265
1.176468330805036
1.176531245370446
1.176594478711501
1.176656167831432
1.176712248693288
1.176755904911167
1.176780670691504
1.176788310030372
1.176789633211952
1.176790086806132
1.176789068149677
1.176786111641563
1.176780331963158
1.176770928157378
1.176757111988727
1.176738153343669
1.176713454104192
1.176682596340233
1.176645372532757
1.176601818042127
1.176552238540155
1.176497207484558
1.176437526805947
1.176374197927278
1.176308432349566
1.176241720846223
1.176176447575657
1.176117609588408
1.176073389770978
1.17605016869587
1.176043595217225
1.176042481025258
1.176042335803591
1.176043647615497
1.176046999247607
1.176053149356948
1.1760628548272
1.176076850831462
1.176095789893574
1.17612018564043
1.176150385787706
1.176186548583881
1.176228611386247
1.176276268151981
1.176328977589966
1.176386006447642
1.1764464698067
1.176509328047595
1.176573368934587
1.176636873945205
1.176696158989438
1.176744399943535
1.176774338297863
1.176785166595171
1.176786933532322
1.176787551750281
1.176786927761814
1.176784660246138
1.176779901277891
1.176771888715515
1.176759856820174
1.176743060125047
1.176720859960355
1.176692776798393
1.17665850743744
1.176617945531502
1.176571212442417
1.176518673672376
1.176460922953791
1.176398773189049
1.176333303231525
1.176265931611725
1.17619880839422
1.176136410787493
1.176086951793171
1.176058255352826
1.176048748759021
1.176047310238466
1.176046928482093
1.176047870148367
1.176050563280058
1.176055758744311
1.176064170625906
1.176076524202778
1.176093484685079
1.176115594254937
1.176143250318764
1.176176693895204
1.176215983861606
1.176260968444363
1.176311276243922
1.176366340476731
1.176425430009216
1.176487628895681
1.176551784605711
1.17661633309662
1.176678171992461
1.176730862599455
1.176766432632322
1.17678169023081
1.176784523489874
1.17678517806472
1.176784872441591
1.1767831725649
1.176779292925537
1.176772512104144
1.176762084678946
1.176747249309877
1.17672733015087
1.17670179931735
1.176670283934758
1.176632572796712
1.17658864501539
1.176538698775601
1.176483153847527
1.176422648829283
1.176358098381397
1.176290792592875
1.176222648727807
1.176157466673529
1.176102928925488
1.176068094457813
1.176054416931649
1.176052037558309
1.176051563621126
1.176052199798784
1.176054332169156
1.176058687490003
1.176065936299519
1.176076791233051
1.176091937931573
1.176111949925031
1.176137262665182
1.176168175568121
1.176204837344847
1.176247215898418
1.176295078078582
1.176347999305685
1.176405386858528
1.176466454821687
1.176530155689447
1.176595080502379
1.176658715840758
1.176715409527711
1.176756675393135
1.176777365868988
1.1767823461193
1.176782958165989
1.176782888642804
1.176781661004989
1.176778539235205
1.17677283822692
1.176763843142572
1.176750791287401
1.176732973575129
1.176709813687848
1.17668087952758
1.176645881113426
1.176604690332313
1.176557372182588
1.176504200691329
1.176445662636702
1.176382512106072
1.176315883854796
1.176247470085618
1.176180384675737
1.176121307265885
1.176080014246808
1.176061012649496
1.176056797164232
1.17605626975934
1.176056645040503
1.17605830011525
1.176061918205398
1.176068132355893
1.176077631061152
1.176091112554931
1.176109180937156
1.176132308025742
1.176160842116735
1.176195002808971
1.176234852567848
1.176280270683301
1.176330950188597
1.176386414517943
1.176446005420798
1.176508808977251
1.176573548850686
1.176638156933713
1.176698060233313
1.176744911127938
1.176771715689557
1.176780151141778
1.176780911882039
1.176781033857125
1.176780166377402
1.176777673960129
1.17677290361506
1.176765188530466
1.176753770803746
1.176737905245546
1.176716963350822
1.176690460409684
1.17665804503007
1.176619506032365
1.176574801867225
1.176524086755232
1.17646772008478
1.176406304079802
1.176340801212263
1.176272700433489
1.176204546915874
1.176141815815988
1.176094242048427
1.176069026076861
1.176061696512658
1.176060986497613
1.176061142874263
1.176062410285498
1.17606539390481
1.176070686884838
1.176078949684476
1.176090889355012
1.176107144782369
1.176128225674631
1.176154519424017
1.176186298742083
1.176223701309516
1.176266700437667
1.176315090202177
1.176368496215207
1.17642637638032
1.176487942553611
1.176552047024408
1.176616970640402
1.176679206304939
1.1767311880504
1.176764321096117
1.176777389037525
1.176779201337379
1.176779282276101
1.17677865824221
1.176776699914711
1.176772740495735
1.176766162769311
1.176756225716613
1.176742163846078
1.176723305130969
1.176699112444834
1.176669175354976
1.176633212161858
1.176591094483727
1.176542876416458
1.176488809256277
1.176429365382446
1.176365349408784
1.176298059228256
1.1762295907191
1.176164261184326
1.176110874355228
1.176078793177609
1.176067169838849
1.176065621387018
1.176065688973105
1.176066625708322
1.176069078643179
1.176073585944723
1.176080758224814
1.176091295787461
1.176105868001654
1.176125022829813
1.176149185077413
1.176178674698849
1.176213694544892
1.176254299034233
1.176300371958735
1.176351628914608
1.176407622403605
1.176467682344198
1.176530810783908
1.176595538282177
1.176659138378854
1.176715383609884
1.176754923669378
1.176773726579929
1.176777723989044
1.176777662874737
1.176777263503547
1.176775692157871
1.17677239477844
1.176766780323654
1.176758155197785
1.176745747903701
1.176728842254631
1.176706845820894
1.176679292097293
1.176645837476033
1.17660627885748
1.176560582345537
1.176508903941154
1.176451607169122
1.176389345846315
1.176323223472965
1.176255020688926
1.176188129235423
1.176129875459866
1.176090705109571
1.176073684681167
1.176070272722897
1.17607026981773
1.176070956813635
1.176072972497911
1.17607680600371
1.176083021857989
1.176092293541325
1.1761053099258
1.176122657408547
1.176144798857599
1.176172095061079
1.176204802190093
1.176243044199571
1.176286786908557
1.176335829069325
1.176389807411666
1.176448167325171
1.17651005167125
1.176574158337327
1.176638322529281
1.17669780682982
1.176743555988484
1.176768618234345
1.176775944185125
1.176776423295475
1.176776017306033
1.176774718664461
1.176771963154982
1.176767168322909
1.17675969167567
1.176748773908024
1.176733672587291
1.176713751524918
1.176688490828528
1.176657483079437
1.176620452709398
1.176577285183091
1.176528050924379
1.176473020294331
1.176412713155851
1.176348056643545
1.176280592081242
1.176213001379892
1.176151017577772
1.176104956777516
1.17608165962869
1.176075199041144
1.176074827778383
1.176075366192841
1.176076983435172
1.17608024674026
1.176085634870951
1.176093777058744
1.176105372193319
1.176121041248954
1.176141280939824
1.176166485563045
1.176196956090906
1.17623287820656
1.176274292639411
1.17632107741527
1.176372950918878
1.176429458976017
1.176489869058866
1.176553035183415
1.176617188458816
1.176678770443135
1.176729940407228
1.176761604721235
1.176773789720355
1.176775381574377
1.176774897461224
1.1767738598438
1.176771510884175
1.176767368549546
1.176760863205984
1.176751267527887
1.176737822634184
1.176719850827332
1.17669677927689
1.176668141625751
1.176633597853886
1.17659296096501
1.17654622007359
1.176493556085453
1.176435371791667
1.176372426037773
1.176306042184596
1.176238409997
1.176173960751539
1.176121784929529
1.176091394767842
1.176080642533341
1.176079270686063
1.176079763462854
1.176081017925218
1.176083808461865
1.176088501847923
1.176095658919602
1.176105962515553
1.176120068114717
1.176138514041807
1.176161730463271
1.176190056520989
1.176223725862103
1.176262839811566
1.176307348340063
1.176357045237262
1.176411561685265
1.176470298624347
1.176532286239429
1.176596004787083
1.176658665625701
1.176714143307414
1.176752680127649
1.176770545336737
1.176774254354479
1.176774086240395
1.176773144465147
1.17677109308072
1.176767481666232
1.176761776093422
1.176753322562501
1.176741364195825
1.176725189883526
1.176704186812601
1.176677836423989
1.176645730943634
1.176607609859415
1.176563386422143
1.176513161353199
1.176457241093714
1.17639622922787
1.176331232314797
1.176264106990258
1.176198298351624
1.176141087998704
1.176103181423557
1.176087143294047
1.176083859471331
1.176084080119157
1.176085114163417
1.176087499659932
1.176091607746153
1.176097926148019
1.176107091510364
1.176119769348098
1.17613653626556
1.176157865206438
1.176184136682699
1.17621562755451
1.176252488976849
1.17629472938958
1.176342205948396
1.176394625677177
1.176451509832511
1.176512047514452
1.1765749107899
1.176637901655572
1.176696437456769
1.176741506352748
1.176765697462976
1.17677310197592
1.17677355658098
1.17677267839575
1.176770920571553
1.176767683972893
1.176762585593403
1.176755067250277
1.176744410947116
1.176729889848618
1.176710841661331
1.176686683364619
1.176656939121548
1.176621281897329
1.176579559158518
1.176531804228841
1.176478245388731
1.176419351815359
1.17635601916896
1.176289831628375
1.176223509972459
1.176162673275287
1.176117551720375
1.176095182594359
1.176088763808757
1.176088308818486
1.176089239532721
1.176091216121571
1.176094875953706
1.176100523414147
1.176108713152286
1.176120098694538
1.176135286924244
1.176154799771799
1.176179076926009
1.176208453579386
1.176243129355428
1.176283154533652
1.176328429482086
1.176378711572082
1.176433604497505
1.176492451686584
1.176554160065601
1.176616944538673
1.176677271604865
1.176727762145024
1.176759037251449
1.176771217182132
1.176773077412278
1.176772485957791
1.17677094893942
1.176768020841149
1.176763385534412
1.176756591794168
1.176747015029447
1.176733946335721
1.176716702908181
1.176694652441153
1.176667234092273
1.176634017087046
1.176594762396864
1.176549447586299
1.176498256891638
1.176441581069522
1.176380146287897
1.176315266388146
1.176249144112024
1.176186098644476
1.176134787778269
1.176104895541926
1.176094325774193
1.176092625105239
1.176093149118923
1.176094798842818
1.176098070172532
1.176103207348517
1.176110652385473
1.176120971695666
1.176134745671391
1.176152524010725
1.17617482016955
1.176202069110789
1.176234563828033
1.176272418897427
1.176315568708611
1.176363783203943
1.176416691277219
1.176473740036137
1.176534017876587
1.176596035410205
1.176657120338494
1.176711591016317
1.176750111179512
1.176767875490068
1.176772410489321
1.17677252916165
1.17677126844784
1.176768723176826
1.176764403888112
1.176758072280312
1.176749254863229
1.176737355057903
1.176721727011274
1.176701695073161
1.176676595939944
1.176645867059265
1.176609137671128
1.176566280543087
1.176517426285771
1.17646294793491
1.176403483207254
1.176340137208824
1.176274762489269
1.176210678823366
1.17615474688982
1.176117144201575
1.176101184286473
1.176097396029837
1.176097025139321
1.17609826709078
1.176101021333217
1.176105723147978
1.176112646917262
1.176122221666101
1.176134918318704
1.176151215444224
1.176171632301353
1.176196707369809
1.176226896657965
1.176262468868708
1.176303459100061
1.176349671870899
1.176400714873781
1.176456033809072
1.17651481368603
1.176575776045321
1.176636851983928
1.176693743319952
1.176738210073967
1.176762858977937
1.176770934129448
1.176772154804859
1.176771720434291
1.176769774616332
1.176765956620778
1.176760005724917
1.176751606847524
1.176740383230177
1.176725892050405
1.1767075800851
1.176684757196951
1.176656677223282
1.176622708994305
1.176582499496692
1.176536049338516
1.176483707509903
1.176426121517989
1.17636431225911
1.17629990857206
1.176235546050373
1.176176542109679
1.176132420151738
1.176109713083565
1.176102884754789
1.176101800559679
1.176102085374706
1.176103964689561
1.176107872345038
1.17611418559789
1.176123261932068
1.176135395106086
1.176150818812623
1.176169812328754
1.176192825360479
1.17622047128163
1.176253358794769
1.176291863048817
1.176335972114542
1.176385268905361
1.176439057750458
1.176496465415253
1.17655631577297
1.176616936524466
1.176675184221461
1.176724217638333
1.17675572479526
1.176768467649579
1.176770991805998
1.176771290597479
1.176770300103723
1.17676768038708
1.176762815184711
1.176755183215221
1.176744361150272
1.176730131855775
1.176712410143391
1.176691004417828
1.176665431748766
1.176634904641485
1.176598446632983
1.176555197054359
1.176505002138245
1.176449104394707
1.176388500506614
1.17632526824759
1.176248803123642
)
;

boundaryField
{
    inlet
    {
        type            calculated;
        value           uniform 1.176427481426743;
    }
    outlet
    {
        type            calculated;
        value           uniform 1.176214707403258;
    }
    frontAndBack
    {
        type            empty;
    }
}


// ************************************************************************* //
