/*--------------------------------*- C++ -*----------------------------------*\
| =========                 |                                                 |
| \\      /  F ield         | OpenFOAM: The Open Source CFD Toolbox           |
|  \\    /   O peration     | Version:  v2012                                 |
|   \\  /    A nd           | Website:  www.openfoam.com                      |
|    \\/     M anipulation  |                                                 |
\*---------------------------------------------------------------------------*/
FoamFile
{
    version     2.0;
    format      ascii;
    class       volScalarField;
    location    "0.0145";
    object      T;
}
// * * * * * * * * * * * * * * * * * * * * * * * * * * * * * * * * * * * * * //

dimensions      [0 0 0 1 0 0 0];


internalField   nonuniform List<scalar> 
1000
(
300.0084252826558
300.0070057140258
300.0137088713391
300.0188035011843
300.0237752009004
300.0283031916841
300.0325866492824
300.0365272306092
300.0399289155403
300.0422341858082
300.0430600148356
300.0432392380565
300.0430776983817
300.0422456082882
300.0404863730884
300.0377957855029
300.0342789254365
300.0301006260611
300.025409837428
300.0203100910453
300.0148809616315
300.009205451956
300.0033809099949
299.9975152116634
299.9917182623171
299.9860959778327
299.9807417240419
299.9757182572415
299.9710424385977
299.9667118784277
299.9628499479423
299.9599295492709
299.9584819592403
299.9581824483179
299.9582103173422
299.9585232445328
299.9592668220721
299.9606421510604
299.9628105790726
299.9658379520481
299.9696764058846
299.9741876016084
299.9791948679535
299.9845349495278
299.9900835109008
299.9957506593312
300.0014616150116
300.0071404632226
300.0127075974436
300.0180943717961
300.0232617309505
300.0281911587126
300.0328232208746
300.0369030689279
300.0398173075562
300.0411199365598
300.0413827029604
300.0413904482071
300.041148198372
300.0405350203092
300.0393878375857
300.0375543151748
300.0349280566294
300.0314765609461
300.0272511033456
300.0223760524797
300.0170194292705
300.011356226315
300.0055398276546
299.9996896224922
299.9938925721543
299.9882106363583
299.982683882446
299.9773317957642
299.9721806101983
299.9673457791644
299.9631917985216
299.9603987138302
299.959251733905
299.9590282105891
299.9590247833391
299.9592591642189
299.9598342621223
299.9608886341223
299.9625595329444
299.9649565589592
299.9681378444765
299.9720948503887
299.9767488714413
299.9819624723614
299.9875640441252
299.9933780837478
299.9992523290503
300.0050747889987
300.0107775431418
300.0163321262273
300.0217366540512
300.0269712969
300.0319097694212
300.0361856818881
300.0391150750715
300.0403407277087
300.0405987869217
300.0406456428037
300.0404675824654
300.0399964552976
300.039095651414
300.0376369416215
300.0355082916617
300.0326323504168
300.02898124685
300.0245877638415
300.0195471585286
300.014005987945
300.0081393932297
300.0021217568768
299.9960986701952
299.9901699754564
299.9843869367825
299.9787650256131
299.9733341647438
299.9682461596024
299.9639244067755
299.9610727265583
299.9599330329132
299.959699187458
299.9596635429637
299.9598467670452
299.9603128874816
299.9611820869477
299.9625705081231
299.9645830824718
299.967297115053
299.9707491223398
299.9749243203864
299.9797523109263
299.9851121033233
299.9908473444954
299.9967902852607
300.0027893689241
300.0087306384008
300.0145468517337
300.0202114305118
300.0256914155728
300.030844281267
300.0352969217338
300.0383846030999
300.0397104670241
300.0400077191757
300.0400932307398
300.0399708193416
300.0396062280827
300.0388766790453
300.0376691725425
300.0358797358624
300.0334233594295
300.0302449970371
300.0263315322655
300.0217203636624
300.0165007675489
300.0108061003509
300.0047960624281
299.9986314023623
299.9924498796205
299.9863515404454
299.980398264816
299.9746551981087
299.9693037646625
299.9647846286924
299.9617907431482
299.9605765889306
299.9603139442976
299.9602456095496
299.9603807713966
299.9607545528096
299.9614783538495
299.9626556775813
299.9643836170093
299.9667419959993
299.9697836171456
299.9735250771466
299.9779398507964
299.9829559495897
299.9884602543069
299.9943112912696
300.0003598456138
300.0064705601985
300.0125370075253
300.0184876972961
300.0242553895998
300.0296749075982
300.034362293023
300.0376724491599
300.0391674828447
300.0395221625581
300.0396314677699
300.0395595645996
300.0392827767686
300.0386922130303
300.0376829910346
300.0361581655428
300.0340330863286
300.0312423357436
300.0277497954173
300.0235574874959
300.018710527715
300.0132967951785
300.0074394187567
300.0012809965822
299.9949643566803
299.9886173807654
299.9823448733115
299.9762548375184
299.9705680473668
299.9657599050167
299.962533802421
299.9611826536678
299.9608814581466
299.9607915199015
299.9608845409748
299.9611828220384
299.9617873500823
299.9627932050397
299.9642908271721
299.9663594099375
299.9690592757208
299.9724240078363
299.97645391928
299.981111904365
299.9863229889388
299.9919796338196
299.9979543082993
300.0041158999046
300.0103430694444
300.0165337960809
300.0225903008143
300.0283237487128
300.0333240355467
300.036941903341
300.038679579768
300.0391127246257
300.0392347771016
300.0392066188989
300.0390004810786
300.0385237090564
300.037678254334
300.0363725927396
300.034523264437
300.0320598160934
300.0289333763553
300.0251242717975
300.0206471783338
300.0155536463458
300.0099304137328
300.0038911220639
299.9975635726695
299.9910788901483
299.984564020291
299.9781569639324
299.9721063951666
299.9669244655143
299.9633549474429
299.9617781568342
299.9614162327355
299.9613115751611
299.9613659346456
299.9616005960827
299.9621052145414
299.9629678480147
299.9642730833209
299.9660982036373
299.9685069693187
299.9715428030882
299.975223242633
299.9795356578612
299.9844348277602
299.9898441308156
299.9956623544343
300.0017749460836
300.0080636687377
300.0144133204516
300.0207064578333
300.0267450160951
300.0321035887371
300.0361112558442
300.0381919043966
300.0387566993485
300.038882592308
300.0388943012756
300.0387452112895
300.0383619802009
300.0376536458436
300.0365336528069
300.0349197648677
300.0327387434088
300.0299340898885
300.0264721747126
300.0223464933746
300.0175810903815
300.0122319026023
300.006383335349
300.0001405917875
299.9936236372763
299.9869634965083
299.9803108047467
299.9739202790171
299.9683205845751
299.9643133726443
299.9624027564859
299.9619288762035
299.9618181477256
299.9618378833544
299.9620175671638
299.9624345326272
299.9631719877957
299.964310511065
299.9659258744072
299.9680831908341
299.9708310542105
299.9741976667655
299.9781873922863
299.9827774759295
299.9879167927533
299.9935289903503
299.9995197761642
300.0057830405589
300.0122035528252
300.0186563874501
300.0249514342638
300.0306740115759
300.0351286412071
300.0376556670348
300.0384351594765
300.0385701762551
300.038616464694
300.0385125320101
300.0382108667897
300.0376211327214
300.036661600851
300.0352518358615
300.033317328318
300.0307970312976
300.0276482767797
300.0238498595152
300.0194053513811
300.0143459032649
300.008729991071
300.0026394083198
299.9961763136771
299.9894643171364
299.9826555481594
299.9759933419089
299.9699877654294
299.9654741360721
299.9631038593764
299.9624328743918
299.9623191465645
299.9623043283246
299.9624382385942
299.9627803608672
299.9634081345628
299.9643988153945
299.9658274392208
299.9677606012589
299.9702507136079
299.9733332470473
299.9770243267075
299.9813175258269
299.9861815706818
299.9915611758379
299.9973814658485
300.0035520918869
300.0099669264813
300.0165022399626
300.0229826546088
300.0290322453648
300.0339547289958
300.0370095600329
300.0381144411198
300.0382947359622
300.0383578203288
300.0382941562301
300.0380627925643
300.0375772073767
300.0367596327862
300.0355319304782
300.0338180265584
300.0315527392432
300.0286871187924
300.0251902003137
300.0210510990217
300.0162821601566
300.0109206387307
300.0050270795863
299.9986843970597
299.9920026548444
299.9851265978511
299.9782756551058
299.9719068158705
299.9668584507127
299.9639292928934
299.9629589100487
299.962812075686
299.9627731114721
299.9628692368385
299.9631441418208
299.9636744690087
299.9645331060922
299.9657940801264
299.9675252830611
299.9697820442025
299.972604909475
299.9760184557865
299.9800286628289
299.9846200047018
299.9897545364236
299.9953743713468
300.0014048520757
300.0077524664089
300.0142995691203
300.0208865367435
300.0271967907076
300.0325733571942
300.0362028479424
300.0377596800518
300.0380487769414
300.0381155698186
300.0380843889267
300.0379109441484
300.0375150820816
300.0368231899631
300.0357592036223
300.0342454312512
300.0322129001121
300.0296077293036
300.0263918480775
300.0225436750302
300.0180610424991
300.012964132811
300.007295737702
300.0011209805973
299.9945331625502
299.9876639106652
299.9807088814273
299.9740559141595
299.9684892047119
299.9649335363687
299.963537408928
299.9632945362525
299.963246161379
299.9633111023319
299.9635287668951
299.9639733360305
299.9647132524359
299.9658212536001
299.9673673183763
299.9694099778953
299.9719936641118
299.9751489176632
299.9788908905245
299.9832162743573
299.9881012360483
299.9935024025997
299.9993592409998
300.0055915052271
300.0120922614677
300.0187177036173
300.0252113407756
300.030996435184
300.035207143013
300.0373183327809
300.0378264993541
300.0378889517322
300.0378818602737
300.0377566001292
300.0374380681155
300.0368563565156
300.0359385225644
300.0346067375925
300.032788639131
300.0304254069243
300.0274729303287
300.0239015931123
300.0196982890964
300.0148696117582
300.009443480916
300.0034695256351
299.9970246561579
299.9902246396238
299.983242152038
299.9763949987755
299.9703649881142
299.966150106858
299.9642105343931
299.9637802405429
299.9637264068821
299.9637647154521
299.9639336591192
299.9643029751148
299.9649372788136
299.9659068441068
299.9672829363892
299.9691272088696
299.9714878077854
299.9744002657956
299.9778869733103
299.9819542763884
299.9865898200768
299.9917622361438
299.9974228459034
300.0035044300348
300.0099136827327
300.0165203246225
300.0231132967717
300.0292259652588
300.0340065974444
300.0367416604124
300.0376023821575
300.0376800056582
300.0376924529888
300.0376039408962
300.0373496258606
300.0368628764644
300.0360756507724
300.0349106101182
300.0332917098153
300.0311548068278
300.0284504249442
300.0251426847945
300.021210007124
300.0166481154067
300.0114727050967
300.0057204053306
299.9994526264948
299.9927675483636
299.985817094604
299.9788610126375
299.9724581469095
299.9676022185322
299.9650283326872
299.964280171257
299.964207696828
299.9642236597454
299.9643530318252
299.9646575842293
299.9651978601197
299.9660412719479
299.9672599860036
299.9689192075575
299.9710709522727
299.9737547458423
299.9769984026876
299.9808159487273
299.9852046276922
299.990143385548
299.9955939723306
300.0015010220135
300.0077840615066
300.0143259320331
300.0209511758852
300.0273019113855
300.0326061380837
300.0359869602406
300.0373203666536
300.0375052863866
300.0375135454404
300.0374498727607
300.0372500540902
300.0368460492928
300.036174877041
300.0351609222243
300.0337260699152
300.0318017381688
300.0293331048522
300.0262782691831
300.0226084591455
300.018310540351
300.013389992997
300.0078724166208
300.0018059703278
299.9952727206942
299.9884050856675
299.9814169454079
299.9747489455759
299.969299726966
299.9660251070479
299.9648386645035
299.9646806066307
299.9646875054478
299.9647831228103
299.9650335053445
299.965493583589
299.9662256819976
299.967301278799
299.9687886918954
299.9707438432641
299.9732100795682
299.9762200399315
299.9797944048707
299.9839386989538
299.9886410267675
299.9938723231717
299.99958687653
300.0057162608207
300.0121585960352
300.0187638997587
300.0252539376397
300.030993267357
300.035027873878
300.0369464627321
300.0373543424824
300.0373481060051
300.0373073559666
300.0371470230536
300.0368105710004
300.0362376891092
300.0353576016357
300.0340915819154
300.032366543625
300.0301220237761
300.0273104027507
300.0238965945238
300.0198598434219
300.0151966530571
300.0099228998915
300.0040756347566
299.9977215333434
299.9909731697002
299.9840122413509
299.9771849096609
299.9712389889397
299.9672407894078
299.965503451295
299.9651551778139
299.9651548804854
299.9652250045903
299.9654307543622
299.965822055546
299.9664565284534
299.9674029136957
299.968731520774
299.9705021961054
299.9727621732605
299.9755482615715
299.9788865865311
299.9827897727084
299.9872542990348
299.9922595889948
299.9977685277724
300.0037244730272
300.0100399120785
300.0165819323882
300.0231296055965
300.0291995173826
300.0338677279262
300.036425010372
300.0371725230215
300.0372214087009
300.0371799823863
300.0370474743328
300.0367663128671
300.0362770635002
300.0355141651356
300.0344001359418
300.0328592128611
300.030826469741
300.0282488419285
300.0250847351699
300.0213060021558
300.0169009205684
300.0118766360343
300.0062606930936
300.000106096662
299.9935074185134
299.9866219246787
299.979723315412
299.9733967529975
299.9686952768844
299.9663172644555
299.9656578066653
299.9656199091226
299.9656748659266
299.9658399436394
299.9661730413821
299.9667230253104
299.9675541196423
299.9687376571334
299.9703370146768
299.9724028820787
299.9749754909491
299.9780855420478
299.9817519630203
299.9859788809785
299.9907538121503
299.9960479764617
300.00181498167
300.0079800301349
300.0144261378422
300.0209727694273
300.0272568018977
300.0324781955816
300.0357091527483
300.0369524681307
300.0371148935981
300.0370654949753
300.0369596198046
300.0367199409871
300.0362972710168
300.035633483203
300.0346543594549
300.0332824594705
300.0314486231945
300.0290943863494
300.0261721432522
300.0226471729087
300.0185003619912
300.0137305615081
300.0083561888851
300.0024183020032
299.9959942961167
299.9892191869801
299.9823164349132
299.9757383153423
299.9704127321574
299.9673107363122
299.9662132174494
299.9660731864537
299.9661234845998
299.9662515309692
299.9665363706478
299.9670154394406
299.9677459803317
299.9687976882133
299.9702374628757
299.9721202426684
299.9744899221241
299.9773811001338
299.9808176024596
299.9848097435307
299.9893523847355
299.9944244434173
299.9999882392564
300.0059825948647
300.0123085011573
300.0188108411737
300.0252050340526
300.0308660456716
300.0347982856325
300.0366211959095
300.0369996492722
300.0369824939183
300.0368863967785
300.0366770802924
300.0363085835168
300.0357264027607
300.0348638226766
300.0336436083015
300.0319931916591
300.0298500306813
300.0271611955616
300.0238850545479
300.0199949955712
300.0154821308848
300.0103566974146
300.0046499216778
299.9984233534123
299.9917898783726
299.9849389490188
299.9782221703278
299.9723827841784
299.9685136037518
299.9668765428709
299.9665413507469
299.9665638712528
299.9666694172767
299.9669129114668
299.9673322356847
299.9679771705731
299.9689126963144
299.9702067379716
299.9719181424092
299.9740951720302
299.9767766502133
299.9799908155102
299.9837530706168
299.9880642468314
299.9929097307285
299.9982595836063
300.0040649070939
300.0102429076797
300.0166580375048
300.0230859787868
300.0290591081811
300.0336579100847
300.0361263066185
300.0368818368451
300.0369282213888
300.036838612037
300.0366592483412
300.0363289960679
300.0358087719786
300.035041617587
300.0339542660204
300.0324725459137
300.0305288679792
300.0280637270088
300.0250285487591
300.0213899360068
300.0171322910249
300.0122589754708
300.0067932411896
300.0007829217004
299.9943193772302
299.9875642472571
299.9807951977836
299.9745857550479
299.9699801786936
299.9676969079027
299.9670417217714
299.9669952778753
299.9670902767306
299.9672920314517
299.9676656002461
299.9682420500727
299.9690779919073
299.9702401277534
299.9717903960995
299.9737820608472
299.9762599873416
299.9792583701609
299.9827975612994
299.9868826646033
299.9915034789673
299.9966352057648
300.0022373608892
300.0082428999622
300.0145402390198
300.0209471885795
300.0271031697615
300.0322552426562
300.0354464903127
300.0366892901819
300.0368791000897
300.0368187482493
300.0366619137256
300.0363631386677
300.0358901647805
300.035196947473
300.0342197513535
300.0328862358273
300.0311267203134
300.0288766727853
300.026078847643
300.0226892646729
300.0186835025508
300.0140592353074
300.0088352220183
300.0030512943736
299.9967815144407
299.9901599272114
299.9834113170255
299.9769765158718
299.9717392547151
299.968688104775
299.9676092188625
299.9674356252713
299.9674891107222
299.9676574997291
299.9679914109864
299.9685157731574
299.9692757006775
299.9703290042923
299.9717349195507
299.9735495460097
299.9758252801642
299.9786065020642
299.9819230957998
299.9857867295069
299.9901906758856
299.9951114204871
300.0005110521029
300.006333107745
300.0124845209724
300.0188132736207
300.025046657109
300.0306049209439
300.0345354690854
300.0363480872509
300.0368108224949
300.0368229299143
300.036694288774
300.0364345761581
300.0359938481946
300.0353477867326
300.0344480747307
300.0332338338689
300.0316391554512
300.0295950866708
300.0270339294466
300.023898259795
300.0201502170516
300.0157767836253
300.0107912478164
300.0052316337602
299.9991629768223
299.9926980168329
299.9860257906627
299.9794851114858
299.9737762521333
299.9699381199601
299.9683090557681
299.9679223775494
299.9678845184064
299.9680112854634
299.9682924152928
299.9687723378679
299.9694790574097
299.9704563616299
299.9717523133344
299.9734157532899
299.9754996722921
299.9780590187241
299.9811403177595
299.98477097072
299.9889545302572
299.9936710113067
299.9988803390484
300.0045259071443
300.0105245082245
300.0167456460997
300.0229781786651
300.0287835101154
300.0333208799871
300.0358359945806
300.036659955791
300.0367845082881
300.0367401849375
300.0365416377481
300.0361520595494
300.0355448449071
300.0346878405097
300.0335425984989
300.03206392816
300.0301953710693
300.0278664942037
300.0250011416464
300.0215348834636
300.0174316648299
300.0126915086364
300.0073499847525
300.0014731264747
299.9951650772137
299.9885920369725
299.98202297876
299.9760006367991
299.9714971195125
299.9691793684628
299.9684823804452
299.9683717112374
299.9684007832269
299.9685926166189
299.968991498613
299.9696359332148
299.9705624024702
299.9718008800774
299.9733752033618
299.9753138554755
299.9776627063788
299.9804843241521
299.9838408019044
299.9877704094412
299.9922719303609
299.9973028142239
300.0027920934953
300.0086507045162
300.0147587160915
300.0209455818938
300.0268905369126
300.031895383095
300.0351119587767
300.0364137914885
300.0366723419511
300.0367031787782
300.0366012035419
300.0363308365209
300.0358297355051
300.0350446482214
300.0339293102953
300.0324564938011
300.0306169703461
300.0284042517448
300.0257949343767
300.0227256309437
300.0190728631053
300.0146743681892
300.0094205057499
300.0034094464753
299.9970207718421
299.9912122558602
299.9854657026758
)
;

boundaryField
{
    inlet
    {
        type            fixedValue;
        value           uniform 300;
    }
    outlet
    {
        type            temperatureOutletNSCBC;
        pInf            101325;
        gamma           1.4;
        etaAc           1;
        fieldInf        1;
        lInf            2.25;
        value           uniform 299.9829090576248;
    }
    frontAndBack
    {
        type            empty;
    }
}


// ************************************************************************* //
