/*--------------------------------*- C++ -*----------------------------------*\
| =========                 |                                                 |
| \\      /  F ield         | OpenFOAM: The Open Source CFD Toolbox           |
|  \\    /   O peration     | Version:  v2012                                 |
|   \\  /    A nd           | Website:  www.openfoam.com                      |
|    \\/     M anipulation  |                                                 |
\*---------------------------------------------------------------------------*/
FoamFile
{
    version     2.0;
    format      ascii;
    class       volVectorField;
    location    "0.0145";
    object      U;
}
// * * * * * * * * * * * * * * * * * * * * * * * * * * * * * * * * * * * * * //

dimensions      [0 1 -1 0 0 0 0];


internalField   nonuniform List<vector> 
1000
(
(0.00161983393937198 0 0)
(0.03309126416917073 0 0)
(0.04094207427396691 0 0)
(0.05602491088822487 0 0)
(0.0699424480289015 0 0)
(0.08296266341166321 0 0)
(0.09410898496536904 0 0)
(0.1036820324235768 0 0)
(0.1117564844091903 0 0)
(0.117038639852477 0 0)
(0.118541913513004 0 0)
(0.118453678738602 0 0)
(0.1176230147981863 0 0)
(0.1151508333252236 0 0)
(0.110344027039545 0 0)
(0.1030121253350578 0 0)
(0.09343923170418419 0 0)
(0.08207367590747051 0 0)
(0.06928812607377767 0 0)
(0.0553336883778144 0 0)
(0.04041307177937417 0 0)
(0.0247537193705715 0 0)
(0.008631243693322735 0 0)
(-0.007645690879857034 0 0)
(-0.02375805242184269 0 0)
(-0.03939112353730081 0 0)
(-0.05426301069066474 0 0)
(-0.0681830624936392 0 0)
(-0.08109814472007178 0 0)
(-0.09303331050466827 0 0)
(-0.1036720025703864 0 0)
(-0.1116202764292196 0 0)
(-0.1153857144255399 0 0)
(-0.1160881425436886 0 0)
(-0.115803673934309 0 0)
(-0.1150718889951934 0 0)
(-0.1132091278983504 0 0)
(-0.1096463486080042 0 0)
(-0.1038937404919428 0 0)
(-0.09571600673477051 0 0)
(-0.08521078895290379 0 0)
(-0.07274685391672651 0 0)
(-0.05881294753774235 0 0)
(-0.04386919277032202 0 0)
(-0.02827397708639892 0 0)
(-0.01229622373409737 0 0)
(0.003830125144189019 0 0)
(0.01986191053794391 0 0)
(0.035544779132516 0 0)
(0.05066255924372878 0 0)
(0.06509410028217232 0 0)
(0.07878524340940754 0 0)
(0.09158484815634753 0 0)
(0.1027996051214195 0 0)
(0.1106448609712452 0 0)
(0.1138867650113374 0 0)
(0.1143959241568475 0 0)
(0.1140636616647124 0 0)
(0.11338772786241 0 0)
(0.1117964827792875 0 0)
(0.1088288074885362 0 0)
(0.1040087767412159 0 0)
(0.09698521892853203 0 0)
(0.08762253247120018 0 0)
(0.07603327962433497 0 0)
(0.06254944253444322 0 0)
(0.04763880133743489 0 0)
(0.03179973368492016 0 0)
(0.01547855821088361 0 0)
(-0.0009672372247784759 0 0)
(-0.01726704762716448 0 0)
(-0.03322052670574014 0 0)
(-0.0486948900409938 0 0)
(-0.06362446570996864 0 0)
(-0.07793019616990959 0 0)
(-0.09129462941231996 0 0)
(-0.1027072022881734 0 0)
(-0.1101938731109744 0 0)
(-0.1129750977770103 0 0)
(-0.1133538966239587 0 0)
(-0.1130240960940731 0 0)
(-0.1123735928147153 0 0)
(-0.1109139798279271 0 0)
(-0.1082498533778988 0 0)
(-0.1039469309501821 0 0)
(-0.09764112423462211 0 0)
(-0.08911785333885397 0 0)
(-0.07835996783483375 0 0)
(-0.06556025780546222 0 0)
(-0.05109065564489623 0 0)
(-0.03543334123161841 0 0)
(-0.01909438271909608 0 0)
(-0.00252502206672802 0 0)
(0.01392971332391836 0 0)
(0.03004647550893709 0 0)
(0.04571673000207403 0 0)
(0.06091425195650087 0 0)
(0.07556819403650795 0 0)
(0.08931924440300315 0 0)
(0.1011298178025731 0 0)
(0.1090142344096111 0 0)
(0.11202559264958 0 0)
(0.1124610827507545 0 0)
(0.1121044104788238 0 0)
(0.1114868857933518 0 0)
(0.1101710215736384 0 0)
(0.1078060858045709 0 0)
(0.1039930032323084 0 0)
(0.09836782043978168 0 0)
(0.09066303080367694 0 0)
(0.08075666897842071 0 0)
(0.06870792962647296 0 0)
(0.05476479555712258 0 0)
(0.03933340571035087 0 0)
(0.02291327770520259 0 0)
(0.006012599269945818 0 0)
(-0.01093421864906803 0 0)
(-0.0276192067436251 0 0)
(-0.04387435618623584 0 0)
(-0.05963843660656196 0 0)
(-0.0748130625993095 0 0)
(-0.08896464795383578 0 0)
(-0.1008919934315859 0 0)
(-0.1085520332591943 0 0)
(-0.111319230083052 0 0)
(-0.1116962050705404 0 0)
(-0.1113498593771586 0 0)
(-0.1107595518295852 0 0)
(-0.109514658582445 0 0)
(-0.1073047550346876 0 0)
(-0.103764353684005 0 0)
(-0.09854838122537898 0 0)
(-0.09138694014700335 0 0)
(-0.08212847783764203 0 0)
(-0.07077361785881855 0 0)
(-0.05749118034964167 0 0)
(-0.04260684841430057 0 0)
(-0.02656097235279902 0 0)
(-0.009839539888901638 0 0)
(0.007106437716991127 0 0)
(0.02392467545663121 0 0)
(0.0403920092468963 0 0)
(0.05640244087371127 0 0)
(0.0718372916731755 0 0)
(0.08627752645273415 0 0)
(0.09864518915286466 0 0)
(0.1070129406650592 0 0)
(0.1103271179807157 0 0)
(0.1108183145768531 0 0)
(0.1105206551011189 0 0)
(0.1099426155058856 0 0)
(0.108810848643658 0 0)
(0.1068230932970336 0 0)
(0.1036393809945377 0 0)
(0.0989305240752129 0 0)
(0.09240971186435942 0 0)
(0.08387351351031187 0 0)
(0.07324236809004471 0 0)
(0.06058889067372304 0 0)
(0.04614400213630781 0 0)
(0.03027610027411694 0 0)
(0.01344103382985928 0 0)
(-0.003891026431693231 0 0)
(-0.02130705404308011 0 0)
(-0.03849770649278227 0 0)
(-0.0552627696394871 0 0)
(-0.07139560337018649 0 0)
(-0.08636709192515699 0 0)
(-0.09890598147884942 0 0)
(-0.1069995528087182 0 0)
(-0.1099979293307611 0 0)
(-0.1104178465560024 0 0)
(-0.1101054345361282 0 0)
(-0.1095511240131202 0 0)
(-0.1084611958901972 0 0)
(-0.1065664284059703 0 0)
(-0.1035517886577802 0 0)
(-0.09910524381370032 0 0)
(-0.0929529959517949 0 0)
(-0.08489509659604087 0 0)
(-0.07483697500411267 0 0)
(-0.06281334559673174 0 0)
(-0.04899843797387699 0 0)
(-0.03369628283619093 0 0)
(-0.01730564322372855 0 0)
(-0.0002611587664610747 0 0)
(0.01703005198149702 0 0)
(0.03423500696342298 0 0)
(0.05111601215558145 0 0)
(0.06744771407615117 0 0)
(0.08273157694044898 0 0)
(0.09584131794659417 0 0)
(0.1049055904050005 0 0)
(0.1087327065276131 0 0)
(0.1093514033105107 0 0)
(0.1091292457701426 0 0)
(0.1085772915504711 0 0)
(0.1075813877222227 0 0)
(0.1058648215806261 0 0)
(0.1031345564798037 0 0)
(0.09909869153733747 0 0)
(0.09347878053786617 0 0)
(0.08604188432537259 0 0)
(0.07663846760255504 0 0)
(0.06523243574352806 0 0)
(0.051918291044595 0 0)
(0.03692307567091553 0 0)
(0.0205868978299701 0 0)
(0.003318080357933497 0 0)
(-0.01446343917157701 0 0)
(-0.03237258357087559 0 0)
(-0.05008531426344068 0 0)
(-0.06726688787799184 0 0)
(-0.08326489217947421 0 0)
(-0.09669178776493351 0 0)
(-0.1055009284166948 0 0)
(-0.1089219069178052 0 0)
(-0.1094269632882891 0 0)
(-0.1091717065492815 0 0)
(-0.1086399631821228 0 0)
(-0.1076607938210584 0 0)
(-0.105993003110599 0 0)
(-0.1033660627708965 0 0)
(-0.09950246160335191 0 0)
(-0.09413815962171723 0 0)
(-0.08705401773422999 0 0)
(-0.0781048975972413 0 0)
(-0.06724268838142339 0 0)
(-0.05453240141628978 0 0)
(-0.04015750558872379 0 0)
(-0.0244073510631264 0 0)
(-0.007642214897230924 0 0)
(0.009753613450150946 0 0)
(0.02741097447278575 0 0)
(0.04500579583458419 0 0)
(0.06222178799988025 0 0)
(0.07848239925684039 0 0)
(0.0925710166834619 0 0)
(0.1025972073610878 0 0)
(0.1071703198512174 0 0)
(0.1080051224274634 0 0)
(0.1078692104682316 0 0)
(0.1073432744373341 0 0)
(0.1064578687502233 0 0)
(0.1049468194355725 0 0)
(0.1025611153524809 0 0)
(0.0990431544587172 0 0)
(0.09413223459651299 0 0)
(0.0875885179656986 0 0)
(0.07922693410752576 0 0)
(0.06894516492614319 0 0)
(0.05674276572075908 0 0)
(0.04273232872410554 0 0)
(0.02713783289716395 0 0)
(0.01027283300693489 0 0)
(-0.007495905756140426 0 0)
(-0.02578117775945474 0 0)
(-0.04419864957297386 0 0)
(-0.06232630644137452 0 0)
(-0.07942437074549624 0 0)
(-0.09398756493780364 0 0)
(-0.1038488742989876 0 0)
(-0.1079651590443188 0 0)
(-0.1086383221052847 0 0)
(-0.1084611779885279 0 0)
(-0.1079590308339791 0 0)
(-0.1070739792667254 0 0)
(-0.1055804571539768 0 0)
(-0.1032475064885802 0 0)
(-0.09983161850312233 0 0)
(-0.09508738332770747 0 0)
(-0.08879432682716686 0 0)
(-0.08078278928878622 0 0)
(-0.07095372639383073 0 0)
(-0.05929529317260496 0 0)
(-0.04589531485624423 0 0)
(-0.03094257700305025 0 0)
(-0.0147096537068909 0 0)
(0.002478523966997755 0 0)
(0.02027207926204442 0 0)
(0.03831696058830157 0 0)
(0.05624381156778931 0 0)
(0.07344311076578296 0 0)
(0.08864190586983547 0 0)
(0.09988016662792804 0 0)
(0.1055073976201666 0 0)
(0.1067287761497673 0 0)
(0.1067010776659612 0 0)
(0.106212860837786 0 0)
(0.1054364462592247 0 0)
(0.1040899220475508 0 0)
(0.1019711831588533 0 0)
(0.09885731513489961 0 0)
(0.09451239228599694 0 0)
(0.08870217632761376 0 0)
(0.08122453240036229 0 0)
(0.07193625282197404 0 0)
(0.06077169656973111 0 0)
(0.04775694180816715 0 0)
(0.03301756825887647 0 0)
(0.01677183994391977 0 0)
(-0.0006901348394682432 0 0)
(-0.01902349246976551 0 0)
(-0.03783931952098926 0 0)
(-0.05668359217393897 0 0)
(-0.07479703921325785 0 0)
(-0.0906180019532373 0 0)
(-0.1018104894569817 0 0)
(-0.1069458756891918 0 0)
(-0.1079458360570774 0 0)
(-0.1078632281134699 0 0)
(-0.1074071852534216 0 0)
(-0.1066243915950256 0 0)
(-0.1052884565139939 0 0)
(-0.1032011026726813 0 0)
(-0.1001486676307179 0 0)
(-0.0959072860722682 0 0)
(-0.09026442271499745 0 0)
(-0.08304212731490605 0 0)
(-0.07411354709725852 0 0)
(-0.06341700392736538 0 0)
(-0.05096986263425799 0 0)
(-0.03687729290031813 0 0)
(-0.02132798257293842 0 0)
(-0.004575994233674332 0 0)
(0.01307625099363811 0 0)
(0.03128607257824954 0 0)
(0.04966934282220044 0 0)
(0.06763961138607914 0 0)
(0.08395371516233668 0 0)
(0.09657188565839755 0 0)
(0.1035579095716672 0 0)
(0.1054394413991319 0 0)
(0.1055284016111139 0 0)
(0.1051341626276962 0 0)
(0.1044537698613785 0 0)
(0.1032623991608398 0 0)
(0.101371327595553 0 0)
(0.09858882788727592 0 0)
(0.09470512784802533 0 0)
(0.08949916968784349 0 0)
(0.08276630535225697 0 0)
(0.07434239987434335 0 0)
(0.06411985973135445 0 0)
(0.0520616645605057 0 0)
(0.03821391184650556 0 0)
(0.02270942042067451 0 0)
(0.005759011904709414 0 0)
(-0.01235516246084633 0 0)
(-0.03127536725028206 0 0)
(-0.05055031653934117 0 0)
(-0.06945514876820122 0 0)
(-0.08648341723855163 0 0)
(-0.09920403389771626 0 0)
(-0.1057232131987571 0 0)
(-0.1072938136396066 0 0)
(-0.1073399513128539 0 0)
(-0.1069467603439737 0 0)
(-0.1062740824908371 0 0)
(-0.1050823651802108 0 0)
(-0.1032079015855662 0 0)
(-0.1004628776554092 0 0)
(-0.09664347882750086 0 0)
(-0.0915475571401089 0 0)
(-0.08499687891493596 0 0)
(-0.07685104026187389 0 0)
(-0.06701778318108072 0 0)
(-0.05546551038412583 0 0)
(-0.04223535881648482 0 0)
(-0.02744496836783472 0 0)
(-0.01127975263193739 0 0)
(0.00601680804691038 0 0)
(0.02414020976253025 0 0)
(0.0427195522993979 0 0)
(0.06122085848660772 0 0)
(0.07852089736163465 0 0)
(0.09256305728646483 0 0)
(0.101148280000413 0 0)
(0.104049440352387 0 0)
(0.1043275309073894 0 0)
(0.1040514720916849 0 0)
(0.1034721865560457 0 0)
(0.1024396409414189 0 0)
(0.1007623097744722 0 0)
(0.0982699670846907 0 0)
(0.09477691302939395 0 0)
(0.09007891013146523 0 0)
(0.08397737956319613 0 0)
(0.07630058829510644 0 0)
(0.06691667776206407 0 0)
(0.05574609614723693 0 0)
(0.04277550133576913 0 0)
(0.02806753302844821 0 0)
(0.01176093430691274 0 0)
(-0.005928662499063706 0 0)
(-0.02469405977100256 0 0)
(-0.04411604270547382 0 0)
(-0.06354514137722056 0 0)
(-0.081635355238139 0 0)
(-0.09594335439976497 0 0)
(-0.1041136517769642 0 0)
(-0.1066081068343531 0 0)
(-0.106821843037796 0 0)
(-0.1065268897178841 0 0)
(-0.1059649590051557 0 0)
(-0.1049264312013965 0 0)
(-0.1032554397970275 0 0)
(-0.1007853458726144 0 0)
(-0.09733072227883866 0 0)
(-0.09270235648473162 0 0)
(-0.08672804990257937 0 0)
(-0.07926350783933257 0 0)
(-0.07019917319055986 0 0)
(-0.05947079950142244 0 0)
(-0.04707221726408705 0 0)
(-0.03306353375293301 0 0)
(-0.01756967225072979 0 0)
(-0.0007766672362675053 0 0)
(0.01705978864478366 0 0)
(0.03560075563344782 0 0)
(0.05437178517403219 0 0)
(0.07242814939986894 0 0)
(0.08782157908619644 0 0)
(0.09814328937943619 0 0)
(0.1024467594152278 0 0)
(0.1030833344658859 0 0)
(0.1029316647083655 0 0)
(0.1024655224403224 0 0)
(0.1015957051709256 0 0)
(0.1001241729396416 0 0)
(0.09789594840673331 0 0)
(0.09474621390920783 0 0)
(0.09048845882888135 0 0)
(0.0849339862896623 0 0)
(0.07791063609206787 0 0)
(0.06927362015925777 0 0)
(0.05891621212094088 0 0)
(0.0467831733887236 0 0)
(0.03288315362602749 0 0)
(0.01729460475661363 0 0)
(0.0001702345491800106 0 0)
(-0.01824371922460742 0 0)
(-0.03757709882907023 0 0)
(-0.05725891553352086 0 0)
(-0.07615418244610971 0 0)
(-0.09197128006902233 0 0)
(-0.101987449056662 0 0)
(-0.1057828104688637 0 0)
(-0.1063079976879592 0 0)
(-0.1061203716838029 0 0)
(-0.1056736533763654 0 0)
(-0.1047964966881165 0 0)
(-0.1033281197273044 0 0)
(-0.1011167085760658 0 0)
(-0.09799327995223114 0 0)
(-0.0937799049912114 0 0)
(-0.08831101919412154 0 0)
(-0.08144338183172521 0 0)
(-0.07306004832231561 0 0)
(-0.06307791815179731 0 0)
(-0.05145903394825787 0 0)
(-0.03822067063903672 0 0)
(-0.02343891195083662 0 0)
(-0.007247622243809158 0 0)
(0.01015151908224073 0 0)
(0.02846499333671967 0 0)
(0.0472731085721954 0 0)
(0.06581605179465849 0 0)
(0.08239476513416809 0 0)
(0.09446092190287199 0 0)
(0.1004541989380302 0 0)
(0.1017648544865217 0 0)
(0.1017411090340853 0 0)
(0.1014012793447673 0 0)
(0.1006990015910368 0 0)
(0.09943460859105349 0 0)
(0.09746133384941627 0 0)
(0.09463012756569798 0 0)
(0.09076753557940277 0 0)
(0.08569471817276003 0 0)
(0.07924560740418224 0 0)
(0.0712731668793795 0 0)
(0.06165567604068259 0 0)
(0.0503091050333533 0 0)
(0.03720142787960384 0 0)
(0.02236256389746302 0 0)
(0.005890715146866688 0 0)
(-0.0120274876471724 0 0)
(-0.03107860193733089 0 0)
(-0.05077008707568932 0 0)
(-0.07018251535715568 0 0)
(-0.08732046723211276 0 0)
(-0.09926218454135485 0 0)
(-0.1046833882729145 0 0)
(-0.1057691271734167 0 0)
(-0.1057040763506168 0 0)
(-0.1053792909482631 0 0)
(-0.1046710009119166 0 0)
(-0.1034083562137424 0 0)
(-0.1014489321731484 0 0)
(-0.0986369528396996 0 0)
(-0.09480297954071445 0 0)
(-0.08978735011185174 0 0)
(-0.08345110614268875 0 0)
(-0.07567640123848313 0 0)
(-0.06637014587259356 0 0)
(-0.05547364256554161 0 0)
(-0.04297336009575538 0 0)
(-0.02890735223542789 0 0)
(-0.01336605350024028 0 0)
(0.003497624744394863 0 0)
(0.02143918052264272 0 0)
(0.04009337688686607 0 0)
(0.05885294694866595 0 0)
(0.07634757750460537 0 0)
(0.09007302378688567 0 0)
(0.09791565938897286 0 0)
(0.1003195262892182 0 0)
(0.1004769446664786 0 0)
(0.1002575646342136 0 0)
(0.09973250938274091 0 0)
(0.09867524355631518 0 0)
(0.09695155217856403 0 0)
(0.0944218023436755 0 0)
(0.09092316342053244 0 0)
(0.08628641831919044 0 0)
(0.08035324809208044 0 0)
(0.07297902034706948 0 0)
(0.06403508939307066 0 0)
(0.05341962880445268 0 0)
(0.0410721924906459 0 0)
(0.02698550688799393 0 0)
(0.01121320280591654 0 0)
(-0.006112404612072888 0 0)
(-0.02474013394614454 0 0)
(-0.04425306630203518 0 0)
(-0.06390848630983902 0 0)
(-0.08207175343592515 0 0)
(-0.09585938949990909 0 0)
(-0.1031322713780467 0 0)
(-0.1051387664814298 0 0)
(-0.1052358332484603 0 0)
(-0.1050275253103043 0 0)
(-0.1044874176141751 0 0)
(-0.1034338083508751 0 0)
(-0.1017287056328913 0 0)
(-0.09922241382827322 0 0)
(-0.09575038670038434 0 0)
(-0.09115658201434725 0 0)
(-0.08530643913098822 0 0)
(-0.07808461035220346 0 0)
(-0.06939444046260645 0 0)
(-0.0591654525318678 0 0)
(-0.04736366597815679 0 0)
(-0.03399911927760568 0 0)
(-0.01912860973750445 0 0)
(-0.002863725597811237 0 0)
(0.01460237785959984 0 0)
(0.03296247555701676 0 0)
(0.05171973062944504 0 0)
(0.06981914627883511 0 0)
(0.08501198311662098 0 0)
(0.09474545121838451 0 0)
(0.09859978642835884 0 0)
(0.09912673149122571 0 0)
(0.09901920830035744 0 0)
(0.09866450735119642 0 0)
(0.09781958130946637 0 0)
(0.09634782191893744 0 0)
(0.09411524940242984 0 0)
(0.09096782966177241 0 0)
(0.0867407891088904 0 0)
(0.0812809260371231 0 0)
(0.07444964380544714 0 0)
(0.06611953919317241 0 0)
(0.05618017607009552 0 0)
(0.04455195134423186 0 0)
(0.0311998435793774 0 0)
(0.01614277442509289 0 0)
(-0.0005326860259491465 0 0)
(-0.0186350132833075 0 0)
(-0.03781633861051611 0 0)
(-0.05747152280814671 0 0)
(-0.07632815366839282 0 0)
(-0.09179649702587615 0 0)
(-0.1010698028422713 0 0)
(-0.1043549944452643 0 0)
(-0.1047529097608391 0 0)
(-0.1046449984958857 0 0)
(-0.1042673240279962 0 0)
(-0.1034211684955755 0 0)
(-0.1019632836223528 0 0)
(-0.09975255849877442 0 0)
(-0.09662822033322101 0 0)
(-0.09243455707906698 0 0)
(-0.08703862449597194 0 0)
(-0.08032775121338347 0 0)
(-0.0722050969923631 0 0)
(-0.06259426747920949 0 0)
(-0.05144844327150071 0 0)
(-0.03875818974160253 0 0)
(-0.02455548247626092 0 0)
(-0.008917896785031314 0 0)
(0.008008666491702565 0 0)
(0.02596788100417454 0 0)
(0.04454282742328639 0 0)
(0.06294294746002932 0 0)
(0.07934096267909468 0 0)
(0.09093456204452223 0 0)
(0.09646775637363247 0 0)
(0.09766883679474937 0 0)
(0.09771996438856881 0 0)
(0.09749484625939672 0 0)
(0.09686830157494 0 0)
(0.09565024938231563 0 0)
(0.09371330030067122 0 0)
(0.09090858804275062 0 0)
(0.08707298959515156 0 0)
(0.08205650767658562 0 0)
(0.07572758421533564 0 0)
(0.06796361657038956 0 0)
(0.05865113465633892 0 0)
(0.04769876827161176 0 0)
(0.0350520812400316 0 0)
(0.02070406890378393 0 0)
(0.004704988967610221 0 0)
(-0.0128075015621214 0 0)
(-0.03155109684325746 0 0)
(-0.05102838353558353 0 0)
(-0.07026477843520496 0 0)
(-0.08709906075308471 0 0)
(-0.0984056007450088 0 0)
(-0.1032806658851782 0 0)
(-0.1042467662783302 0 0)
(-0.1042236563194516 0 0)
(-0.1039893503546674 0 0)
(-0.1033441038407405 0 0)
(-0.1021308146629055 0 0)
(-0.10021318248907 0 0)
(-0.09743193017899587 0 0)
(-0.09362839530247388 0 0)
(-0.088667787886964 0 0)
(-0.08243924202045148 0 0)
(-0.0748475354899015 0 0)
(-0.06581376557997766 0 0)
(-0.05528335140598489 0 0)
(-0.04323409888167146 0 0)
(-0.02968044132857029 0 0)
(-0.01467536145149919 0 0)
(0.001672187823000273 0 0)
(0.01915507350111157 0 0)
(0.03743067863044616 0 0)
(0.05589456925205375 0 0)
(0.07313895798338706 0 0)
(0.08646168892948872 0 0)
(0.09383112540722287 0 0)
(0.09608933162433668 0 0)
(0.09630573454064971 0 0)
(0.09622236760191193 0 0)
(0.09579650226769224 0 0)
(0.0948275407093411 0 0)
(0.09318141293098553 0 0)
(0.09071144624189004 0 0)
(0.08725763753043397 0 0)
(0.08266861428549528 0 0)
(0.07681473545644157 0 0)
(0.06957916047242454 0 0)
(0.06085133703122501 0 0)
(0.0505348260421485 0 0)
(0.03856208560863987 0 0)
(0.02490685940090382 0 0)
(0.009592286020979895 0 0)
(-0.007287364863203241 0 0)
(-0.02551180474676708 0 0)
(-0.04467472809215355 0 0)
(-0.06401881140104312 0 0)
(-0.0818461699935665 0 0)
(-0.09511407363545907 0 0)
(-0.1018285627448018 0 0)
(-0.1036740273138742 0 0)
(-0.1037564397906412 0 0)
(-0.1036600066467983 0 0)
(-0.1032010126932865 0 0)
(-0.1022233031825857 0 0)
(-0.10059006042772 0 0)
(-0.09814400114925244 0 0)
(-0.09472182319065195 0 0)
(-0.09018423587996348 0 0)
(-0.08441994070291993 0 0)
(-0.07733456967919101 0 0)
(-0.06884764908632938 0 0)
(-0.05889954487397772 0 0)
(-0.04745932844771433 0 0)
(-0.034529195089661 0 0)
(-0.02014635688622117 0 0)
(-0.004392354293613311 0 0)
(0.012573341680827 0 0)
(0.03046685048757715 0 0)
(0.04879664496016297 0 0)
(0.06652274803362779 0 0)
(0.08136127273973076 0 0)
(0.0906346491730726 0 0)
(0.0942669631341075 0 0)
(0.0947967937859608 0 0)
(0.09486146370715476 0 0)
(0.09460548138425905 0 0)
(0.0938806117108144 0 0)
(0.09251834604091198 0 0)
(0.09037926935698416 0 0)
(0.08730183555068721 0 0)
(0.08312960586736141 0 0)
(0.07773298642030155 0 0)
(0.07100089528290748 0 0)
(0.06282740120524619 0 0)
(0.05311415030839504 0 0)
(0.04178477684912794 0 0)
(0.02879889953697097 0 0)
(0.01416112079310517 0 0)
(-0.002066195232181621 0 0)
(-0.01972092377320526 0 0)
(-0.03847095718459427 0 0)
(-0.05770612110539106 0 0)
(-0.07614746174121184 0 0)
(-0.09115405714376494 0 0)
(-0.09989009477052309 0 0)
(-0.1029285215797632 0 0)
(-0.1032973644198152 0 0)
(-0.1033016893601885 0 0)
(-0.1029991026953812 0 0)
(-0.102243263775793 0 0)
(-0.1008765921062825 0 0)
(-0.09875059222821322 0 0)
(-0.09569870646551903 0 0)
(-0.09157377446229197 0 0)
(-0.08626074696276807 0 0)
(-0.07966514235614447 0 0)
(-0.07170510132869726 0 0)
(-0.06231613539277536 0 0)
(-0.05145958356056749 0 0)
(-0.03912853991260887 0 0)
(-0.02534991148657618 0 0)
(-0.01018673067930575 0 0)
(0.006237403768879391 0 0)
(0.02368559245957986 0 0)
(0.04175661030905354 0 0)
(0.0596844983269158 0 0)
(0.07568323049077828 0 0)
(0.08683559419516604 0 0)
(0.09204935589137278 0 0)
(0.09325489568012235 0 0)
(0.09341910713602644 0 0)
(0.09330383277536301 0 0)
(0.09280981132921576 0 0)
(0.09172930134336689 0 0)
(0.08991561513160798 0 0)
(0.08720753783595941 0 0)
(0.08344540434318716 0 0)
(0.07849511910687341 0 0)
(0.07224700695638948 0 0)
(0.06460071343566226 0 0)
(0.05546093468129676 0 0)
(0.04474666500517088 0 0)
(0.03240570449004218 0 0)
(0.01842709489972461 0 0)
(0.002849730457988077 0 0)
(-0.01420731841506941 0 0)
(-0.0324738461987883 0 0)
(-0.05145575742645191 0 0)
(-0.07019548346160262 0 0)
(-0.08656619541512924 0 0)
(-0.09738586875032086 0 0)
(-0.1019204270014482 0 0)
(-0.102860050808107 0 0)
(-0.1029114310361741 0 0)
(-0.1027527187968355 0 0)
(-0.1022035672727281 0 0)
(-0.1010944188855889 0 0)
(-0.09927695390430008 0 0)
(-0.09658052677602079 0 0)
(-0.0928514461317603 0 0)
(-0.08797227871193489 0 0)
(-0.08185011369356253 0 0)
(-0.07440261380848653 0 0)
(-0.06555986071736576 0 0)
(-0.0552743141509207 0 0)
(-0.04352857352920229 0 0)
(-0.03033891973296892 0 0)
(-0.01575689091102081 0 0)
(0.0001168190206737832 0 0)
(0.01709054479850408 0 0)
(0.03482985567815327 0 0)
(0.05273252231760533 0 0)
(0.06946278020110226 0 0)
(0.08239761556100593 0 0)
(0.08940245930033275 0 0)
(0.09163783150208459 0 0)
(0.09186010037319244 0 0)
(0.09192606824690067 0 0)
(0.09162616456233438 0 0)
(0.0908081935531548 0 0)
(0.08930898281068431 0 0)
(0.08696381057619218 0 0)
(0.08360256072792228 0 0)
(0.079083929104013 0 0)
(0.07330048238803666 0 0)
(0.06615975610571481 0 0)
(0.05757136613022901 0 0)
(0.04745157905787913 0 0)
(0.03573805195992574 0 0)
(0.02240459943842307 0 0)
(0.007471951255986061 0 0)
(-0.008972730308670835 0 0)
(-0.02672008873094934 0 0)
(-0.04536329424800463 0 0)
(-0.06414648062456799 0 0)
(-0.0814326685327878 0 0)
(-0.09426113767001355 0 0)
(-0.1006045394669589 0 0)
(-0.1023800306807306 0 0)
(-0.1024685142571017 0 0)
(-0.1024708669489365 0 0)
(-0.1021037566133084 0 0)
(-0.1012409728318006 0 0)
(-0.09972291292045077 0 0)
(-0.09737537303977825 0 0)
(-0.09403096526473087 0 0)
(-0.08956489548940146 0 0)
(-0.08388824514767068 0 0)
(-0.07692645032087204 0 0)
(-0.068611643991922 0 0)
(-0.05888921343130728 0 0)
(-0.04772783260292653 0 0)
(-0.03512793682276136 0 0)
(-0.02112657751358676 0 0)
(-0.005803907337104446 0 0)
(0.01068425759868644 0 0)
(0.02804947598629024 0 0)
(0.04579789122328101 0 0)
(0.06294385410552832 0 0)
(0.07736591363946117 0 0)
(0.08628012292550043 0 0)
(0.0897225921537541 0 0)
(0.0903126881331829 0 0)
(0.09044634742058795 0 0)
(0.0902973567964571 0 0)
(0.08974059888206977 0 0)
(0.08856199201471746 0 0)
(0.08658672693329167 0 0)
(0.08363087417633126 0 0)
(0.07954001772274387 0 0)
(0.07420270925462984 0 0)
(0.06753399931792428 0 0)
(0.05945788397069293 0 0)
(0.04990220203639134 0 0)
(0.03880261870825615 0 0)
(0.02611546757345399 0 0)
(0.01183685592829295 0 0)
(-0.003978921387937811 0 0)
(-0.02117498788891617 0 0)
(-0.03941078676354233 0 0)
(-0.05807157561761244 0 0)
(-0.07593120421275268 0 0)
(-0.09048375933127113 0 0)
(-0.09885884269732126 0 0)
(-0.1016903145767058 0 0)
(-0.102105629663123 0 0)
(-0.1021159942235563 0 0)
(-0.1018967232921437 0 0)
(-0.1012656201863514 0 0)
(-0.100050155930279 0 0)
(-0.09806323373221225 0 0)
(-0.09511436333866199 0 0)
(-0.09105877457266409 0 0)
(-0.08580401686477475 0 0)
(-0.07928761990195318 0 0)
(-0.07145744857583472 0 0)
(-0.06226699958335472 0 0)
(-0.05168017831953094 0 0)
(-0.03968036422048614 0 0)
(-0.02628130905059464 0 0)
(-0.01153645079193001 0 0)
(0.004436031592234406 0 0)
(0.02139648584742221 0 0)
(0.03892837925877356 0 0)
(0.05626308180640931 0 0)
(0.07172753504374556 0 0)
(0.08260607701301582 0 0)
(0.08757707925204421 0 0)
(0.08883188505571135 0 0)
(0.08884629641042893 0 0)
(0.08886168748790695 0 0)
(0.08850141133111421 0 0)
(0.08762363544761266 0 0)
(0.08603449447969913 0 0)
(0.08351791058329476 0 0)
(0.07988182336093688 0 0)
(0.07499357004291508 0 0)
(0.06877206640816547 0 0)
(0.06116207545236173 0 0)
(0.05211507400816169 0 0)
(0.04158320743872011 0 0)
(0.02952344626725775 0 0)
(0.01591210294194204 0 0)
(0.0007657506497401016 0 0)
(-0.01582120955146862 0 0)
(-0.03359169137421104 0 0)
(-0.05203888277583261 0 0)
(-0.07020133358701683 0 0)
(-0.08604344896212472 0 0)
(-0.0965760589857179 0 0)
(-0.1009128203433522 0 0)
(-0.1018354172326115 0 0)
(-0.1017552421806652 0 0)
(-0.1016341111190441 0 0)
(-0.1011656779111581 0 0)
(-0.1002221747274199 0 0)
(-0.0986061175919081 0 0)
(-0.09609653143097077 0 0)
(-0.09250039610522018 0 0)
(-0.08768876626476371 0 0)
(-0.08159287241829102 0 0)
(-0.07418306778626478 0 0)
(-0.06544651189761588 0 0)
(-0.05537192349085837 0 0)
(-0.0439464162807156 0 0)
(-0.03116500058359926 0 0)
(-0.01704653281914505 0 0)
(-0.001657176936223804 0 0)
(0.01483090713615801 0 0)
(0.03206891237269135 0 0)
(0.04943980239697134 0 0)
(0.0656582598114403 0 0)
(0.07829909035078352 0 0)
(0.0851661972182796 0 0)
(0.08721845692745256 0 0)
(0.08743310115444035 0 0)
(0.08734600575443745 0 0)
(0.08707165066009674 0 0)
(0.08641823319647551 0 0)
(0.08519300340666293 0 0)
(0.08315768525251524 0 0)
(0.08006435341312021 0 0)
(0.07571086734050113 0 0)
(0.06996983396468158 0 0)
(0.0627864258877852 0 0)
(0.05415490987056767 0 0)
(0.04408512468132626 0 0)
(0.03257475024385228 0 0)
(0.0196035785150855 0 0)
(0.005156683974749661 0 0)
(-0.01073553899582218 0 0)
(-0.02791894778305818 0 0)
(-0.04601044578677135 0 0)
(-0.06426229821020621 0 0)
(-0.08107429810799478 0 0)
(-0.0936114492363698 0 0)
(-0.09991499691560267 0 0)
(-0.1015710713492363 0 0)
(-0.1016668576808517 0 0)
(-0.1014419721685574 0 0)
(-0.1010003962901126 0 0)
(-0.1001926915526251 0 0)
(-0.09886925967523595 0 0)
(-0.09681419053161527 0 0)
(-0.09377948452746497 0 0)
(-0.08954439453373798 0 0)
(-0.08395774690334902 0 0)
(-0.07695762915996603 0 0)
(-0.06856640759554117 0 0)
(-0.05885462111314552 0 0)
(-0.04788751930902908 0 0)
(-0.03568642517788823 0 0)
(-0.02223459237617341 0 0)
(-0.007521214697413366 0 0)
(0.008381408959617682 0 0)
(0.02521417707500319 0 0)
(0.04247328270232714 0 0)
(0.05917175602987678 0 0)
(0.07322779957744857 0 0)
(0.08214620564403004 0 0)
(0.08561590520773815 0 0)
(0.08620560045598623 0 0)
(0.08605375228589893 0 0)
(0.0857512444510822 0 0)
(0.08509174878622502 0 0)
(0.08397894887012225 0 0)
(0.08227558762312533 0 0)
(0.07976269222428778 0 0)
(0.07616453022304036 0 0)
(0.07120510190433865 0 0)
(0.06466726552762089 0 0)
(0.05643904104898307 0 0)
(0.0465463806571649 0 0)
(0.03516580513018707 0 0)
(0.02256786535770008 0 0)
(0.008910038042789808 0 0)
(-0.00590503066714783 0 0)
(-0.0223891633694351 0 0)
(-0.03949596586096053 0 0)
(-0.0601153306955827 0 0)
)
;

boundaryField
{
    inlet
    {
        type            zeroGradient;
    }
    outlet
    {
        type            velocityOutletNSCBCx;
        pInf            101325;
        gamma           1.4;
        etaAc           1;
        fieldInf        (-1 0 0);
        lInf            2.25;
        value           uniform (-0.06780145789856232 0 0);
    }
    frontAndBack
    {
        type            empty;
    }
}


// ************************************************************************* //
