/*--------------------------------*- C++ -*----------------------------------*\
| =========                 |                                                 |
| \\      /  F ield         | OpenFOAM: The Open Source CFD Toolbox           |
|  \\    /   O peration     | Version:  v2012                                 |
|   \\  /    A nd           | Website:  www.openfoam.com                      |
|    \\/     M anipulation  |                                                 |
\*---------------------------------------------------------------------------*/
FoamFile
{
    version     2.0;
    format      ascii;
    class       volVectorField;
    location    "0.0145";
    object      UMean;
}
// * * * * * * * * * * * * * * * * * * * * * * * * * * * * * * * * * * * * * //

dimensions      [0 1 -1 0 0 0 0];


internalField   nonuniform List<vector> 
1000
(
(0.0009093570040823241 0 0)
(0.0008684512113576441 0 0)
(0.0008687987829707916 0 0)
(0.0008439911387701601 0 0)
(0.0008168058152281367 0 0)
(0.0007723523742379446 0 0)
(0.0007272573893210316 0 0)
(0.0006732913147619003 0 0)
(0.0006189814609557358 0 0)
(0.0005596551225780998 0 0)
(0.0004988198083655099 0 0)
(0.0004367168732057971 0 0)
(0.0003748352007729808 0 0)
(0.0003138675096063357 0 0)
(0.0002547558960660145 0 0)
(0.0001989365718782818 0 0)
(0.0001474003870096958 0 0)
(0.000101375710838649 0 0)
(6.140083769632347e-05 0 0)
(2.840375602600579e-05 0 0)
(2.77856017271702e-06 0 0)
(-1.507463237866892e-05 0 0)
(-2.473727568283639e-05 0 0)
(-2.616721956920328e-05 0 0)
(-1.928363949518855e-05 0 0)
(-4.347141436869173e-06 0 0)
(1.859698569343646e-05 0 0)
(4.89443778722727e-05 0 0)
(8.629783215433027e-05 0 0)
(0.0001302261615584634 0 0)
(0.0001802800241395552 0 0)
(0.0002353907030070018 0 0)
(0.0002939609699701451 0 0)
(0.0003539265053907482 0 0)
(0.0004139913258400876 0 0)
(0.0004738445040084576 0 0)
(0.0005330786344995875 0 0)
(0.0005908261351745887 0 0)
(0.0006461153365721284 0 0)
(0.0006977570240512247 0 0)
(0.0007446550394872042 0 0)
(0.0007854823695764072 0 0)
(0.0008196188558452274 0 0)
(0.0008463514803588871 0 0)
(0.0008652924916718425 0 0)
(0.0008762918374302438 0 0)
(0.0008790649087724857 0 0)
(0.0008735992579366081 0 0)
(0.0008600615326765687 0 0)
(0.0008386800413905361 0 0)
(0.0008097334864548547 0 0)
(0.000773419345630411 0 0)
(0.0007302505327235338 0 0)
(0.0006807190332712072 0 0)
(0.0006258490733603732 0 0)
(0.0005677378760645443 0 0)
(0.0005085004103349243 0 0)
(0.0004490029323288025 0 0)
(0.0003897905039943715 0 0)
(0.0003311444644048977 0 0)
(0.0002737081003927125 0 0)
(0.0002182014474513314 0 0)
(0.0001658252959545808 0 0)
(0.0001177796609107191 0 0)
(7.504583584984642e-05 0 0)
(3.87884763901168e-05 0 0)
(9.843839130218826e-06 0 0)
(-1.131569967241508e-05 0 0)
(-2.426636406095927e-05 0 0)
(-2.87600030191596e-05 0 0)
(-2.492030635577963e-05 0 0)
(-1.289209822958363e-05 0 0)
(7.305508360027368e-06 0 0)
(3.527866149507775e-05 0 0)
(7.085147519202882e-05 0 0)
(0.0001135954942406646 0 0)
(0.0001631357566791982 0 0)
(0.0002178130857846338 0 0)
(0.0002755575714742796 0 0)
(0.0003343252834231719 0 0)
(0.0003931887731277638 0 0)
(0.0004518787886563855 0 0)
(0.0005100318070636581 0 0)
(0.0005671269243799178 0 0)
(0.0006222918713760503 0 0)
(0.000674564030927463 0 0)
(0.0007230868450823795 0 0)
(0.000766424652082347 0 0)
(0.0008037759502759334 0 0)
(0.00083404172568674 0 0)
(0.0008567127473989559 0 0)
(0.0008711546576874576 0 0)
(0.0008773233148303605 0 0)
(0.0008749843668939156 0 0)
(0.00086440096790753 0 0)
(0.0008456669232053919 0 0)
(0.0008191350599901461 0 0)
(0.0007848906939907626 0 0)
(0.0007431891120409236 0 0)
(0.0006948636985049455 0 0)
(0.0006410143436373148 0 0)
(0.0005839186460924296 0 0)
(0.0005258248142404125 0 0)
(0.0004673995289967422 0 0)
(0.000409228591046914 0 0)
(0.0003514196394084398 0 0)
(0.0002946612779071884 0 0)
(0.0002393512979463866 0 0)
(0.0001865714119660359 0 0)
(0.000137290582242498 0 0)
(9.261505610916493e-05 0 0)
(5.356625266165609e-05 0 0)
(2.127266902760345e-05 0 0)
(-3.547201504652513e-06 0 0)
(-2.024799279225857e-05 0 0)
(-2.841501892056916e-05 0 0)
(-2.791094946963407e-05 0 0)
(-1.888246614940778e-05 0 0)
(-1.401987460396429e-06 0 0)
(2.428234382819134e-05 0 0)
(5.803331029268202e-05 0 0)
(9.92084203661085e-05 0 0)
(0.0001475564033884634 0 0)
(0.0002012601942553945 0 0)
(0.0002580294698469343 0 0)
(0.000315741990751543 0 0)
(0.0003737905888666384 0 0)
(0.0004315382475847857 0 0)
(0.0004889486656814179 0 0)
(0.0005454218635352333 0 0)
(0.00060038598862319 0 0)
(0.0006528542355606834 0 0)
(0.0007021389081029665 0 0)
(0.0007470591289861809 0 0)
(0.0007865774330966077 0 0)
(0.0008197017529126681 0 0)
(0.0008456820351924641 0 0)
(0.000863670669419302 0 0)
(0.0008734358198003084 0 0)
(0.0008745132981308222 0 0)
(0.0008671057883997852 0 0)
(0.0008511121925232088 0 0)
(0.0008270194858567813 0 0)
(0.0007948035739990132 0 0)
(0.0007548563292973107 0 0)
(0.0007078723310750874 0 0)
(0.000655278201038772 0 0)
(0.0005991348461637732 0 0)
(0.0005419462956397003 0 0)
(0.0004842930739674165 0 0)
(0.0004268885080519191 0 0)
(0.0003697589781463415 0 0)
(0.0003133868805975853 0 0)
(0.0002583266878691482 0 0)
(0.0002053087893564777 0 0)
(0.0001551407364252397 0 0)
(0.0001091336992442335 0 0)
(6.79145616778748e-05 0 0)
(3.288922008130054e-05 0 0)
(4.755510342318064e-06 0 0)
(-1.55331437240693e-05 0 0)
(-2.763767667257854e-05 0 0)
(-3.085564747180914e-05 0 0)
(-2.530155352895446e-05 0 0)
(-1.089711109913767e-05 0 0)
(1.214481442375386e-05 0 0)
(4.370585757294328e-05 0 0)
(8.322216308337457e-05 0 0)
(0.0001300523897140919 0 0)
(0.0001826605867703375 0 0)
(0.0002384386093347928 0 0)
(0.0002952583857133356 0 0)
(0.0003523403695947014 0 0)
(0.0004093942824733277 0 0)
(0.0004661148362004735 0 0)
(0.0005219761637774865 0 0)
(0.0005767117564440445 0 0)
(0.0006292300803935375 0 0)
(0.0006789534093618709 0 0)
(0.0007249305827704613 0 0)
(0.0007660886552961001 0 0)
(0.0008014585872614563 0 0)
(0.0008302340758617585 0 0)
(0.0008514711924225859 0 0)
(0.0008646670436310192 0 0)
(0.0008692893556058821 0 0)
(0.0008652636164928109 0 0)
(0.0008524183722153186 0 0)
(0.000830995863683066 0 0)
(0.0008010509122124133 0 0)
(0.000763124940322846 0 0)
(0.0007175661146057266 0 0)
(0.0006662488597578367 0 0)
(0.000611019188727578 0 0)
(0.0005545884321685512 0 0)
(0.0004975123683991417 0 0)
(0.0004408714553252914 0 0)
(0.0003842002987692009 0 0)
(0.0003282085490655589 0 0)
(0.0002732920672443144 0 0)
(0.0002201425905412331 0 0)
(0.0001693564473040544 0 0)
(0.0001221807026445128 0 0)
(7.932626324937168e-05 0 0)
(4.199817805881443e-05 0 0)
(1.098846718673097e-05 0 0)
(-1.25656641338148e-05 0 0)
(-2.833756072746886e-05 0 0)
(-3.538662380311056e-05 0 0)
(-3.355703442064982e-05 0 0)
(-2.256946129816213e-05 0 0)
(-2.652203319720585e-06 0 0)
(2.632856331170185e-05 0 0)
(6.380627799619349e-05 0 0)
(0.0001089228873380311 0 0)
(0.0001602561896881432 0 0)
(0.000215095420368927 0 0)
(0.0002710838609879156 0 0)
(0.0003272796050028688 0 0)
(0.0003837156570949944 0 0)
(0.0004396947404809745 0 0)
(0.0004950613163468702 0 0)
(0.000549381272940795 0 0)
(0.0006019202287732424 0 0)
(0.0006519578086027863 0 0)
(0.0006985738113987399 0 0)
(0.000741087479805641 0 0)
(0.0007782188975258736 0 0)
(0.0008093471283359724 0 0)
(0.0008333578148985822 0 0)
(0.0008498693992844197 0 0)
(0.0008577784882692691 0 0)
(0.0008571772014945193 0 0)
(0.0008476399236700008 0 0)
(0.0008292176849982241 0 0)
(0.000801919675174706 0 0)
(0.0007661935305881431 0 0)
(0.000722421250461245 0 0)
(0.000672346938189704 0 0)
(0.0006180846497712294 0 0)
(0.0005622753193160555 0 0)
(0.000505811521250891 0 0)
(0.0004496619222932541 0 0)
(0.0003934146024111603 0 0)
(0.0003378649735147901 0 0)
(0.0002829733666040104 0 0)
(0.0002298124004620681 0 0)
(0.0001785668124010983 0 0)
(0.000130389815630044 0 0)
(8.620692315609808e-05 0 0)
(4.688908551887e-05 0 0)
(1.345254927406589e-05 0 0)
(-1.311119416915921e-05 0 0)
(-3.210089469728293e-05 0 0)
(-4.290844904169928e-05 0 0)
(-4.481251786379991e-05 0 0)
(-3.746546626279992e-05 0 0)
(-2.089708710615868e-05 0 0)
(5.05512547977939e-06 0 0)
(3.996636053826034e-05 0 0)
(8.321646748160753e-05 0 0)
(0.00013294111542121 0 0)
(0.0001868274188425882 0 0)
(0.0002419772493480479 0 0)
(0.0002975138878664527 0 0)
(0.0003529641172754343 0 0)
(0.0004084542153549262 0 0)
(0.0004633618960983129 0 0)
(0.0005172222597970683 0 0)
(0.0005696789325648489 0 0)
(0.0006199283031177869 0 0)
(0.0006670249407941879 0 0)
(0.0007105402309707818 0 0)
(0.0007491286006937267 0 0)
(0.0007822385728062131 0 0)
(0.0008086813513957849 0 0)
(0.0008280857897686588 0 0)
(0.0008391265280681881 0 0)
(0.0008418356515005779 0 0)
(0.0008356227554045524 0 0)
(0.000820435329716185 0 0)
(0.0007959978544004788 0 0)
(0.0007627808124467956 0 0)
(0.0007211723102026352 0 0)
(0.0006725271304218372 0 0)
(0.0006193073454740938 0 0)
(0.0005640288215450659 0 0)
(0.0005083126867906517 0 0)
(0.0004521355614207728 0 0)
(0.0003966800056985854 0 0)
(0.0003413679420802303 0 0)
(0.0002866496184059469 0 0)
(0.0002333589786455754 0 0)
(0.0001818340806896142 0 0)
(0.0001329238122537545 0 0)
(8.745753523526438e-05 0 0)
(4.655021533395987e-05 0 0)
(1.095704017147314e-05 0 0)
(-1.826948548141248e-05 0 0)
(-4.019843344903119e-05 0 0)
(-5.449632974636543e-05 0 0)
(-6.005706690972866e-05 0 0)
(-5.635219958138312e-05 0 0)
(-4.33137131463714e-05 0 0)
(-2.069681374830041e-05 0 0)
(1.132930817379445e-05 0 0)
(5.226210402080432e-05 0 0)
(0.0001001822212241626 0 0)
(0.000152888518930362 0 0)
(0.0002072331190053901 0 0)
(0.0002621635218571554 0 0)
(0.0003165898595803035 0 0)
(0.0003717884625553001 0 0)
(0.0004260157059715997 0 0)
(0.0004795588506659063 0 0)
(0.0005317178987166317 0 0)
(0.0005821413783442714 0 0)
(0.0006296599453732826 0 0)
(0.0006738084012901385 0 0)
(0.000713695739643776 0 0)
(0.0007484043827781728 0 0)
(0.0007770083814111355 0 0)
(0.0007988816158290647 0 0)
(0.0008129953085237387 0 0)
(0.00081869729104831 0 0)
(0.0008157528729376724 0 0)
(0.0008037830191702505 0 0)
(0.0007824871204365903 0 0)
(0.0007520429653446426 0 0)
(0.0007127849959783775 0 0)
(0.000666003668249444 0 0)
(0.000613843453594376 0 0)
(0.0005592250835049441 0 0)
(0.0005039955198519436 0 0)
(0.0004482002852094658 0 0)
(0.0003931909030512134 0 0)
(0.0003380603333598764 0 0)
(0.0002836000943335728 0 0)
(0.0002301439283455637 0 0)
(0.0001783975909719499 0 0)
(0.0001289155188478345 0 0)
(8.233069351044721e-05 0 0)
(4.003009238028498e-05 0 0)
(2.484178801080133e-06 0 0)
(-2.90188193346069e-05 0 0)
(-5.388307680474761e-05 0 0)
(-7.0937496572133e-05 0 0)
(-8.0194572800721e-05 0 0)
(-8.012021062375827e-05 0 0)
(-7.073922340013788e-05 0 0)
(-5.153789489208964e-05 0 0)
(-2.27907249783325e-05 0 0)
(1.536906120720794e-05 0 0)
(6.128453212817778e-05 0 0)
(0.0001125117725737695 0 0)
(0.0001660436057780458 0 0)
(0.0002202241280889347 0 0)
(0.0002740795638648321 0 0)
(0.0003284211930494102 0 0)
(0.0003821378976946579 0 0)
(0.0004353752635981653 0 0)
(0.0004872250979378371 0 0)
(0.0005376134208422576 0 0)
(0.0005855054675269098 0 0)
(0.000630218735846668 0 0)
(0.0006710391605067463 0 0)
(0.0007071872555707753 0 0)
(0.0007376704072220514 0 0)
(0.0007616724942567341 0 0)
(0.0007786317133001126 0 0)
(0.0007871917777852736 0 0)
(0.0007872908985084746 0 0)
(0.00077853033718604 0 0)
(0.0007604688195644278 0 0)
(0.0007329785845579833 0 0)
(0.0006963561679662163 0 0)
(0.0006517367073077796 0 0)
(0.0006009089534039803 0 0)
(0.0005470296292937746 0 0)
(0.0004921277099935752 0 0)
(0.0004370949113338517 0 0)
(0.0003817041916351071 0 0)
(0.0003272362890928697 0 0)
(0.000272956033529175 0 0)
(0.0002194873591169483 0 0)
(0.000167420124287962 0 0)
(0.0001175398931723021 0 0)
(7.011155410852083e-05 0 0)
(2.63672198737078e-05 0 0)
(-1.278320195825312e-05 0 0)
(-4.642009613436759e-05 0 0)
(-7.385110426531564e-05 0 0)
(-9.367380514694469e-05 0 0)
(-0.0001062661604294901 0 0)
(-0.0001097447914230637 0 0)
(-0.0001039146027876691 0 0)
(-8.833165708942301e-05 0 0)
(-6.297518223471073e-05 0 0)
(-2.793511656694689e-05 0 0)
(1.554881205324896e-05 0 0)
(6.510902187594381e-05 0 0)
(0.0001176663278292582 0 0)
(0.0001710199533935243 0 0)
(0.0002245859040338942 0 0)
(0.0002774698305987521 0 0)
(0.0003312144683732541 0 0)
(0.0003838970923136973 0 0)
(0.0004354989079801068 0 0)
(0.0004856716761196296 0 0)
(0.0005338548980029189 0 0)
(0.0005790905958907293 0 0)
(0.0006205797955299003 0 0)
(0.0006579704428146699 0 0)
(0.0006900529651017868 0 0)
(0.000716074008727774 0 0)
(0.0007354198646997576 0 0)
(0.0007467739528678529 0 0)
(0.0007497248206318966 0 0)
(0.0007441372191390782 0 0)
(0.0007291946596733674 0 0)
(0.0007049275748463384 0 0)
(0.0006711078468540709 0 0)
(0.000628857709721364 0 0)
(0.0005797594391167528 0 0)
(0.0005267075913758603 0 0)
(0.000472188734671015 0 0)
(0.0004176994108556575 0 0)
(0.0003622750180729254 0 0)
(0.0003084020363393117 0 0)
(0.0002541453172462352 0 0)
(0.0002007812770134226 0 0)
(0.0001484430509235635 0 0)
(9.812489907255607e-05 0 0)
(5.007003706024638e-05 0 0)
(5.125280331871793e-06 0 0)
(-3.561056166102336e-05 0 0)
(-7.112879412670027e-05 0 0)
(-0.0001008213155157393 0 0)
(-0.0001235478839317761 0 0)
(-0.0001386625708364718 0 0)
(-0.0001457940917739154 0 0)
(-0.00014353324090018 0 0)
(-0.0001316317057423427 0 0)
(-0.0001097793861776643 0 0)
(-7.815403286343643e-05 0 0)
(-3.747271908250155e-05 0 0)
(1.016987376928518e-05 0 0)
(6.15293090731719e-05 0 0)
(0.000114136889082124 0 0)
(0.0001670290003812698 0 0)
(0.0002192899943400622 0 0)
(0.0002723710875595379 0 0)
(0.0003244698148203612 0 0)
(0.0003758853389666839 0 0)
(0.0004258343528653086 0 0)
(0.0004740148931628147 0 0)
(0.0005197606890768901 0 0)
(0.0005619057583164119 0 0)
(0.0006001372080575796 0 0)
(0.0006336988669976507 0 0)
(0.0006615580633690477 0 0)
(0.0006827954918958779 0 0)
(0.0006972021643522602 0 0)
(0.0007027245443341747 0 0)
(0.0007000208693200771 0 0)
(0.0006882121285755105 0 0)
(0.0006670993787688924 0 0)
(0.0006363740573515756 0 0)
(0.0005966846890343737 0 0)
(0.0005495637151489754 0 0)
(0.000497588685309358 0 0)
(0.0004435633493436778 0 0)
(0.0003892619092090049 0 0)
(0.0003346431946865951 0 0)
(0.0002802102974326501 0 0)
(0.0002264542234082061 0 0)
(0.00017326060757757 0 0)
(0.0001207974065556475 0 0)
(7.000179191614885e-05 0 0)
(2.146472154581689e-05 0 0)
(-2.438307777881866e-05 0 0)
(-6.66818533712506e-05 0 0)
(-0.0001039309611282813 0 0)
(-0.0001356794306185274 0 0)
(-0.0001610693251003121 0 0)
(-0.0001787073224888155 0 0)
(-0.000189219895998828 0 0)
(-0.0001904864442759836 0 0)
(-0.0001821139861484346 0 0)
(-0.0001639726673448771 0 0)
(-0.0001357712179755458 0 0)
(-9.828841109341776e-05 0 0)
(-5.294051277809491e-05 0 0)
(-2.996196231145375e-06 0 0)
(4.884031657392244e-05 0 0)
(0.0001008532243792545 0 0)
(0.0001530585934211709 0 0)
(0.0002043360343315746 0 0)
(0.0002566506547338102 0 0)
(0.0003076212638112944 0 0)
(0.0003573656890060951 0 0)
(0.0004054446786251849 0 0)
(0.0004514663975662331 0 0)
(0.0004943032114013854 0 0)
(0.0005332227818946856 0 0)
(0.0005679261398975758 0 0)
(0.0005975400004986572 0 0)
(0.0006206069463249959 0 0)
(0.0006374182916986252 0 0)
(0.0006455443829192937 0 0)
(0.000645607475227203 0 0)
(0.0006369274839239902 0 0)
(0.0006188894585658823 0 0)
(0.0005913918975716713 0 0)
(0.0005544831344257657 0 0)
(0.0005095667394143194 0 0)
(0.0004590190932809005 0 0)
(0.0004055844798828548 0 0)
(0.0003514614654348148 0 0)
(0.0002975210374324245 0 0)
(0.0002425745878981206 0 0)
(0.000189612094990599 0 0)
(0.0001363136170225023 0 0)
(8.384028596619355e-05 0 0)
(3.270923364727341e-05 0 0)
(-1.645521144080873e-05 0 0)
(-6.292070028233668e-05 0 0)
(-0.0001065346287771126 0 0)
(-0.0001455145121487885 0 0)
(-0.0001790591686416087 0 0)
(-0.0002068757546712419 0 0)
(-0.000227382828032019 0 0)
(-0.0002403339150255377 0 0)
(-0.0002452460219147297 0 0)
(-0.0002404615304681 0 0)
(-0.000226034939786667 0 0)
(-0.0002014566322703433 0 0)
(-0.0001672791927754838 0 0)
(-0.0001246813354175881 0 0)
(-7.627912112856171e-05 0 0)
(-2.557756294171758e-05 0 0)
(2.578137902400587e-05 0 0)
(7.740587920735665e-05 0 0)
(0.0001279644885588443 0 0)
(0.0001797954674930941 0 0)
(0.0002301310691092011 0 0)
(0.0002797984367011067 0 0)
(0.0003277222943350207 0 0)
(0.0003737731701011294 0 0)
(0.0004172353128810908 0 0)
(0.0004568724738602646 0 0)
(0.0004924514583712752 0 0)
(0.0005235366072516616 0 0)
(0.0005484607390390629 0 0)
(0.0005669666282233944 0 0)
(0.0005784328480387631 0 0)
(0.0005808308380033975 0 0)
(0.0005749508994461341 0 0)
(0.0005600246370822419 0 0)
(0.0005356227538924014 0 0)
(0.0005018711541092294 0 0)
(0.000459230367340636 0 0)
(0.0004105445031294832 0 0)
(0.000357541838744805 0 0)
(0.0003039522867096626 0 0)
(0.0002501333815423438 0 0)
(0.0001960177679255753 0 0)
(0.0001422952228581956 0 0)
(8.94167215097258e-05 0 0)
(3.709986334669153e-05 0 0)
(-1.430096097955035e-05 0 0)
(-6.399418539801455e-05 0 0)
(-0.0001111456968642359 0 0)
(-0.0001555771625063545 0 0)
(-0.0001964105280895377 0 0)
(-0.0002316309921122278 0 0)
(-0.0002614441012155319 0 0)
(-0.0002849261559187427 0 0)
(-0.0003001125987817147 0 0)
(-0.0003086045626485261 0 0)
(-0.0003073520085248084 0 0)
(-0.0002964718339531914 0 0)
(-0.0002756567714143887 0 0)
(-0.0002448938865226763 0 0)
(-0.0002053579642695426 0 0)
(-0.0001589303023434152 0 0)
(-0.0001094319654197182 0 0)
(-5.874147733298982e-05 0 0)
(-7.983633489793139e-06 0 0)
(4.269026815867583e-05 0 0)
(9.249273382982734e-05 0 0)
(0.0001432293646592838 0 0)
(0.0001925287234543748 0 0)
(0.0002402701402473541 0 0)
(0.0002863302189303342 0 0)
(0.0003300215242410932 0 0)
(0.000370681824210279 0 0)
(0.0004065700133006865 0 0)
(0.0004392862688732361 0 0)
(0.0004658916891996555 0 0)
(0.0004859970316627263 0 0)
(0.0005000191573137445 0 0)
(0.0005049119761863369 0 0)
(0.0005017821654406568 0 0)
(0.00048997753234808 0 0)
(0.0004686242387126539 0 0)
(0.00043801413197299 0 0)
(0.0003981788651772834 0 0)
(0.0003511337860794492 0 0)
(0.0002997399389537483 0 0)
(0.0002458687879670677 0 0)
(0.0001923738550425691 0 0)
(0.0001390625785769219 0 0)
(8.449567896920922e-05 0 0)
(3.255048741662548e-05 0 0)
(-2.002892463172125e-05 0 0)
(-7.146963170019177e-05 0 0)
(-0.000121601400694705 0 0)
(-0.0001695140199926998 0 0)
(-0.00021449606823061 0 0)
(-0.0002569796657106279 0 0)
(-0.0002936779083251109 0 0)
(-0.0003255005490359353 0 0)
(-0.0003515300886788789 0 0)
(-0.0003696502134212313 0 0)
(-0.0003804611115551283 0 0)
(-0.0003829579363465412 0 0)
(-0.0003757112762029034 0 0)
(-0.0003586343943784773 0 0)
(-0.00033159285844261 0 0)
(-0.0002950705942136614 0 0)
(-0.0002514167933349778 0 0)
(-0.0002025768657014303 0 0)
(-0.0001535858669942854 0 0)
(-0.0001031805917949291 0 0)
(-5.291866067478392e-05 0 0)
(-4.026595169133245e-06 0 0)
(4.638580421162268e-05 0 0)
(9.500473560907826e-05 0 0)
(0.0001427967292412858 0 0)
(0.0001887275396662083 0 0)
(0.0002325175134641471 0 0)
(0.0002737914136704713 0 0)
(0.0003105742742065022 0 0)
(0.0003439822057788432 0 0)
(0.0003723758445035815 0 0)
(0.0003941744548678706 0 0)
(0.0004097953738639821 0 0)
(0.0004182628923716772 0 0)
(0.0004173103907741558 0 0)
(0.0004082612170863768 0 0)
(0.0003900546951153942 0 0)
(0.000362452658161179 0 0)
(0.0003257309096176772 0 0)
(0.0002806432305689959 0 0)
(0.0002308151060297652 0 0)
(0.0001772504982234565 0 0)
(0.0001238381094598332 0 0)
(7.07463096811689e-05 0 0)
(1.698661776804021e-05 0 0)
(-3.59459765513543e-05 0 0)
(-8.806378753094706e-05 0 0)
(-0.0001394249218327338 0 0)
(-0.0001899027776422146 0 0)
(-0.0002384200760129622 0 0)
(-0.0002842797909643584 0 0)
(-0.0003273117141437289 0 0)
(-0.0003665541716521594 0 0)
(-0.000399542766331544 0 0)
(-0.0004280081443328968 0 0)
(-0.0004491048870176524 0 0)
(-0.0004619981950089837 0 0)
(-0.0004683012532776958 0 0)
(-0.0004645949041767334 0 0)
(-0.0004510724969772022 0 0)
(-0.0004278113395333647 0 0)
(-0.0003947034347693797 0 0)
(-0.00035366774202742 0 0)
(-0.0003067419119359645 0 0)
(-0.0002582514311218723 0 0)
(-0.0002091208189358214 0 0)
(-0.0001594748803564473 0 0)
(-0.0001102392184238601 0 0)
(-6.212762855352058e-05 0 0)
(-1.280695840115071e-05 0 0)
(3.456453947346127e-05 0 0)
(8.036213855036754e-05 0 0)
(0.0001242352126089691 0 0)
(0.0001656654363157451 0 0)
(0.0002038893038956946 0 0)
(0.0002369906417099029 0 0)
(0.0002673918686178999 0 0)
(0.000290758308047184 0 0)
(0.0003081565137821089 0 0)
(0.0003191516072600939 0 0)
(0.000320772229549995 0 0)
(0.0003144227563624482 0 0)
(0.0002993100597962979 0 0)
(0.0002747692309470756 0 0)
(0.0002409933247557448 0 0)
(0.0001986367695737768 0 0)
(0.0001499558749968143 0 0)
(9.782016879677098e-05 0 0)
(4.412196823109479e-05 0 0)
(-8.967248481055661e-06 0 0)
(-6.181366250268928e-05 0 0)
(-0.0001159205780724561 0 0)
(-0.0001669286745251508 0 0)
(-0.0002188223031347227 0 0)
(-0.0002693258313854134 0 0)
(-0.0003183735210228506 0 0)
(-0.0003651458448636374 0 0)
(-0.0004086118793301153 0 0)
(-0.0004499014684917179 0 0)
(-0.0004844345041685078 0 0)
(-0.0005146229930528949 0 0)
(-0.0005385418472068677 0 0)
(-0.0005546099758449868 0 0)
(-0.0005629722644078129 0 0)
(-0.0005632394984721527 0 0)
(-0.0005534013903889808 0 0)
(-0.0005338847933574341 0 0)
(-0.0005044961673319764 0 0)
(-0.000466207727205421 0 0)
(-0.0004218163082037618 0 0)
(-0.0003736476877455005 0 0)
(-0.0003255300405326423 0 0)
(-0.0002770608267889809 0 0)
(-0.0002279279989215908 0 0)
(-0.0001806557045935769 0 0)
(-0.0001317746021161331 0 0)
(-8.49230296228398e-05 0 0)
(-3.89553904019703e-05 0 0)
(4.79218044408027e-06 0 0)
(4.636792721069077e-05 0 0)
(8.532237674477408e-05 0 0)
(0.0001192876010627219 0 0)
(0.0001505083668676133 0 0)
(0.0001760062007336597 0 0)
(0.0001943864048707908 0 0)
(0.0002072633904741718 0 0)
(0.000212690661782226 0 0)
(0.0002083369885579559 0 0)
(0.0001960863166365811 0 0)
(0.0001746641711745053 0 0)
(0.0001438747907772174 0 0)
(0.0001043797889675101 0 0)
(5.740221613515401e-05 0 0)
(6.544102226752583e-06 0 0)
(-4.6777599144252e-05 0 0)
(-0.0001003224968950075 0 0)
(-0.0001527912327359964 0 0)
(-0.0002061361770175011 0 0)
(-0.0002585266618830257 0 0)
(-0.0003097093792613526 0 0)
(-0.0003602874900736704 0 0)
(-0.0004098030811598703 0 0)
(-0.0004572459974853779 0 0)
(-0.000501665732514406 0 0)
(-0.0005435688594467708 0 0)
(-0.0005806218975077522 0 0)
(-0.0006120850739117 0 0)
(-0.0006388459185308528 0 0)
(-0.0006576089650343025 0 0)
(-0.0006682006572614097 0 0)
(-0.0006723597176685405 0 0)
(-0.0006661440554724103 0 0)
(-0.0006501611528570914 0 0)
(-0.0006245450037743253 0 0)
(-0.0005896121539654412 0 0)
(-0.0005473967750733893 0 0)
(-0.0005008964236662189 0 0)
(-0.0004531262854367842 0 0)
(-0.0004056616052506364 0 0)
(-0.0003573041985797595 0 0)
(-0.0003095940482729739 0 0)
(-0.0002631228806675389 0 0)
(-0.0002152412698948073 0 0)
(-0.0001698437211988209 0 0)
(-0.0001261044217411212 0 0)
(-8.443108817997045e-05 0 0)
(-4.534712613487411e-05 0 0)
(-9.653788953274555e-06 0 0)
(2.089621751902511e-05 0 0)
(4.83563999671683e-05 0 0)
(6.898746422492348e-05 0 0)
(8.317057242729269e-05 0 0)
(9.101284152737211e-05 0 0)
(8.97152828639532e-05 0 0)
(7.990963997588726e-05 0 0)
(6.166991603948054e-05 0 0)
(3.389925989848689e-05 0 0)
(-2.787904137007003e-06 0 0)
(-4.732957449404346e-05 0 0)
(-9.729210301793906e-05 0 0)
(-0.0001497108647775315 0 0)
(-0.0002029910941412087 0 0)
(-0.0002562312949889118 0 0)
(-0.0003084355915295959 0 0)
(-0.0003622278595848115 0 0)
(-0.0004122783245708716 0 0)
(-0.0004635741437518448 0 0)
(-0.0005130901763341757 0 0)
(-0.0005611991500001738 0 0)
(-0.0006067108438533954 0 0)
(-0.000648821021814492 0 0)
(-0.0006884858854553883 0 0)
(-0.0007215397160250852 0 0)
(-0.0007493698857890691 0 0)
(-0.0007722072610016899 0 0)
(-0.0007855457186475525 0 0)
(-0.0007913695757673632 0 0)
(-0.0007895236959466812 0 0)
(-0.0007772336144669159 0 0)
(-0.000755375950118068 0 0)
(-0.0007240523210405635 0 0)
(-0.0006844783859814678 0 0)
(-0.0006398651686895753 0 0)
(-0.0005927317491091642 0 0)
(-0.0005455261069329313 0 0)
(-0.0004989245187318775 0 0)
(-0.0004508354330282609 0 0)
(-0.0004051676254641935 0 0)
(-0.0003582279773176013 0 0)
(-0.0003128636500698974 0 0)
(-0.000268999891040859 0 0)
(-0.0002274587708026367 0 0)
(-0.0001882102815175049 0 0)
(-0.0001516477273026959 0 0)
(-0.0001203303253601309 0 0)
(-9.17370070581193e-05 0 0)
(-6.922190715898654e-05 0 0)
(-5.39145070511142e-05 0 0)
(-4.414584383905688e-05 0 0)
(-4.160924529662318e-05 0 0)
(-4.953012261839638e-05 0 0)
(-6.498429604752268e-05 0 0)
(-8.950860854049958e-05 0 0)
(-0.0001232717271101132 0 0)
(-0.000165364283879249 0 0)
(-0.0002136265357556706 0 0)
(-0.0002654861169549479 0 0)
(-0.0003182316451384685 0 0)
(-0.0003717340377027347 0 0)
(-0.0004241491571041018 0 0)
(-0.0004767306382872439 0 0)
(-0.000529339643977378 0 0)
(-0.0005790090474088712 0 0)
(-0.0006290407468227026 0 0)
(-0.0006776393595874438 0 0)
(-0.0007239819734598131 0 0)
(-0.0007671395064990374 0 0)
(-0.0008074244165429356 0 0)
(-0.000842938568123756 0 0)
(-0.0008728211889276659 0 0)
(-0.0008970644338440531 0 0)
(-0.000914589678430378 0 0)
(-0.000922578946348715 0 0)
(-0.0009241460547013101 0 0)
(-0.0009158399448344276 0 0)
(-0.0008973949306700843 0 0)
(-0.0008697995229751353 0 0)
(-0.0008334857487570195 0 0)
(-0.0007906152032254203 0 0)
(-0.0007450899186115696 0 0)
(-0.0006979992202152717 0 0)
(-0.0006516354372404943 0 0)
(-0.0006056053070126623 0 0)
(-0.0005584284520021439 0 0)
(-0.0005147280516033993 0 0)
(-0.0004673236968414803 0 0)
(-0.0004244857769603375 0 0)
(-0.0003827221803210101 0 0)
(-0.0003434706926819616 0 0)
(-0.0003068076611910365 0 0)
(-0.0002734984477540637 0 0)
(-0.000245612147924454 0 0)
(-0.000221296239626874 0 0)
(-0.0002029776612290621 0 0)
(-0.0001930657549784783 0 0)
(-0.0001879022117708322 0 0)
(-0.0001914809147539108 0 0)
(-0.0002051544224518066 0 0)
(-0.0002266562414069403 0 0)
(-0.0002573553297906872 0 0)
(-0.0002968123036864909 0 0)
(-0.000343122298023134 0 0)
(-0.0003940696709974612 0 0)
(-0.0004463255465819319 0 0)
(-0.0004993277423334173 0 0)
(-0.0005529174191938704 0 0)
(-0.0006044052465449521 0 0)
(-0.0006576212394468065 0 0)
(-0.0007079662031065084 0 0)
(-0.0007578520203034232 0 0)
(-0.0008066156256354317 0 0)
(-0.0008537699491114399 0 0)
(-0.0008980953916324766 0 0)
(-0.0009387616468203192 0 0)
(-0.000976603735261829 0 0)
(-0.001008138143279338 0 0)
(-0.00103426211696619 0 0)
(-0.001054783027428643 0 0)
(-0.001066392673286439 0 0)
(-0.00106918684289854 0 0)
(-0.001065543000095514 0 0)
(-0.001051146377256368 0 0)
(-0.001026922861682733 0 0)
(-0.0009940813768863617 0 0)
(-0.0009539288357985029 0 0)
(-0.000909262295787631 0 0)
(-0.0008638837563074844 0 0)
(-0.000817236143946157 0 0)
(-0.000771681980962051 0 0)
(-0.0007263081067987718 0 0)
(-0.000680191636526488 0 0)
(-0.0006377573369336014 0 0)
(-0.0005916765684126113 0 0)
(-0.0005508386312875697 0 0)
(-0.0005115765080492095 0 0)
(-0.0004747300834009031 0 0)
(-0.0004409276790201183 0 0)
(-0.0004113435500270971 0 0)
(-0.0003864049928417378 0 0)
(-0.0003668356245126851 0 0)
(-0.0003532825475972818 0 0)
(-0.0003486944840539447 0 0)
(-0.0003486205266636945 0 0)
(-0.0003588591478506544 0 0)
(-0.0003782199052758587 0 0)
(-0.0004055894625364438 0 0)
(-0.0004422048016660586 0 0)
(-0.0004865346539913733 0 0)
(-0.0005357137110376921 0 0)
(-0.0005882510407591764 0 0)
(-0.0006403299052169612 0 0)
(-0.0006931601763923906 0 0)
(-0.0007469296514238034 0 0)
(-0.0007977416384591262 0 0)
(-0.0008517715665768679 0 0)
(-0.0008984506502724618 0 0)
(-0.0009492882568623803 0 0)
(-0.0009964327324819946 0 0)
(-0.001041701053662906 0 0)
(-0.001083990597806278 0 0)
(-0.001121769607389834 0 0)
(-0.001156471151980369 0 0)
(-0.001184635845184771 0 0)
(-0.001206398315047059 0 0)
(-0.001222812001328399 0 0)
(-0.001228440861461174 0 0)
(-0.00122586310611115 0 0)
(-0.001216412909478145 0 0)
(-0.001196230586464036 0 0)
(-0.001166610293408216 0 0)
(-0.001129449161574211 0 0)
(-0.00108681457003516 0 0)
(-0.00104179762272676 0 0)
(-0.0009969204301582726 0 0)
(-0.0009509226654045193 0 0)
(-0.0009059084946941793 0 0)
(-0.0008620648229370879 0 0)
(-0.0008162601813424184 0 0)
(-0.000775749627455018 0 0)
(-0.0007304796269351484 0 0)
(-0.0006931477531483293 0 0)
(-0.0006559928800767711 0 0)
(-0.0006222879146671837 0 0)
(-0.0005910395608314619 0 0)
(-0.0005654792726603476 0 0)
(-0.0005441304993586831 0 0)
(-0.0005293612650798698 0 0)
(-0.000520760200636881 0 0)
(-0.0005213165747468983 0 0)
(-0.0005268243126041915 0 0)
(-0.0005440526105348339 0 0)
(-0.000569015454347382 0 0)
(-0.0006020689959791188 0 0)
(-0.0006440571631326222 0 0)
(-0.0006918955530441824 0 0)
(-0.0007429810822921206 0 0)
(-0.0007960253788744566 0 0)
(-0.0008481886210160847 0 0)
(-0.000900332574686936 0 0)
(-0.0009540865166157405 0 0)
(-0.001004527700958823 0 0)
(-0.00105850588565152 0 0)
(-0.001101381509588181 0 0)
(-0.001154492373464365 0 0)
(-0.001199297883012523 0 0)
(-0.001242905371678461 0 0)
(-0.001280532201196582 0 0)
(-0.001317331360032823 0 0)
(-0.001347021934008107 0 0)
(-0.001372469990877478 0 0)
(-0.001389571126443907 0 0)
(-0.001401582720674015 0 0)
(-0.001399300457994128 0 0)
(-0.001392686726097233 0 0)
(-0.001376385156383727 0 0)
)
;

boundaryField
{
    inlet
    {
        type            calculated;
        value           uniform (0.0009093570040823241 0 0);
    }
    outlet
    {
        type            calculated;
        value           uniform (-0.001363983352327687 0 0);
    }
    frontAndBack
    {
        type            empty;
    }
}


// ************************************************************************* //
