/*--------------------------------*- C++ -*----------------------------------*\
| =========                 |                                                 |
| \\      /  F ield         | OpenFOAM: The Open Source CFD Toolbox           |
|  \\    /   O peration     | Version:  v2012                                 |
|   \\  /    A nd           | Website:  www.openfoam.com                      |
|    \\/     M anipulation  |                                                 |
\*---------------------------------------------------------------------------*/
FoamFile
{
    version     2.0;
    format      ascii;
    class       volScalarField;
    location    "0.017";
    object      pMean;
}
// * * * * * * * * * * * * * * * * * * * * * * * * * * * * * * * * * * * * * //

dimensions      [1 -1 -2 0 0 0 0];


internalField   nonuniform List<scalar> 
1000
(
101325.4196968981
101325.303144933
101326.125010379
101325.2693659769
101325.5991100487
101327.2554223383
101327.2991382379
101327.1075634377
101325.6130568695
101324.5380290316
101324.9445375417
101325.7959744085
101325.1282705871
101324.6977431411
101326.3193962504
101327.3140947968
101328.4684007887
101327.0853009305
101326.057083251
101325.8529796649
101325.1016503099
101324.2530870275
101322.8593635897
101324.3062916925
101325.5905354425
101327.2215381175
101325.9099047093
101324.1083074419
101322.9379299548
101321.8731240534
101321.5453794882
101321.174119698
101322.6858289098
101324.4787014258
101326.8751789899
101326.9441074493
101323.9612293915
101324.5840642458
101322.4859022158
101322.9746702574
101322.7808023355
101323.5302011618
101324.5331755331
101325.6212742467
101325.136085872
101322.1953728916
101321.6454151569
101320.1888589888
101321.5640653093
101322.1257502484
101322.6494693463
101322.7597453753
101324.2510651191
101324.0956871372
101322.8523410512
101320.7898737977
101321.0055246643
101321.067020535
101321.8955935892
101320.5028973149
101322.0521373213
101323.1648945759
101324.8438271395
101324.3502704354
101323.75135251
101321.9317983507
101322.0829792266
101321.354654724
101319.8615400296
101321.0200648196
101320.8241158639
101323.2611852679
101323.7477560586
101321.3282400403
101319.3287376895
101318.8406440361
101317.5025520384
101317.5987077622
101317.8184059651
101321.0949217387
101322.2115617654
101324.3126246958
101322.2404227403
101321.3855375917
101319.9867905369
101320.3022595068
101320.4399215441
101320.615852297
101320.5972220872
101321.9914991456
101321.9985336649
101319.4319318783
101317.9011007854
101315.6885460171
101317.417574444
101319.4931293737
101319.8778403465
101320.6465502227
101322.8278272396
101323.1756470453
101322.7479139319
101320.7882486588
101318.5470041422
101316.8256062483
101317.3524697247
101316.7376521922
101315.5077949602
101318.269398121
101320.0383111553
101322.4723519207
101322.0934778129
101319.8054041135
101319.7257689261
101318.5910531432
101317.8148913105
101316.6678730706
101318.0025807059
101318.3398831051
101321.2131069937
101321.0241851703
101317.9002016945
101316.9759343921
101315.6050846544
101315.5778411592
101315.2151479073
101317.684479611
101317.4937826814
101320.8715893983
101321.668272806
101319.4899798026
101317.3547664078
101315.2276078178
101315.420872355
101315.1852180668
101313.9654270122
101316.0796436851
101316.5390802922
101318.4647416716
101317.5074507711
101317.011926732
101315.4816796896
101317.1933840526
101318.1960587626
101317.5898645943
101316.8062947084
101317.6522444229
101317.7524678775
101317.1023295289
101314.5750630952
101313.6133283341
101312.9835203354
101314.526405617
101314.593257503
101314.6205216777
101316.2414978085
101318.7668010207
101319.679206394
101317.6718224429
101316.9377597569
101315.0042635174
101314.4277557065
101313.7605395993
101314.1897195061
101313.4311792038
101315.9690855354
101317.4654796932
101315.9140465075
101312.659621961
101312.4323619457
101311.8030367381
101312.279279297
101312.3148375925
101314.8507763117
101315.0216185422
101318.2506085854
101317.5626257693
101314.7162621161
101312.6808637174
101311.0465245109
101311.2437247866
101311.0455955659
101311.7564163241
101312.0161839705
101315.2147173036
101315.3101160447
101314.6692931436
101313.01385614
101311.7814583156
101312.598943835
101312.6212815443
101310.4023425722
101313.0989758966
101313.965292631
101315.4635663471
101315.4943503868
101314.4622089737
101312.0282326289
101312.0631259616
101310.3380499953
101308.4492087858
101308.9757260398
101309.7194544142
101313.3100318733
101314.8035255909
101313.7913929105
101312.7278385961
101312.759593965
101311.2435993208
101309.6479507317
101310.2306265133
101308.78686369
101312.6278984856
101313.367930704
101311.2131964167
101310.4941305025
101309.3955026067
101309.3224296751
101309.8158735372
101309.9115942426
101311.1977658546
101311.751660602
101313.4181278155
101311.5013934214
101309.2562697951
101306.2234100305
101306.7206061988
101306.9707231409
101306.9836033304
101307.6024279588
101309.2973064997
101310.671329715
101310.8830862691
101309.8455684023
101307.9168973581
101308.2151721805
101309.3304212963
101308.9174755409
101308.7608795245
101309.4289318103
101310.0208727037
101310.5039942879
101309.0904850676
101307.6261695576
101304.9768165513
101305.3043353706
101304.5948938685
101304.4714712271
101305.9177882443
101309.4209748462
101312.3498827621
101312.8047914291
101310.7168947619
101308.8227332576
101307.7785530144
101305.1653862368
101303.9049071661
101305.556112153
101306.343816537
101311.8823869323
101313.6993691399
101312.7789310874
101312.7254510692
101312.1697719779
101312.3122908253
101311.2066515727
101310.7673613793
101306.8684679269
101307.7746205164
101307.5984055568
101306.06334597
101306.2706762033
101308.236144722
101308.8373712225
101308.9843857312
101307.5202214084
101307.5870941399
101304.6424962515
101303.901025986
101301.1957591654
101300.8783040797
101300.7063871481
101304.3928307438
101305.5643691651
101307.153997372
101307.8872499514
101309.2014872972
101308.6256055374
101306.7638935464
101305.2938968189
101301.4860778232
101301.2234029985
101302.2876389766
101301.9899596075
101304.0086682564
101307.1455943008
101309.2291469949
101309.768582024
101309.6584171728
101308.0388384804
101305.4855558861
101303.4666523872
101299.6820001482
101302.2791655369
101301.0526893074
101303.7141745521
101303.0247675308
101301.093208512
101297.4953808024
101297.9018254817
101295.6011657213
101296.7410141722
101298.9586662893
101299.456978043
101299.479834716
101302.3224083873
101300.5149195994
101299.8711943784
101298.5338101066
101294.6058772117
101293.1249056688
101292.370594046
101294.6402556993
101298.3320581469
101301.1519664177
101301.2752837217
101299.7359035921
101297.4114160081
101297.7880021198
101300.5976013083
101301.9167178205
101299.5726242104
101298.4583352559
101296.5051965918
101297.5879505588
101297.9279826715
101297.7974032786
101293.7201434936
101290.760967233
101291.1038727093
101290.7892391217
101294.6264821634
101297.4524900241
101299.3534277585
101298.6986965007
101299.7970030111
101297.6722330852
101297.9904578008
101295.0239343247
101295.7091797556
101295.2881447316
101297.5748378244
101299.0694064117
101299.2275070066
101296.0191200317
101295.3557664544
101295.5066777671
101296.4070524371
101298.6568292077
101298.8706827683
101297.1366392771
101298.2531645448
101298.7175789339
101299.6101689916
101297.5551309361
101294.2545586337
101290.0081968541
101287.9051928271
101287.247520148
101289.4115807267
101293.0499492679
101298.2660329579
101298.910045778
101302.4592274429
101302.0555722508
101299.5302415381
101298.1853517025
101295.1196452656
101290.8300097206
101289.2836722482
101287.1771183194
101288.8586758483
101290.4971989226
101292.7298871197
101293.3530254139
101295.6693643469
101296.5322325429
101295.8613546547
101294.1446482557
101292.7052717891
101290.3753685718
101288.4628555837
101287.2228810063
101284.9518397606
101284.4704887871
101285.2268835741
101287.7465707008
101290.4751215233
101291.0282457338
101291.8437307077
101292.1009994843
101290.0139289194
101287.8775100734
101285.2812451081
101282.2355915084
101282.9990601732
101284.0447063538
101286.7726010681
101287.4633646498
101288.6813702156
101289.8228230762
101289.5257443689
101287.6565185948
101283.8930840998
101282.513107364
101282.1537178845
101282.6628844316
101283.3429636058
101285.7336860006
101286.816476498
101288.460733096
101288.0559683881
101287.5257668179
101284.9809879573
101283.1405521496
101281.7693597558
101281.5602940899
101281.6730718706
101282.2824796957
101282.2436540168
101281.8613495484
101281.8391455998
101281.839509206
101282.6673181168
101280.9215472659
101281.7542397898
101279.9952794965
101283.4722908112
101283.5643228994
101281.8433266345
101281.9102210238
101280.9058797909
101280.5207883234
101280.6288346642
101279.8566177745
101279.2327801659
101279.8708683445
101280.1317429471
101280.2022827475
101281.1990655759
101280.1759393388
101280.4714907242
101279.4246322576
101278.5136798701
101277.9617137559
101277.8791000724
101278.8088501188
101276.2190500914
101276.9268133763
101275.6978829051
101276.0079918325
101277.5468776328
101276.7735880329
101276.9775606181
101277.3449757631
101279.0222554152
101280.8919484215
101279.2713141547
101276.6234790755
101276.3523829733
101275.8271544932
101275.3497752765
101274.6586917692
101273.4104631542
101274.7931240035
101276.3956826562
101275.5361027556
101273.9481713518
101272.0206557873
101272.3389893177
101272.7508984068
101273.5134923639
101275.3017179945
101275.9397881958
101278.0077242917
101276.3667543869
101273.8416855308
101273.2651798517
101271.3476045846
101270.5030981505
101270.4787662022
101271.3182553518
101272.643988929
101273.5695334162
101274.3552764568
101273.5282886289
101271.775642261
101270.9645628369
101270.4048700804
101270.7287831539
101271.7236261052
101270.5949212584
101272.3263466765
101269.6455683152
101269.2784107563
101266.3168016825
101265.7885529283
101265.2057882693
101268.0023208286
101269.3113342829
101271.9814817808
101273.9527866662
101274.6028918796
101273.3645059234
101271.8814515873
101268.7180311991
101267.0954366327
101265.0712069237
101266.4059065525
101266.5508730089
101268.2712236191
101268.1982319845
101269.1423549075
101269.4431232446
101267.3651700166
101267.2593888136
101265.0161518275
101265.1351706832
101265.1332282794
101264.6345360337
101264.279085122
101266.0135210903
101263.9310737116
101263.982535122
101261.0047888913
101262.2475981799
101261.8188322496
101262.1497933678
101262.0458725924
101261.5090719997
101263.1028578285
101261.9944661143
101260.7414805794
101258.6036305156
101256.5187712229
101258.2986978508
101259.9791463139
101260.9830650844
101259.6985834128
101260.7763393354
101261.1577521941
101261.3639552635
101258.2992177166
101253.007786021
101253.495003157
101253.2663873668
101257.4693804748
101259.0855646982
101259.4038383858
101261.5065648459
101262.0208934031
101261.2846638699
101258.4076053503
101254.3616046261
101253.5093376999
101252.8725183837
101253.2833317606
101255.6969797449
101255.9475602451
101257.6405458774
101257.7938447026
101254.824187802
101252.0599632684
101249.9974054596
101249.5079798139
101250.9724669008
101251.4982905103
101255.0663826781
101257.9610237677
101260.7051652552
101261.1290380586
101259.0128329347
101255.514981848
101252.3298334387
101249.328904325
101247.2311082467
101245.1086318851
101248.3218237352
101250.4377420167
101255.1901330665
101258.3860652815
101259.6385412659
101258.9617222939
101257.3281902618
101254.7850323523
101251.8056067631
101246.3857744707
101245.5679624661
101243.4822728138
101246.1939191892
101246.8911344122
101250.8656506291
101252.7366436003
101254.6310205575
101253.3151884306
101250.1498445238
101249.9973392883
101248.6028388006
101247.7811493269
101245.3409497238
101242.6366267629
101241.7542569881
101241.7430965805
101241.7186178607
101245.0205955283
101243.9494790662
101244.6787913043
101243.1654409936
101243.0265187072
101241.2206503683
101239.2707614675
101236.6812196605
101235.637108144
101236.1326540116
101239.1741817826
101239.8118860349
101242.7446461207
101241.0051192981
101240.8578263451
101238.0928134418
101236.1067465032
101232.6893739531
101229.5312154627
101228.7271062713
101230.3215315732
101232.3375651405
101234.1902089402
101235.1696358883
101234.7786791587
101234.0822717695
101231.5201802043
101231.7913035364
101231.3653643797
101229.8548903909
101229.0202194622
101226.2571697868
101226.5928543404
101226.5028678871
101225.1582329085
101223.9746144444
101224.7147089589
101224.5461304184
101226.9358715123
101230.0090345105
101232.10775883
101232.5771751844
101233.6492516561
101230.2272017059
101229.7344664265
101225.9474006637
101221.1751080804
101217.7547061469
101215.732119693
101217.1466666157
101218.3286184601
101220.6287121232
101224.4952050361
101225.7262193545
101225.2814953831
101220.0562302297
101216.7604348866
101213.8599064408
101212.3616996033
101209.6403375231
101207.8583668339
101209.4706304969
101211.2020717804
101211.508799356
101212.9313634883
101209.8976063912
101207.7011016729
101204.7183639765
101205.0360903276
101204.0077742819
101203.9283658833
101203.6567575008
101206.8931112138
101206.4571783666
101206.9270801557
101202.0430918269
101203.5609717803
101200.3480957383
101198.1765270135
101194.0050899724
101196.5411356084
101197.6709595881
101198.9254931156
101199.2540999237
101199.1510777904
101196.060455948
101194.5302082915
101191.0047439013
101189.7658417718
101187.3673557778
101188.4207080912
101189.4493780688
101190.9453308368
101189.5939641501
101187.8802600983
101188.4165057629
101188.6169505906
101185.8498456719
101182.9769918511
101181.4385786426
101181.3542326961
101181.1200363229
101180.568791772
101179.3518524175
101179.9711809799
101181.2358426504
101181.4695596484
101180.261197416
101180.9519504137
101178.0463304919
101174.4293948754
101172.41481995
101171.6039271887
101172.5324183325
101171.5438324473
101174.1670728681
101173.9441306864
101176.0972175674
101173.5487231331
101170.3184940666
101165.6818551335
101162.758791099
101163.8978161975
101166.7032341905
101166.5541050013
101165.4993228569
101164.5249008386
101163.6379991194
101168.577000986
101166.3932666863
101163.2715389714
101157.3321365133
101157.0367526243
101156.1139993725
101158.1011584555
101155.3801296244
101155.2002912772
101155.4716995272
101157.5014756468
101161.697553287
101160.0939926696
101154.8095815385
101151.6541686485
101152.1289607867
101146.2762547851
101144.342289687
101140.8732244308
101142.1811413609
101144.935102663
101149.8023475002
101148.4478263808
101148.7028998243
101147.7566498111
101147.3558442613
101144.117704701
101140.9516628431
101136.5691637062
101132.7506656566
101130.531617591
101130.3534755671
101132.7285118537
101133.6633673218
101136.3616141041
101135.4307851662
101136.5049793059
101132.4624380647
101129.8290880907
101125.4654360921
101119.2147395993
101117.3963189205
101118.4553113947
101118.8631361505
101119.7279732412
101117.1191747477
101117.4358317885
101116.6553700774
101113.9743173769
101110.1381487983
101108.0762377904
101106.1950990573
101106.5395042228
101107.577257845
101106.631636592
101104.0994197378
101104.1344297377
101099.8970553382
101097.446563526
101097.6219337878
101096.9191874796
101096.4116524925
101096.16428359
101092.3516473683
101093.5363078418
101090.6403227011
101088.9863591376
101089.3197998437
101084.5777140813
101087.2428977297
101087.1622014691
101086.6189364525
101081.1589738477
101078.3499905767
101076.9256157935
101075.6976340015
101078.5722459291
101078.3127797414
101078.1939831706
101078.7126452745
101077.9641496967
101076.8938955196
101072.8985699768
101066.8725265962
101063.5103011541
101062.7642438794
101062.122877126
101063.3729707623
101064.4792281164
101065.1216784741
101068.0547292904
101064.9402149688
101060.4959580426
101055.5355574362
101051.7086843823
101050.6595308373
101048.9364170068
101046.9067043634
101046.5586851259
101047.3075166895
101049.5484339274
101050.5619216868
101047.5414589244
101041.404172556
101041.59349556
101040.541798519
101040.6862571107
101036.9280940931
101035.1918957257
101032.2260104657
101032.0130034451
101033.2204380548
101029.6721314707
101025.1816678821
101024.1255106652
101024.878875827
101028.7853030158
101027.0606550178
101023.9179153699
101021.8728544724
101020.9242957608
101019.6382128027
101017.1989696028
101014.448133525
101009.7482841111
101006.7573729677
101006.1154298398
101005.4482011552
101007.030490037
101007.302598045
101005.7606446748
101006.5429158607
101004.0468390196
101003.6491264546
100997.5235507931
100993.383796624
100989.6965685248
100986.4827211765
100984.2821153509
100984.0152579493
100986.3103462118
100987.4911305601
100988.1545130899
100985.8058460226
100980.3347803339
100977.0226992407
100973.7856243893
100971.2387730463
100966.7841329327
100965.9765282746
100966.0299818913
100968.3830172975
100970.0803315637
100965.8604992675
100962.7071040139
100959.0584288599
100957.5041301555
100955.1136524605
100951.7653364217
100951.8122744382
100951.9989899559
100952.5127509771
100952.0629606062
100948.3417657156
100946.2571693086
100942.433705136
100939.8842608968
100938.3555040581
100938.0038488674
100939.2000458701
100938.1725286981
100938.387859386
100935.3702848789
100932.5387707288
100930.3189216388
100924.7565002523
100924.0396777351
100920.0059588275
100919.8327847914
100920.7649281926
100918.5433454784
100919.4754564863
100917.3462455293
100916.5581460526
100913.1507900865
100909.8427828883
100908.3476495723
100907.3781854939
100906.2948653687
100903.7961411548
100900.8619049953
100900.8138859679
100901.554222364
100900.4467000718
100899.8569679321
100897.0454661558
100896.2152497871
100893.3115638148
100891.3995157892
100888.1227677485
100885.3560167716
100886.1446220138
100884.9210367949
100883.3769020201
100883.7016860753
100880.8700925159
100880.5946575606
100877.8399515257
100873.9504636822
100873.5862583633
100872.068261058
100872.2134517303
100870.3679586178
100869.7554905232
100869.3879380042
100868.4121122279
100867.1063998976
100863.2244523572
100859.9540668772
100858.4471056154
100856.8328491492
100857.182886639
100855.5702587356
100854.5014755816
100853.7759509283
100853.6830798732
100851.7552643149
100849.4009861988
100846.7074801052
100842.8396736
100840.7614298223
100838.714348873
100837.7289556856
100836.0211861849
100836.0445116036
100834.8927708754
100834.5308794636
100832.803054825
100829.4498389504
100827.0488097602
100824.393628063
100822.6879221694
100820.0118771671
100817.9011515213
100817.6952401301
100816.1418610114
100815.8701030422
100815.0256914565
100812.7439829037
100813.3112009361
100812.5512479546
100811.38040757
100807.7516302428
100805.6758697371
100803.0385077478
100802.2031176158
100801.7300700027
100796.9379882463
100795.681122104
)
;

boundaryField
{
    inlet
    {
        type            calculated;
        value           uniform 101324.9999670268;
    }
    outlet
    {
        type            calculated;
        value           uniform 100797.4121951893;
    }
    frontAndBack
    {
        type            empty;
    }
}


// ************************************************************************* //
