/*--------------------------------*- C++ -*----------------------------------*\
| =========                 |                                                 |
| \\      /  F ield         | OpenFOAM: The Open Source CFD Toolbox           |
|  \\    /   O peration     | Version:  v2012                                 |
|   \\  /    A nd           | Website:  www.openfoam.com                      |
|    \\/     M anipulation  |                                                 |
\*---------------------------------------------------------------------------*/
FoamFile
{
    version     2.0;
    format      ascii;
    class       volScalarField;
    location    "0.017";
    object      rho;
}
// * * * * * * * * * * * * * * * * * * * * * * * * * * * * * * * * * * * * * //

dimensions      [1 -3 0 0 0 0 0];


internalField   nonuniform List<scalar> 
1000
(
1.174771252424202
1.18371936811608
1.182471109009933
1.174119252275212
1.163747868004203
1.154563736591701
1.149368423421314
1.15349851265493
1.167968260622904
1.181019899192115
1.200398215497911
1.209316093925211
1.205985345881158
1.192970992420469
1.184248203360987
1.169052108729643
1.160336541954509
1.158838248454001
1.163898366601008
1.164741317737608
1.171675044567634
1.176029978302741
1.174681232172295
1.174931771069996
1.172111823134205
1.172003961550142
1.177294868537574
1.187482981607461
1.192967433263284
1.202937501073306
1.201832142110074
1.188787116508867
1.171777477434312
1.160568765379423
1.149709921333157
1.146736319796712
1.151367162388075
1.161452965631384
1.170417855816717
1.189880807622027
1.201014281069532
1.203161062741929
1.204388879415424
1.200302881433814
1.193381849544308
1.188531592481567
1.176715684539504
1.167546112175091
1.154135693705084
1.147911815970676
1.147653870020519
1.148859844946343
1.151304683614983
1.16003551148685
1.17456850262532
1.18678328244648
1.203013922920706
1.214171084780085
1.212670609349572
1.198809175384342
1.184994139563983
1.169616136922459
1.158528909081445
1.154721140894929
1.157834295984149
1.161238637780799
1.167000285227154
1.173553608622651
1.176226576055046
1.174183346085793
1.173942673401323
1.172698345910674
1.175819833623881
1.18284758458146
1.189338246551938
1.197945176458859
1.200165877902388
1.19048025373082
1.171925303128127
1.163802535062429
1.150856489007085
1.144677277372657
1.146714636432386
1.155711887789454
1.16639989488827
1.18551406978148
1.202244363455653
1.207087300284987
1.210652049726003
1.207171258242407
1.196767968201245
1.186706420165837
1.169637807931795
1.157351527619749
1.146965887363966
1.146473620533903
1.151370270211138
1.161772845514907
1.166648739732349
1.173127002942212
1.178191229295701
1.181425432225274
1.18264084451023
1.186941726707291
1.194088065268568
1.197147777933457
1.19214498351524
1.187726986664171
1.182406908167742
1.175938244602459
1.168725407069702
1.163906256555948
1.157242842779209
1.153169825899544
1.154430739530198
1.163452194928238
1.173247378737788
1.185152985315326
1.189173337880934
1.191569734620504
1.192056769428191
1.187639289984344
1.184863918036755
1.176169407054537
1.165637554094036
1.159922484780155
1.160666630023063
1.158246760636243
1.160416478104916
1.165355365060011
1.172439726542328
1.174909823538274
1.186068926704877
1.199155419766866
1.203792114857587
1.201149409416023
1.20053136208194
1.195956451268238
1.186927219251232
1.175794921163583
1.160940247385691
1.147379930687972
1.136951928539811
1.136247834019843
1.1414298948128
1.149051960713215
1.159185329665728
1.174803428956722
1.188757353373663
1.206181155733115
1.218451169094806
1.217364208082375
1.202137995048374
1.184836446275813
1.171002300920692
1.157867848793059
1.15199686274404
1.15383071282707
1.161026195578214
1.163643508506364
1.175085234476188
1.184375103163227
1.184464191955275
1.183531485402692
1.178512287585709
1.174942723875842
1.174641840260979
1.177398825780638
1.177528049282447
1.180103696252482
1.177190527610109
1.170237511102858
1.167648479191026
1.161461149909749
1.15849552901451
1.160139736163212
1.166643716446451
1.176979725888927
1.188544679364626
1.204790739928989
1.210268662088616
1.201595143372533
1.190053915138278
1.177577139745517
1.166599611874716
1.161061530521803
1.1611323253491
1.159577306409283
1.163482536678345
1.166911974519363
1.168025129892491
1.166462852905367
1.167563765737706
1.16527421562144
1.165340421489875
1.169494132118807
1.180046868862801
1.184789517465614
1.199560525663314
1.204618493235874
1.196441151313207
1.18233035444197
1.175613888943389
1.164343271679223
1.155686685734961
1.153683343667499
1.156307564037449
1.156898632866296
1.164936773976706
1.179043283131756
1.187402714313836
1.196245509943227
1.197825816425077
1.19586383823447
1.190082825310617
1.179603796305373
1.168883565779842
1.157474747405875
1.152220187312645
1.153018829273901
1.150535192793512
1.152863439315046
1.160736568889825
1.173410204773697
1.181280410879483
1.202795681299732
1.215510953780786
1.213061194195636
1.199690466922285
1.190171710086081
1.176017993881859
1.167097740804066
1.162702159069861
1.158296791972087
1.155433340529626
1.154757233060694
1.15549820938722
1.157182828559292
1.16093043169135
1.161085184425074
1.163614807871558
1.169593291929884
1.179743081911864
1.189384544984266
1.206862568305717
1.213713203560314
1.205728847774163
1.191783996438376
1.185111195336369
1.172300389878835
1.158681460173256
1.150721982982402
1.150102011667565
1.147970309323501
1.153547277169915
1.175359039016977
1.201855290995469
1.214863471369751
1.225834973074613
1.226800179349877
1.220784939872112
1.202274552461766
1.175493080255364
1.14698866577103
1.123308514868786
1.108531654903096
1.107974291499288
1.123328402356113
1.158924922913898
1.204910788866707
1.231700472974624
1.239942510263219
1.22927274543551
1.202988965015715
1.16854697931618
1.139619028578159
1.125658676579604
1.127776071535713
1.139521878763529
1.169389154426155
1.19848789339501
1.205491937924229
1.193880011418732
1.184642931907691
1.163801374676003
1.147883983251077
1.141178204428328
1.145264179034559
1.161284764487432
1.186768669945184
1.224244650813724
1.238542887920755
1.228382535237529
1.205486465069445
1.187936957773977
1.167003291196747
1.15410709427924
1.146637621223142
1.140957106694534
1.133366008362894
1.129733803498767
1.138556490653651
1.161894019160675
1.179560535878988
1.193879659989164
1.196711863736046
1.193311373726581
1.183288964382793
1.168152858227436
1.154466756058769
1.149328393197713
1.153855814589426
1.163258892287401
1.168898185347388
1.171589013937516
1.171692084112181
1.172383356404
1.175341301742998
1.181904076419259
1.196693434031594
1.205939150466165
1.200247735512636
1.2027922039131
1.197084225801918
1.189683323613449
1.178912487783029
1.161776955391205
1.143369771976452
1.129528595163287
1.127180096166534
1.135634517598619
1.147983935916856
1.157354106412904
1.16305871164556
1.170491812018774
1.185528910190663
1.200481357831829
1.226909293258564
1.236161906485072
1.219862363325099
1.184932390927766
1.165977187093978
1.143251257779526
1.131133870911053
1.128034435545767
1.135174779479224
1.147417773414375
1.172435839314103
1.206618819233871
1.221859096507521
1.232908165696788
1.228306513504939
1.210485399469305
1.183751173027063
1.150854775495188
1.118726497292005
1.100856709813367
1.10467956474349
1.124050310218289
1.14908014030795
1.170424559848326
1.182859621420699
1.189313645255155
1.190924227007284
1.195535064056915
1.196348350325199
1.206406762297652
1.198761710952135
1.179064766015457
1.166099673848598
1.162675893546582
1.159143190284457
1.159198174141734
1.159726380773434
1.161254462021061
1.168903609505527
1.183520602052244
1.201434318651249
1.217408934140753
1.209716258891441
1.178543000406841
1.149120854137994
1.135415633724556
1.130343082289678
1.136049638191923
1.149750362227704
1.169799229091686
1.192627461873634
1.20963170207373
1.215859797706327
1.207730410897532
1.18766891782543
1.155491397011979
1.131144966264394
1.132112697483396
1.143345683925391
1.162271468516937
1.175947753948994
1.189000063163367
1.19653585200852
1.197101687535337
1.1966206968209
1.192158535127519
1.188601970866494
1.175163276205348
1.163417335205505
1.159527132712884
1.158055284491475
1.155593047418995
1.158079064599353
1.165647979022029
1.179005575066636
1.185866102927928
1.204374090421231
1.211381131803459
1.201222326192089
1.178485911054733
1.168832631294212
1.155672110371037
1.151783679127792
1.154456880493257
1.164188086950123
1.177527587962488
1.188234953920902
1.193293245592393
1.184596872795665
1.164469960906608
1.153551154719568
1.143604128727018
1.145064095702733
1.158224666031857
1.178815601333202
1.200362946858858
1.211537321713149
1.208296801595365
1.189164510919721
1.169437490582201
1.148686952825109
1.139726071408876
1.142265290454595
1.15663915812791
1.175714293028675
1.198163790265342
1.207272179633469
1.200612789122377
1.181356558100269
1.164972929359317
1.152557096827246
1.150979118163398
1.159556097180242
1.175048215952859
1.187499206411095
1.195255182325998
1.191668029672118
1.175935017949268
1.159886687279517
1.144465412631885
1.142519101330885
1.153289614474142
1.17623003521705
1.202700925856282
1.217052534406506
1.214536127411904
1.199814527241209
1.180450463346548
1.156453078559901
1.146222702088537
1.146933757004115
1.154965122010867
1.163202267430396
1.17666951309646
1.182165907033061
1.178770528390163
1.177383890328474
1.172443691109838
1.166432205472614
1.163190911753886
1.159766123311519
1.162797926711345
1.171878442328917
1.180231789177356
1.189130857908996
1.190246010884876
1.188191656480309
1.181279253498532
1.173371260981325
1.158633027866461
1.149025934302112
1.145392621735053
1.152889851465364
1.165113674238986
1.181838158807358
1.188933043146958
1.19373435468324
1.194506458165501
1.190463296453251
1.184424451553066
1.172863442313537
1.161735897134882
1.158319919320839
1.151750073247193
1.149542355485083
1.153313245481848
1.1631812428167
1.169870799268161
1.194405988260436
1.21232503423355
1.212353864824159
1.203934137822333
1.197086345905604
1.185640022271394
1.171216790911847
1.160601209087401
1.154474254867559
1.144994026359679
1.141201542233552
1.147787516737591
1.173599734022215
1.190873722017935
1.203485850894652
1.203859367110953
1.189551737049558
1.16742302557087
1.144831128289163
1.130471755885447
1.129735949335277
1.143669150479645
1.169609172466164
1.193743236125663
1.208987185809241
1.207160379547324
1.191630153524654
1.16947190042227
1.148032101443499
1.133540133185933
1.133637921225664
1.147529416785898
1.167523980610474
1.185555110475848
1.196069346679389
1.195379644833359
1.187194594885773
1.174962082072144
1.165634119944294
1.159110032623139
1.159150841423104
1.165160592401929
1.169395458299564
1.172854889846303
1.173115782955211
1.171543637284981
1.170258173519322
1.17272058088545
1.177655487516996
1.179591014315006
1.177242601369467
1.180528199154024
1.179017430648623
1.179252007525816
1.178475144559216
1.176379773562813
1.174106127388388
1.165545996382659
1.161390349621725
1.157024933068886
1.154787395650521
1.156816440686836
1.159154182928616
1.161689586465366
1.165161959102398
1.169816499640596
1.173642987612226
1.183908269776874
1.191838475397329
1.189422760555431
1.179569811302946
1.176557710852325
1.170030119512654
1.167539635520086
1.166798218182158
1.165665406539443
1.166045615923977
1.165003855542097
1.16502473478852
1.170981186824565
1.178474100651585
1.182125187520473
1.183628123464661
1.188808545502258
1.190250140430843
1.192776566832271
1.192465652607638
1.187784718261054
1.179637365281592
1.158083699746353
1.138867122668971
1.123983411568869
1.131964803936961
1.163865279287722
1.189587292334357
1.212132295656125
1.222004515651004
1.224369004203392
1.213144267470549
1.192342003446727
1.163119216167413
1.133185303834756
1.112065288543698
1.105528427572165
1.119087066562889
1.151046685974189
1.192482893500213
1.214547405386327
1.213383181056092
1.201173762206581
1.179692369574437
1.155969653644947
1.143530760266217
1.139357640413938
1.132818036679386
1.13606071051698
1.149408443676728
1.169029767786038
1.178834488727517
1.186963707709212
1.18553977644965
1.184022491877822
1.180610139162773
1.175657147206805
1.159735485920971
1.14536529756681
1.130045523415053
1.127071824599129
1.137500414943613
1.15604416264446
1.175455135335544
1.191103566378536
1.206865719415965
1.215545532745043
1.214431674019802
1.205203657053519
1.177690622924612
1.144467891786959
1.120577570915161
1.108612706112208
1.114221522905644
1.139122612987547
1.177824711518373
1.221353613975829
1.240043697503021
1.230991376646896
1.201038855703456
1.176693781873563
1.15470340693932
1.145344750885238
1.144626952362528
1.146521675135176
1.148012998614457
1.153893275182778
1.148700193593221
1.156988878817944
1.160846615898152
1.159467586252261
1.154465863756459
1.158928933389633
1.156586792870163
1.158621705390124
1.161718535516567
1.164981060179956
1.173252704082967
1.173068070694112
1.181472130494236
1.175138198254212
1.155726699067222
1.13957224114814
1.130085225063345
1.12686950780386
1.134279576600574
1.152188692977342
1.176386526291843
1.200777571257806
1.218539408789352
1.216937550134914
1.193043268719028
1.164357252288157
1.142328571296219
1.129617772341274
1.128456683963265
1.136626455628275
1.155859740425965
1.169257917133048
1.196042795635099
1.205985373564765
1.194716119900258
1.173311577732031
1.15790030020689
1.146454223243396
1.143289257566867
1.145665090941883
1.151626518155408
1.152885086434045
1.158036438672653
1.160864183593771
1.162729342146018
1.170051680818548
1.176810191728919
1.180629963629575
1.177742395637052
1.16693982219952
1.148486506125595
1.130471460726201
1.120374764003748
1.128175120739287
1.148657076345108
1.178073569387217
1.200371766549903
1.205399986817004
1.191475282531131
1.17208268720525
1.15027459040308
1.138438525743705
1.136342038952512
1.14336147734892
1.152975428746732
1.169264374867613
1.183682905812493
1.185130402360718
1.176784133861096
1.174290819976554
1.168677404337009
1.162217847674057
1.155839876339831
1.148554328839401
1.139028388270937
1.137432150306806
1.152092965751557
1.174612520809612
1.193149917267359
1.203489105853045
1.200554712451824
1.181519414834559
1.154551642739433
1.129956312767631
1.116702483865485
1.118102482101429
1.134058899582504
1.160786482412148
1.195144082707313
1.206704056180264
1.195343874237156
1.179114738047015
1.162806756898225
1.150005357899381
1.142095370764344
1.13872396959407
1.13979132773418
1.14271560001647
1.148143452451362
1.163958607590531
1.179185971115826
1.179536676600229
1.172301445334089
1.167683826358103
1.159432624751617
1.150879833297278
1.142319481198302
1.13492208670946
1.131365425350314
1.13717980679213
1.142386982545364
1.163410246203752
1.177466034571177
1.172749874206599
1.155164391888931
1.153914184671138
1.144774719555167
1.145226691212512
1.148676634170838
1.153292739327536
1.160531444443311
1.158235452724315
1.163842586797987
1.158475505658509
1.146477657959894
1.138210007731002
1.137691330438555
1.138477205676332
1.14650275685062
1.157201411307312
1.165525861057006
1.17454170658519
1.175309229393116
1.165145255678921
1.152556983823543
1.146645767553543
1.139967244746535
1.137953613151632
1.140927238163679
1.139245802058239
1.144733355734752
1.153656022237366
1.158776524542528
1.163881334927573
1.162444544487956
1.153733456368738
1.142422143828794
1.131662079009517
1.128548184703402
1.134877377327976
1.147300440685636
1.160394980965995
1.170296944385754
1.169990930915604
1.159955848019195
1.140243920741822
1.120323935327158
1.112839738656206
1.123464831747466
1.140865453276196
1.158890194763102
1.170476689017206
1.178786562823555
1.179146559375093
1.172779715494904
1.152134002086612
1.131695257260821
1.116321630548378
1.119464983977338
1.132211218667269
1.155050940016802
1.168268540476879
1.181669663319168
1.186595960280454
1.184502675956903
1.167168502632773
1.141397141924238
1.111193016319169
1.099938878377124
1.11274548554992
1.1373235493419
1.17002902500814
1.189997923218506
1.199572304135487
1.198894851495833
1.181630030072137
1.153887607859136
1.118068762800469
1.095132816315524
1.084678672637431
1.095841323806965
1.126855178561366
1.160727128963313
1.192690468883995
1.202823094976064
1.184082928180803
1.146107356091066
1.110673774558387
1.091021412311205
1.084040398147067
1.094548634514378
1.118850858862724
1.155583985518026
1.186745578528573
1.204892265104773
1.206616528089792
1.18203474865615
1.13838226639526
1.097291113153104
1.084754640906304
1.091907165311221
1.112586312755262
1.1393057783393
1.16624026025523
1.187426565643671
1.19343203090012
1.192002446771457
1.176941965805913
1.158509478192521
1.12539088316059
1.109375646273302
1.113072392452192
1.128628999636681
1.140950520123264
1.155025756551407
1.167841938984144
1.171938597569433
1.170092434492427
1.161442253658024
1.151580706315492
1.137412975813436
1.130435828632773
1.134079383527081
1.139710966750494
1.147431326098911
1.15417764189114
1.156441556765762
1.151692883114104
1.144396515526478
1.134910666240025
1.129938101571519
1.12987382198207
1.140127151482789
1.143149363444128
1.151386908190623
1.158293954999799
1.16185768764516
1.158437407612503
1.152045374729448
1.137594363045651
1.128504024261958
1.129996685252562
1.128719381038487
1.133789609474989
1.146555230123419
1.1603365497039
1.167594572715853
1.176493425685813
1.176934712499633
1.16287168817286
1.142095480228448
1.136682148456125
1.129898840555718
1.128174349823304
1.12872780739466
1.130043752602665
1.132920718233107
1.138551804518707
1.14975684184572
1.162905035664217
1.173527496966039
1.177412473159659
1.167797645337713
1.14708064157102
1.129086657321326
1.117138920783851
1.112124324702623
1.116691465742194
1.13161864972289
1.15230885581471
1.167605384993421
1.177344799367133
1.171916167830469
1.150887635431378
1.132451886378291
1.120482165753875
1.118185599971854
1.12631576651293
1.145026132052269
1.157791615760397
1.168544846638954
1.167667154372299
1.151707124748228
1.130117697921897
1.118602189642598
1.112671865642748
1.118890813782398
1.13850464552236
1.163673955261085
1.178551666646746
1.185475775204562
1.174281882543507
1.146763865999202
1.120384246552923
1.109588587492226
1.107546751305778
1.117511115953792
1.140324678005483
1.168754497999207
1.188074053762886
1.19355809355273
1.184048106701318
1.163204159628668
1.133914200344463
1.116746996510893
1.115848886623855
1.126201370021199
1.143599770148059
1.163916095730035
1.178000828382594
1.177856370155059
1.167698792350104
1.150946072708503
1.132533007547647
1.12225900589179
1.124830402642965
1.136201537248222
1.149389399096477
1.157427057130061
1.154884522868054
1.144138794065558
1.130233806530757
1.119693722884469
1.116669639662166
1.124079223008094
1.141049386179953
1.153949209060539
1.164740695693647
1.164133943199967
1.149360459843709
1.120430582011838
)
;

boundaryField
{
    inlet
    {
        type            calculated;
        value           uniform 1.176411716172193;
    }
    outlet
    {
        type            calculated;
        value           uniform 1.100947441802111;
    }
    frontAndBack
    {
        type            empty;
    }
}


// ************************************************************************* //
