/*--------------------------------*- C++ -*----------------------------------*\
| =========                 |                                                 |
| \\      /  F ield         | OpenFOAM: The Open Source CFD Toolbox           |
|  \\    /   O peration     | Version:  v2012                                 |
|   \\  /    A nd           | Website:  www.openfoam.com                      |
|    \\/     M anipulation  |                                                 |
\*---------------------------------------------------------------------------*/
FoamFile
{
    version     2.0;
    format      ascii;
    class       volVectorField;
    location    "0.017";
    object      UMean;
}
// * * * * * * * * * * * * * * * * * * * * * * * * * * * * * * * * * * * * * //

dimensions      [0 1 -1 0 0 0 0];


internalField   nonuniform List<vector> 
1000
(
(0.01335564223963737 0 0)
(0.01546521203894032 0 0)
(0.009071055601178683 0 0)
(0.01229338786990366 0 0)
(0.01159938898551264 0 0)
(0.0140035235289245 0 0)
(0.01862860215156964 0 0)
(0.02075541167700042 0 0)
(0.02358028502185953 0 0)
(0.02403561272349336 0 0)
(0.02218284891297109 0 0)
(0.0168429157146633 0 0)
(0.01451316232013804 0 0)
(0.009978971841948733 0 0)
(0.009541224909971358 0 0)
(0.01041056911220702 0 0)
(0.01031991041400976 0 0)
(0.01235667995590551 0 0)
(0.0154787254946388 0 0)
(0.01729819272266448 0 0)
(0.01569175627794055 0 0)
(0.01837754907800352 0 0)
(0.01658665804716315 0 0)
(0.01828763830324477 0 0)
(0.01770709885434496 0 0)
(0.0197763471951849 0 0)
(0.01804868810460697 0 0)
(0.01784106595530798 0 0)
(0.01676756630527316 0 0)
(0.01388928375597728 0 0)
(0.0109045797316888 0 0)
(0.006899600988933568 0 0)
(0.007383765296459683 0 0)
(0.009099701399735644 0 0)
(0.01081306774617541 0 0)
(0.01512016463630438 0 0)
(0.01795638552698687 0 0)
(0.02188346204376839 0 0)
(0.02240088620281676 0 0)
(0.02172836421971576 0 0)
(0.01915260177964275 0 0)
(0.01613085196472855 0 0)
(0.01320614605076082 0 0)
(0.00906240550118791 0 0)
(0.007771255173585514 0 0)
(0.004039413636760311 0 0)
(0.005267292983126562 0 0)
(0.00452655500253418 0 0)
(0.00908197101342078 0 0)
(0.008301048417984926 0 0)
(0.01291894393438023 0 0)
(0.0175714272704898 0 0)
(0.02104982373907835 0 0)
(0.02244849598894144 0 0)
(0.02457839241958028 0 0)
(0.02370761557113105 0 0)
(0.02262851751962488 0 0)
(0.01685184827689139 0 0)
(0.01235498981618064 0 0)
(0.00829741630272747 0 0)
(0.00628031817339248 0 0)
(0.006761301259771306 0 0)
(0.009400414973252006 0 0)
(0.01082042039437665 0 0)
(0.01375155336589215 0 0)
(0.01684502323967627 0 0)
(0.01706086139640716 0 0)
(0.01878187069014337 0 0)
(0.01632346681071042 0 0)
(0.0181341674411727 0 0)
(0.01974632024557545 0 0)
(0.02040298046509255 0 0)
(0.01774138470056543 0 0)
(0.01850890588638302 0 0)
(0.0185654913136095 0 0)
(0.01605819490242647 0 0)
(0.01151504348073682 0 0)
(0.01178385706875986 0 0)
(0.007621157009741013 0 0)
(0.01099459057315389 0 0)
(0.01237468118175473 0 0)
(0.01734287887108844 0 0)
(0.0206514135929331 0 0)
(0.02344146059882383 0 0)
(0.02606679597749122 0 0)
(0.02743707515214341 0 0)
(0.02309118360511335 0 0)
(0.0198500244887495 0 0)
(0.0164238815193605 0 0)
(0.01181314520618831 0 0)
(0.009972929466989765 0 0)
(0.00483468264038606 0 0)
(0.006689139098518616 0 0)
(0.009241671682994465 0 0)
(0.01179697566111327 0 0)
(0.01395110357664523 0 0)
(0.01762939121604225 0 0)
(0.01968838815769824 0 0)
(0.0232061664309872 0 0)
(0.02374587310993555 0 0)
(0.02385530342030221 0 0)
(0.02262122313929981 0 0)
(0.02379796111625395 0 0)
(0.02267219762271418 0 0)
(0.02032077716818494 0 0)
(0.01698982377719241 0 0)
(0.01299918922529501 0 0)
(0.01347239940075763 0 0)
(0.01231946333745924 0 0)
(0.01219729119364063 0 0)
(0.01186572173091389 0 0)
(0.01391936075033963 0 0)
(0.01632267990625697 0 0)
(0.01869022677945124 0 0)
(0.02128865611024825 0 0)
(0.02221909212077726 0 0)
(0.02454873695090587 0 0)
(0.02488823608680082 0 0)
(0.02281476830386271 0 0)
(0.02025148051710442 0 0)
(0.01899885212426064 0 0)
(0.01761641087387558 0 0)
(0.01697386370477817 0 0)
(0.01537551269587803 0 0)
(0.0158504174046714 0 0)
(0.01778972913761622 0 0)
(0.02007597408392469 0 0)
(0.02251337899177124 0 0)
(0.02386025552895354 0 0)
(0.02512226414325519 0 0)
(0.02736255748419062 0 0)
(0.0290745431513176 0 0)
(0.02561475888408952 0 0)
(0.02551461927079861 0 0)
(0.02100260903904949 0 0)
(0.01781912955226146 0 0)
(0.01440797830987072 0 0)
(0.01459264631481246 0 0)
(0.009246195723134188 0 0)
(0.009380721815507434 0 0)
(0.01213304116217722 0 0)
(0.01450542211026854 0 0)
(0.0174589092768463 0 0)
(0.02234718518480509 0 0)
(0.02710184639893572 0 0)
(0.03329262060735543 0 0)
(0.03477066402801372 0 0)
(0.03558764768178566 0 0)
(0.03587340630035983 0 0)
(0.03269686374333287 0 0)
(0.02815155295628729 0 0)
(0.02490832531757625 0 0)
(0.01549684086519604 0 0)
(0.01629404027448641 0 0)
(0.01696509070361102 0 0)
(0.01861718382827603 0 0)
(0.01981867778324753 0 0)
(0.02365668295175737 0 0)
(0.02564420641228906 0 0)
(0.02865350468933356 0 0)
(0.02951768975701009 0 0)
(0.02792858442640033 0 0)
(0.02596582099516445 0 0)
(0.02674640651144048 0 0)
(0.02665699258202716 0 0)
(0.02519732196017067 0 0)
(0.02566542926529642 0 0)
(0.0256655790585562 0 0)
(0.02637497717011143 0 0)
(0.02540446136645146 0 0)
(0.02503251142114642 0 0)
(0.02380986491975089 0 0)
(0.02529555373356229 0 0)
(0.02762061374177193 0 0)
(0.03172141171527574 0 0)
(0.02960039185016215 0 0)
(0.03432498558858837 0 0)
(0.03540444370846661 0 0)
(0.03416927394398783 0 0)
(0.03076501736674478 0 0)
(0.02679229743257137 0 0)
(0.02202845323236388 0 0)
(0.02106119691066681 0 0)
(0.01990678083912429 0 0)
(0.02124425167265529 0 0)
(0.02066786714776265 0 0)
(0.02446848582485332 0 0)
(0.0279507200184323 0 0)
(0.02824501066471464 0 0)
(0.02807883776461327 0 0)
(0.03016030122151596 0 0)
(0.03003088908536045 0 0)
(0.03277355151425639 0 0)
(0.03584413274540232 0 0)
(0.03251200929426972 0 0)
(0.03711020930691444 0 0)
(0.03776522840178187 0 0)
(0.0367494069019019 0 0)
(0.03377709643524036 0 0)
(0.03020769812004672 0 0)
(0.02738122334291111 0 0)
(0.0262975079383391 0 0)
(0.02580667106421268 0 0)
(0.02626204405163799 0 0)
(0.02811734449659181 0 0)
(0.03156921398562949 0 0)
(0.03396910268073245 0 0)
(0.03884723328507576 0 0)
(0.03552370707486271 0 0)
(0.03968782589987165 0 0)
(0.03975109306676015 0 0)
(0.03575038164460143 0 0)
(0.03188932888847159 0 0)
(0.03141152310687674 0 0)
(0.02797924875686719 0 0)
(0.02849128422387669 0 0)
(0.0284693223610798 0 0)
(0.02816339883669007 0 0)
(0.03150773744689962 0 0)
(0.03520536879278283 0 0)
(0.03828044774952111 0 0)
(0.0428562470508776 0 0)
(0.04237506542788964 0 0)
(0.04532599406764466 0 0)
(0.04725924822799164 0 0)
(0.04213383335073825 0 0)
(0.03941886693903429 0 0)
(0.03346766293092544 0 0)
(0.02906924999538571 0 0)
(0.02741620543595949 0 0)
(0.02921817556558446 0 0)
(0.02573074939203201 0 0)
(0.02913170853995913 0 0)
(0.03273662981679339 0 0)
(0.03455817554977397 0 0)
(0.03627296668444489 0 0)
(0.03751331066027393 0 0)
(0.04099500028715457 0 0)
(0.04417377758059318 0 0)
(0.04637531383613986 0 0)
(0.04736564147288928 0 0)
(0.04772273742157677 0 0)
(0.04907716626002498 0 0)
(0.04971462208036579 0 0)
(0.04476316813365561 0 0)
(0.04082989449388912 0 0)
(0.0356522306836994 0 0)
(0.03356093056356095 0 0)
(0.03153952463514526 0 0)
(0.03269378071800112 0 0)
(0.03245885203544346 0 0)
(0.03641861280634711 0 0)
(0.03846446410838136 0 0)
(0.04507129968333999 0 0)
(0.04662555181604474 0 0)
(0.0468045501555804 0 0)
(0.04625060291822604 0 0)
(0.04253237081374606 0 0)
(0.0353990719522955 0 0)
(0.03147614415111872 0 0)
(0.02461376757877386 0 0)
(0.02006543271779485 0 0)
(0.01966164080954702 0 0)
(0.02377291725937177 0 0)
(0.02458387314706762 0 0)
(0.03399118621807521 0 0)
(0.04480664678078509 0 0)
(0.05038676116882983 0 0)
(0.0565465806841567 0 0)
(0.05437865165105007 0 0)
(0.04821221672893507 0 0)
(0.04307670565403279 0 0)
(0.034181399379415 0 0)
(0.03099851158230692 0 0)
(0.02783803522415575 0 0)
(0.03258363399121227 0 0)
(0.03691233986997414 0 0)
(0.04534087513895989 0 0)
(0.04855490121792145 0 0)
(0.0506127592421966 0 0)
(0.05237518572512326 0 0)
(0.04593585539998998 0 0)
(0.04419980744357824 0 0)
(0.0422680117922848 0 0)
(0.04210692518466763 0 0)
(0.0466434016501978 0 0)
(0.05075954989272533 0 0)
(0.05555521792590748 0 0)
(0.05814768528938321 0 0)
(0.05894149649759122 0 0)
(0.05251981575216751 0 0)
(0.04913813180323078 0 0)
(0.03902354811184569 0 0)
(0.03487972302723893 0 0)
(0.03228993549371646 0 0)
(0.03264671376769419 0 0)
(0.03337170285683958 0 0)
(0.03873723543199956 0 0)
(0.04171273070329673 0 0)
(0.04786178978671753 0 0)
(0.05226833716307571 0 0)
(0.05860694021107063 0 0)
(0.06007264298387249 0 0)
(0.06330591479022218 0 0)
(0.06041465191308066 0 0)
(0.05744410067404758 0 0)
(0.05681979319739245 0 0)
(0.05354250530751998 0 0)
(0.05552551214920445 0 0)
(0.05630633555727606 0 0)
(0.05904323268925238 0 0)
(0.0612739944970563 0 0)
(0.06402976190834574 0 0)
(0.06486980464137401 0 0)
(0.06638076190346789 0 0)
(0.06691080711111473 0 0)
(0.06765561099302989 0 0)
(0.06855265904308479 0 0)
(0.06794805869795792 0 0)
(0.06648143502963989 0 0)
(0.06062324819099588 0 0)
(0.06056434769454089 0 0)
(0.05467161665101151 0 0)
(0.05318607839872456 0 0)
(0.05081489581182887 0 0)
(0.04793199303259235 0 0)
(0.05003112705397102 0 0)
(0.05513063177066011 0 0)
(0.05687620819307873 0 0)
(0.06458441538448419 0 0)
(0.06933011676855533 0 0)
(0.0728953761999904 0 0)
(0.0757359610756 0 0)
(0.08151365143631542 0 0)
(0.07978663440067532 0 0)
(0.07993653638718244 0 0)
(0.07819883769534998 0 0)
(0.07233043700662864 0 0)
(0.06604200480855243 0 0)
(0.06135143312974756 0 0)
(0.05444586385710959 0 0)
(0.05574820957408327 0 0)
(0.05854787770613808 0 0)
(0.06388360447866928 0 0)
(0.07084475426965398 0 0)
(0.07411919373673691 0 0)
(0.08171852969205264 0 0)
(0.08238876810914308 0 0)
(0.08013426442575841 0 0)
(0.07516894325453115 0 0)
(0.07067610155980952 0 0)
(0.06247467319469935 0 0)
(0.05620961719941865 0 0)
(0.05531894778366661 0 0)
(0.05485170949856323 0 0)
(0.06069676835155257 0 0)
(0.07130264538682864 0 0)
(0.077106537458093 0 0)
(0.08621357499549286 0 0)
(0.0913770356870628 0 0)
(0.09335685489998473 0 0)
(0.09480452559273918 0 0)
(0.09454907274424153 0 0)
(0.09080800927025481 0 0)
(0.08910897259725199 0 0)
(0.08915788979762303 0 0)
(0.08339103367319055 0 0)
(0.08075966789067233 0 0)
(0.0784960275089432 0 0)
(0.07676275422730551 0 0)
(0.08001409530981696 0 0)
(0.08314060364456784 0 0)
(0.08544552501664285 0 0)
(0.08713006106125734 0 0)
(0.09126938684661835 0 0)
(0.09098537375377273 0 0)
(0.09362630335362303 0 0)
(0.09028501334154013 0 0)
(0.08419037996790169 0 0)
(0.08167368725602329 0 0)
(0.08000106871053066 0 0)
(0.07618073908403199 0 0)
(0.0853586260697712 0 0)
(0.08949955333242524 0 0)
(0.09640654840990821 0 0)
(0.0982116057654034 0 0)
(0.1039885838232095 0 0)
(0.09913522472677309 0 0)
(0.09981486821488569 0 0)
(0.09328905571379913 0 0)
(0.09126692273417536 0 0)
(0.08689091467456024 0 0)
(0.08632408062063671 0 0)
(0.09118670970511913 0 0)
(0.09758293882648292 0 0)
(0.1010227514127323 0 0)
(0.1044349407701322 0 0)
(0.1043834257339102 0 0)
(0.1056731513107733 0 0)
(0.1020706269333557 0 0)
(0.1029237319863117 0 0)
(0.09832813226137861 0 0)
(0.09686362156976336 0 0)
(0.09463588079082808 0 0)
(0.09403195315836874 0 0)
(0.09445334041147865 0 0)
(0.09449815239107881 0 0)
(0.09955040577919871 0 0)
(0.1000470126373039 0 0)
(0.1041702439189805 0 0)
(0.1064051202309239 0 0)
(0.1056514125937241 0 0)
(0.1067228495237712 0 0)
(0.1026734370045015 0 0)
(0.09993292843861352 0 0)
(0.095478400015253 0 0)
(0.09282658437705672 0 0)
(0.09383419401695979 0 0)
(0.09627760037831594 0 0)
(0.09872139729029743 0 0)
(0.1017463384334477 0 0)
(0.1031316553262731 0 0)
(0.1060617491320538 0 0)
(0.1038373540400145 0 0)
(0.1018224371297683 0 0)
(0.1008761241259606 0 0)
(0.09950780786903932 0 0)
(0.10284754645218 0 0)
(0.1055394011624621 0 0)
(0.110568017153046 0 0)
(0.1131456261656679 0 0)
(0.1155192097400213 0 0)
(0.1120351726957454 0 0)
(0.1094399478327488 0 0)
(0.1033249154853363 0 0)
(0.1020187152633145 0 0)
(0.1028020978602317 0 0)
(0.1028607017401645 0 0)
(0.1077324355455875 0 0)
(0.1112098472435734 0 0)
(0.1167568989729547 0 0)
(0.1168928130692579 0 0)
(0.1152653884502477 0 0)
(0.1119292492951071 0 0)
(0.1089601583280967 0 0)
(0.1059232824465961 0 0)
(0.1064139035671635 0 0)
(0.1098983525740305 0 0)
(0.1115396855216398 0 0)
(0.1157432986086395 0 0)
(0.115788212751806 0 0)
(0.1171594944511979 0 0)
(0.1119174339451859 0 0)
(0.1115605997379093 0 0)
(0.110504402862568 0 0)
(0.1104179083348166 0 0)
(0.1160739360105885 0 0)
(0.1167491587036255 0 0)
(0.1234510060677673 0 0)
(0.1233879675395475 0 0)
(0.1213396764400139 0 0)
(0.1173013557510668 0 0)
(0.1124952185546743 0 0)
(0.108631582388367 0 0)
(0.1080449930058546 0 0)
(0.1081276196672709 0 0)
(0.1110076844905705 0 0)
(0.1152978008944368 0 0)
(0.1188809696915748 0 0)
(0.1210921945147271 0 0)
(0.1200260792466969 0 0)
(0.1218519227360088 0 0)
(0.119818465739193 0 0)
(0.120204910376035 0 0)
(0.1201575521239887 0 0)
(0.1200937371018653 0 0)
(0.1234903312644746 0 0)
(0.1235998796459248 0 0)
(0.1263798227778041 0 0)
(0.1278804226318141 0 0)
(0.1256291734718611 0 0)
(0.1259892409892867 0 0)
(0.1227621071691507 0 0)
(0.1234726027617793 0 0)
(0.1212129926872348 0 0)
(0.1216555640860333 0 0)
(0.1234056299945308 0 0)
(0.1269417411710495 0 0)
(0.1292743668770002 0 0)
(0.1323203018451558 0 0)
(0.1341686500394595 0 0)
(0.1344748112659399 0 0)
(0.134312516465315 0 0)
(0.1314147555327374 0 0)
(0.1294640543491165 0 0)
(0.127474897864747 0 0)
(0.1269841952744061 0 0)
(0.1238586178408229 0 0)
(0.1287546369493377 0 0)
(0.1277426279455853 0 0)
(0.1329392495052889 0 0)
(0.1330980044419799 0 0)
(0.1398537533193573 0 0)
(0.1400505005863194 0 0)
(0.1425893651772094 0 0)
(0.14013084793786 0 0)
(0.1375650869383925 0 0)
(0.1318257678847751 0 0)
(0.1280931201593058 0 0)
(0.1249332666502426 0 0)
(0.125089809531381 0 0)
(0.1233585978060715 0 0)
(0.1254458279277084 0 0)
(0.1293371601280513 0 0)
(0.1324373507615435 0 0)
(0.1346666257483085 0 0)
(0.140627261574232 0 0)
(0.1410107740962918 0 0)
(0.1420187162497513 0 0)
(0.1372999653106302 0 0)
(0.1350579858887481 0 0)
(0.1323775124903969 0 0)
(0.1313088942875952 0 0)
(0.1355599393852446 0 0)
(0.1383684938274531 0 0)
(0.1468000349106582 0 0)
(0.1490226201421437 0 0)
(0.1542398848295922 0 0)
(0.1504814459620724 0 0)
(0.149506019609786 0 0)
(0.1440356153288692 0 0)
(0.1421180036277177 0 0)
(0.1404995633874591 0 0)
(0.144076594278625 0 0)
(0.1479110757279622 0 0)
(0.1534764220625307 0 0)
(0.1577643450770111 0 0)
(0.159224187568958 0 0)
(0.1598818021365611 0 0)
(0.1590321295011815 0 0)
(0.1561007827788211 0 0)
(0.1536900543701042 0 0)
(0.1521573341428508 0 0)
(0.1550793212402682 0 0)
(0.1562551315458252 0 0)
(0.1572097057820691 0 0)
(0.1586677156999683 0 0)
(0.1590155339951058 0 0)
(0.1627167478172959 0 0)
(0.1616020262341473 0 0)
(0.1625875093539446 0 0)
(0.1639622819611985 0 0)
(0.1623249994860562 0 0)
(0.1620132299026996 0 0)
(0.1642535924849811 0 0)
(0.162506789912401 0 0)
(0.1614346539322253 0 0)
(0.1601073819387965 0 0)
(0.1616307069716966 0 0)
(0.1626429806648353 0 0)
(0.1603540973066084 0 0)
(0.1613393393891638 0 0)
(0.1620192696816756 0 0)
(0.1647834616696857 0 0)
(0.1664500088849971 0 0)
(0.1683424900046087 0 0)
(0.1703511933621912 0 0)
(0.1730671484931924 0 0)
(0.1764655869678312 0 0)
(0.1763032025030023 0 0)
(0.1787933737352726 0 0)
(0.1779315179084371 0 0)
(0.1791756128404675 0 0)
(0.177580046911382 0 0)
(0.1741268799789142 0 0)
(0.1717917881445055 0 0)
(0.1724708456893689 0 0)
(0.1728831465060556 0 0)
(0.1773672307787873 0 0)
(0.1760082519868995 0 0)
(0.1771441926210242 0 0)
(0.1811844729547865 0 0)
(0.1807893314131724 0 0)
(0.1845443926858376 0 0)
(0.1816154133628763 0 0)
(0.1853280258318397 0 0)
(0.1801672841683378 0 0)
(0.1817944244852263 0 0)
(0.1801268217524524 0 0)
(0.1804562405278885 0 0)
(0.1791728961474003 0 0)
(0.1750573106186017 0 0)
(0.1747251308969409 0 0)
(0.1762777493761835 0 0)
(0.1756643236906064 0 0)
(0.1809327962381043 0 0)
(0.1822732987879303 0 0)
(0.1909587752649156 0 0)
(0.1939611213950759 0 0)
(0.1945618789188549 0 0)
(0.1893408734082377 0 0)
(0.1858669663651473 0 0)
(0.1812576799698201 0 0)
(0.1761946301725912 0 0)
(0.171634557585635 0 0)
(0.1713343193600582 0 0)
(0.1791317225403334 0 0)
(0.1818324770564258 0 0)
(0.1911341121488861 0 0)
(0.1984005067375024 0 0)
(0.2069370764109511 0 0)
(0.2034260561492675 0 0)
(0.2036691439631997 0 0)
(0.1971854316545824 0 0)
(0.1930533986815973 0 0)
(0.1916664488499734 0 0)
(0.1916141702612308 0 0)
(0.1976079403583946 0 0)
(0.2004217981151548 0 0)
(0.2055008636520072 0 0)
(0.2102324622744713 0 0)
(0.2142942468062721 0 0)
(0.2175749238919492 0 0)
(0.2153098616659303 0 0)
(0.2168554879377195 0 0)
(0.2139460567099409 0 0)
(0.2149188051659777 0 0)
(0.213026637269404 0 0)
(0.2139762581696145 0 0)
(0.2151331745196751 0 0)
(0.2177014126827096 0 0)
(0.2200708482856752 0 0)
(0.2280211011601437 0 0)
(0.2329051431496305 0 0)
(0.2363104204939924 0 0)
(0.2383170298413398 0 0)
(0.237439279983899 0 0)
(0.2348200530300905 0 0)
(0.2311948687059508 0 0)
(0.2249073082287181 0 0)
(0.2214042258491656 0 0)
(0.2186200071610723 0 0)
(0.221765669541667 0 0)
(0.225729078055287 0 0)
(0.2335574582897033 0 0)
(0.2414529559021137 0 0)
(0.2511342836477261 0 0)
(0.2502974768780862 0 0)
(0.2467025351609827 0 0)
(0.2419889190911001 0 0)
(0.2342995774816679 0 0)
(0.2277531911477877 0 0)
(0.2272020649864262 0 0)
(0.2273087197900373 0 0)
(0.2340951466785781 0 0)
(0.2356351991503836 0 0)
(0.2387237191233203 0 0)
(0.2443930296484663 0 0)
(0.2485727037547913 0 0)
(0.2538799222193653 0 0)
(0.2540153524216696 0 0)
(0.2563617965510768 0 0)
(0.2578940513387264 0 0)
(0.2595861915575636 0 0)
(0.2634850703370271 0 0)
(0.2657908270694908 0 0)
(0.2687685585282558 0 0)
(0.2691606192748554 0 0)
(0.2729100806596205 0 0)
(0.2719428648810694 0 0)
(0.2772773674889166 0 0)
(0.2730147525978803 0 0)
(0.2738628971465925 0 0)
(0.2726308352339639 0 0)
(0.2790247978899111 0 0)
(0.2834946846504131 0 0)
(0.2890181894249144 0 0)
(0.295068201139507 0 0)
(0.300794029554299 0 0)
(0.3009569467309411 0 0)
(0.3019281516179177 0 0)
(0.2925249160806763 0 0)
(0.2943793332978265 0 0)
(0.2854443524666627 0 0)
(0.2864031627106599 0 0)
(0.2852110244554341 0 0)
(0.2971952417363682 0 0)
(0.2978183585745037 0 0)
(0.3074537405615087 0 0)
(0.3081198517235901 0 0)
(0.3159011730711032 0 0)
(0.3089311245644459 0 0)
(0.3067828360477677 0 0)
(0.3043028763687304 0 0)
(0.3054695009033878 0 0)
(0.3024358976477122 0 0)
(0.3067583025231188 0 0)
(0.3119983221435951 0 0)
(0.3173948009422674 0 0)
(0.3175912020069813 0 0)
(0.3242662555826848 0 0)
(0.3239206470282787 0 0)
(0.3286559335489984 0 0)
(0.3266681449202867 0 0)
(0.3322230559895623 0 0)
(0.3299298877261858 0 0)
(0.3285648850182944 0 0)
(0.3281815846284536 0 0)
(0.3302561682972557 0 0)
(0.333673060565676 0 0)
(0.3366571552816757 0 0)
(0.3408269515423903 0 0)
(0.3496629126208155 0 0)
(0.3545417072212321 0 0)
(0.3574795259916183 0 0)
(0.3531165822772824 0 0)
(0.3479572377436321 0 0)
(0.3464716314335374 0 0)
(0.3479136920213997 0 0)
(0.3475247845146713 0 0)
(0.3525041863344011 0 0)
(0.3555546911232114 0 0)
(0.3645601415220179 0 0)
(0.3660647773993471 0 0)
(0.3663847994789144 0 0)
(0.3713129343602059 0 0)
(0.3637015585104791 0 0)
(0.3649557997394658 0 0)
(0.362790293069057 0 0)
(0.3676962965446201 0 0)
(0.3674194697783238 0 0)
(0.3707378739195807 0 0)
(0.3709874150467853 0 0)
(0.3751568123999207 0 0)
(0.3825479652618864 0 0)
(0.3888076209524424 0 0)
(0.3864920507241385 0 0)
(0.385040659036766 0 0)
(0.3819104288838923 0 0)
(0.378364050341691 0 0)
(0.3808186090568814 0 0)
(0.3776570876648255 0 0)
(0.3849306823235911 0 0)
(0.3861971652115314 0 0)
(0.398280224685972 0 0)
(0.4055585233299708 0 0)
(0.4096202025141412 0 0)
(0.4044688362636279 0 0)
(0.40281498383769 0 0)
(0.3989515312221376 0 0)
(0.3991894006731568 0 0)
(0.3986585837919304 0 0)
(0.4028095581324357 0 0)
(0.405478564672137 0 0)
(0.4074618789684624 0 0)
(0.4168649142189234 0 0)
(0.4210401628002627 0 0)
(0.4231326394914677 0 0)
(0.4246305558345765 0 0)
(0.4280868903017098 0 0)
(0.4246133182979682 0 0)
(0.4278629343735064 0 0)
(0.4237497666073693 0 0)
(0.4286612029676914 0 0)
(0.4279461281227567 0 0)
(0.4366747647354551 0 0)
(0.4385287981864142 0 0)
(0.4443056880314376 0 0)
(0.4500304777057302 0 0)
(0.4551267926377699 0 0)
(0.46071311406218 0 0)
(0.4569258178506996 0 0)
(0.4595733131760373 0 0)
(0.4558042304743815 0 0)
(0.4629337445246368 0 0)
(0.4643917274796902 0 0)
(0.469906244761881 0 0)
(0.4726005374936317 0 0)
(0.4771762685005675 0 0)
(0.4781344492309597 0 0)
(0.4855733714718931 0 0)
(0.4823973205187562 0 0)
(0.4881430529094605 0 0)
(0.4874863920505423 0 0)
(0.4924639611860476 0 0)
(0.4962016745256159 0 0)
(0.5019702422101548 0 0)
(0.506134288962549 0 0)
(0.5122012570290897 0 0)
(0.5103458426456554 0 0)
(0.5132618979385023 0 0)
(0.5101343235836709 0 0)
(0.5143857978557936 0 0)
(0.5120200233340226 0 0)
(0.5185559404290212 0 0)
(0.5212118625773505 0 0)
(0.525859902799094 0 0)
(0.533134018259154 0 0)
(0.5347642676061281 0 0)
(0.5398677375469398 0 0)
(0.5433334989135012 0 0)
(0.5468450340601629 0 0)
(0.5463357657371698 0 0)
(0.546715761627619 0 0)
(0.5510187756992952 0 0)
(0.5544509886584299 0 0)
(0.5605505742733433 0 0)
(0.5643899995126129 0 0)
(0.5690377369592892 0 0)
(0.5741180533443604 0 0)
(0.5773795384171192 0 0)
(0.5799988910242172 0 0)
(0.5791814986847573 0 0)
(0.5796107142949206 0 0)
(0.5831439533671076 0 0)
(0.5910734816316531 0 0)
(0.5987972778355711 0 0)
(0.6047615111584602 0 0)
(0.6094633278219213 0 0)
(0.6113681936936073 0 0)
(0.6149789338653142 0 0)
(0.6155329380729307 0 0)
(0.6162722004566755 0 0)
(0.6141466273654715 0 0)
(0.6169268407015238 0 0)
(0.6225073275103409 0 0)
(0.6275922651758314 0 0)
(0.6355574222639206 0 0)
(0.6413041537116732 0 0)
(0.6441532413070092 0 0)
(0.6479462343474591 0 0)
(0.6475695176612918 0 0)
(0.6464868990645134 0 0)
(0.6457430780942501 0 0)
(0.6453891764410042 0 0)
(0.6495948416145445 0 0)
(0.6561911144291209 0 0)
(0.6669584079836954 0 0)
(0.6678991840556012 0 0)
(0.6800638299470757 0 0)
(0.6828535559679528 0 0)
(0.6829006510931085 0 0)
(0.6806882808126933 0 0)
(0.6751226519557758 0 0)
(0.6741640288474214 0 0)
(0.6768721403189262 0 0)
(0.6827651411413246 0 0)
(0.6886517621153391 0 0)
(0.7000210649818679 0 0)
(0.711366706431242 0 0)
(0.7219843116737034 0 0)
(0.7280430804538572 0 0)
(0.7229798147485816 0 0)
(0.7215762254460165 0 0)
(0.7194904963037011 0 0)
(0.7180223421269919 0 0)
(0.727985145868068 0 0)
(0.7376644246056393 0 0)
(0.7475008622017644 0 0)
(0.7575329202670916 0 0)
(0.7680203326187178 0 0)
(0.7747025952748235 0 0)
(0.7744069087279406 0 0)
(0.7712859545087206 0 0)
(0.7680246658210411 0 0)
(0.765914356917573 0 0)
(0.7660731022706851 0 0)
(0.7770807026254823 0 0)
(0.7846466830353209 0 0)
(0.7980893127770962 0 0)
(0.804953921329792 0 0)
(0.814170514528099 0 0)
(0.8164004283614917 0 0)
(0.8146800062665315 0 0)
(0.816303453849639 0 0)
(0.8131795222321238 0 0)
(0.8124427646215669 0 0)
(0.8165839143626955 0 0)
(0.8159075731108953 0 0)
(0.8252398968449061 0 0)
(0.8334921940636496 0 0)
(0.8413251284877188 0 0)
(0.8465012161770206 0 0)
(0.8485858135949956 0 0)
(0.8517386633290023 0 0)
(0.8527377041285248 0 0)
(0.855125136452449 0 0)
(0.8566771166738628 0 0)
(0.8566965552389851 0 0)
(0.8605098788688127 0 0)
(0.8669558085032797 0 0)
(0.8716546097916587 0 0)
(0.8779151100827818 0 0)
(0.8814110372486585 0 0)
(0.8834520246389878 0 0)
(0.8866129748132943 0 0)
(0.8905320305468247 0 0)
(0.8954412844856313 0 0)
(0.8982833997962343 0 0)
(0.903728061223678 0 0)
(0.9099257907077182 0 0)
(0.9136286437055654 0 0)
(0.9194932765631907 0 0)
(0.924571843730383 0 0)
(0.9252175055903286 0 0)
(0.9283315072657475 0 0)
(0.931653189443409 0 0)
(0.9310698650863146 0 0)
(0.9385592671578833 0 0)
(0.9419358902949607 0 0)
(0.9473033382172785 0 0)
(0.9545083198687829 0 0)
(0.9603961109723698 0 0)
(0.9649249835869741 0 0)
(0.9685886724847261 0 0)
(0.9701992286462409 0 0)
(0.9692492826660858 0 0)
(0.9709548749354366 0 0)
(0.970810993868204 0 0)
(0.9722757045942001 0 0)
(0.9783602973327231 0 0)
(0.9830098727665777 0 0)
(0.9886215824882467 0 0)
(0.9964732068518937 0 0)
(1.000500658693871 0 0)
(1.007023348790403 0 0)
(1.013039819768579 0 0)
(1.016997474136608 0 0)
(1.018316109014578 0 0)
(1.020671396297427 0 0)
(1.019915337283307 0 0)
(1.020069672334396 0 0)
(1.022390979587958 0 0)
(1.02695861290742 0 0)
(1.034178576859469 0 0)
(1.042229629193326 0 0)
(1.049700656956609 0 0)
(1.056385807340414 0 0)
(1.061416942569833 0 0)
(1.063496453154817 0 0)
(1.062729140970324 0 0)
(1.065290027491915 0 0)
(1.064544619665277 0 0)
(1.069132142799853 0 0)
(1.076217667582379 0 0)
(1.084255758151067 0 0)
(1.0905008761318 0 0)
(1.095896175278314 0 0)
(1.098982237401715 0 0)
(1.10051845275258 0 0)
(1.103519316229587 0 0)
(1.102714014533526 0 0)
(1.106951780792514 0 0)
(1.113877148261835 0 0)
(1.122372282859169 0 0)
(1.131182924183503 0 0)
(1.135950481770388 0 0)
(1.140161369101818 0 0)
(1.140132606326937 0 0)
(1.138841134810894 0 0)
(1.139949844257115 0 0)
(1.140233325268859 0 0)
(1.146298355148399 0 0)
(1.154943040058874 0 0)
(1.161582086127396 0 0)
(1.171004419199514 0 0)
(1.178802828515315 0 0)
(1.179525607918407 0 0)
(1.180681497540795 0 0)
(1.178404917849108 0 0)
(1.176889300041011 0 0)
(1.177525083350484 0 0)
(1.181952691374107 0 0)
(1.185730929240258 0 0)
(1.195175804445581 0 0)
(1.201537870058381 0 0)
(1.207788277241741 0 0)
(1.20971699926641 0 0)
(1.211758094555719 0 0)
(1.210087072128165 0 0)
(1.210862609327923 0 0)
(1.214636087262764 0 0)
(1.218754697127069 0 0)
(1.223472766241849 0 0)
(1.230882979714709 0 0)
(1.237999279645104 0 0)
(1.239589073486775 0 0)
(1.244600599859392 0 0)
(1.245934489168883 0 0)
(1.248465575428078 0 0)
(1.25526024451056 0 0)
(1.261437720840683 0 0)
(1.267122742442997 0 0)
(1.275599937080959 0 0)
(1.282863219276155 0 0)
(1.285988336363288 0 0)
(1.288677897410837 0 0)
(1.288338381413571 0 0)
(1.289817896215833 0 0)
(1.303741270316773 0 0)
)
;

boundaryField
{
    inlet
    {
        type            calculated;
        value           uniform (0.01335564223963737 0 0);
    }
    outlet
    {
        type            calculated;
        value           uniform (1.303741270316773 0 0);
    }
    frontAndBack
    {
        type            empty;
    }
}


// ************************************************************************* //
