/*--------------------------------*- C++ -*----------------------------------*\
| =========                 |                                                 |
| \\      /  F ield         | OpenFOAM: The Open Source CFD Toolbox           |
|  \\    /   O peration     | Version:  v2012                                 |
|   \\  /    A nd           | Website:  www.openfoam.com                      |
|    \\/     M anipulation  |                                                 |
\*---------------------------------------------------------------------------*/
FoamFile
{
    version     2.0;
    format      ascii;
    class       volScalarField;
    location    "0.002";
    object      rho;
}
// * * * * * * * * * * * * * * * * * * * * * * * * * * * * * * * * * * * * * //

dimensions      [1 -3 0 0 0 0 0];


internalField   nonuniform List<scalar> 
100
(
0.999645
0.999645
0.999645
0.999645
0.999645
0.999645
0.999645
0.999645
0.999645
0.999645
0.999645
0.999645
0.999645
0.999645
0.999645
0.999645
0.999645
0.999645
0.999645
0.999645
0.999645
0.999645
0.999645
0.999645
0.999645
0.999645
0.999645
0.999645
0.999645
0.999645
0.999645
0.999645
0.999645
0.999645
0.999645
0.999645
0.999645
0.999645
0.999644
0.999491
0.996174
0.976872
0.931328
0.867437
0.796954
0.726378
0.658104
0.593179
0.53082
0.475765
0.431703
0.413321
0.419725
0.409169
0.386685
0.34956
0.307988
0.283105
0.27327
0.263421
0.233502
0.168129
0.128414
0.124981
0.124955
0.124955
0.124955
0.124955
0.124955
0.124955
0.124955
0.124955
0.124955
0.124955
0.124955
0.124955
0.124955
0.124955
0.124955
0.124955
0.124955
0.124955
0.124955
0.124955
0.124955
0.124955
0.124955
0.124955
0.124955
0.124955
0.124955
0.124955
0.124955
0.124955
0.124955
0.124955
0.124955
0.124955
0.124955
0.124955
)
;

boundaryField
{
    sides
    {
        type            calculated;
        value           nonuniform List<scalar> 2(0.124955 0.999645);
    }
    empty
    {
        type            empty;
    }
}


// ************************************************************************* //
