/*--------------------------------*- C++ -*----------------------------------*\
| =========                 |                                                 |
| \\      /  F ield         | OpenFOAM: The Open Source CFD Toolbox           |
|  \\    /   O peration     | Version:  v2012                                 |
|   \\  /    A nd           | Website:  www.openfoam.com                      |
|    \\/     M anipulation  |                                                 |
\*---------------------------------------------------------------------------*/
FoamFile
{
    version     2.0;
    format      ascii;
    class       volVectorField;
    location    "0.002";
    object      U;
}
// * * * * * * * * * * * * * * * * * * * * * * * * * * * * * * * * * * * * * //

dimensions      [0 1 -1 0 0 0 0];


internalField   nonuniform List<vector> 
100
(
(-1.43624e-13 0 0)
(-1.47257e-13 0 0)
(-1.81242e-13 0 0)
(-1.43774e-13 0 0)
(-6.48939e-14 0 0)
(-4.10857e-14 0 0)
(-4.50759e-15 0 0)
(-2.10103e-16 0 0)
(-8.10864e-15 0 0)
(-2.74174e-14 0 0)
(2.18822e-14 0 0)
(4.15697e-14 0 0)
(1.16854e-13 0 0)
(1.49947e-13 0 0)
(1.10659e-13 0 0)
(1.14351e-13 0 0)
(-2.97911e-15 0 0)
(-4.7313e-14 0 0)
(-1.9778e-14 0 0)
(4.88933e-15 0 0)
(-3.79781e-14 0 0)
(-5.40183e-14 0 0)
(-5.34576e-14 0 0)
(-3.84862e-14 0 0)
(4.60105e-14 0 0)
(1.17112e-14 0 0)
(-7.82317e-14 0 0)
(-2.82591e-14 0 0)
(9.83117e-14 0 0)
(1.83285e-13 0 0)
(1.71388e-13 0 0)
(-8.15992e-15 0 0)
(-9.91408e-14 0 0)
(-1.08303e-13 0 0)
(-1.39514e-13 0 0)
(-6.94045e-14 0 0)
(3.50813e-11 0 0)
(4.44148e-07 0 0)
(0.000466127 0 0)
(0.0576594 0 0)
(1.29773 0 0)
(8.56497 0 0)
(26.1625 0 0)
(52.0704 0 0)
(82.5164 0 0)
(115.344 0 0)
(149.595 0 0)
(185.13 0 0)
(221.619 0 0)
(259.157 0 0)
(288.606 0 0)
(300.157 0 0)
(292.019 0 0)
(292.741 0 0)
(293.953 0 0)
(294.952 0 0)
(295.048 0 0)
(299.609 0 0)
(302.41 0 0)
(292.287 0 0)
(247.863 0 0)
(117.263 0 0)
(10.1416 0 0)
(0.0705139 0 0)
(2.65298e-05 0 0)
(7.01241e-10 0 0)
(1.52568e-13 0 0)
(8.16808e-14 0 0)
(2.94795e-14 0 0)
(-1.70568e-14 0 0)
(3.30374e-14 0 0)
(9.34741e-14 0 0)
(2.57724e-14 0 0)
(3.68915e-14 0 0)
(4.57822e-15 0 0)
(-3.67865e-14 0 0)
(7.26111e-15 0 0)
(5.29903e-14 0 0)
(7.90351e-14 0 0)
(5.25859e-14 0 0)
(5.2634e-14 0 0)
(6.01942e-16 0 0)
(-1.47076e-14 0 0)
(1.65772e-14 0 0)
(-1.34997e-14 0 0)
(-4.08247e-15 0 0)
(-6.66929e-14 0 0)
(-1.24287e-13 0 0)
(2.50115e-15 0 0)
(-6.26273e-14 0 0)
(-1.17545e-13 0 0)
(-1.90552e-13 0 0)
(-1.46874e-13 0 0)
(-1.80585e-13 0 0)
(-8.13993e-14 0 0)
(-3.40189e-14 0 0)
(1.5533e-14 0 0)
(-1.7623e-14 0 0)
(-2.01773e-14 0 0)
(2.09642e-14 0 0)
)
;

boundaryField
{
    sides
    {
        type            zeroGradient;
    }
    empty
    {
        type            empty;
    }
}


// ************************************************************************* //
