/*--------------------------------*- C++ -*----------------------------------*\
| =========                 |                                                 |
| \\      /  F ield         | OpenFOAM: The Open Source CFD Toolbox           |
|  \\    /   O peration     | Version:  v2012                                 |
|   \\  /    A nd           | Website:  www.openfoam.com                      |
|    \\/     M anipulation  |                                                 |
\*---------------------------------------------------------------------------*/
FoamFile
{
    version     2.0;
    format      ascii;
    class       volScalarField;
    location    "0.013";
    object      p;
}
// * * * * * * * * * * * * * * * * * * * * * * * * * * * * * * * * * * * * * //

dimensions      [1 -1 -2 0 0 0 0];


internalField   nonuniform List<scalar> 
1000
(
101311.5981070604
101314.2486271479
101307.465852713
101302.1295348636
101296.2159623064
101290.8920232658
101286.3110678751
101282.3923684846
101278.9958599664
101276.6192282273
101275.8413776677
101275.838992105
101276.1633885043
101277.0916643094
101278.9551872826
101281.8565986258
101285.6989677909
101290.3011961865
101295.5062019053
101301.2068653736
101307.3208792452
101313.7617601827
101320.425681176
101327.1912149404
101333.9242235603
101340.4856148413
101346.7485595858
101352.6346864442
101358.1526582026
101363.3599922482
101368.1193231156
101371.6947759464
101373.2201620079
101373.3997297244
101373.3562786655
101373.1283859975
101372.4788032351
101371.1492227058
101368.9073977761
101365.6252561661
101361.3226786373
101356.1531925083
101350.3358757934
101344.0784193464
101337.5369172985
101330.8223101939
101324.0301368027
101317.2645119986
101310.6380508804
101304.2415940731
101298.0996950022
101292.1680461721
101286.469460173
101281.4500718021
101278.1907862171
101277.1580178025
101277.09261166
101277.1277630611
101277.3453057224
101277.9037659542
101279.0275901127
101280.9304263058
101283.7809510511
101287.6541467918
101292.5060503355
101298.1813536431
101304.4560337872
101311.0970049821
101317.9084244264
101324.7452606244
101331.504113148
101338.1193456782
101344.576051488
101350.9146834217
101357.1777642463
101363.2328665946
101368.4302401492
101371.5865161046
101372.4949034111
101372.5525321344
101372.4985320563
101372.3257802294
101371.8517876342
101370.9086981321
101369.2981606155
101366.8412405813
101363.4114406096
101358.9712760416
101353.5897043567
101347.4329826066
101340.7322809682
101333.7377230594
101326.6700060953
101319.6823902334
101312.8436351492
101306.1429500561
101299.5163603183
101292.9263302116
101286.5885262709
101281.3555735892
101278.4783661945
101277.7945197356
101277.7747370162
101277.8048882192
101277.9882316364
101278.4280113911
101279.2956569278
101280.7642984253
101283.0028793463
101286.1451474346
101290.2611887265
101295.3325434213
101301.2428568866
101307.7935266215
101314.7419725985
101321.8496491666
101328.9282468248
101335.8769984165
101342.6984360211
101349.4688238411
101356.2295371403
101362.7453085815
101368.1461621012
101371.1651487465
101371.9277568596
101371.9688035291
101371.9261529486
101371.78956391
101371.4184591809
101370.6804813492
101369.4124464841
101367.4504336812
101364.648118222
101360.9045438694
101356.1889137256
101350.5569223215
101344.1536816707
101337.1962940177
101329.9312580874
101322.575743408
101315.2653707527
101308.0337770663
101300.8415620953
101293.6938196074
101286.9249720343
101281.562641055
101278.8490177039
101278.2651787286
101278.2531520841
101278.3033191924
101278.4764195637
101278.859374534
101279.5817457541
101280.7838829718
101282.6139762402
101285.2102964731
101288.6808606144
101293.0800317831
101298.3890212061
101304.5079513852
101311.2648865181
101318.4441756206
101325.8309633688
101333.2640722183
101340.6742590391
101348.0639485026
101355.4045954803
101362.359874055
101367.8857352753
101370.8385750777
101371.473390962
101371.4575313576
101371.2940559324
101371.0223735982
101370.6553776218
101370.0675793523
101369.121340848
101367.6623049406
101365.5269167893
101362.5629415659
101358.6565964585
101353.7587910594
101347.9038047008
101341.2123201702
101333.8717484183
101326.0998575636
101318.0910073819
101309.9742972186
101301.8409859773
101293.845052509
101286.5169184802
101281.1945124968
101278.5418012307
101278.1237520457
101278.3646874448
101278.8316315536
101279.4540227855
101280.3219637544
101281.2380913872
101282.4051066766
101283.9398616299
101285.9518099654
101288.5399386324
101291.7914461039
101295.7667460032
101300.4819028897
101305.9000377234
101311.9397066948
101318.5058481111
101325.523709435
101332.9622641477
101340.8556486682
101349.1692647342
101357.3659581866
101364.4895566029
101368.7717081742
101372.229975402
101375.0087454638
101377.3551901112
101379.3909022232
101381.1243691324
101382.4793190885
101383.2153684099
101383.0672392814
101381.9488071847
101379.7523309491
101376.2840925513
101371.4504218107
101365.2989804504
101357.9971988098
101349.7758722468
101340.8810157232
101331.5171768901
101321.8491645925
101312.0825638597
101302.5892484809
101294.17352082
101287.989595269
101284.4115169772
101282.6618578272
101281.9042905706
101281.7694186112
101282.1817071389
101282.8916365374
101283.86703524
101285.0596209808
101286.5218642866
101288.3505766447
101290.6713012148
101293.6111956616
101297.2680795553
101301.6882839946
101306.8606675129
101312.7317313077
101319.2441705208
101326.3643419134
101334.0456323292
101342.1548814034
101350.5161727206
101358.5354720113
101365.7056280774
101370.8055276585
101373.9039205672
101376.6420795401
101378.9346042551
101380.9446925586
101382.6503153188
101383.9344768338
101384.7776408922
101384.8964500766
101384.1215110138
101382.4916193884
101379.7521160695
101375.7559086252
101370.4270856371
101363.8138783948
101356.0758059825
101347.4361628206
101338.1140631305
101328.3146839186
101318.311684012
101308.5247320939
101299.6721013985
101292.8361133106
101288.6770359418
101286.5973112346
101285.6283815027
101285.2619644038
101285.4300926391
101285.9229316894
101286.6958626087
101287.7034274333
101288.9746485525
101290.5900048093
101292.6624063199
101295.3191197482
101298.678835042
101302.828963417
101307.8100989884
101313.6134905623
101320.1933560706
101327.4853709797
101335.3992460693
101343.7668225885
101352.3486510082
101360.6873495145
101368.1874414932
101373.9240303366
101376.9107109237
101379.4826432607
101381.5963608991
101383.4453922599
101385.05583986
101386.3442522892
101387.258036842
101387.5564000706
101387.0955852682
101385.9029499133
101383.7535373669
101380.4484672947
101375.8586073971
101369.9630954405
101362.828112934
101354.5919513252
101345.4479511599
101335.6245010272
101325.415676924
101315.2388522226
101305.7795338609
101298.1610202241
101293.3142717415
101290.8260579035
101289.644822061
101289.1519925876
101289.066526122
101289.3348874226
101289.8545149185
101290.5809625788
101291.5413503079
101292.8243183219
101294.5513275539
101296.8573441903
101299.875488306
101303.7231685733
101308.4850487409
101314.1950147996
101320.8303382457
101328.323919882
101336.5643988869
101345.3785834748
101354.4750790967
101363.3433699363
101371.3821381013
101377.7536822212
101381.2853359847
101383.5041162027
101385.3864329716
101387.0016832997
101388.4310998611
101389.6277903973
101390.509558734
101390.9082256501
101390.7099714813
101389.8756420508
101388.206970154
101385.4980917754
101381.6095075965
101376.4552584263
101369.9947090053
101362.2676778616
101353.417942241
101343.6582422697
101333.2761323084
101322.69497206
101312.565006989
101304.0103852594
101298.2398613733
101295.1757669453
101293.726138773
101293.1431379755
101292.927399135
101293.0671096217
101293.4066558652
101293.8918601037
101294.5485451076
101295.4604362868
101296.7552295105
101298.5890947645
101301.1295336758
101304.5332214379
101308.9267843067
101314.3932349028
101320.9590092013
101328.5761460799
101337.1212837564
101346.4085593992
101356.1296588404
101365.7850003341
101374.6969366391
101381.8825224915
101386.3178352831
101388.5883551822
101390.5156205951
101391.9854073779
101393.1379747766
101394.0449900753
101394.7182061781
101395.0631820159
101394.9965952893
101394.4303687526
101393.1567214016
101390.9803467435
101387.7386713296
101383.281390223
101377.5007405681
101370.3709956427
101361.9608836399
101352.4147168673
101341.9733753488
101331.0436105084
101320.2430879257
101310.6544219554
101303.7285559852
101299.8590686393
101297.9573734721
101297.1107607367
101296.7418488854
101296.8606651362
101297.1866681633
101297.6293350415
101298.1474768814
101298.7838626077
101299.6626711461
101300.9664039702
101302.9035624882
101305.6773651548
101309.4696316464
101314.4285525758
101320.6451534487
101328.1259792842
101336.7859664488
101346.4642463278
101356.8527254907
101367.4434144738
101377.5454483028
101385.9678845537
101391.5037801312
101394.5918895828
101396.8417073798
101398.4081819045
101399.4350503669
101400.1124142528
101400.4915411039
101400.6134911832
101400.5014180545
101400.0398769513
101399.0196600457
101397.2489851426
101394.5516041389
101390.7654959372
101385.7362711523
101379.3302205835
101371.496719636
101362.3155178782
101351.9831338499
101340.8655910844
101329.5541486579
101318.9788699467
101310.6401614277
101305.4862064906
101302.7723950193
101301.3444202665
101300.6604217188
101300.6568308975
101300.9746202091
101301.4892348029
101302.0755546926
101302.7099444483
101303.4353503381
101304.3955147738
101305.8120120927
101307.939992254
101311.0185057618
101315.2385027335
101320.7373279457
101327.6111912575
101335.8950169732
101345.5186497718
101356.2093071006
101367.4471952129
101378.6130244321
101388.5723410544
101395.7265046902
101400.1744859418
101403.501520639
101405.7787404933
101407.2559440621
101408.2322149225
101408.872626293
101409.1734690049
101409.1722629902
101408.9130638615
101408.2683938648
101407.0633824035
101405.0797276146
101402.0697442614
101397.8031975814
101392.1171797207
101384.9396569886
101376.281508896
101366.2193444943
101355.0151132415
101343.2460125301
101331.7432746824
101321.9002457196
101315.148187721
101311.1204237448
101308.6563388183
101307.0811070496
101306.4428739634
101306.4589931718
101306.7457889544
101307.1952259138
101307.7373779675
101308.3804040229
101309.21378136
101310.4066533949
101312.1812319908
101314.7765288865
101318.4185107385
101323.3019027985
101329.5733887203
101337.2972308451
101346.4199469248
101356.7895972126
101368.0472821162
101379.619327038
101390.6426265293
101399.429769475
101405.3229977136
101410.2659199313
101414.0690361166
101417.033296251
101419.4251612934
101421.3764522603
101422.9569142801
101424.2236282958
101425.2020473988
101425.6640883379
101425.4107879967
101424.3980568487
101422.398559809
101419.1353406835
101414.3587905636
101407.8906120266
101399.6528458972
101389.6934696746
101378.237411885
101365.822333283
101353.1971643388
101341.6129914648
101332.7635611958
101326.7463341629
101322.2189090488
101319.0867343623
101317.1779833479
101316.0931070339
101315.4996524836
101315.277469521
101315.302932762
101315.4597253923
101315.8815591639
101316.6922309793
101318.0614925727
101320.1884111225
101323.3107454429
101327.6810243525
101333.509557206
101340.9043774821
101349.8551964084
101360.2955771442
101371.9469067775
101384.202836953
101396.3553361179
101406.8461585196
101414.6105408122
101421.4483478936
101426.9397791718
101431.3876040449
101435.0438707096
101438.0486086045
101440.4885233454
101442.4365779181
101443.9303844648
101445.0339431687
101445.4548525437
101444.9351407103
101443.4589398411
101440.8055784441
101436.7495533547
101431.0411087042
101423.515898406
101414.1541991651
101403.0323186101
101390.5116168962
101377.3352199749
101364.5277723539
101353.7921108431
101345.8110907715
101339.1067293842
101334.004199532
101330.2971273013
101327.6614279606
101325.8014661056
101324.4863418579
101323.5381127866
101322.8140981838
101322.4610488777
101322.6556606625
101323.4599403296
101325.0940190417
101327.7918700014
101331.7758221063
101337.2411185591
101344.3369772617
101353.1502402407
101363.7039966721
101375.7533458645
101388.6294770706
101401.6956378117
101413.6005296229
101422.9935719965
101431.4135046344
101438.3572498424
101444.0100604915
101448.6047805545
101452.3205059605
101455.3126766659
101457.7119042835
101459.5506614171
101460.8120229083
101461.5316150912
101461.3751588639
101460.1155307745
101457.7030731647
101453.9174582433
101448.6535550285
101441.7643727557
101433.0852759106
101422.5224833216
101410.3289080716
101397.2895570561
101384.1123189996
101372.0720083871
101362.7252344064
101354.6320722803
101348.0147650793
101342.863921483
101338.9129063747
101335.8862982444
101333.5377812738
101331.6694496345
101330.1970463931
101329.1124801787
101328.4477639889
101328.5380149963
101329.645478403
101331.887856454
101335.4819711401
101340.5859176173
101347.3822331717
101356.0206117067
101366.5510416976
101378.7646254072
101392.0376115423
101405.8300798404
101418.9150291124
101429.7338932032
101439.4478244894
101447.6128113564
101454.2370138996
101459.5515107221
101463.7960121528
101467.1578527083
101469.7796447242
101471.7830083015
101473.1953747025
101474.1175358832
101474.1935900233
101473.1689098999
101471.015207341
101467.5062698608
101462.5544302013
101456.0068289393
101447.7193947001
101437.6535286025
101425.9748309566
101413.1960917699
101399.971270839
101387.2670705373
101376.7061659176
101367.8923367666
101360.2370564119
101354.0443817838
101349.1412020664
101345.2553020105
101342.1318381019
101339.5692331588
101337.4426425208
101335.7532935777
101334.5556610036
101333.9566114636
101334.4168561495
101336.2247122177
101339.4848347687
101344.3791710087
101351.0197869268
101359.5460417253
101370.0450575768
101382.384279792
101396.0174006677
101410.4743723007
101424.5697155822
101436.735965049
101447.6825550126
101457.0299180086
101464.6802357633
101470.8074826101
101475.6018450527
101479.2681074304
101482.0397488273
101484.1375300845
101485.6332733115
101486.5768631963
101486.841541343
101486.1576422974
101484.3482385564
101481.2145673736
101476.5811626067
101470.3345531555
101462.4290681495
101452.8677930543
101441.6671024481
101429.0872043164
101415.7779660192
101402.5066750981
101390.6332559263
101380.8868755617
101372.1385678098
101364.9218463103
101359.1421862512
101354.6178026525
101351.1181282394
101348.3982282312
101346.2670253584
101344.6505895455
101343.569260423
101342.9511024721
101343.2691864211
101344.8185533576
101347.6554566469
101352.042978771
101358.0146487509
101365.5820262673
101374.7392089014
101385.423391174
101397.3137799454
101409.7495725788
101422.0357461173
101433.3012071632
101442.5923753938
101449.898079936
101455.6591715216
101460.0213566871
101462.7866029998
101464.2810971812
101464.7419783417
101464.4683953015
101463.8503690022
101462.8795083747
101461.5419194315
101459.7334145058
101457.3062020544
101454.0936683131
101449.9254263838
101444.6247999307
101438.0123043306
101429.9666589474
101420.5031904954
101409.7672985625
101398.1298116394
101386.1487612512
101374.4043402658
101364.3772813246
101356.2426688015
101349.1811985142
101343.5588431061
101339.2522627975
101336.1042573383
101333.9725868346
101332.6820812733
101332.0122844747
101331.6919208528
101331.7969116946
101332.4534749123
101333.7596404888
101336.0099584387
101339.4353557331
101344.2743377075
101350.7394802567
101358.9685022531
101368.9538379233
101380.4993437435
101393.1342052419
101406.509026965
101419.6456934976
101430.9147628901
101440.6670359357
101448.9175874901
101455.4238620599
101460.3666748252
101463.941263537
101466.3365561046
101467.7230528259
101468.3757882866
101468.3951771681
101467.8271144661
101466.6878539187
101464.8168605043
101462.1047400041
101458.3806724284
101453.464262536
101447.2009827802
101439.5188798857
101430.4224770125
101419.9623456348
101408.4220323443
101396.4364976078
101384.4542019559
101373.435840729
101364.7693712466
101356.8750894667
101350.3296185093
101345.128370481
101341.1790972367
101338.3528104121
101336.4731784798
101335.3601969383
101334.7991991779
101334.6726245761
101335.0558223043
101336.0797670815
101337.9406979619
101340.8850977333
101345.1669489199
101351.0271677891
101358.6374425875
101368.0271764346
101379.1214931361
101391.6199368401
101405.1176910153
101418.7673055111
101431.004114513
101441.6905502341
101450.9684326419
101458.4654534861
101464.2890186086
101468.5868061722
101471.5428602057
101473.37383567
101474.3292445953
101474.5825454227
101474.2184685425
101473.3098358348
101471.7789863656
101469.4441301388
101466.1057547247
101461.5798275661
101455.7480792883
101448.5283109489
101439.8505106796
101429.7211872308
101418.3879417151
101406.403964945
101394.2417932591
101382.6379087518
101373.104585192
101364.7806488902
101357.544354198
101351.6129666986
101346.9528119496
101343.4730481859
101341.0370270307
101339.4433470664
101338.5323672033
101338.0753278337
101338.1632177537
101338.8969818903
101340.3737587253
101342.91535367
101346.742767259
101352.1089596925
101359.2167203108
101368.162924983
101378.9364269251
101391.3225692781
101404.8630209481
101418.8929751618
101431.997393159
101443.6761249085
101453.9489039983
101462.4003352259
101469.0503625128
101474.045956947
101477.549425489
101479.748659225
101480.9079362604
101481.2152820497
101480.8587640616
101480.0112187125
101478.5885682436
101476.4568779768
101473.4685316234
101469.4342735089
101464.1499041361
101457.4245622897
101449.1631364057
101439.4257852223
101428.4055220395
101416.4937815895
101404.2132460686
101392.1744602884
101381.5659475908
101372.8140956007
101364.9075715556
101358.3538840125
101353.1066235259
101349.0541370513
101346.074615312
101344.0343509571
101342.787587662
101342.168670766
101342.0541978154
101342.5594052772
101343.8144629491
101345.966392766
101349.2851948052
101354.0162709582
101360.3987556881
101368.6106810003
101378.6905011925
101390.4527972881
101403.3627649229
101416.9590753992
101430.1896575786
101441.8614209877
101451.8128083921
101460.1943924327
101466.6699413501
101471.3261864489
101474.3172349205
101475.9787012422
101476.3653905495
101475.7154509969
101474.5845827497
101472.9399368544
101470.8798744377
101468.3782190112
101465.3264662642
101461.5247888572
101456.7269058543
101450.7274889044
101443.4029606776
101434.703012802
101424.6673620783
101413.5814449144
101402.0071133778
101390.3474988061
101379.3025448645
101370.2970417111
101362.5248172526
101355.891203178
101350.5766935039
101346.4563490037
101343.3452612283
101341.0556348207
101339.4167395603
101338.3535552638
101337.9917817616
101338.6803229637
101340.7453902441
101343.986249657
101347.7641432576
101351.6716385009
101356.0690080341
101362.2073700527
101370.8238357494
101382.3391721963
101394.9266232061
101414.9765860141
)
;

boundaryField
{
    inlet
    {
        type            uniformFixedValue;
        uniformValue    sine;
        uniformValueCoeffs
        {
            frequency       constant 3000;
            scale           constant 50;
            level           constant 101325;
        }
        value           uniform 101325;
    }
    outlet
    {
        type            characteristicVelocityInletOutletPressure;
        UName           U;
        pName           p;
        TName           T;
        phiName         phi;
        rhoName         rho;
        U               (0 0 0);
        p               101325;
        T               300;
        value           uniform 101414.9765860141;
    }
    frontAndBack
    {
        type            empty;
    }
}


// ************************************************************************* //
