/*--------------------------------*- C++ -*----------------------------------*\
| =========                 |                                                 |
| \\      /  F ield         | OpenFOAM: The Open Source CFD Toolbox           |
|  \\    /   O peration     | Version:  v2012                                 |
|   \\  /    A nd           | Website:  www.openfoam.com                      |
|    \\/     M anipulation  |                                                 |
\*---------------------------------------------------------------------------*/
FoamFile
{
    version     2.0;
    format      ascii;
    class       volScalarField;
    location    "0.013";
    object      pMean;
}
// * * * * * * * * * * * * * * * * * * * * * * * * * * * * * * * * * * * * * //

dimensions      [1 -1 -2 0 0 0 0];


internalField   nonuniform List<scalar> 
1000
(
101325.0395397104
101325.002771397
101325.0137214135
101325.0241150557
101325.0383540235
101325.0555762144
101325.074041897
101325.0969566898
101325.1212794067
101325.1479087845
101325.1752997814
101325.2025178752
101325.2297026362
101325.2564463071
101325.2824929696
101325.3071977688
101325.3300619876
101325.3506073336
101325.3683965402
101325.383244364
101325.3947541709
101325.4028621475
101325.4072739455
101325.4080272704
101325.4049852757
101325.3983137829
101325.3880410015
101325.3744490309
101325.3576608243
101325.3379352378
101325.3153751582
101325.2904623267
101325.2640645312
101325.2372971353
101325.2104905469
101325.1837941275
101325.1573117
101325.1314013424
101325.1064462093
101325.083039582
101325.0616962026
101325.0429898759
101325.0272889566
101325.0149454072
101325.0061123564
101325.000968485
101324.9995396617
101325.0018887946
101325.007926503
101325.0175890449
101325.0306998342
101325.0471781964
101325.066879443
101325.0896268202
101325.1147291959
101325.1410333698
101325.1675573707
101325.1940895815
101325.2205204971
101325.2467730825
101325.2725253928
101325.2974826869
101325.3210936878
101325.342887697
101325.3622365447
101325.3787158324
101325.3918581709
101325.4014684685
101325.4073214825
101325.4094365516
101325.4077529783
101325.402406464
101325.3934024904
101325.3808946709
101325.3648572955
101325.3454244291
101325.3227650911
101325.2977495505
101325.2715979612
101325.2452917955
101325.2189610666
101325.1927147892
101325.1666362714
101325.1409548301
101325.1159671386
101325.0921063986
101325.0698592994
101325.0497890796
101325.0324214745
101325.0182483894
101325.007619395
101325.0007834773
101324.9978262617
101324.99876762
101325.0035238815
101325.0120345224
101325.0242225734
101325.0400934381
101325.0595747833
101325.082348664
101325.1074219348
101325.1334465622
101325.1595996833
101325.185755667
101325.211821171
101325.2377530517
101325.2632858866
101325.2882166435
101325.3120869141
101325.3345152169
101325.354900378
101325.3727897721
101325.3876060484
101325.3990180771
101325.4066568801
101325.4104489514
101325.4102787093
101325.4062714525
101325.3984143714
101325.3868348565
101325.3714615875
101325.3524185276
101325.3299532308
101325.3051232102
101325.2792526581
101325.2532675358
101325.227255466
101325.2013198379
101325.1755080728
101325.1500172252
101325.1250612949
101325.1010084734
101325.0782481705
101325.0573041166
101325.038674491
101325.0229154402
101325.0104647354
101325.0017274135
101324.996910195
101324.9961585843
101324.9994557498
101325.006790263
101325.0180903352
101325.0333975871
101325.0525687391
101325.0751922766
101325.1000811465
101325.1258296276
101325.1516743599
101325.1775438941
101325.2033394935
101325.2290441813
101325.25443266
101325.2793474976
101325.3033780936
101325.3262203792
101325.3473251297
101325.3662340551
101325.3823928151
101325.3953930789
101325.4047577181
101325.4103135649
101325.4118791498
101325.4094121098
101325.4028853164
101325.3924161582
101325.3778516198
101325.3593460469
101325.3372900409
101325.3128474367
101325.2872869634
101325.2615326099
101325.2356439115
101325.2097625052
101325.183955139
101325.1584176432
101325.1333251382
101325.1090160501
101325.0858672294
101325.0644136657
101325.0449915411
101325.0282760174
101325.014606475
101325.0044996474
101324.9979501425
101324.9955560386
101324.9971829342
101325.002982026
101325.0128616539
101325.0271641461
101325.0454749145
101325.0673103487
101325.0913932337
101325.1165352331
101325.1420310701
101325.16779439
101325.1937478579
101325.2197355856
101325.2456265189
101325.2713107863
101325.2963332674
101325.3202765973
101325.3426035268
101325.362740865
101325.3800527232
101325.3939041009
101325.4040024341
101325.4096484509
101325.4111716557
101325.408011021
101325.4002529023
101325.3880234652
101325.371801114
101325.3515682472
101325.3283474121
101325.3024050619
101325.2776516446
101325.2534034652
101325.2301577835
101325.2083695569
101325.1877748302
101325.1690730673
101325.1515086198
101325.1354462172
101325.1210000945
101325.107696117
101325.0964077639
101325.0875682827
101325.0806622172
101325.0766745339
101325.075473842
101325.0777125994
101325.0834985695
101325.0927771899
101325.107092246
101325.1247693257
101325.1461216906
101325.1710144732
101325.1964786569
101325.2237915169
101325.2514169543
101325.2792442561
101325.307148994
101325.3344634018
101325.3623027373
101325.389542074
101325.4159990179
101325.4415296392
101325.4655972262
101325.4878862881
101325.5082048379
101325.5251457279
101325.5385022642
101325.5479789164
101325.5530905347
101325.5540492727
101325.5497704675
101325.5418327442
101325.5289825685
101325.511391712
101325.491361068
101325.4664456567
101325.4428597542
101325.4193836674
101325.3968926149
101325.3759934496
101325.3557492334
101325.3380424948
101325.3216123099
101325.3065904751
101325.2929371295
101325.2808804442
101325.2700660545
101325.2617795496
101325.2553795715
101325.2513089826
101325.2500432204
101325.2518823899
101325.257972459
101325.2668614709
101325.282024343
101325.3010491031
101325.3231180774
101325.3497641244
101325.3767042392
101325.4055752081
101325.4350525128
101325.4648151958
101325.494775564
101325.5239672788
101325.5534039735
101325.5828171981
101325.6110053765
101325.6379475178
101325.6639461955
101325.6878231976
101325.7102129586
101325.7300924293
101325.7462515608
101325.7591444765
101325.7678698761
101325.7730132391
101325.7724253518
101325.7686655145
101325.7606646953
101325.7466076214
101325.7296409868
101325.7083319902
101325.6855758543
101325.6638818179
101325.6427486954
101325.6229961063
101325.6042734527
101325.5871590779
101325.5724751335
101325.5588784125
101325.546423792
101325.5360411662
101325.5263133998
101325.519104212
101325.5142126668
101325.5107586839
101325.5099805206
101325.5123464963
101325.5187113333
101325.5281152058
101325.5427898704
101325.5640307045
101325.5870213302
101325.6146312131
101325.6444766702
101325.6742630111
101325.7059615435
101325.7376745123
101325.7696152576
101325.8012801079
101325.8320189879
101325.8638093517
101325.8940876024
101325.9225713044
101325.9503660763
101325.9756690741
101325.999721987
101326.0221896476
101326.0405864076
101326.0562330507
101326.0684256065
101326.0769573011
101326.080834133
101326.0802229046
101326.0776153782
101326.0681779939
101326.0545779064
101326.0379005
101326.0171232227
101325.9977295055
101325.9785050699
101325.960602187
101325.9438708984
101325.9279278138
101325.9149875957
101325.9033759062
101325.8923991071
101325.8836524366
101325.8757435105
101325.8700904487
101325.8671471979
101325.8650213924
101325.8655312819
101325.8691399513
101325.8759357719
101325.8868395482
101325.9007390358
101325.9235131528
101325.9483148991
101325.9766421771
101326.0090363858
101326.0405493077
101326.0741173919
101326.1077306247
101326.1418462328
101326.1758200223
101326.2086916255
101326.2420807532
101326.2750706154
101326.3055746914
101326.3348353062
101326.3623224587
101326.3879971789
101326.4122638884
101326.4329742161
101326.4506687995
101326.4656735451
101326.4770007848
101326.4851089967
101326.4872428168
101326.4890877872
101326.4852041809
101326.4752125464
101326.4631582788
101326.4460802934
101326.4294173955
101326.4127523284
101326.3973533355
101326.3830502401
101326.3695006719
101326.3580300903
101326.3489949932
101326.3402956687
101326.3332136461
101326.3278996995
101326.3241947882
101326.3229347004
101326.3235160922
101326.3253551204
101326.3306834668
101326.338886788
101326.3514454756
101326.3660140301
101326.3886744016
101326.416573651
101326.4455720167
101326.4797740883
101326.5138695933
101326.5490132505
101326.5845961186
101326.6207968713
101326.6570699527
101326.6926291912
101326.7274833055
101326.7633062044
101326.7964740429
101326.8275628687
101326.8574359044
101326.8850272889
101326.9108155678
101326.9346027274
101326.9532450734
101326.9706807683
101326.9845189008
101326.9955954572
101327.001436957
101327.005327872
101327.0072659391
101327.001300456
101326.993084968
101326.9812498316
101326.967850958
101326.9546834134
101326.9421093966
101326.9311205192
101326.9209775086
101326.9116689562
101326.9058676302
101326.9002064418
101326.8954743346
101326.893053744
101326.8919138896
101326.8930169148
101326.8968648824
101326.9007903801
101326.9085001358
101326.9192238646
101326.9335786544
101326.9512856236
101326.9729072865
101327.0043611597
101327.0351219467
101327.0706438052
101327.1081081657
101327.145385551
101327.1833057531
101327.2211530979
101327.2601042142
101327.2983266362
101327.335347468
101327.3733626988
101327.4096627694
101327.4431656607
101327.4756620573
101327.5055397939
101327.5337325612
101327.5598447511
101327.581965221
101327.6002845085
101327.6170771484
101327.6300142958
101327.6399714945
101327.6442290532
101327.6515973584
101327.6490712605
101327.644204135
101327.6369146452
101327.6273128235
101327.6178045142
101327.6084345861
101327.601296306
101327.595520074
101327.5903227378
101327.5879766596
101327.587662689
101327.5871339859
101327.5891822576
101327.5927189231
101327.5987087276
101327.6070831227
101327.6175644602
101327.6281519955
101327.6441436532
101327.6628360207
101327.6857910605
101327.7103392146
101327.7453749283
101327.7815013382
101327.8200436884
101327.8621420705
101327.9035798675
101327.9456884268
101327.9870902003
101328.0290809187
101328.0714611152
101328.1121096362
101328.1523216866
101328.1928964303
101328.2298438337
101328.2650070548
101328.2983591115
101328.3297909132
101328.3588730987
101328.3856528716
101328.4067066422
101328.4262845124
101328.4430901559
101328.4570171021
101328.4653101607
101328.4738948927
101328.4788410574
101328.4764298444
101328.4735339459
101328.4678629861
101328.4627882676
101328.4576022814
101328.454089748
101328.4540041763
101328.4553164365
101328.4586935504
101328.466532501
101328.4744300055
101328.484672135
101328.4979558352
101328.5136649089
101328.5320358049
101328.5529920523
101328.5749044179
101328.5995439461
101328.6283946366
101328.6610730733
101328.6961110045
101328.7358961041
101328.784654912
101328.8305125842
101328.8806560977
101328.9301292864
101328.979939261
101329.0285536045
101329.0762108958
101329.1245439409
101329.171544458
101329.216454082
101329.26184616
101329.3042086019
101329.3436104705
101329.3810958531
101329.4163383777
101329.4494921148
101329.4799399246
101329.507127481
101329.5295332132
101329.5510069224
101329.569072974
101329.583853535
101329.5945207855
101329.608465846
101329.6120830056
101329.615421244
101329.6169225687
101329.6185720988
101329.6207199086
101329.6238918481
101329.6308334806
101329.6409044433
101329.6527335632
101329.6694476072
101329.6881431685
101329.7083124559
101329.7316332798
101329.7574905013
101329.7866573924
101329.8182499978
101329.8526312639
101329.8868903041
101329.926150461
101329.9684804166
101330.0144837163
101330.062347146
101330.1207073363
101330.1775752304
101330.2371383494
101330.2960877341
101330.3546083198
101330.4123146144
101330.4678763146
101330.5226837666
101330.5769302072
101330.6279673734
101330.6781823798
101330.7265232243
101330.7707678042
101330.8122125926
101330.8508624116
101330.8876781126
101330.9217621046
101330.9531458315
101330.9795476717
101331.0043565474
101331.0270684911
101331.04691188
101331.0622230409
101331.0803816691
101331.0926542682
101331.1023510071
101331.1108284691
101331.1189256074
101331.1282318151
101331.138131867
101331.1506649214
101331.1677763536
101331.1872944289
101331.2104341108
101331.2376643509
101331.2663498906
101331.2978597717
101331.331769882
101331.3690939851
101331.4091516389
101331.4514969574
101331.4953374931
101331.5411599635
101331.5913244295
101331.6444726401
101331.7000820591
101331.7611488105
101331.8292956417
101331.8951119586
101331.9622856028
101332.0282624235
101332.0940054757
101332.1572418229
101332.2184543091
101332.2789783712
101332.3370160803
101332.3917733906
101332.4454917869
101332.4948144722
101332.5406789989
101332.5830828766
101332.6230254402
101332.6606083376
101332.6949236221
101332.7265057671
101332.7532914005
101332.7799339964
101332.8041548539
101332.8251458102
101332.844918236
101332.8665376148
101332.8809586566
101332.8963522099
101332.9104098449
101332.9258397658
101332.9419222267
101332.9597145247
101332.9814321321
101333.0072164863
101333.0352734931
101333.0686373756
101333.1036805124
101333.1414741659
101333.1819651586
101333.2250712278
101333.2714910159
101333.320050512
101333.3713160968
101333.4221391584
101333.4779694028
101333.5363875038
101333.5978109523
101333.6607852426
101333.7356720236
101333.805474688
101333.8794584448
101333.9510450854
101334.0229929627
101334.0931878084
101334.1605531141
101334.2262673883
101334.2905921161
101334.3508478728
101334.4093120189
101334.4642495265
101334.5144213375
101334.5608530379
101334.6040185249
101334.6449728207
101334.6828654326
101334.7182209039
101334.7488837476
101334.7787994915
101334.8073088841
101334.8339281141
101334.8571912568
101334.8856145789
101334.9062009974
101334.9290286884
101334.9495017344
101334.9714838697
101334.9944575901
101335.018324987
101335.0452813151
101335.0763549454
101335.1106321243
101335.1490219127
101335.1905009495
101335.2345867089
101335.2816088856
101335.3304922901
101335.3831337721
101335.4382617379
101335.4956207182
101335.5541291068
101335.6144688857
101335.678685031
101335.7459589583
101335.8139794526
101335.8908192219
101335.9676517989
101336.0467439804
101336.123745782
101336.201228506
101336.2776140053
101336.3512673821
101336.4227194117
101336.4921190763
101336.5592269893
101336.6226124801
101336.6837170462
101336.7402469129
101336.7929050511
101336.8415101344
101336.8879437292
101336.9316818869
101336.972408423
101337.0101840586
101337.0438357968
101337.0776984905
101337.1093783834
101337.1372647329
101337.1664712497
101337.1928604249
101337.2159940973
101337.236845196
101337.2569749888
101337.2770496887
101337.2965621694
101337.3161978192
101337.3384141536
101337.3629332576
101337.3891687029
101337.4185860626
101337.4493749335
101337.4820886647
101337.516095998
101337.5526506157
101337.5918769647
101337.6330575463
101337.6764187565
101337.7203180371
101337.7689322661
101337.8217421665
101337.8763660256
101337.9349784191
101338.0016136118
101338.0660437419
101338.1337080024
101338.2006184496
101338.2676796647
101338.3330122205
101338.3955772507
101338.4572306508
101338.5164497723
101338.5733520627
101338.6277966618
101338.6795318488
101338.7267887767
101338.7702905686
101338.8109370595
101338.849290113
101338.884521763
101338.9170515942
101338.9448863952
101338.9713721043
101338.9970754147
101339.0204499919
101339.0394159895
101339.0640925595
101339.0792147253
101339.0972666965
101339.1134930936
101339.1308353008
101339.1485495915
101339.1667961414
101339.1875799687
101339.2110447869
101339.2379880963
101339.2679204381
101339.3009204032
101339.335240496
101339.3728491249
101339.4121453447
101339.4545236163
101339.4991435071
101339.5463215281
101339.5938516263
101339.6443783185
101339.6994527186
101339.7579883215
101339.8165057691
101339.8874133473
101339.9521085209
101340.0228537602
101340.0928239209
101340.1632490511
101340.2323487967
101340.2991833639
101340.3634368818
101340.426301637
101340.4861657287
101340.5435794332
101340.5989656256
101340.6481697798
101340.6952304526
101340.7383622819
101340.778440509
101340.8156451192
101340.8502019867
101340.8803800998
101340.9083415168
101340.9351766389
101340.9619634851
101340.9826844401
101341.0109372674
101341.0265775783
101341.047429231
101341.0667599911
101341.0866292076
101341.1072807186
101341.1285558535
101341.1507799623
101341.1768830032
101341.2045478994
101341.2371238621
101341.2723829372
101341.3088013213
101341.3493552841
101341.3918056645
101341.4367729096
101341.4843847288
101341.5345621772
101341.5860028149
101341.639324216
101341.6956877044
101341.7575428152
101341.8180527989
101341.8904853626
101341.9570323693
101342.0288269113
101342.102483092
101342.1755885275
101342.2486458358
101342.3193986465
101342.3875400182
101342.4538382235
101342.5168927079
101342.5775582047
101342.6365349908
101342.6901154051
101342.7390492886
101342.7854974723
101342.8280159847
101342.8674636165
101342.9038885529
101342.9376357775
101342.9666898763
101342.9957743966
101343.023819537
101343.0492853792
101343.0774214859
101343.1004501465
101343.1217404725
101343.1449660047
101343.1682233373
101343.1926705462
101343.2173960581
101343.2433635924
101343.2712120154
101343.3021398276
101343.3350867121
101343.3742085185
101343.4140864639
101343.4547139903
101343.5012691075
101343.5489822634
101343.5992765499
101343.6520170984
101343.7079628639
101343.7627605823
101343.8231919313
101343.8847395002
101343.9515817341
101344.0188446787
101344.098295926
101344.1656223001
101344.241621541
101344.3178571729
101344.3941967635
101344.469022235
101344.5412788453
101344.6112067787
101344.6782095792
101344.7412844618
101344.803448892
101344.8628275034
101344.9137154818
101344.9641144569
101345.0100181518
101345.0521728323
101345.0912452245
101345.1279600279
101345.1597396157
101345.1907161742
101345.2196607864
101345.2499282817
101345.2745278224
101345.3120781389
101345.3255464898
101345.3518320468
101345.3763361436
101345.4012647121
101345.4267504615
101345.4516106361
101345.4781411662
101345.5064210031
101345.5357222815
101345.5678654742
101345.6061649436
101345.6422749668
101345.6816954911
101345.7248003659
101345.7694395435
101345.8165112013
101345.8663607079
101345.9179271235
101345.9707371815
101346.0275287476
101346.0884020986
101346.1520150598
101346.2256486301
101346.2884417313
101346.3598273613
101346.4318608708
101346.5062812054
101346.5796068845
101346.6502385629
101346.7195796373
101346.7863882049
101346.8494972756
101346.9080425361
101346.9663079058
101347.0194219627
101347.0657907314
101347.1127121442
101347.1547999962
101347.1939641549
101347.2301185905
101347.2633944869
101347.2955862304
101347.3290420804
101347.3503516175
101347.3773054879
101347.4106997016
)
;

boundaryField
{
    inlet
    {
        type            calculated;
        value           uniform 101325.0000004751;
    }
    outlet
    {
        type            calculated;
        value           uniform 101347.4106997016;
    }
    frontAndBack
    {
        type            empty;
    }
}


// ************************************************************************* //
