/*--------------------------------*- C++ -*----------------------------------*\
| =========                 |                                                 |
| \\      /  F ield         | OpenFOAM: The Open Source CFD Toolbox           |
|  \\    /   O peration     | Version:  v2012                                 |
|   \\  /    A nd           | Website:  www.openfoam.com                      |
|    \\/     M anipulation  |                                                 |
\*---------------------------------------------------------------------------*/
FoamFile
{
    version     2.0;
    format      ascii;
    class       volScalarField;
    location    "0.013";
    object      rho;
}
// * * * * * * * * * * * * * * * * * * * * * * * * * * * * * * * * * * * * * //

dimensions      [1 -3 0 0 0 0 0];


internalField   nonuniform List<scalar> 
1000
(
1.176306643792477
1.176330468813311
1.17627662198664
1.176232915788085
1.176181620002441
1.176134730070166
1.176095013122828
1.176061556895349
1.176032617660691
1.176012035820056
1.176004820829453
1.176003964039181
1.176005773587756
1.17601302977873
1.176028329610599
1.176052347921429
1.176084265403749
1.176122584756601
1.176165990131941
1.176213566624931
1.176264597137066
1.176318329538099
1.176373874118306
1.176430204433602
1.176486197539416
1.176540696421947
1.176592651190518
1.176641418800338
1.17668708236968
1.17673013345737
1.176769451770064
1.176798957896877
1.176811480290749
1.176812884778712
1.176812453374504
1.176810517209776
1.176805149173378
1.176794165569929
1.17677562737007
1.176748472221124
1.176712857774675
1.176670048660227
1.17662185566005
1.176569997768238
1.176515768509542
1.176460089098398
1.176403754666728
1.176347632452019
1.176292660468991
1.176239595880666
1.176188645450035
1.176139443729092
1.176092180572527
1.176050556032903
1.176023532905608
1.17601497573203
1.176014440905188
1.176014743214162
1.176016556986255
1.176021192216686
1.176030513380784
1.176046293058062
1.176069930026739
1.176102046467837
1.176142278289265
1.176189337904823
1.176241367748763
1.176296434991149
1.1763529155514
1.176409606628052
1.176465650598687
1.1765205029821
1.17657403996897
1.176626596819553
1.176678526000683
1.176728729519437
1.176771820539176
1.176797988458644
1.176805519263866
1.176805996595265
1.17680554840689
1.176804115714734
1.176800185784987
1.176792366802346
1.176779014168029
1.176758644265108
1.176730208127651
1.176693394695603
1.176648775369046
1.176597728276763
1.176542169834558
1.176484173740121
1.176425569850153
1.176367628978146
1.176310921343628
1.176255357547162
1.176200407151658
1.176145758926337
1.176093201371271
1.176049805352797
1.176025944898032
1.176020273787142
1.17602010972732
1.176020359761234
1.176021880206955
1.176025527267131
1.176032722592861
1.176044901914124
1.176063466195214
1.176089524457502
1.17612365770313
1.176165712570297
1.17621472385447
1.176269044339095
1.176326662227351
1.176385599316373
1.176444294104661
1.176501911083204
1.176558471310235
1.176614607178482
1.176670661765665
1.17672468448705
1.176769462620168
1.176794492570201
1.176800815192994
1.176801155488646
1.176800801866563
1.176799669418952
1.176796592653324
1.176790474209859
1.176779961137258
1.176763694339369
1.176740460549095
1.17670942256824
1.176670324806999
1.176623628722256
1.176570537138325
1.176512849833155
1.17645261044653
1.176391619578353
1.17633100176437
1.176271035955043
1.176211395467364
1.176152122567466
1.176095990581434
1.176051521674654
1.17602901781017
1.176024176048665
1.176024076299264
1.176024492312068
1.17602592780732
1.176029103621728
1.176035094193222
1.17604506341296
1.176060240162529
1.176081771016074
1.17611055158865
1.176147032478869
1.176191057592436
1.176241798369725
1.176297828737795
1.176357360210991
1.176418611027712
1.176480244646522
1.176541686911247
1.176602957937081
1.176663821066538
1.176721487864314
1.176767302472219
1.176791784022754
1.176797047151635
1.176796915641532
1.176795560268382
1.17679330777788
1.176790265059999
1.176785391705361
1.176777546570747
1.176765449876165
1.176747745545966
1.176723171297364
1.176690783572583
1.176650175094938
1.176601629747314
1.17654614777953
1.176485282749295
1.17642084002325
1.176354431003775
1.176287126077593
1.176219681941139
1.176153375478847
1.176092605469341
1.176048467618622
1.176026468861973
1.176023001980565
1.176025000023115
1.176028872332636
1.176034033757621
1.176041231504034
1.176048828841461
1.176058506743125
1.176071234223921
1.17608791891868
1.176109381628422
1.176136345352953
1.176169310924862
1.176208411358935
1.17625334059971
1.176303423034272
1.176357870144994
1.176416061850648
1.176477740664512
1.176543189408967
1.176612120978448
1.176680081537492
1.176739143558409
1.176774646488365
1.176803318329652
1.176826356370175
1.176845809970476
1.176862687277441
1.176877058697542
1.176888291939156
1.176894394153996
1.176893166045533
1.176883893577955
1.17686568347934
1.176836929527984
1.17679685479966
1.176745853985451
1.176685314701093
1.176617149955314
1.176543399054448
1.176465757626919
1.176385591947975
1.176304606563425
1.176225885148711
1.176156097674721
1.176104816392508
1.176075144125544
1.176060634433433
1.176054351992735
1.176053233487877
1.176056652506627
1.176062539806277
1.176070628603388
1.176080518479264
1.176092644533442
1.176107809567087
1.176127054624383
1.176151434097477
1.176181759031291
1.176218413437719
1.176261304689435
1.176309988891121
1.176363990581653
1.176423030503137
1.17648672185157
1.176553960230053
1.176623286825304
1.176689776330702
1.1767492241411
1.176791506740458
1.176817194796724
1.176839896035723
1.176858902515881
1.17687556731018
1.176889707823499
1.176900354147087
1.176907344347303
1.176908329289944
1.176901904610343
1.176888391901832
1.176865679823151
1.176832548647874
1.176788368644591
1.176733539199565
1.176669382316873
1.176597748799604
1.176520454897631
1.176439201446447
1.176356257310035
1.176275102363324
1.176201693043389
1.176145005242571
1.176110515324428
1.176093268647175
1.17608523348336
1.176082194832236
1.176083589048026
1.17608767600884
1.176094085717542
1.176102441182925
1.176112983052592
1.176126378685164
1.176143564365961
1.176165595400728
1.176193455920216
1.176227870609005
1.176269175853102
1.176317298791481
1.176371859459828
1.176432324129029
1.176497943789913
1.176567323823063
1.176638478632636
1.176707615937211
1.176769798854704
1.176817359775026
1.176842121445649
1.176863444375812
1.176880968293704
1.176896297722242
1.176909649095803
1.176920330590673
1.176927906218142
1.17693037974318
1.176926559350482
1.176916671813529
1.176898852100777
1.176871451233333
1.176833398339281
1.176784520038819
1.17672536450309
1.176657077709913
1.17658126207987
1.176499810735627
1.176415161648549
1.176330775461506
1.176252336678007
1.176189160766239
1.176148968790554
1.176128334879817
1.17611853922507
1.176114452307342
1.176113743523753
1.176115968922186
1.176120278003689
1.176126302184458
1.176134266339091
1.17614490550811
1.176159226888743
1.17617834964285
1.176203377575854
1.176235284138591
1.176274771162684
1.17632211932648
1.176377139779313
1.176439275710639
1.17650760330657
1.176580686134494
1.176656107839982
1.176729635575686
1.176796284080043
1.176849108767288
1.17687838832981
1.176896783193252
1.176912388494874
1.176925779617926
1.176937630043864
1.176947551035908
1.176954861179254
1.176958166244408
1.176956522618041
1.176949605679525
1.176935771703083
1.176913313886721
1.176881075505126
1.176838343578827
1.176784780750988
1.176720716562735
1.176647342407763
1.176566421498872
1.176480337516596
1.176392600486536
1.176308602236673
1.176237664989019
1.176189813289677
1.176164404149638
1.176152382949276
1.176147548323057
1.17614575925374
1.176146917784543
1.176149733480279
1.176153757071048
1.176159202677904
1.176166764585428
1.176177501699357
1.176192709027162
1.176213775502321
1.176242000211986
1.176278432970555
1.176323761822958
1.176378205559626
1.176441365984961
1.176512219664896
1.176589224977965
1.176669825162356
1.176749877937687
1.17682376518854
1.176883338258937
1.176920109234318
1.176938932786864
1.176954910509113
1.176967095502425
1.17697665060599
1.176984169987033
1.176989751096966
1.176992611016563
1.176992058975186
1.176987364780249
1.176976805864093
1.176958763006824
1.176931888271462
1.176894935315795
1.176847010339565
1.176787899510841
1.17671817197634
1.176639023495549
1.176552450546327
1.176461825147131
1.176372268624462
1.176292758406626
1.17623532709999
1.176203239676264
1.176187469866362
1.176180449292357
1.176177390060735
1.176178375321685
1.176181078678805
1.176184749481668
1.176189046164133
1.17619432337836
1.176201610865637
1.176212421993195
1.176228485701087
1.17625148706291
1.176282933613558
1.176324053899861
1.176375602297331
1.176437632525075
1.176509438600525
1.176589685975004
1.176675819506339
1.1767636269944
1.176847380596495
1.176917207267565
1.176963102032634
1.176988703351773
1.177007354837338
1.177020341179408
1.177028854053927
1.177034469465053
1.177037612444933
1.177038623402806
1.177037694282764
1.177033868031925
1.177025410278547
1.177010731064555
1.176988369157727
1.176956981177634
1.176915286879957
1.176862177297603
1.176797232094356
1.176721111683885
1.176635444567449
1.176543264787149
1.176449474323331
1.176361785174853
1.176292639647486
1.176249901657308
1.176227397728377
1.176215556350216
1.176209884322109
1.17620985452591
1.176212489742241
1.176216757120919
1.17622161911335
1.176226879718187
1.176232895056682
1.176240857087094
1.176252603161615
1.176270249011857
1.176295776790578
1.176330769673022
1.176376366181072
1.176433363575271
1.176502050772041
1.176581845261615
1.176670484449775
1.176763657974593
1.176856231115253
1.176938798938989
1.176998109221542
1.177034983773647
1.177062565163972
1.177081443347787
1.177093689312132
1.177101782523952
1.177107091461113
1.177109585400831
1.177109575375088
1.177107426605199
1.17710208232852
1.177092092845495
1.177075648376008
1.177050695483045
1.177015325266914
1.176968186798156
1.1769086823187
1.176836901274786
1.17675347791632
1.176660583109536
1.176563001754512
1.176467625758153
1.176386008979682
1.176330020743436
1.17629662189357
1.176276189115636
1.176263126842053
1.176257834413295
1.176257968063286
1.176260346229816
1.176264073060939
1.176268568715439
1.176273900847848
1.176280811419483
1.176290702992219
1.176305418156824
1.176326938755687
1.176357138362853
1.176397631355965
1.176449633575906
1.176513677248928
1.176589318145351
1.176675295608796
1.176768633135105
1.17686457390339
1.176955962265092
1.177028809861594
1.17707766517057
1.177118641726347
1.177150168958472
1.177174741966938
1.177194569797088
1.177210745293267
1.177223846678756
1.17723434717453
1.177242457806206
1.177246287898365
1.177244188143191
1.177235793050688
1.177219218065097
1.177192167164745
1.177152570850653
1.177098950542357
1.177030659182126
1.176948093493605
1.176853117061092
1.176750186375058
1.17664551014209
1.176549461633222
1.176476085778792
1.176426192329077
1.176388651398717
1.176362679453612
1.176346852002217
1.17633785611544
1.176332935116355
1.176331092733093
1.176331303845811
1.176332603945205
1.176336101809462
1.176342823964813
1.176354177967768
1.176371814424762
1.176397704702339
1.176433942509266
1.176482271282655
1.176543586184901
1.176617801090819
1.176704364178118
1.176800964426458
1.176902573902494
1.177003322380302
1.177090292266819
1.177154658062383
1.177211341473885
1.177256863028981
1.177293733029803
1.177324041100449
1.177348948178162
1.177369173120963
1.177385320829976
1.177397703146395
1.17740685062248
1.177410339557404
1.177406031607083
1.177393795225899
1.177371801153704
1.177338179905558
1.17729086074595
1.177228480654142
1.177150875168431
1.177058675662767
1.1769548765515
1.176845637583749
1.176739453482828
1.176650443264442
1.176584270238698
1.176528681201204
1.176486373002158
1.176455635017589
1.17643378035281
1.176418357836471
1.176407452974123
1.176399590331478
1.176393586831953
1.176390659349351
1.176392273030515
1.17639894202845
1.176412491639324
1.176434861825185
1.176467895867308
1.17651321228754
1.176572047750831
1.176645121466471
1.176732623784434
1.17683252299821
1.176939273122154
1.177047594678942
1.177146285618413
1.177224151134149
1.177293948086461
1.177351506943534
1.177398364018353
1.177436449857659
1.177467249305801
1.177492051006521
1.177511937722307
1.177527178711095
1.177537633766307
1.177543598244804
1.177542301397662
1.177531860662457
1.177511864399416
1.177480486149636
1.177436854101561
1.177379749270566
1.17730780614364
1.17722024620919
1.177119164675575
1.177011067990049
1.176901824108933
1.176802002228474
1.176724509171342
1.176657407990433
1.176602542118582
1.176559834389038
1.176527074506482
1.176501979105208
1.176482506007448
1.176467014342591
1.176454805533153
1.176445812534365
1.176440300836424
1.176441049148903
1.17645023195045
1.176468825170753
1.176498626442986
1.176540946265309
1.176597297576931
1.176668920702467
1.176756228956261
1.176857489019387
1.176967528332252
1.177081869948906
1.177190342041021
1.177280025652971
1.177360547497432
1.177428227936604
1.17748313551665
1.177527186297223
1.177562367629833
1.17759023256219
1.177611963343499
1.177628568153113
1.177640274439986
1.177647917663187
1.177648548004636
1.177640055003401
1.177622204138138
1.177593120305405
1.177552076523052
1.177497805251602
1.177429111540485
1.177345674408151
1.177248865318056
1.177142933861853
1.177033300435274
1.176927979063272
1.176840423369415
1.176767349864875
1.176703880143991
1.17665253584937
1.176611882301405
1.176579662888574
1.176553764853709
1.176532516976023
1.176514884193408
1.176500876748478
1.176490946387656
1.176485979263834
1.176489795427556
1.176504785477973
1.176531817049106
1.176572398420576
1.176627458192602
1.176698150980375
1.176785197953069
1.176887498675494
1.17700052250768
1.17712037152047
1.177237217918133
1.177338068955164
1.177428806732253
1.177506286065411
1.177569697254034
1.177620483188932
1.177660220848445
1.177690607983558
1.17771358000615
1.177730966791358
1.177743363709087
1.177751184276138
1.177753377944208
1.177747709684265
1.177732713070774
1.177706740612665
1.177668337700544
1.177616563336586
1.177551038261069
1.177471787118013
1.177378944494287
1.177274666045744
1.177164337766538
1.177054319864271
1.176955886733039
1.176875084718348
1.176802555273312
1.1767427223722
1.176694803091644
1.176657290793426
1.176628274174572
1.176605722648141
1.176588052065495
1.176574649528246
1.176565683746756
1.176560558319592
1.176563195670909
1.176576042100449
1.176599563950332
1.176635942263478
1.176685454547933
1.176748195973005
1.176824116741849
1.176912695113145
1.177011270467859
1.177114363787226
1.177216213133764
1.177309597904464
1.177386614573708
1.17744717181653
1.177494924818624
1.177531081942084
1.177554002188003
1.17756638950015
1.177570209562071
1.177567941916528
1.177562819289774
1.177554772133231
1.177543685270179
1.177528695082298
1.177508576497499
1.177481948381356
1.177447398242303
1.177403461327201
1.177348649422235
1.177281956554566
1.177203508938167
1.177114510945536
1.177018035833396
1.176918709186358
1.176821340960747
1.176738208168022
1.176670763602725
1.176612215245395
1.176565598101281
1.176529890069918
1.17650378809646
1.176486113021092
1.17647541253292
1.176469858752959
1.176467202379988
1.176468072903019
1.176473516878216
1.176484347169267
1.176503006035373
1.17653140806406
1.176571530516193
1.176625135435597
1.176693363918997
1.176776152205632
1.176871872888018
1.176976621475985
1.177087500472901
1.177196401043279
1.177289816373694
1.177370655732745
1.177439045141608
1.177492974991944
1.17753394480909
1.177563573384797
1.177583427001081
1.177594919044917
1.177600329237042
1.177600489916166
1.177595781471447
1.177586338592192
1.177570830665606
1.177548350885688
1.177517483202167
1.177476732070686
1.177424816197506
1.177361138549913
1.177285735834565
1.177199026329655
1.177103359584586
1.177003998667093
1.176904661162148
1.176813312062264
1.176741459620211
1.176676007721537
1.176621737764912
1.17657861234927
1.176545867085645
1.176522432799358
1.176506847636123
1.17649761918439
1.176492967565092
1.176491918035612
1.176495095344231
1.176503585474379
1.176519015561878
1.176543429233883
1.176578932133296
1.176627521348655
1.176690619705034
1.176768470032455
1.176860450354829
1.176964068424849
1.177075967030828
1.177189120207427
1.177290557763733
1.177379140530671
1.177456045219299
1.177518186808317
1.177566456494619
1.177602078987586
1.177626580180678
1.177641756076184
1.177649674872906
1.177651774318954
1.177648756675094
1.177641225501652
1.177628537118754
1.177609184721347
1.177581514505552
1.177544000842113
1.177495663038411
1.177435819210848
1.177363888298488
1.1772799233333
1.177185975782295
1.17708663060355
1.176985804691093
1.176889603795631
1.176810566347551
1.176741553740768
1.176681557289833
1.176632378974961
1.176593740133271
1.176564887964118
1.176544689729832
1.176531475676422
1.176523922216187
1.176520132622688
1.176520861338681
1.176526945346005
1.176539190066334
1.176560263694026
1.176591998454478
1.176636491349213
1.176695423129252
1.176769596097689
1.176858916656084
1.17696160380341
1.177073856526827
1.177190162704226
1.177298792170874
1.17739559995024
1.177480750771819
1.177550802621873
1.177605921905736
1.177647327611467
1.177676365564905
1.177694593427034
1.177704201798083
1.177706749148115
1.177703794208548
1.177696769474104
1.17768497809678
1.177667309958617
1.177642541458789
1.177609103766208
1.177565304048795
1.177509559835853
1.177441082061451
1.177360368475175
1.177269017998207
1.17717027449348
1.177068470244933
1.176968666583008
1.176880717330927
1.176808158606707
1.176742606661611
1.176688269793
1.176644763842072
1.176611163532278
1.176586459227225
1.176569542516986
1.176559204998752
1.176554073228797
1.176553124057856
1.176557312933954
1.176567719133074
1.17658556166956
1.176613079099076
1.176652305831299
1.176705224067405
1.176773309090845
1.176856878618962
1.176954394066108
1.177061420387938
1.177174132145446
1.17728380771464
1.177380557765043
1.17746304440956
1.177532517048695
1.177586190129784
1.177624783944902
1.177649576522413
1.177663349453967
1.177666555853777
1.177661170427848
1.177651800420659
1.17763817297181
1.177621102580099
1.177600370452364
1.177575073842347
1.177543551838379
1.177503758603728
1.177453989881045
1.17739322369783
1.177321053901449
1.177237834034766
1.1771459680302
1.177050150271589
1.176953732205377
1.176862473887671
1.176788096533982
1.176723808343618
1.17666874046828
1.17662435818086
1.176589643246632
1.176563115249699
1.176543240480435
1.17652838362115
1.176517660825968
1.17651292154069
1.176516329502802
1.176529156995698
1.176550206487567
1.176574888772876
1.176601569994231
1.17663754743897
1.176698313276537
1.176790789777926
1.176915578648981
1.177056877451038
1.177281337233673
)
;

boundaryField
{
    inlet
    {
        type            calculated;
        value           uniform 1.176411716172193;
    }
    outlet
    {
        type            calculated;
        value           uniform 1.177456369613773;
    }
    frontAndBack
    {
        type            empty;
    }
}


// ************************************************************************* //
