/*--------------------------------*- C++ -*----------------------------------*\
| =========                 |                                                 |
| \\      /  F ield         | OpenFOAM: The Open Source CFD Toolbox           |
|  \\    /   O peration     | Version:  v2012                                 |
|   \\  /    A nd           | Website:  www.openfoam.com                      |
|    \\/     M anipulation  |                                                 |
\*---------------------------------------------------------------------------*/
FoamFile
{
    version     2.0;
    format      ascii;
    class       volScalarField;
    location    "0.013";
    object      T;
}
// * * * * * * * * * * * * * * * * * * * * * * * * * * * * * * * * * * * * * //

dimensions      [0 0 0 1 0 0 0];


internalField   nonuniform List<scalar> 
1000
(
299.9871137268421
299.9888860057009
299.9825341618118
299.977878835006
299.9734493569698
299.9696419754255
299.966205199316
299.9631327218307
299.9604545461589
299.9586652189089
299.9582016833032
299.95841315551
299.9589123968349
299.9598109444584
299.9614278042344
299.9638947806744
299.967133667077
299.970989900267
299.9753337771015
299.9800813137018
299.985171570137
299.9905401914135
299.9961065763781
300.0017729125674
300.0074284021871
300.0129563106208
300.0182489330742
300.0232383061696
300.0279289574356
300.0323658750746
300.0364281696462
300.0394879026898
300.0408099798412
300.0409833683108
300.0409647546758
300.0407838923927
300.0402299165189
300.0390950382388
300.0371861947741
300.0343950958695
300.0307402694293
300.0263535634122
300.0214216183924
300.0161208119953
300.0105833161889
300.0049026051216
299.9991587381332
299.9934388097493
299.9878370674622
299.9824294386847
299.9772359536293
299.9722186603277
299.9673967411961
299.9631478184593
299.9603873090197
299.9595111243178
299.9594538216976
299.9594808237895
299.9596625060008
299.9601342508157
299.9610852436813
299.9626961068973
299.9651095765478
299.968388930957
299.9724966944491
299.9773011669864
299.9826125493174
299.9882334514571
299.9939980858785
299.9997837356379
300.0055029624715
300.0111003112259
300.0165632570004
300.0219260998819
300.0272248669575
300.0323475509308
300.0367444868818
300.0394146459346
300.0401832106156
300.0402320777184
300.0401865202521
300.0400404942915
300.0396395597206
300.0388417507662
300.0374792783264
300.0354007508059
300.0324991218262
300.0287426280644
300.0241895384632
300.0189804358811
300.0133108376808
300.0073923267838
300.0014116223205
299.9954984099779
299.9897108880427
299.9840399394309
299.9784314318348
299.9728536016048
299.9674890050679
299.963059413298
299.9606238370645
299.9600449483267
299.9600282024505
299.96005372837
299.960208936022
299.960581221324
299.9613156978622
299.9625589130516
299.96445385905
299.9671137179356
299.9705977627696
299.9748902975105
299.9798927560061
299.9854369651887
299.9913175558457
299.9973326086907
300.0033227540389
300.0092027295595
300.01497469385
300.02070318835
300.0264232235148
300.0319357595445
300.0365048431368
300.0390588032597
300.0397039375343
300.039738664559
300.0397025880291
300.0395870442431
300.0392731093094
300.0386488132497
300.0375761027591
300.0359162917416
300.0335455655975
300.0303784714361
300.0263888908106
300.0216238640705
300.0162060812538
300.010319157757
300.0041716131944
299.9979471871113
299.9917606424053
299.9856404529564
299.9795532809983
299.9735034415768
299.9677740129106
299.9632349160516
299.9609378240487
299.960443598634
299.9604334211705
299.960475893828
299.9606224308552
299.9609466109034
299.9615581082556
299.962575724501
299.9641248902182
299.9663226273276
299.9692603315136
299.972983963147
299.9774775468135
299.9826564642407
299.9883751145126
299.9944509205195
300.0007020109892
300.0069919726964
300.0132622105489
300.0195147792923
300.0257255298974
300.0316099288044
300.0362847780973
300.0387827870688
300.039319816327
300.0393064052306
300.039168119984
300.0389382945002
300.0386278363963
300.0381305866181
300.037330104879
300.0360958019086
300.0342892985167
300.0317817773173
300.0284769307738
300.0243331594083
300.0193793795907
300.01371760503
300.00750631943
300.0009297193976
299.994152227522
299.9872830702052
299.9803994706413
299.9736317553914
299.9674289207136
299.9629236038243
299.9606780714109
299.960324190197
299.9605281525369
299.9609234367749
299.9614503052961
299.9621850287652
299.9629605372308
299.9639484137433
299.9652475658838
299.9669506333136
299.9691413876142
299.9718936104178
299.9752583977219
299.9792492942143
299.9838350243207
299.9889465926087
299.9945034836998
300.0004423779832
300.006736965036
300.0134160732591
300.0204503623516
300.0273853115559
300.0334120252976
300.0370346642039
300.0399602354796
300.0423109285513
300.0442958625669
300.0460179132338
300.0474842719824
300.0486304291985
300.0492530514321
300.0491277612052
300.0481817057334
300.0463237155616
300.0433898772655
300.039300874796
300.0340969133356
300.0279195001729
300.0209637572041
300.0134377121832
300.0055143466162
299.9973330530069
299.9890677669038
299.9810332100353
299.9739102012787
299.9686758998329
299.9656471838171
299.9641661367958
299.9635248709247
299.9634107096449
299.9637597193326
299.9643606800535
299.9651863490325
299.9661958532031
299.9674336046158
299.9689815435314
299.9709459223172
299.9734343489326
299.976529585056
299.9802707975043
299.9846484969211
299.989617337572
299.9951287509041
300.0011541924587
300.00765414161
300.0145158496689
300.0215904142686
300.0283752171246
300.0344412741754
300.0387556696876
300.041376765993
300.0436930772305
300.0456323770877
300.0473327337663
300.0487755236138
300.0498617892669
300.0505750169257
300.0506755258559
300.050020034849
300.0486413472406
300.0463240117569
300.0429435478255
300.0384356503135
300.0328409960733
300.0262943936694
300.0189846171839
300.0110969337373
300.0028048548327
299.9943398867472
299.9860571697993
299.978564673884
299.9727786547239
299.9692582538984
299.9674978633661
299.9666777051776
299.9663675503625
299.9665098761031
299.9669270631784
299.9675813330391
299.9684342047162
299.9695102426306
299.9708775622269
299.9726317234021
299.9748804282741
299.9777241063379
299.9812366968779
299.985452497912
299.990364030313
299.9959324662769
300.0021032825195
300.0087999858095
300.0158802043346
300.0231412781548
300.0301962154111
300.0365412962872
300.0413942229966
300.0439207590342
300.0460964078242
300.047884416622
300.0494485046991
300.0508107608843
300.05190060346
300.052673554112
300.0529259364758
300.0525361612735
300.0515273651981
300.0497092369679
300.0469135065541
300.0430308707784
300.038043575726
300.0320074738227
300.0250394101817
300.0173028125066
300.0089907906511
300.0003520822131
299.9917398342436
299.9837342255183
299.9772861307503
299.973183798652
299.9710777031372
299.9700778626911
299.9696607148852
299.9695883806142
299.9698155462876
299.9702553924404
299.9708702952634
299.9716832101103
299.9727691615773
299.9742309487779
299.9761827929378
299.9787373396946
299.9819939196572
299.9860241291445
299.9908565687695
299.9964719091246
300.0028132617036
300.0097862824222
300.0172443210522
300.0249407487656
300.0324436191063
300.0392442808035
300.0446342206751
300.0476216764057
300.0494985304399
300.0510907517838
300.0524570503037
300.0536661449075
300.0546783768978
300.0554242259971
300.0557614408223
300.0555937571278
300.0548880568769
300.053476618256
300.0511852805737
300.0478959917036
300.0435359538794
300.0380706742592
300.0315336895945
300.0240464719114
300.0157888513832
300.0070039955394
299.9980500549825
299.9894772953107
299.9822372273449
299.9773531846872
299.9747597270435
299.973532742826
299.9730392834734
299.9728566836534
299.9729749474548
299.9732623560624
299.9736730486309
299.974228883694
299.975000727009
299.9760966569731
299.9776488451403
299.9797990419886
299.9826798170421
299.9863982846245
299.9910246206334
299.9965810929302
300.0030269884014
300.0102577813593
300.0181160719093
300.0263408882359
300.0345095119269
300.0420487038247
300.0481271100828
300.051878856645
300.0537994064722
300.0554295892285
300.0566727997171
300.0576476846525
300.0584148682439
300.0589842949749
300.059276085548
300.0592197707718
300.0587408546027
300.0576635810521
300.0558227359567
300.0530807694223
300.0493104774131
300.0444206031742
300.0383892460111
300.0312743802886
300.0231979152978
300.0143634774955
300.0051150935432
299.9959753715019
299.987860566489
299.9819989162458
299.97872388612
299.9771143152448
299.9763977483432
299.9760855048057
299.9761860782349
299.9764620164105
299.9768366952951
299.9772752527582
299.9778138889029
299.9785577067112
299.9796611679831
299.9813007310091
299.9836483667494
299.9868579115866
299.9910547092659
299.9963156876889
300.0026462460561
300.0099742387089
300.0181633737028
300.0269528163314
300.0359126864454
300.0444585242187
300.0515830267377
300.0562655813146
300.058877593875
300.0607805226647
300.0621054537665
300.0629739782257
300.0635468913895
300.0638675583597
300.0639707074602
300.0638759231516
300.0634855631818
300.062622677385
300.0611250474762
300.058843575097
300.0556411700661
300.0513871641652
300.0459683391654
300.0393417110502
300.0315745505978
300.0228329096601
300.0134262860644
300.0038548517081
299.9949056452522
299.9878486270111
299.9834866443279
299.981189786577
299.979981193731
299.9794022751939
299.9793992409671
299.9796682198694
299.980103785134
299.9806000356603
299.9811369674396
299.9817509289897
299.9825635770322
299.9837624368658
299.9855634394046
299.9881688699331
299.9917402756138
299.9963937997934
300.0022107315067
300.0092204534685
300.0173633986952
300.0264085520488
300.0359159780685
300.0453617004088
300.0537861373089
300.0598373620443
300.0635994604838
300.0664133899194
300.0683393737032
300.0695887205986
300.0704143985145
300.0709560245136
300.0712104627149
300.0712094498832
300.070990244375
300.070445026125
300.0694258978252
300.0677482195042
300.0652024775794
300.0615938834326
300.056784547521
300.050713393534
300.0433894337853
300.0348772520716
300.0253982230504
300.0154405031655
300.0057073548978
299.9973779459849
299.9916638496882
299.9882551305102
299.9861697171527
299.9848365430033
299.9842963797531
299.984310026133
299.9845527625627
299.9849331491197
299.9853920006922
299.9859362209751
299.9866415365715
299.9876510949633
299.9891529490921
299.9913493551379
299.9944315048705
299.9985641157733
300.003871204616
300.0104069920156
300.0181260259413
300.0268995325325
300.0364236619091
300.0462129639506
300.0555373139736
300.0629696169828
300.0679539453135
300.0721343764581
300.0753507293685
300.0778575906206
300.0798803443798
300.0815304906647
300.0828670237418
300.0839382232046
300.0847656193771
300.0851563406982
300.0849421446293
300.0840857426228
300.0823948703684
300.0796352799009
300.0755958042454
300.0701255206878
300.0631582963236
300.0547344537028
300.0450439609676
300.0345413725143
300.0238601249809
300.0140587469332
300.0065706868891
300.0014788705143
299.9976475953483
299.9949969621399
299.9933816354872
299.9924635241333
299.9919612942285
299.9917732673903
299.9917948246977
299.9919275276382
299.9922845272557
299.9929705887516
299.9941293660013
299.9959293096775
299.9985715927249
300.0022698534638
300.007201954519
300.0134591557787
300.0210325462693
300.0298656733668
300.0397225683939
300.0500900865073
300.060369232499
300.0692421307111
300.0758086446132
300.0815912408084
300.0862350338939
300.0899961761195
300.0930878790139
300.0956285985486
300.0976916827665
300.0993388479104
300.1006019123175
300.1015350009064
300.1018908905124
300.1014514702386
300.1002033098558
300.0979597909982
300.0945301823007
300.0897031908972
300.0833396696318
300.0754226945486
300.0660165010092
300.0554263978957
300.0442807084864
300.0334461203564
300.0243634132858
300.0176107769971
300.0119380163922
300.0076204340959
300.0044835411261
300.0022531856495
300.0006792436602
299.9995663448251
299.9987639198685
299.9981512325382
299.9978524702881
299.9980171673617
299.9986977933646
300.0000806146717
300.0023636010043
300.0057348364232
300.0103594357576
300.0163635095723
300.0238203265503
300.0327491547353
300.0429425023829
300.0538343378468
300.0648859220848
300.0749543869774
300.082897876038
300.090017986802
300.0958894799761
300.100669170984
300.1045540612216
300.107695660369
300.1102254451761
300.1122538791724
300.1138084408053
300.1148748372499
300.1154831981676
300.1153509342828
300.1142860239132
300.1122464444846
300.1090458659245
300.1045953119836
300.0987703601813
300.0914315981094
300.0824994456148
300.0721874471345
300.0611592163573
300.0500133545037
300.0398282426034
300.0319210409488
300.0250739591013
300.0194752108376
300.015117020448
300.011773911133
300.0092129164165
300.0072256588058
300.0056447006075
300.0043987599788
300.0034809987627
300.0029185104295
300.0029948898941
300.0039320484656
300.0058295509708
300.008870820116
300.0131895424331
300.0189400257639
300.0262487139934
300.035157617177
300.0454896773933
300.0567169453928
300.0683825395905
300.0794486649575
300.0885975559594
300.0968114833079
300.1037152191188
300.1093158827661
300.1138090195594
300.1173974090984
300.1202395038494
300.1224559175332
300.1241494973248
300.1253434543002
300.1261230082835
300.1261873067916
300.1253211039584
300.1235004599063
300.1205340844782
300.1163477787499
300.1108121834963
300.1038053017921
300.0952942423064
300.0854187298574
300.0746121065962
300.0634272421116
300.0526817175225
300.0437483057088
300.0362922341453
300.0298158664871
300.0245766066283
300.0204281488727
300.0171402836349
300.0144974518507
300.0123291329857
300.0105297148296
300.0091002524212
300.0080868518653
300.0075799501837
300.0079694078654
300.0094991767962
300.0122577536994
300.0163990005588
300.0220175932128
300.0292312284571
300.0381133258925
300.0485513968318
300.0600829736266
300.072310224368
300.0842304218677
300.0945182625237
300.1037740118948
300.1116769954703
300.1181447768526
300.1233246601067
300.1273775863184
300.1304767786377
300.1328196712883
300.1345929150195
300.1358572446805
300.1366548414162
300.1368785691518
300.1363004961364
300.1347710509438
300.1321221715874
300.1282054561128
300.1229248576189
300.1162415861573
300.1081580193943
300.0986877289196
300.0880504322512
300.0767954187617
300.0655714633059
300.0555288388988
300.0472846563777
300.0398842389131
300.0337790874974
300.0288894251531
300.025061601828
300.0221006428259
300.0197993752204
300.0179961658782
300.0166284840197
300.0157135525795
300.0151905131571
300.0154596595545
300.0167706229813
300.0191709500771
300.0228831586194
300.0279354956617
300.0343375734154
300.0420841866776
300.0511219583357
300.0611792795796
300.0716970433996
300.0820873791259
300.0916137207058
300.0994699892859
300.1056470716701
300.110517939335
300.1142059316114
300.1165437390987
300.1178072023718
300.1181968346118
300.1179655519099
300.1174430784087
300.1166223120471
300.1154914978371
300.1139625436091
300.1119104843875
300.1091944249395
300.1056702560002
300.1011885201299
300.0955973457009
300.0887940264409
300.08079132551
300.0717119808178
300.0618693995102
300.0517354210105
300.0418007753203
300.0333181931375
300.0264361284616
300.0204616526898
300.0157045523123
300.0120606057968
300.0093968986989
300.0075931380761
300.0065011374098
300.0059343667423
300.0056632789977
300.0057521297825
300.0063077233768
300.007412990236
300.0093171493573
300.012215562625
300.0163099641737
300.0217800889257
300.0287422647812
300.0371898358756
300.0469565790191
300.0576439556692
300.0689562334151
300.0800660501089
300.0895955982239
300.0978418869717
300.1048179189469
300.1103188390451
300.1144977152343
300.1175197420022
300.1195447261866
300.1207168592779
300.1212686779791
300.1212850756338
300.1208048550031
300.1198417528117
300.1182600294608
300.1159671708722
300.1128187194939
300.1086620912133
300.1033665275876
300.0968710393496
300.0891792627071
300.0803337448365
300.0705740453618
300.0604370024009
300.0503018649559
300.0409813077422
300.0336497343204
300.0269710252359
300.0214331568659
300.017032400136
300.0136908264212
300.0112993815874
300.0097089179455
300.0087671536981
300.0082924582039
300.0081853580556
300.0085096189833
300.0093760631482
300.01095071528
300.0134421010983
300.0170650637328
300.0220233384112
300.0284620163896
300.0364057373571
300.0457908728616
300.0563629603009
300.0677793234354
300.0793230380722
300.0896709711176
300.0987071282382
300.1065517087565
300.1128901734602
300.1178135585023
300.1214468839549
300.1239458525313
300.1254936850618
300.1263013420886
300.1265154708815
300.1262077088937
300.1254396126709
300.1241455108549
300.1221716987287
300.1193494756938
300.1155231987346
300.1105927809882
300.104488588352
300.0971512475888
300.0885860455226
300.0790021209719
300.0688670988693
300.0585805247592
300.0487653275139
300.0407009193544
300.0336591175609
300.0275370962304
300.0225188135584
300.0185759155207
300.0156316463151
300.01357045731
300.012221979753
300.0114511588318
300.0110644376983
300.0111388138874
300.0117597026548
300.0130092811655
300.0151598101438
300.0183982265944
300.0229384678213
300.0289519555369
300.0365204268174
300.045634166433
300.056111269052
300.0675637523753
300.0794291264983
300.0905107007735
300.1003858107526
300.1090714397646
300.1162166530124
300.1218385800557
300.1260616779252
300.1290232976943
300.1308823586195
300.1318623082005
300.1321221100391
300.1318207524998
300.1311043324785
300.1299017592818
300.1280997900221
300.1255736079937
300.1221631771907
300.1176957918603
300.1120099715823
300.1050251294083
300.096791913585
300.0874732954716
300.0774000653288
300.0670141053491
300.0568317453321
300.0478583891196
300.040455017355
300.0337663378202
300.0282218355962
300.0237824010381
300.0203536898101
300.0178327267526
300.0161064386846
300.015051532429
300.0145278578281
300.0144310038391
300.0148584856835
300.0159204367068
300.0177412204932
300.0205492380379
300.024552044317
300.0299518352151
300.0368990370353
300.045425920284
300.055375332797
300.0662946288995
300.077793433965
300.0889819255963
300.0988513866363
300.1072655562555
300.1143520016368
300.119826607872
300.1237627724955
300.1262908863976
300.1276948600955
300.1280213889102
300.1274715898443
300.126514844523
300.1251235160358
300.123380920223
300.1212653634626
300.1186859428507
300.1154748340932
300.1114248552072
300.1063628208079
300.1001833806985
300.0928408783785
300.0843622763543
300.0749788755463
300.0651561331987
300.0552324481509
300.0458108122498
300.0381201217029
300.0315065008958
300.0259116048213
300.0214963903707
300.0181508903719
300.0157053774149
300.0139950970255
300.0129316763468
300.0125184370819
300.0126559258502
300.0138253233666
300.0166679032999
300.0208946571105
300.0257847160034
300.0305485043849
300.0343917237633
300.0370675082999
300.0389926575804
300.0412590565133
300.0424889735338
300.0446025196947
)
;

boundaryField
{
    inlet
    {
        type            fixedValue;
        value           uniform 300;
    }
    outlet
    {
        type            characteristicVelocityInletOutletTemperature;
        UName           U;
        pName           p;
        TName           T;
        phiName         phi;
        rhoName         rho;
        U               (0 0 0);
        p               101325;
        T               300;
        value           uniform 300;
    }
    frontAndBack
    {
        type            empty;
    }
}


// ************************************************************************* //
