/*--------------------------------*- C++ -*----------------------------------*\
| =========                 |                                                 |
| \\      /  F ield         | OpenFOAM: The Open Source CFD Toolbox           |
|  \\    /   O peration     | Version:  v2012                                 |
|   \\  /    A nd           | Website:  www.openfoam.com                      |
|    \\/     M anipulation  |                                                 |
\*---------------------------------------------------------------------------*/
FoamFile
{
    version     2.0;
    format      ascii;
    class       volVectorField;
    location    "0.013";
    object      U;
}
// * * * * * * * * * * * * * * * * * * * * * * * * * * * * * * * * * * * * * //

dimensions      [0 1 -1 0 0 0 0];


internalField   nonuniform List<vector> 
1000
(
(-0.0009897751517982556 0 0)
(-0.03284115405094207 0 0)
(-0.04105670149656837 0 0)
(-0.0563641498199215 0 0)
(-0.07041303669498342 0 0)
(-0.08352296526467991 0 0)
(-0.09471699436555656 0 0)
(-0.1042939653559988 0 0)
(-0.112614881815129 0 0)
(-0.1184923438892419 0 0)
(-0.1203447830950816 0 0)
(-0.1203205998706353 0 0)
(-0.1195775059984104 0 0)
(-0.117288282856869 0 0)
(-0.1127289973279775 0 0)
(-0.1056241300191746 0 0)
(-0.0962154831581699 0 0)
(-0.08494610766436568 0 0)
(-0.07220189809148486 0 0)
(-0.05824553566595626 0 0)
(-0.04327735866242188 0 0)
(-0.02750861838123579 0 0)
(-0.0111954260561464 0 0)
(0.005363592338074514 0 0)
(0.02184243790753046 0 0)
(0.03790320310794586 0 0)
(0.05323289056123267 0 0)
(0.06763545520925596 0 0)
(0.08113464426626267 0 0)
(0.09387925292155309 0 0)
(0.1055316332516156 0 0)
(0.1142776170261742 0 0)
(0.1180026012784286 0 0)
(0.1184408043802619 0 0)
(0.1183472891894899 0 0)
(0.117779424526027 0 0)
(0.1161941002593519 0 0)
(0.1129403334152818 0 0)
(0.1074542310424717 0 0)
(0.09942311271311742 0 0)
(0.08889619221748954 0 0)
(0.07624656779258557 0 0)
(0.06200878065426915 0 0)
(0.04669397954475125 0 0)
(0.03068678239736409 0 0)
(0.01425464143446514 0 0)
(-0.002374003865764617 0 0)
(-0.01893969761776435 0 0)
(-0.03515718209532764 0 0)
(-0.05080820066373542 0 0)
(-0.0658485732716738 0 0)
(-0.0803854596040907 0 0)
(-0.09433760184421536 0 0)
(-0.1066074217510431 0 0)
(-0.1145824198929371 0 0)
(-0.1171354873617622 0 0)
(-0.1173132225436455 0 0)
(-0.1171819288781255 0 0)
(-0.1166773247782831 0 0)
(-0.1153008496571784 0 0)
(-0.112549790094276 0 0)
(-0.107891761769377 0 0)
(-0.1009125958995879 0 0)
(-0.09142648087538889 0 0)
(-0.07954553336898458 0 0)
(-0.06565356256381134 0 0)
(-0.05029392148699312 0 0)
(-0.03403175383226991 0 0)
(-0.01735315299057589 0 0)
(-0.0006231710606958084 0 0)
(0.01591220422639107 0 0)
(0.03210923072314786 0 0)
(0.04792551695292409 0 0)
(0.06343281226670275 0 0)
(0.0787366725187286 0 0)
(0.09355479177347442 0 0)
(0.1063041168038558 0 0)
(0.1140362206729258 0 0)
(0.1162233057959127 0 0)
(0.1163366505145666 0 0)
(0.1162725398258946 0 0)
(0.1158083489262944 0 0)
(0.1146611791686517 0 0)
(0.1123522885974079 0 0)
(0.1084106024155385 0 0)
(0.1023976606868686 0 0)
(0.09400720712337976 0 0)
(0.08314385102906516 0 0)
(0.06997188452401527 0 0)
(0.05490214695161259 0 0)
(0.03850664833764492 0 0)
(0.02139248995242861 0 0)
(0.004089252640394309 0 0)
(-0.01302344540485098 0 0)
(-0.0297605498820979 0 0)
(-0.04615044133606092 0 0)
(-0.06237563500964637 0 0)
(-0.07853179977981256 0 0)
(-0.09405283457309628 0 0)
(-0.1068388735560872 0 0)
(-0.1138699052742621 0 0)
(-0.1155722292220237 0 0)
(-0.1156535636221904 0 0)
(-0.1155192505140959 0 0)
(-0.1151038175909941 0 0)
(-0.1140171580164789 0 0)
(-0.1118936372769131 0 0)
(-0.1082984204857579 0 0)
(-0.1028178393230323 0 0)
(-0.09512176712483421 0 0)
(-0.08504202546679059 0 0)
(-0.07262747593891157 0 0)
(-0.05815921458150713 0 0)
(-0.04211858679323126 0 0)
(-0.02510486038740248 0 0)
(-0.007710804045718499 0 0)
(0.009608021563496954 0 0)
(0.02661936792813746 0 0)
(0.04332583074552087 0 0)
(0.05989184861591892 0 0)
(0.07641906772941531 0 0)
(0.09236583382877356 0 0)
(0.1056088493021687 0 0)
(0.11300578166574 0 0)
(0.1148442475219095 0 0)
(0.1149201964171428 0 0)
(0.1148637044856478 0 0)
(0.1144918475196194 0 0)
(0.1135875695526933 0 0)
(0.1117783046134041 0 0)
(0.1086773799779176 0 0)
(0.1038837561944631 0 0)
(0.09704116431249653 0 0)
(0.08789700094487393 0 0)
(0.07636732331264486 0 0)
(0.06258556889812356 0 0)
(0.04690773538062671 0 0)
(0.0298613078894649 0 0)
(0.01204609902894899 0 0)
(-0.00599539842359023 0 0)
(-0.02391033507854176 0 0)
(-0.04160811997007239 0 0)
(-0.05919433744140739 0 0)
(-0.0766587460286217 0 0)
(-0.09316882487961348 0 0)
(-0.1062202268938444 0 0)
(-0.1128207813895468 0 0)
(-0.1142633445842381 0 0)
(-0.1143257482325018 0 0)
(-0.1142695474188682 0 0)
(-0.113974767692157 0 0)
(-0.1131504331860044 0 0)
(-0.1114751842767936 0 0)
(-0.1085689209652211 0 0)
(-0.1040501622125509 0 0)
(-0.09757666798966533 0 0)
(-0.08889981451964955 0 0)
(-0.07791810091760856 0 0)
(-0.06471910502663587 0 0)
(-0.04959490776188807 0 0)
(-0.03301369468028047 0 0)
(-0.01553460545161056 0 0)
(0.00231868747727569 0 0)
(0.02018648348056264 0 0)
(0.03794779899454034 0 0)
(0.05566523853979229 0 0)
(0.07335427509020392 0 0)
(0.09029604326638223 0 0)
(0.1039762646170803 0 0)
(0.1115605868450219 0 0)
(0.1136057278117043 0 0)
(0.1141538399837278 0 0)
(0.1144399144901997 0 0)
(0.1143284110258574 0 0)
(0.1137044467500208 0 0)
(0.1122218305243735 0 0)
(0.1095072853696213 0 0)
(0.1052087722316998 0 0)
(0.09902178103213014 0 0)
(0.09072448669558458 0 0)
(0.08021449310812032 0 0)
(0.06753805275008434 0 0)
(0.05290753850886679 0 0)
(0.03669560065605618 0 0)
(0.01938100121554832 0 0)
(0.0014465645391932 0 0)
(-0.01676238742143298 0 0)
(-0.03513026385090093 0 0)
(-0.05367481220814192 0 0)
(-0.07224556069389147 0 0)
(-0.08968883857045402 0 0)
(-0.102792851710956 0 0)
(-0.1099565130198932 0 0)
(-0.1120032577730129 0 0)
(-0.1133718355632759 0 0)
(-0.1143411257928719 0 0)
(-0.114949225719371 0 0)
(-0.115031017571666 0 0)
(-0.1143128763954767 0 0)
(-0.1123665011802807 0 0)
(-0.1086689463421184 0 0)
(-0.1027803408451343 0 0)
(-0.09436935424971657 0 0)
(-0.08327303129001734 0 0)
(-0.06953078781736263 0 0)
(-0.05339165690931524 0 0)
(-0.0353027016208504 0 0)
(-0.01586244612302917 0 0)
(0.004278329090976292 0 0)
(0.02452952735113712 0 0)
(0.04446006243995484 0 0)
(0.06382405252996991 0 0)
(0.08212619589281567 0 0)
(0.09775809803109202 0 0)
(0.1086141961989117 0 0)
(0.1116090532539874 0 0)
(0.1097372328147006 0 0)
(0.1055914278121332 0 0)
(0.09993635481451539 0 0)
(0.09366218219483805 0 0)
(0.08722783698176961 0 0)
(0.08103910638610354 0 0)
(0.07496153168416934 0 0)
(0.06784318333536787 0 0)
(0.0610419257700846 0 0)
(0.05352919871009231 0 0)
(0.04499800452869365 0 0)
(0.03509458581757779 0 0)
(0.02370259229946319 0 0)
(0.01092022116965622 0 0)
(-0.003073937855420705 0 0)
(-0.01812847214560322 0 0)
(-0.0341814751297885 0 0)
(-0.05117186547640969 0 0)
(-0.06885408590537714 0 0)
(-0.0865448480389288 0 0)
(-0.1024428989723513 0 0)
(-0.1138026637001957 0 0)
(-0.1197628086241476 0 0)
(-0.1222858054995413 0 0)
(-0.1232913354502085 0 0)
(-0.1229174916619751 0 0)
(-0.1225635233333345 0 0)
(-0.1215965562787698 0 0)
(-0.120186675726471 0 0)
(-0.1180889418589744 0 0)
(-0.1149098512369661 0 0)
(-0.1101859414688518 0 0)
(-0.1034635371187928 0 0)
(-0.09436349305597352 0 0)
(-0.08266918963292787 0 0)
(-0.06839362430168326 0 0)
(-0.05178689749195586 0 0)
(-0.0332891067649443 0 0)
(-0.01343571460941611 0 0)
(0.007250666907488912 0 0)
(0.0282758984541551 0 0)
(0.04904894633511836 0 0)
(0.06889383998356022 0 0)
(0.08608813911383163 0 0)
(0.0990020333153994 0 0)
(0.1047273391665077 0 0)
(0.1045717677659764 0 0)
(0.1015326723046748 0 0)
(0.09658095327173391 0 0)
(0.0906629033378767 0 0)
(0.08427080927999982 0 0)
(0.07772629943911283 0 0)
(0.07134209523269439 0 0)
(0.06378482478341868 0 0)
(0.05705357546177849 0 0)
(0.04985492297204291 0 0)
(0.04198697844303589 0 0)
(0.03296466683363732 0 0)
(0.02252003921163098 0 0)
(0.0105515709308418 0 0)
(-0.002962651092510685 0 0)
(-0.0179981133973353 0 0)
(-0.03449932577956683 0 0)
(-0.05233764586915235 0 0)
(-0.07111509315347853 0 0)
(-0.08999059028761797 0 0)
(-0.1073277014081925 0 0)
(-0.1205551501720135 0 0)
(-0.1281021361341179 0 0)
(-0.1313523766281769 0 0)
(-0.1323951885810714 0 0)
(-0.1321888314764113 0 0)
(-0.1313185858343277 0 0)
(-0.1297866563232123 0 0)
(-0.1276830027646583 0 0)
(-0.1249752117186397 0 0)
(-0.1214828810275528 0 0)
(-0.1169146740258203 0 0)
(-0.1109198689951557 0 0)
(-0.1031365896007369 0 0)
(-0.09324867085016164 0 0)
(-0.08104852356510472 0 0)
(-0.0664949919500048 0 0)
(-0.0497475403477976 0 0)
(-0.03113717449114748 0 0)
(-0.01107459715325824 0 0)
(0.0099749782149051 0 0)
(0.03134857625401274 0 0)
(0.05215418165834988 0 0)
(0.07088873382998696 0 0)
(0.0857108525364727 0 0)
(0.09453778756365552 0 0)
(0.09627746408353793 0 0)
(0.09431145577900044 0 0)
(0.09036892359485894 0 0)
(0.08510847232613741 0 0)
(0.07910911267203312 0 0)
(0.07262468180224303 0 0)
(0.0659542985255334 0 0)
(0.0585716868700682 0 0)
(0.05131718943565431 0 0)
(0.04397149519139904 0 0)
(0.03626820071636916 0 0)
(0.02777694075894751 0 0)
(0.01814255598301134 0 0)
(0.007082187139339323 0 0)
(-0.005622529909977698 0 0)
(-0.02008936409495575 0 0)
(-0.03633348282369136 0 0)
(-0.0542698394726823 0 0)
(-0.07354729822856002 0 0)
(-0.09337750005883889 0 0)
(-0.112231074669547 0 0)
(-0.1274383824729952 0 0)
(-0.136706456385967 0 0)
(-0.1408498462421141 0 0)
(-0.1421247925203526 0 0)
(-0.1421375024029914 0 0)
(-0.140916648385912 0 0)
(-0.1389665054697131 0 0)
(-0.1362321180930046 0 0)
(-0.1328343240174497 0 0)
(-0.1287439289517492 0 0)
(-0.1238188651236416 0 0)
(-0.1178495304070623 0 0)
(-0.1105858133956096 0 0)
(-0.1017598208610377 0 0)
(-0.09111961941661822 0 0)
(-0.07847726011487331 0 0)
(-0.06375960691942373 0 0)
(-0.04704007376928204 0 0)
(-0.02853836149753658 0 0)
(-0.00861267114554078 0 0)
(0.01224598581149743 0 0)
(0.03322505038977442 0 0)
(0.05283318946023176 0 0)
(0.06940252227758199 0 0)
(0.08091983499772534 0 0)
(0.08475374711368622 0 0)
(0.08400655752040403 0 0)
(0.08119321689751233 0 0)
(0.0769053014867877 0 0)
(0.07162877314126545 0 0)
(0.06559126053448683 0 0)
(0.05900834829254518 0 0)
(0.05182057854813903 0 0)
(0.04417000220534439 0 0)
(0.03666278681448227 0 0)
(0.0288762168042668 0 0)
(0.02049553751742619 0 0)
(0.01120226798075082 0 0)
(0.0007167634412262279 0 0)
(-0.01122040139438622 0 0)
(-0.0248381110031636 0 0)
(-0.0403007064094946 0 0)
(-0.05766799945689213 0 0)
(-0.0767364291298995 0 0)
(-0.09686321273967781 0 0)
(-0.1167453193836134 0 0)
(-0.1337664508629456 0 0)
(-0.1449272298513062 0 0)
(-0.1501766792400583 0 0)
(-0.1519241575862126 0 0)
(-0.1521545289841727 0 0)
(-0.1510355107484023 0 0)
(-0.1489264574569985 0 0)
(-0.1459169511073061 0 0)
(-0.1420484066438808 0 0)
(-0.1373635436164785 0 0)
(-0.1318362609560008 0 0)
(-0.1254133174080665 0 0)
(-0.1180022161596916 0 0)
(-0.1094603234852641 0 0)
(-0.09959467164257509 0 0)
(-0.08819734552931413 0 0)
(-0.07511426067301158 0 0)
(-0.06028454702204164 0 0)
(-0.04373563318593965 0 0)
(-0.0255821156524139 0 0)
(-0.006083934317524404 0 0)
(0.01411378019160647 0 0)
(0.03381583159979436 0 0)
(0.05139476946291895 0 0)
(0.06434332811917041 0 0)
(0.07002516171536004 0 0)
(0.07059063700541375 0 0)
(0.06904819303057662 0 0)
(0.06587660874549171 0 0)
(0.06139614069328116 0 0)
(0.05591280625611864 0 0)
(0.04969762188734016 0 0)
(0.0428699338798454 0 0)
(0.03538426774035708 0 0)
(0.02789074906342179 0 0)
(0.01996637941584738 0 0)
(0.01145852515320201 0 0)
(0.002222599683291766 0 0)
(-0.007937105302543745 0 0)
(-0.01929671404853007 0 0)
(-0.03216407795169611 0 0)
(-0.04677695104354338 0 0)
(-0.06327534162247647 0 0)
(-0.08164345166292061 0 0)
(-0.1014595203383989 0 0)
(-0.1216510421413654 0 0)
(-0.1398419058055569 0 0)
(-0.1526180299750022 0 0)
(-0.1589970737820908 0 0)
(-0.1615051410916436 0 0)
(-0.1621891176588539 0 0)
(-0.1613853819521178 0 0)
(-0.1594951433134545 0 0)
(-0.1565076013504565 0 0)
(-0.1524703428600525 0 0)
(-0.147461210152936 0 0)
(-0.1415009525258673 0 0)
(-0.1345976092060708 0 0)
(-0.1267412154060557 0 0)
(-0.1178874904791494 0 0)
(-0.1079590536908105 0 0)
(-0.09687245405349586 0 0)
(-0.08456169695190748 0 0)
(-0.07096591422538531 0 0)
(-0.05601127568568927 0 0)
(-0.03966327188887528 0 0)
(-0.0220044793157038 0 0)
(-0.00342566000457107 0 0)
(0.01525490076662979 0 0)
(0.03271481569922632 0 0)
(0.04618835788020616 0 0)
(0.05290348892375586 0 0)
(0.05437892866436381 0 0)
(0.05361815852073019 0 0)
(0.05123398873665162 0 0)
(0.04748270774486557 0 0)
(0.04272493161612732 0 0)
(0.0370533882662628 0 0)
(0.0305353609831351 0 0)
(0.02360846921216345 0 0)
(0.01627840076189934 0 0)
(0.008432317237803501 0 0)
(7.83465655380189e-07 0 0)
(-0.009155441209668193 0 0)
(-0.01924304852558737 0 0)
(-0.03046408737218897 0 0)
(-0.04297961623447833 0 0)
(-0.05694591268827542 0 0)
(-0.07256850600060248 0 0)
(-0.09001452705771756 0 0)
(-0.1090253109512334 0 0)
(-0.1287256287028455 0 0)
(-0.1473404498661859 0 0)
(-0.1615223272585533 0 0)
(-0.1691247389418561 0 0)
(-0.1719608461761975 0 0)
(-0.1727295964221287 0 0)
(-0.172310554605777 0 0)
(-0.1703899723302426 0 0)
(-0.1675293388116167 0 0)
(-0.1636525152383928 0 0)
(-0.1587018822896085 0 0)
(-0.152715002376144 0 0)
(-0.145691739576134 0 0)
(-0.1376178519800112 0 0)
(-0.128485813430471 0 0)
(-0.1183071318268958 0 0)
(-0.1070878624138087 0 0)
(-0.09480327784162547 0 0)
(-0.08141548141703604 0 0)
(-0.06692296775517326 0 0)
(-0.05140997820070808 0 0)
(-0.0349612647143115 0 0)
(-0.01773126252442907 0 0)
(-0.0003244981083533198 0 0)
(0.01627353238934899 0 0)
(0.02973927512416623 0 0)
(0.03667234144111062 0 0)
(0.03815156325352508 0 0)
(0.03709593229086281 0 0)
(0.03411076916631582 0 0)
(0.02971255367688459 0 0)
(0.0244978497719456 0 0)
(0.01862006247840899 0 0)
(0.01188183637847707 0 0)
(0.004352839782263552 0 0)
(-0.003533993626976881 0 0)
(-0.01194619514200829 0 0)
(-0.02089587071541534 0 0)
(-0.03046675196244633 0 0)
(-0.04078762727720464 0 0)
(-0.05200468399888374 0 0)
(-0.06428750224735155 0 0)
(-0.07783717487323512 0 0)
(-0.09281167005400773 0 0)
(-0.1093019848054764 0 0)
(-0.1271911586805136 0 0)
(-0.1458376702795056 0 0)
(-0.1639294614019452 0 0)
(-0.1786171498353362 0 0)
(-0.186891251163279 0 0)
(-0.1897670980370832 0 0)
(-0.1902019643873135 0 0)
(-0.1893329528018368 0 0)
(-0.1869145072771192 0 0)
(-0.1831303296679683 0 0)
(-0.1786618631113299 0 0)
(-0.1732691317642919 0 0)
(-0.1669425247364739 0 0)
(-0.159705814728204 0 0)
(-0.1515787260324554 0 0)
(-0.1425710569359207 0 0)
(-0.1326594849244999 0 0)
(-0.1217834267169195 0 0)
(-0.1098780246738514 0 0)
(-0.09691556354836825 0 0)
(-0.0829082324928698 0 0)
(-0.06786775636676907 0 0)
(-0.05180511699297282 0 0)
(-0.03486602426051732 0 0)
(-0.01776384658794966 0 0)
(-0.001481519241792392 0 0)
(0.0124104451034047 0 0)
(0.02003719198389118 0 0)
(0.02129244341323333 0 0)
(0.01915752757136412 0 0)
(0.01436342312500902 0 0)
(0.007581355147906014 0 0)
(-0.0005522684310855871 0 0)
(-0.009690598779947365 0 0)
(-0.01957877951600754 0 0)
(-0.02996616112389307 0 0)
(-0.04055823880211437 0 0)
(-0.05163906357761814 0 0)
(-0.06318735679881095 0 0)
(-0.07448396899236141 0 0)
(-0.08581996520120549 0 0)
(-0.09748140662613419 0 0)
(-0.1097983610364903 0 0)
(-0.1229388519194981 0 0)
(-0.1369192850877351 0 0)
(-0.1518332485979163 0 0)
(-0.1678464388024079 0 0)
(-0.1844702016080861 0 0)
(-0.2005921478225969 0 0)
(-0.2139850637726421 0 0)
(-0.2213729564141356 0 0)
(-0.2233643628112628 0 0)
(-0.2226962932183321 0 0)
(-0.219909428283561 0 0)
(-0.2153326187027444 0 0)
(-0.209576002062927 0 0)
(-0.2030782775152618 0 0)
(-0.1957463737140566 0 0)
(-0.1878453468697311 0 0)
(-0.1793359759894792 0 0)
(-0.170222337256052 0 0)
(-0.1604626563767787 0 0)
(-0.1501307177791512 0 0)
(-0.1392539708346207 0 0)
(-0.1277957577323836 0 0)
(-0.1156683688832776 0 0)
(-0.1027638916965416 0 0)
(-0.08896503679004719 0 0)
(-0.0742431855008235 0 0)
(-0.05879100425646819 0 0)
(-0.04329088282330718 0 0)
(-0.02862653894636748 0 0)
(-0.01583564425389224 0 0)
(-0.008678990263846642 0 0)
(-0.007824337460818424 0 0)
(-0.0107561191401779 0 0)
(-0.01692000569889456 0 0)
(-0.02550651174827658 0 0)
(-0.03575454249015809 0 0)
(-0.04715524878303048 0 0)
(-0.05925789579998006 0 0)
(-0.07166817259181109 0 0)
(-0.08416691167468156 0 0)
(-0.09631235297310754 0 0)
(-0.1087549230914676 0 0)
(-0.1211271368861657 0 0)
(-0.1333911482015277 0 0)
(-0.1455590158076148 0 0)
(-0.1577301751937353 0 0)
(-0.1701675446024987 0 0)
(-0.1832784366144498 0 0)
(-0.19739896134835 0 0)
(-0.2125663007272167 0 0)
(-0.2280253913429077 0 0)
(-0.2426741888516218 0 0)
(-0.2551997308012327 0 0)
(-0.2621363151167556 0 0)
(-0.2633842123782641 0 0)
(-0.2614891100329659 0 0)
(-0.2568426293299683 0 0)
(-0.2499333926872099 0 0)
(-0.2414023487527584 0 0)
(-0.2317911215328719 0 0)
(-0.221534773093412 0 0)
(-0.2109244810365253 0 0)
(-0.2002365620093604 0 0)
(-0.1892112422048325 0 0)
(-0.1777938639479506 0 0)
(-0.1664231869987898 0 0)
(-0.1549744665555307 0 0)
(-0.1435005393264546 0 0)
(-0.1319913189089593 0 0)
(-0.1202938518567474 0 0)
(-0.1081468432438083 0 0)
(-0.09539632128569049 0 0)
(-0.08211786554746839 0 0)
(-0.06870896776110118 0 0)
(-0.05587752785016569 0 0)
(-0.04447167031907998 0 0)
(-0.0377372442768206 0 0)
(-0.03674320616238874 0 0)
(-0.03951860420773706 0 0)
(-0.04573501613470162 0 0)
(-0.05478707664291307 0 0)
(-0.0658857717200149 0 0)
(-0.07841267444423877 0 0)
(-0.09182305922091526 0 0)
(-0.1055528796890265 0 0)
(-0.1191490182918865 0 0)
(-0.1323019382599048 0 0)
(-0.1447619830069739 0 0)
(-0.1580073310811303 0 0)
(-0.1699641175920868 0 0)
(-0.1819745492259081 0 0)
(-0.1938062344735559 0 0)
(-0.2056775455383151 0 0)
(-0.2179692476001858 0 0)
(-0.2310311116547502 0 0)
(-0.2449888849397783 0 0)
(-0.2595979474610965 0 0)
(-0.2738347361361848 0 0)
(-0.2863698430321929 0 0)
(-0.2945450980725132 0 0)
(-0.2967802614453958 0 0)
(-0.2950496372191858 0 0)
(-0.2901411610814609 0 0)
(-0.2822704411537622 0 0)
(-0.2721624271822621 0 0)
(-0.2604981964902432 0 0)
(-0.2478526826946333 0 0)
(-0.2346876786299072 0 0)
(-0.2213399837530843 0 0)
(-0.2082032654810854 0 0)
(-0.1955900353103278 0 0)
(-0.1821149822010925 0 0)
(-0.1699004477588443 0 0)
(-0.1579322743188852 0 0)
(-0.1464653413984171 0 0)
(-0.1354238118115469 0 0)
(-0.1246174975373068 0 0)
(-0.113838764058096 0 0)
(-0.1029274122344799 0 0)
(-0.09183584997073743 0 0)
(-0.08099228758858279 0 0)
(-0.07108435525919092 0 0)
(-0.06475047071968783 0 0)
(-0.06336100218122022 0 0)
(-0.06546121227609732 0 0)
(-0.07086924704867911 0 0)
(-0.07934897714300365 0 0)
(-0.09024066773487975 0 0)
(-0.1028736781759746 0 0)
(-0.1166152203938935 0 0)
(-0.1308608635744706 0 0)
(-0.1451193043213045 0 0)
(-0.1591834746253192 0 0)
(-0.1723250735658168 0 0)
(-0.1859024456617564 0 0)
(-0.1978970377207695 0 0)
(-0.2098036818624097 0 0)
(-0.2213840005881341 0 0)
(-0.2328253768149035 0 0)
(-0.2442408938355116 0 0)
(-0.2559180051152238 0 0)
(-0.2683225485172857 0 0)
(-0.2817421094358655 0 0)
(-0.2953198964423225 0 0)
(-0.3076700000583144 0 0)
(-0.3173752624398665 0 0)
(-0.3216158266064783 0 0)
(-0.3210788860169054 0 0)
(-0.3173170168249965 0 0)
(-0.3101102705544246 0 0)
(-0.2999225436117203 0 0)
(-0.2874649961331025 0 0)
(-0.2734375432715632 0 0)
(-0.2584653703672576 0 0)
(-0.2431155964952191 0 0)
(-0.2278648438966544 0 0)
(-0.2132027226112292 0 0)
(-0.1992394270170241 0 0)
(-0.1852865416448714 0 0)
(-0.1729140438055446 0 0)
(-0.1613578646274684 0 0)
(-0.1508751789458831 0 0)
(-0.1413159628451465 0 0)
(-0.132403327098832 0 0)
(-0.123848135698347 0 0)
(-0.1153695868969024 0 0)
(-0.1070437069930196 0 0)
(-0.09909874743262544 0 0)
(-0.09373681150354543 0 0)
(-0.0923570376005762 0 0)
(-0.09394569788742062 0 0)
(-0.0985382555505865 0 0)
(-0.1060654556411205 0 0)
(-0.1161054346546756 0 0)
(-0.128167883864809 0 0)
(-0.1417122812946325 0 0)
(-0.1561481407300664 0 0)
(-0.1708749409937087 0 0)
(-0.1854668045866972 0 0)
(-0.1993479400765075 0 0)
(-0.21298276649275 0 0)
(-0.2257983183903121 0 0)
(-0.2379132982584208 0 0)
(-0.2495470302624825 0 0)
(-0.260695483990297 0 0)
(-0.2714767077940195 0 0)
(-0.28225491829107 0 0)
(-0.2935136174939095 0 0)
(-0.3054965210681928 0 0)
(-0.3176457863905551 0 0)
(-0.3290325926434827 0 0)
(-0.3388709156249753 0 0)
(-0.3441900236110778 0 0)
(-0.3446020924538614 0 0)
(-0.3417838808958775 0 0)
(-0.3355538598084415 0 0)
(-0.3261939683380494 0 0)
(-0.3142242019696512 0 0)
(-0.3002656347518283 0 0)
(-0.2850427961261002 0 0)
(-0.2693238533239311 0 0)
(-0.2537523787001878 0 0)
(-0.2386959689508191 0 0)
(-0.224628601793933 0 0)
(-0.2103953011864537 0 0)
(-0.1980894441098387 0 0)
(-0.1863988940327817 0 0)
(-0.175672135969262 0 0)
(-0.1656887422650806 0 0)
(-0.1560706513160759 0 0)
(-0.1463569795974762 0 0)
(-0.1361733103475158 0 0)
(-0.1253944402943621 0 0)
(-0.1143819496473494 0 0)
(-0.1037967407919251 0 0)
(-0.09506880891622156 0 0)
(-0.08983849304599015 0 0)
(-0.0878088124948352 0 0)
(-0.08773848296686212 0 0)
(-0.08973671611777848 0 0)
(-0.09427285994644512 0 0)
(-0.1007371834990703 0 0)
(-0.1091581941797838 0 0)
(-0.118198296404382 0 0)
(-0.1277080283822761 0 0)
(-0.1374213275834499 0 0)
(-0.147312945577152 0 0)
(-0.1573779066048607 0 0)
(-0.1676633450775425 0 0)
(-0.1782518150211246 0 0)
(-0.1892712410161118 0 0)
(-0.2008691369265489 0 0)
(-0.2131663435921445 0 0)
(-0.2262655569454712 0 0)
(-0.2402498515420294 0 0)
(-0.2549364561380009 0 0)
(-0.2693011359196518 0 0)
(-0.2821002033657083 0 0)
(-0.2925671583115002 0 0)
(-0.2975843978337038 0 0)
(-0.297280303125538 0 0)
(-0.2937409224495426 0 0)
(-0.287114520454383 0 0)
(-0.278026791218454 0 0)
(-0.2670745464637687 0 0)
(-0.2547485227361399 0 0)
(-0.2415110324003442 0 0)
(-0.2278055087311664 0 0)
(-0.2142414378091606 0 0)
(-0.2004186231673941 0 0)
(-0.1874497412348327 0 0)
(-0.1746804868078412 0 0)
(-0.1623713572579543 0 0)
(-0.1505934440512314 0 0)
(-0.1393959569350828 0 0)
(-0.1287073981184997 0 0)
(-0.1184214665727377 0 0)
(-0.1084436648971003 0 0)
(-0.09863958765342207 0 0)
(-0.08932208289860685 0 0)
(-0.08082189462096492 0 0)
(-0.07434658716777084 0 0)
(-0.07173859006053948 0 0)
(-0.07226868847085482 0 0)
(-0.07524362885187459 0 0)
(-0.08073899582686744 0 0)
(-0.08838022318535643 0 0)
(-0.0978088796102983 0 0)
(-0.1086464168471316 0 0)
(-0.1205638012817641 0 0)
(-0.1328612157269881 0 0)
(-0.1460095566541223 0 0)
(-0.1582205839372726 0 0)
(-0.1702341690911181 0 0)
(-0.1818463550709175 0 0)
(-0.1932360816019702 0 0)
(-0.2044902310234002 0 0)
(-0.2157112878869551 0 0)
(-0.227078013003758 0 0)
(-0.238941514475437 0 0)
(-0.2516261988436777 0 0)
(-0.26512647111486 0 0)
(-0.2788585033017538 0 0)
(-0.2917363383565779 0 0)
(-0.302759751970093 0 0)
(-0.3094689112888209 0 0)
(-0.3106848382356455 0 0)
(-0.3081457420099036 0 0)
(-0.3023722145359624 0 0)
(-0.2937104033028436 0 0)
(-0.2827446080803458 0 0)
(-0.2700067955209492 0 0)
(-0.2560859612158325 0 0)
(-0.241521618202799 0 0)
(-0.2268973341933988 0 0)
(-0.2122253858678121 0 0)
(-0.1980648144454694 0 0)
(-0.1844543636590771 0 0)
(-0.1713899742309349 0 0)
(-0.1590525284883458 0 0)
(-0.1475898758475821 0 0)
(-0.1370165517450755 0 0)
(-0.1271743192987617 0 0)
(-0.1178246929248392 0 0)
(-0.1087753825516088 0 0)
(-0.1003512940489968 0 0)
(-0.0928025023102963 0 0)
(-0.08642008822853869 0 0)
(-0.0832986456421043 0 0)
(-0.08346567726242074 0 0)
(-0.08598558662468057 0 0)
(-0.09102040189848513 0 0)
(-0.09821234732177518 0 0)
(-0.1072272216005453 0 0)
(-0.1178068620275446 0 0)
(-0.1296431246425521 0 0)
(-0.1422649884939999 0 0)
(-0.1556040845438134 0 0)
(-0.1687771646989804 0 0)
(-0.1816546613850257 0 0)
(-0.1942414781158107 0 0)
(-0.2063801211942826 0 0)
(-0.2180491523394624 0 0)
(-0.2293093335737661 0 0)
(-0.240379001421596 0 0)
(-0.2515751813540383 0 0)
(-0.26316820475429 0 0)
(-0.2753414810374214 0 0)
(-0.2880574098508691 0 0)
(-0.3004979150848106 0 0)
(-0.3115561427436037 0 0)
(-0.3198575736765848 0 0)
(-0.3229811337122162 0 0)
(-0.3217418073168201 0 0)
(-0.3173572901054276 0 0)
(-0.3096974122444726 0 0)
(-0.2992413165440801 0 0)
(-0.286589746344224 0 0)
(-0.2723411073658308 0 0)
(-0.2571265385580728 0 0)
(-0.2414281569615343 0 0)
(-0.2260245769210872 0 0)
(-0.2102804632735437 0 0)
(-0.1958242457465103 0 0)
(-0.1818532315950251 0 0)
(-0.1688699186818649 0 0)
(-0.1570158158673045 0 0)
(-0.1464249367341811 0 0)
(-0.1370072060559676 0 0)
(-0.1285403347484757 0 0)
(-0.1207789862147767 0 0)
(-0.1137177732640573 0 0)
(-0.107375960245882 0 0)
(-0.1016102199177093 0 0)
(-0.09853327998456683 0 0)
(-0.09847710941916012 0 0)
(-0.1004225357721039 0 0)
(-0.1047794950149145 0 0)
(-0.1112904318965751 0 0)
(-0.1196170843026322 0 0)
(-0.1295009057928748 0 0)
(-0.1406992364032739 0 0)
(-0.152827075498069 0 0)
(-0.1660542583766832 0 0)
(-0.1793117220811895 0 0)
(-0.1925745043018525 0 0)
(-0.2056751700407975 0 0)
(-0.2184034978356522 0 0)
(-0.2307088735355551 0 0)
(-0.2425606317707155 0 0)
(-0.2539548648807795 0 0)
(-0.2649313418520482 0 0)
(-0.2757287783927827 0 0)
(-0.2867871401226382 0 0)
(-0.2983900138628004 0 0)
(-0.3099724023976637 0 0)
(-0.3206363085915037 0 0)
(-0.3296065777215547 0 0)
(-0.3342441067601883 0 0)
(-0.3343892277433245 0 0)
(-0.3314525303450215 0 0)
(-0.3251410292306928 0 0)
(-0.3156825977242547 0 0)
(-0.303575291009566 0 0)
(-0.2894109474979787 0 0)
(-0.2738735313726472 0 0)
(-0.2576412172549472 0 0)
(-0.2413356297629304 0 0)
(-0.225086275882281 0 0)
(-0.2096579890899532 0 0)
(-0.1950839008083363 0 0)
(-0.1813023280840372 0 0)
(-0.1686683302148189 0 0)
(-0.1573792059325451 0 0)
(-0.1475010913173981 0 0)
(-0.1389236712577906 0 0)
(-0.1314229486029374 0 0)
(-0.1246095271152981 0 0)
(-0.1182772814084118 0 0)
(-0.1121488165668086 0 0)
(-0.1073061185128577 0 0)
(-0.1048679579319264 0 0)
(-0.1041937819984824 0 0)
(-0.1051379065719711 0 0)
(-0.1080012918997973 0 0)
(-0.1126921875763971 0 0)
(-0.119167916486804 0 0)
(-0.1268952311135861 0 0)
(-0.137039829540103 0 0)
(-0.1471525978145337 0 0)
(-0.1581531092918617 0 0)
(-0.1694894876591135 0 0)
(-0.1812105187439229 0 0)
(-0.1932252975517294 0 0)
(-0.2053847664593738 0 0)
(-0.2174564048663108 0 0)
(-0.2292356315530937 0 0)
(-0.2407299978150736 0 0)
(-0.2521909557767676 0 0)
(-0.2639023445166448 0 0)
(-0.2760063766241027 0 0)
(-0.2883463561061312 0 0)
(-0.3001759574091308 0 0)
(-0.3106701310471384 0 0)
(-0.3184979059197479 0 0)
(-0.3214287650917448 0 0)
(-0.3203597808385418 0 0)
(-0.3163313195349398 0 0)
(-0.3091306743810118 0 0)
(-0.2990841465908141 0 0)
(-0.2865132989148114 0 0)
(-0.271727964875664 0 0)
(-0.2552666978004977 0 0)
(-0.2380496456037101 0 0)
(-0.2209715041545425 0 0)
(-0.2052048949903074 0 0)
(-0.1925677294705035 0 0)
(-0.1816097498409689 0 0)
(-0.1704744060119161 0 0)
(-0.1578482521844032 0 0)
(-0.144020501504784 0 0)
(-0.1314233113428558 0 0)
(-0.1222543049903444 0 0)
(-0.1158453188985702 0 0)
(-0.1137486704585614 0 0)
(-0.1053286397661685 0 0)
)
;

boundaryField
{
    inlet
    {
        type            zeroGradient;
    }
    outlet
    {
        type            characteristicPressureInletOutletVelocity;
        UName           U;
        pName           p;
        TName           T;
        phiName         phi;
        rhoName         rho;
        U               (0 0 0);
        p               101325;
        T               300;
        value           uniform (-0.1053286397661685 0 0);
    }
    frontAndBack
    {
        type            empty;
    }
}


// ************************************************************************* //
