/*--------------------------------*- C++ -*----------------------------------*\
| =========                 |                                                 |
| \\      /  F ield         | OpenFOAM: The Open Source CFD Toolbox           |
|  \\    /   O peration     | Version:  v2012                                 |
|   \\  /    A nd           | Website:  www.openfoam.com                      |
|    \\/     M anipulation  |                                                 |
\*---------------------------------------------------------------------------*/
FoamFile
{
    version     2.0;
    format      ascii;
    class       volVectorField;
    location    "0.013";
    object      UMean;
}
// * * * * * * * * * * * * * * * * * * * * * * * * * * * * * * * * * * * * * //

dimensions      [0 1 -1 0 0 0 0];


internalField   nonuniform List<vector> 
1000
(
(-2.741758845294014e-05 0 0)
(3.208716138709246e-08 0 0)
(1.614675486846439e-05 0 0)
(4.718363541036775e-05 0 0)
(8.372446077856531e-05 0 0)
(0.00012157577819385 0 0)
(0.0001710142525601216 0 0)
(0.0002231377508426925 0 0)
(0.0002847396481837057 0 0)
(0.000349295070185401 0 0)
(0.0004165084905265456 0 0)
(0.0004832270533334973 0 0)
(0.0005495615809113386 0 0)
(0.0006150631760258233 0 0)
(0.0006786983788289073 0 0)
(0.0007392834585484066 0 0)
(0.0007951894926950177 0 0)
(0.0008454924648997897 0 0)
(0.0008890381042960288 0 0)
(0.0009253196682387111 0 0)
(0.0009535808435989375 0 0)
(0.0009733333437522073 0 0)
(0.0009842587372850184 0 0)
(0.0009859874494123147 0 0)
(0.0009786688310981374 0 0)
(0.0009622149255492243 0 0)
(0.0009371932761367616 0 0)
(0.0009038076874753689 0 0)
(0.0008628336600712089 0 0)
(0.000814447004805934 0 0)
(0.000759335882838181 0 0)
(0.000698272390967062 0 0)
(0.0006337577799193869 0 0)
(0.0005681608097508159 0 0)
(0.0005026374323072429 0 0)
(0.0004372321483832736 0 0)
(0.0003724871036793683 0 0)
(0.0003090132810079222 0 0)
(0.0002480019094548577 0 0)
(0.0001906554325806838 0 0)
(0.0001384800211583821 0 0)
(9.263759223818898e-05 0 0)
(5.426837839362373e-05 0 0)
(2.399745133064455e-05 0 0)
(2.432515027627657e-06 0 0)
(-1.021357250268885e-05 0 0)
(-1.365691932488044e-05 0 0)
(-7.96145391456853e-06 0 0)
(6.865900207431506e-06 0 0)
(3.046944550269705e-05 0 0)
(6.261498460688738e-05 0 0)
(0.0001029068757401281 0 0)
(0.0001511759200545999 0 0)
(0.0002068201685771278 0 0)
(0.0002683242523530394 0 0)
(0.0003326848262106739 0 0)
(0.0003976555258395684 0 0)
(0.0004625565536919004 0 0)
(0.0005273421370082164 0 0)
(0.0005915264158097726 0 0)
(0.0006546631123985345 0 0)
(0.0007156729043008038 0 0)
(0.0007735661709563119 0 0)
(0.0008268289642662994 0 0)
(0.0008742882970894628 0 0)
(0.0009145385411284682 0 0)
(0.0009468006692113547 0 0)
(0.0009702314943111562 0 0)
(0.0009846519154294788 0 0)
(0.0009897374293270551 0 0)
(0.0009857070367275643 0 0)
(0.0009725225432342806 0 0)
(0.0009505785249568349 0 0)
(0.0009198768003224425 0 0)
(0.0008807186505912719 0 0)
(0.0008330545299363621 0 0)
(0.000777691727111395 0 0)
(0.0007163870402190697 0 0)
(0.0006524855170215641 0 0)
(0.0005880058674118723 0 0)
(0.0005236344428152784 0 0)
(0.0004593675154385349 0 0)
(0.0003955661767502791 0 0)
(0.0003326983068178653 0 0)
(0.0002715634698677757 0 0)
(0.0002131496509196162 0 0)
(0.0001587204658621086 0 0)
(0.000109582195019978 0 0)
(6.709549108748343e-05 0 0)
(3.238554924546667e-05 0 0)
(6.388401395942498e-06 0 0)
(-1.03636906591316e-05 0 0)
(-1.757958756957261e-05 0 0)
(-1.529879100144933e-05 0 0)
(-3.638752456598771e-06 0 0)
(1.717163689258231e-05 0 0)
(4.703563658711554e-05 0 0)
(8.586471791306258e-05 0 0)
(0.0001335720830818655 0 0)
(0.0001892986258446274 0 0)
(0.0002507166820975068 0 0)
(0.0003144106608833495 0 0)
(0.0003784615994280472 0 0)
(0.0004424423818668006 0 0)
(0.0005063390551793741 0 0)
(0.0005697313874385468 0 0)
(0.0006323376689434265 0 0)
(0.0006932759659336181 0 0)
(0.0007518108790148114 0 0)
(0.0008066206244091826 0 0)
(0.0008566234497186162 0 0)
(0.0009003209991014641 0 0)
(0.0009366877140751766 0 0)
(0.000964525029544371 0 0)
(0.0009833221721499441 0 0)
(0.0009925081509464262 0 0)
(0.0009921866782716872 0 0)
(0.0009822759145299304 0 0)
(0.000963141585711337 0 0)
(0.0009347060350672316 0 0)
(0.0008971769483661295 0 0)
(0.000850465443821565 0 0)
(0.0007955823802469115 0 0)
(0.0007347284945551688 0 0)
(0.0006715209571247517 0 0)
(0.0006078286815397883 0 0)
(0.0005442454690640611 0 0)
(0.0004807213001761209 0 0)
(0.0004175859603727159 0 0)
(0.0003551569115968526 0 0)
(0.000294111729722999 0 0)
(0.0002352037737378605 0 0)
(0.0001795398570111399 0 0)
(0.0001282522538363919 0 0)
(8.271202720281302e-05 0 0)
(4.41216917140368e-05 0 0)
(1.370467729808958e-05 0 0)
(-7.709656932962064e-06 0 0)
(-1.946480609042779e-05 0 0)
(-2.137118229510893e-05 0 0)
(-1.33029431907732e-05 0 0)
(4.565621916160588e-06 0 0)
(3.223921756511712e-05 0 0)
(6.965326164500429e-05 0 0)
(0.0001166347127599689 0 0)
(0.0001720101022454051 0 0)
(0.0002330723956938111 0 0)
(0.0002961565437507123 0 0)
(0.0003595703097562922 0 0)
(0.0004228744666851744 0 0)
(0.0004861061234918591 0 0)
(0.0005488644839082432 0 0)
(0.0006109823121040954 0 0)
(0.000671716762761651 0 0)
(0.000730483246433927 0 0)
(0.0007861898978824952 0 0)
(0.0008379027163529525 0 0)
(0.0008841583118856454 0 0)
(0.0009239765851789344 0 0)
(0.0009560064587452893 0 0)
(0.0009793483235995717 0 0)
(0.0009932038019045922 0 0)
(0.0009973021932893845 0 0)
(0.0009912408812484609 0 0)
(0.0009751535871094294 0 0)
(0.0009491494045154268 0 0)
(0.0009131122256306732 0 0)
(0.0008672029293419486 0 0)
(0.000812719614492971 0 0)
(0.0007523013599219113 0 0)
(0.0006895170931702043 0 0)
(0.00062656152970033 0 0)
(0.0005638130333843072 0 0)
(0.0005012149947847175 0 0)
(0.0004391211902152952 0 0)
(0.0003776009544476861 0 0)
(0.0003171936543351782 0 0)
(0.0002582911492101741 0 0)
(0.000201938920958393 0 0)
(0.0001490309552685591 0 0)
(0.0001006426380268047 0 0)
(5.814065334237148e-05 0 0)
(2.302320406350924e-05 0 0)
(-3.58535031600472e-06 0 0)
(-2.094581727764969e-05 0 0)
(-2.764728616380894e-05 0 0)
(-2.383430987218537e-05 0 0)
(-9.104632700192003e-06 0 0)
(1.631375583121769e-05 0 0)
(5.297969259143459e-05 0 0)
(0.0001001882528529508 0 0)
(0.0001560544978906567 0 0)
(0.0002174902123123679 0 0)
(0.0002811518476393525 0 0)
(0.0003443158786930085 0 0)
(0.0004070948324064943 0 0)
(0.0004693923599532528 0 0)
(0.0005304440681540214 0 0)
(0.0005904716365835425 0 0)
(0.0006490839620470183 0 0)
(0.0007057292513573357 0 0)
(0.0007598900379776002 0 0)
(0.0008111559331858626 0 0)
(0.0008583495087663374 0 0)
(0.0009010290290995803 0 0)
(0.0009375169435818085 0 0)
(0.0009674405377216933 0 0)
(0.0009890878029040937 0 0)
(0.001003360677696159 0 0)
(0.001006780998504799 0 0)
(0.001001379193966142 0 0)
(0.0009847953449534485 0 0)
(0.0009577768402456008 0 0)
(0.0009194039476762494 0 0)
(0.0008712740894971166 0 0)
(0.0008143076970986217 0 0)
(0.0007527636170879987 0 0)
(0.000687004012774538 0 0)
(0.0006176938707322019 0 0)
(0.0005457148428055884 0 0)
(0.000470464455462994 0 0)
(0.0003934540456422485 0 0)
(0.0003146231079269278 0 0)
(0.0002352981846001479 0 0)
(0.0001573356792239638 0 0)
(8.034303515048823e-05 0 0)
(1.009626967288886e-05 0 0)
(-5.572328804242992e-05 0 0)
(-0.0001143509033417129 0 0)
(-0.0001640963108549961 0 0)
(-0.0002034363426132488 0 0)
(-0.0002307398487233106 0 0)
(-0.0002463596570346649 0 0)
(-0.0002498669144959781 0 0)
(-0.0002395517134585804 0 0)
(-0.0002155103912804362 0 0)
(-0.0001798076219025157 0 0)
(-0.0001330647814261865 0 0)
(-8.0582647445468e-05 0 0)
(-2.456399655770866e-05 0 0)
(3.406249495082327e-05 0 0)
(9.301037694909175e-05 0 0)
(0.0001518643019262384 0 0)
(0.0002089930482102358 0 0)
(0.0002660597581083478 0 0)
(0.0003206168041845882 0 0)
(0.0003718528347816222 0 0)
(0.0004229382112940596 0 0)
(0.0004703430675612359 0 0)
(0.0005157167222174749 0 0)
(0.0005572996073417832 0 0)
(0.0005921979107988219 0 0)
(0.0006210016247915329 0 0)
(0.0006416945460697769 0 0)
(0.0006542765894111457 0 0)
(0.0006577770181392994 0 0)
(0.0006493996111011903 0 0)
(0.0006311024864188181 0 0)
(0.0006023562780865569 0 0)
(0.000561495322146047 0 0)
(0.0005127184754819696 0 0)
(0.0004537599042211824 0 0)
(0.0003887931999397219 0 0)
(0.0003211391458591463 0 0)
(0.0002504602355462956 0 0)
(0.0001766439846175333 0 0)
(9.91876960880213e-05 0 0)
(2.042946675499058e-05 0 0)
(-5.995081407299997e-05 0 0)
(-0.0001439567351892473 0 0)
(-0.0002248180311437029 0 0)
(-0.0003047049463115664 0 0)
(-0.0003808047076948417 0 0)
(-0.0004493563761358112 0 0)
(-0.0005143535648870178 0 0)
(-0.0005708429913039273 0 0)
(-0.0006180434311017838 0 0)
(-0.0006548158178598661 0 0)
(-0.0006777768163529459 0 0)
(-0.000691796743465381 0 0)
(-0.000690580663627137 0 0)
(-0.0006747964428386947 0 0)
(-0.0006472207701648813 0 0)
(-0.0006072144768224305 0 0)
(-0.0005605004991257108 0 0)
(-0.0005108389149576826 0 0)
(-0.000457141602261094 0 0)
(-0.0004022551007469169 0 0)
(-0.0003479831095726291 0 0)
(-0.0002946363230150102 0 0)
(-0.0002420861823647213 0 0)
(-0.0001894799564245945 0 0)
(-0.0001442004261943198 0 0)
(-9.695898166399848e-05 0 0)
(-5.201630351512511e-05 0 0)
(-1.076311341069527e-05 0 0)
(3.088144158204414e-05 0 0)
(6.428618034705391e-05 0 0)
(9.2101469065847e-05 0 0)
(0.000112046728153417 0 0)
(0.0001228507637702292 0 0)
(0.0001261807539054517 0 0)
(0.000115095029234362 0 0)
(9.420778900622999e-05 0 0)
(6.293149920981599e-05 0 0)
(1.967569688649799e-05 0 0)
(-3.324625034589686e-05 0 0)
(-9.519015800790417e-05 0 0)
(-0.0001647820944440725 0 0)
(-0.0002361440429707978 0 0)
(-0.0003101613545291984 0 0)
(-0.0003876353348352358 0 0)
(-0.0004674183673549484 0 0)
(-0.000549978727380367 0 0)
(-0.0006321303601032178 0 0)
(-0.0007210226549512813 0 0)
(-0.0008073964918513455 0 0)
(-0.0008907166856888519 0 0)
(-0.0009738585127290744 0 0)
(-0.001046913210934347 0 0)
(-0.001118128277519103 0 0)
(-0.001181905747822915 0 0)
(-0.001237380675271552 0 0)
(-0.001283549748196705 0 0)
(-0.00131588656034623 0 0)
(-0.001339435025363559 0 0)
(-0.001349217982707951 0 0)
(-0.001343325786999358 0 0)
(-0.001323758727313998 0 0)
(-0.001293063374916241 0 0)
(-0.001252278428745707 0 0)
(-0.001208758525985171 0 0)
(-0.00116057817622708 0 0)
(-0.001110993379246098 0 0)
(-0.001061605718325427 0 0)
(-0.001012145061313582 0 0)
(-0.0009646536996035312 0 0)
(-0.0009145996931272339 0 0)
(-0.0008728913315517725 0 0)
(-0.0008322916846253612 0 0)
(-0.0007888323072328415 0 0)
(-0.0007517895573675929 0 0)
(-0.0007110350416855334 0 0)
(-0.0006782169479027638 0 0)
(-0.0006508942622018409 0 0)
(-0.0006314780826643942 0 0)
(-0.0006212422376826019 0 0)
(-0.0006194314354609041 0 0)
(-0.0006304540132094817 0 0)
(-0.0006544944042835887 0 0)
(-0.0006888001277354191 0 0)
(-0.0007344488509754851 0 0)
(-0.0007928128794495341 0 0)
(-0.000859065801015306 0 0)
(-0.000933887585292489 0 0)
(-0.001011741312496082 0 0)
(-0.001090460403662726 0 0)
(-0.00117271120604889 0 0)
(-0.001256788387689403 0 0)
(-0.001344134532100417 0 0)
(-0.001429946110916813 0 0)
(-0.001521629446832242 0 0)
(-0.0016166276486842 0 0)
(-0.001704132503104945 0 0)
(-0.001793854840834835 0 0)
(-0.001874071618189175 0 0)
(-0.001951417434606814 0 0)
(-0.002022934221238039 0 0)
(-0.002087155967836955 0 0)
(-0.002142715096883074 0 0)
(-0.002186907221876128 0 0)
(-0.002218614925952623 0 0)
(-0.002240878926842516 0 0)
(-0.002246148953685113 0 0)
(-0.002235554965959754 0 0)
(-0.002214264646185361 0 0)
(-0.002180659279223908 0 0)
(-0.002142904113759146 0 0)
(-0.002102051482247525 0 0)
(-0.002056719741611455 0 0)
(-0.002012444000724803 0 0)
(-0.001968167686339002 0 0)
(-0.001925148946602513 0 0)
(-0.001880937463172835 0 0)
(-0.001838934686952315 0 0)
(-0.001806872531795891 0 0)
(-0.001766743193356174 0 0)
(-0.001731820191086668 0 0)
(-0.001695459831449875 0 0)
(-0.001662337404927916 0 0)
(-0.001635371160252861 0 0)
(-0.001615495962814885 0 0)
(-0.001605149344057504 0 0)
(-0.0016047328556424 0 0)
(-0.001613934855069334 0 0)
(-0.001640761880613566 0 0)
(-0.001677172997229799 0 0)
(-0.001725188529420977 0 0)
(-0.001787869639959974 0 0)
(-0.001859172457863877 0 0)
(-0.001939669193262114 0 0)
(-0.002026085721908736 0 0)
(-0.002110535621388811 0 0)
(-0.002199632668979248 0 0)
(-0.002290399626175206 0 0)
(-0.002383289885841629 0 0)
(-0.002476640467994578 0 0)
(-0.002569642914642662 0 0)
(-0.002672794847260296 0 0)
(-0.002767987685034441 0 0)
(-0.002862486800359327 0 0)
(-0.002953056112769327 0 0)
(-0.003036856199205194 0 0)
(-0.003116859259393626 0 0)
(-0.003189696297953422 0 0)
(-0.003255583919175993 0 0)
(-0.003311579990977353 0 0)
(-0.003353492804665284 0 0)
(-0.003387786680834267 0 0)
(-0.003405866895077028 0 0)
(-0.003405800543726092 0 0)
(-0.003393881782033842 0 0)
(-0.003369126498372424 0 0)
(-0.003337775880312241 0 0)
(-0.003304685209049267 0 0)
(-0.003263790295459287 0 0)
(-0.003224622969429823 0 0)
(-0.003185657064032911 0 0)
(-0.003147005724092057 0 0)
(-0.003109745249828064 0 0)
(-0.003068709753790659 0 0)
(-0.00304180653627373 0 0)
(-0.003009519726583781 0 0)
(-0.002976224167544997 0 0)
(-0.00294555179399046 0 0)
(-0.002913794272315053 0 0)
(-0.002887406690416661 0 0)
(-0.00286667058626795 0 0)
(-0.002855866040522171 0 0)
(-0.002855188927518856 0 0)
(-0.002863463494287305 0 0)
(-0.002889113289611198 0 0)
(-0.002927989022980119 0 0)
(-0.002977098487273455 0 0)
(-0.003042100987768815 0 0)
(-0.003119484701504398 0 0)
(-0.003205927092487066 0 0)
(-0.003299586112849045 0 0)
(-0.003393698567427421 0 0)
(-0.003489953157003457 0 0)
(-0.003589893188184405 0 0)
(-0.003690430280186043 0 0)
(-0.003793219159394272 0 0)
(-0.003891682317108973 0 0)
(-0.004000688968135238 0 0)
(-0.004107553412122916 0 0)
(-0.00420773307948024 0 0)
(-0.004308715350292828 0 0)
(-0.004401396059125887 0 0)
(-0.004490828617773616 0 0)
(-0.004573640552656751 0 0)
(-0.004650368601421107 0 0)
(-0.004718923025282473 0 0)
(-0.004774684191241094 0 0)
(-0.004819537679538176 0 0)
(-0.004853782716639724 0 0)
(-0.004866842049836283 0 0)
(-0.004865595213154624 0 0)
(-0.004852653553955056 0 0)
(-0.004829582448856166 0 0)
(-0.004802221907364218 0 0)
(-0.004771765410267179 0 0)
(-0.004733875441027199 0 0)
(-0.004701186175329648 0 0)
(-0.00466729801630028 0 0)
(-0.004635651097951872 0 0)
(-0.004600452408748606 0 0)
(-0.004573806526549573 0 0)
(-0.004551765281612286 0 0)
(-0.004521981935644206 0 0)
(-0.004497291772727943 0 0)
(-0.004469233119066074 0 0)
(-0.004445976410954888 0 0)
(-0.004426307980216232 0 0)
(-0.004414028391819939 0 0)
(-0.004413382598659918 0 0)
(-0.004422064878161596 0 0)
(-0.004442866374082316 0 0)
(-0.004483756032477804 0 0)
(-0.004532339466871769 0 0)
(-0.004596551873395331 0 0)
(-0.004678066399450875 0 0)
(-0.00476901627462267 0 0)
(-0.004868396517669005 0 0)
(-0.004974514336285509 0 0)
(-0.005076373197919541 0 0)
(-0.005186994780034036 0 0)
(-0.005298544506340726 0 0)
(-0.005412616050108868 0 0)
(-0.005524560139652751 0 0)
(-0.005639602206534145 0 0)
(-0.005762471623608956 0 0)
(-0.00587417395589407 0 0)
(-0.005988566290490437 0 0)
(-0.006096025676180694 0 0)
(-0.006200888780532301 0 0)
(-0.006299119521915212 0 0)
(-0.006390730853328968 0 0)
(-0.006477257740602096 0 0)
(-0.006552772095130794 0 0)
(-0.006614117981153291 0 0)
(-0.006668111394573737 0 0)
(-0.006701736744174965 0 0)
(-0.006717327710105463 0 0)
(-0.006721256352267589 0 0)
(-0.006712262431906234 0 0)
(-0.006696885610270395 0 0)
(-0.006678173054137037 0 0)
(-0.006651231612326536 0 0)
(-0.006623494941611741 0 0)
(-0.006598018840573519 0 0)
(-0.006573283540576139 0 0)
(-0.006548229375860561 0 0)
(-0.006521404098542963 0 0)
(-0.006509935799696524 0 0)
(-0.006487767012942214 0 0)
(-0.006468495076000238 0 0)
(-0.006448548419627342 0 0)
(-0.006430757688085285 0 0)
(-0.006415988067829892 0 0)
(-0.006406045181598253 0 0)
(-0.006407337013463326 0 0)
(-0.006419683967024493 0 0)
(-0.006440740589182039 0 0)
(-0.006481139687686886 0 0)
(-0.006534572925090436 0 0)
(-0.006598258008614384 0 0)
(-0.006680995139125049 0 0)
(-0.006776274395910683 0 0)
(-0.006882010442242133 0 0)
(-0.006995417754219234 0 0)
(-0.007112516208549271 0 0)
(-0.007230366098353107 0 0)
(-0.00735666058397808 0 0)
(-0.007485960753573624 0 0)
(-0.007618459889287566 0 0)
(-0.007748189073402468 0 0)
(-0.007894041796001255 0 0)
(-0.008031400859557674 0 0)
(-0.008168127368151168 0 0)
(-0.008303304844706554 0 0)
(-0.008434400653102811 0 0)
(-0.008561685740017677 0 0)
(-0.008681949246283556 0 0)
(-0.00879647697979938 0 0)
(-0.008904752627074559 0 0)
(-0.008997820717188302 0 0)
(-0.009080325848561723 0 0)
(-0.009149955578436961 0 0)
(-0.009194717204620787 0 0)
(-0.009224544741868913 0 0)
(-0.009241493554160544 0 0)
(-0.009248874363120704 0 0)
(-0.009249092444935748 0 0)
(-0.00924389605513521 0 0)
(-0.009228760844077052 0 0)
(-0.009216639635218344 0 0)
(-0.009203185758671682 0 0)
(-0.009190481020806985 0 0)
(-0.009173479678309561 0 0)
(-0.009166928468017565 0 0)
(-0.009160587787962049 0 0)
(-0.009149082350175031 0 0)
(-0.009138909019123578 0 0)
(-0.009128206043231691 0 0)
(-0.009121652183592475 0 0)
(-0.009117935103638855 0 0)
(-0.009121847808965867 0 0)
(-0.009139269504634239 0 0)
(-0.009166256090635141 0 0)
(-0.00920807049147933 0 0)
(-0.009270255594569288 0 0)
(-0.009339444621049485 0 0)
(-0.009427231710196722 0 0)
(-0.009532853603511728 0 0)
(-0.009649896376546009 0 0)
(-0.009776888427640294 0 0)
(-0.009912601798870078 0 0)
(-0.01004865293110642 0 0)
(-0.01019356638314183 0 0)
(-0.01034458800725258 0 0)
(-0.01049966615314391 0 0)
(-0.01065496919945414 0 0)
(-0.01081989645284262 0 0)
(-0.01098780419836075 0 0)
(-0.01115214744643904 0 0)
(-0.01131541561054369 0 0)
(-0.01147455898661819 0 0)
(-0.01163177003274639 0 0)
(-0.01178202828207788 0 0)
(-0.01192519959376527 0 0)
(-0.01206406062455479 0 0)
(-0.01219161692361219 0 0)
(-0.01230445882048637 0 0)
(-0.01240847775110851 0 0)
(-0.01248793398227487 0 0)
(-0.01254904708391408 0 0)
(-0.0125964244780073 0 0)
(-0.01263041846624387 0 0)
(-0.01265525234011087 0 0)
(-0.01267168045659331 0 0)
(-0.01267858070878176 0 0)
(-0.01268017047511096 0 0)
(-0.01268244554768564 0 0)
(-0.01268175300331161 0 0)
(-0.01267849131493256 0 0)
(-0.0126761036595165 0 0)
(-0.01268083567853646 0 0)
(-0.01268126533997987 0 0)
(-0.01267916572188304 0 0)
(-0.01267572393036422 0 0)
(-0.01267594165712748 0 0)
(-0.01267885065958202 0 0)
(-0.01268684624314431 0 0)
(-0.01270701601473265 0 0)
(-0.01274007089076038 0 0)
(-0.01278398613036279 0 0)
(-0.01285041374379761 0 0)
(-0.01292878548365273 0 0)
(-0.01302229519234611 0 0)
(-0.01313575659678968 0 0)
(-0.0132626865471167 0 0)
(-0.01340253357518656 0 0)
(-0.01355203855565997 0 0)
(-0.01370896540799465 0 0)
(-0.0138682642136104 0 0)
(-0.01403822429016234 0 0)
(-0.01421227899101171 0 0)
(-0.01438999776052048 0 0)
(-0.01457013166570718 0 0)
(-0.01475981125605366 0 0)
(-0.01494867963410075 0 0)
(-0.01513505714186868 0 0)
(-0.01531687801864058 0 0)
(-0.01549678686699375 0 0)
(-0.0156713670532047 0 0)
(-0.01583778886586267 0 0)
(-0.01599786874276996 0 0)
(-0.01615161543628403 0 0)
(-0.01628981653139891 0 0)
(-0.0164174222461914 0 0)
(-0.01653021286014958 0 0)
(-0.01661730847337308 0 0)
(-0.01668806736766607 0 0)
(-0.01674579988472205 0 0)
(-0.01679268525089565 0 0)
(-0.01682901686684479 0 0)
(-0.01685739638527974 0 0)
(-0.01687267946860402 0 0)
(-0.01688888405336414 0 0)
(-0.01690105607802295 0 0)
(-0.01691117593347903 0 0)
(-0.01691524768241125 0 0)
(-0.01692801660376732 0 0)
(-0.01693903821793463 0 0)
(-0.01694653170738343 0 0)
(-0.01694962171016497 0 0)
(-0.01695574662661854 0 0)
(-0.01696523939562734 0 0)
(-0.01697821632194397 0 0)
(-0.01700009974367572 0 0)
(-0.01703711715628051 0 0)
(-0.01708552243089653 0 0)
(-0.01715233705689894 0 0)
(-0.01724014031728287 0 0)
(-0.01733767776963224 0 0)
(-0.01745603688524133 0 0)
(-0.01759168507412447 0 0)
(-0.01774126167557444 0 0)
(-0.01790296213149836 0 0)
(-0.01807449858732011 0 0)
(-0.01824832260945658 0 0)
(-0.01843190287292151 0 0)
(-0.01862204960919344 0 0)
(-0.01881678390191182 0 0)
(-0.01901103721969071 0 0)
(-0.01921668732260284 0 0)
(-0.01942081218336794 0 0)
(-0.01962817113989618 0 0)
(-0.01982764266047214 0 0)
(-0.02002563104741588 0 0)
(-0.02021940909337758 0 0)
(-0.02040498636119744 0 0)
(-0.02058291619602427 0 0)
(-0.02075415449227257 0 0)
(-0.02091418181916391 0 0)
(-0.0210588998075197 0 0)
(-0.02119539633160073 0 0)
(-0.02130406775035023 0 0)
(-0.02139589100002347 0 0)
(-0.02147386426232421 0 0)
(-0.02153844661574299 0 0)
(-0.02159293698986144 0 0)
(-0.02163676665549217 0 0)
(-0.02166989137284855 0 0)
(-0.02169637394459511 0 0)
(-0.02172111169321181 0 0)
(-0.02174231524532694 0 0)
(-0.02175750561541937 0 0)
(-0.02177520111199944 0 0)
(-0.02179495130965838 0 0)
(-0.02181319497626215 0 0)
(-0.02182345054166842 0 0)
(-0.02183603406166673 0 0)
(-0.02185182039713682 0 0)
(-0.02187140160585801 0 0)
(-0.02189764972653105 0 0)
(-0.02193673203826692 0 0)
(-0.02199150089997112 0 0)
(-0.02206004842329347 0 0)
(-0.02215377315267962 0 0)
(-0.02225875506622084 0 0)
(-0.02238369960423122 0 0)
(-0.02252828371089699 0 0)
(-0.02268753291566943 0 0)
(-0.02286190713463669 0 0)
(-0.02304620505907717 0 0)
(-0.0232390424731553 0 0)
(-0.02343437191335846 0 0)
(-0.02364134645095744 0 0)
(-0.02385201940683742 0 0)
(-0.02406478407052263 0 0)
(-0.02428405093663324 0 0)
(-0.02450214085429218 0 0)
(-0.0247304003264099 0 0)
(-0.02494729320612454 0 0)
(-0.02516356320293527 0 0)
(-0.0253760486665843 0 0)
(-0.02558224217865257 0 0)
(-0.02577853387968749 0 0)
(-0.02596767972966522 0 0)
(-0.02614772098763227 0 0)
(-0.02631278964865042 0 0)
(-0.0264678810905433 0 0)
(-0.02660327507132467 0 0)
(-0.02671552961001898 0 0)
(-0.02681223453676526 0 0)
(-0.02689454183641827 0 0)
(-0.02696608391713372 0 0)
(-0.02702538308036421 0 0)
(-0.0270757445778152 0 0)
(-0.0271127426216279 0 0)
(-0.02715032907548918 0 0)
(-0.02718275392171667 0 0)
(-0.02721221762102978 0 0)
(-0.02723832418746715 0 0)
(-0.02726768073419953 0 0)
(-0.02730090927373111 0 0)
(-0.02732435901913574 0 0)
(-0.02734886961062807 0 0)
(-0.02737650941549494 0 0)
(-0.02740825242052338 0 0)
(-0.02744433945261312 0 0)
(-0.02749140122182292 0 0)
(-0.02755146707388308 0 0)
(-0.02762607083394188 0 0)
(-0.02771936705549679 0 0)
(-0.02783066161051799 0 0)
(-0.02795113757302615 0 0)
(-0.02809070919695119 0 0)
(-0.02824434950723777 0 0)
(-0.02840997798630745 0 0)
(-0.02858379611485926 0 0)
(-0.02876446648990538 0 0)
(-0.02894417679069113 0 0)
(-0.02912987951420057 0 0)
(-0.02932012494642901 0 0)
(-0.02950991964993382 0 0)
(-0.02969701924413328 0 0)
(-0.02988554960498605 0 0)
(-0.03007668329459611 0 0)
(-0.03026310234148523 0 0)
(-0.03044222685773401 0 0)
(-0.03061903447318223 0 0)
(-0.03078985022522132 0 0)
(-0.03095209412713657 0 0)
(-0.03110600387064744 0 0)
(-0.03125270181102816 0 0)
(-0.03138867318006439 0 0)
(-0.03151168664676793 0 0)
(-0.03162685804747541 0 0)
(-0.03171470815254795 0 0)
(-0.03178929509765981 0 0)
(-0.03185048038999471 0 0)
(-0.03189899827260318 0 0)
(-0.03193760749030227 0 0)
(-0.0319671243723867 0 0)
(-0.03198541299850297 0 0)
(-0.03199872525707248 0 0)
(-0.03201283238952566 0 0)
(-0.03202566053578007 0 0)
(-0.03203308331298298 0 0)
(-0.03204284133457506 0 0)
(-0.0320559882098575 0 0)
(-0.03207084015401245 0 0)
(-0.03207948950916075 0 0)
(-0.03209272199265846 0 0)
(-0.03210877071599712 0 0)
(-0.03212875315109066 0 0)
(-0.03215448260637645 0 0)
(-0.03219405127023989 0 0)
(-0.03224593770497611 0 0)
(-0.03231313898903906 0 0)
(-0.03240483345804134 0 0)
(-0.03250356413551652 0 0)
(-0.03262230361012335 0 0)
(-0.0327605582350543 0 0)
(-0.03291105686142151 0 0)
(-0.03307463030748782 0 0)
(-0.03324766063261629 0 0)
(-0.03342504114429228 0 0)
(-0.03360682545750849 0 0)
(-0.03379653623391565 0 0)
(-0.03399195636395484 0 0)
(-0.03418398645652407 0 0)
(-0.03438105534713651 0 0)
(-0.03457345059317187 0 0)
(-0.03477239605375394 0 0)
(-0.03496166222484685 0 0)
(-0.03514917970647899 0 0)
(-0.03533203999695984 0 0)
(-0.03550744179588884 0 0)
(-0.03567265006738814 0 0)
(-0.03583182204207963 0 0)
(-0.0359790317022138 0 0)
(-0.03611481500866017 0 0)
(-0.03624341333093103 0 0)
(-0.03634875892057235 0 0)
(-0.03643460808237881 0 0)
(-0.03650980843280389 0 0)
(-0.0365698299043289 0 0)
(-0.03661951610009071 0 0)
(-0.03665898025695561 0 0)
(-0.03668812016966754 0 0)
(-0.03670840531909057 0 0)
(-0.03672612717246305 0 0)
(-0.03674559082794884 0 0)
(-0.03675897369105971 0 0)
(-0.03677393058409367 0 0)
(-0.03678803752078049 0 0)
(-0.03680431513064154 0 0)
(-0.03681966886692677 0 0)
(-0.03683520191875732 0 0)
(-0.03685475700305148 0 0)
(-0.03687737881517625 0 0)
(-0.0369047425687406 0 0)
(-0.03694229165895933 0 0)
(-0.03699330830093611 0 0)
(-0.03705720599697336 0 0)
(-0.03714615970638448 0 0)
(-0.03724644821426181 0 0)
(-0.03735980429457923 0 0)
(-0.03749985611097601 0 0)
(-0.03765115244113936 0 0)
(-0.03781652044813379 0 0)
(-0.03799289112519776 0 0)
(-0.03817767312663073 0 0)
(-0.0383646083512767 0 0)
(-0.03855827395862986 0 0)
(-0.03876095235919903 0 0)
(-0.03896229734295029 0 0)
(-0.03917022980251438 0 0)
(-0.03936805573353093 0 0)
(-0.03957197331978736 0 0)
(-0.03977362110431223 0 0)
(-0.03997064813558943 0 0)
(-0.04016473960512067 0 0)
(-0.04035197562482441 0 0)
(-0.04053031268293202 0 0)
(-0.04069844980354721 0 0)
(-0.04085981736159001 0 0)
(-0.04100472473236947 0 0)
(-0.04114590832638943 0 0)
(-0.041269273376791 0 0)
(-0.04136423728615959 0 0)
(-0.04145433818758867 0 0)
(-0.04152709072283293 0 0)
(-0.04158715841748192 0 0)
(-0.0416365283810947 0 0)
(-0.04167782805334927 0 0)
(-0.04170457382104009 0 0)
(-0.0417297774729217 0 0)
(-0.04175305707678297 0 0)
(-0.04177534920014253 0 0)
(-0.04179496806104833 0 0)
(-0.04181589300421257 0 0)
(-0.04183171274257959 0 0)
(-0.04185216173643302 0 0)
(-0.04187167751667292 0 0)
(-0.04189481336395585 0 0)
(-0.04192151720617778 0 0)
(-0.04195193460958335 0 0)
(-0.0419896282270043 0 0)
(-0.04204065607064111 0 0)
(-0.04210321647989504 0 0)
(-0.04218755864749875 0 0)
(-0.04229430847104092 0 0)
(-0.04240627006463663 0 0)
(-0.04254444903107821 0 0)
(-0.04269950528975577 0 0)
(-0.04286796997298308 0 0)
(-0.04304877937366199 0 0)
(-0.04324068719111935 0 0)
(-0.04343468305024163 0 0)
(-0.0436365498492641 0 0)
(-0.04384353781217181 0 0)
(-0.04405786062446623 0 0)
(-0.04426903911212499 0 0)
(-0.04448818030801741 0 0)
(-0.04469009969053929 0 0)
(-0.04490152655185718 0 0)
(-0.04510888773551883 0 0)
(-0.04531273068586616 0 0)
(-0.04551226139627847 0 0)
(-0.04570223378435838 0 0)
(-0.04588362310251275 0 0)
(-0.04605457476277659 0 0)
(-0.04621445885930356 0 0)
(-0.04635912922462798 0 0)
(-0.04650615868258429 0 0)
(-0.04661723563099868 0 0)
(-0.04671143933227889 0 0)
(-0.04679991763347829 0 0)
(-0.04687143213307245 0 0)
(-0.0469312403489299 0 0)
(-0.04698143943889413 0 0)
(-0.04702119467243586 0 0)
(-0.04705131183057318 0 0)
(-0.04708136376084588 0 0)
(-0.04710929091767549 0 0)
(-0.047133515063969 0 0)
(-0.04716569172071022 0 0)
(-0.04718429762671698 0 0)
(-0.04720677057810506 0 0)
(-0.04723217552628438 0 0)
(-0.0472594482704066 0 0)
(-0.04729141289387108 0 0)
(-0.04732614683683775 0 0)
(-0.04736756990523573 0 0)
(-0.04741839318508641 0 0)
(-0.04748191691334341 0 0)
(-0.04755745958524688 0 0)
(-0.04766838480372172 0 0)
(-0.04778046935030045 0 0)
(-0.04790612751391556 0 0)
(-0.04806571472673479 0 0)
(-0.04823140853642507 0 0)
(-0.04840942748808532 0 0)
(-0.04859711856886153 0 0)
(-0.0487931681363304 0 0)
(-0.0489863124121958 0 0)
(-0.04918977174986806 0 0)
(-0.04939407830198136 0 0)
(-0.04960356689066585 0 0)
(-0.04981123139231884 0 0)
(-0.05001369647083986 0 0)
(-0.05020504061273155 0 0)
(-0.05040077203417569 0 0)
(-0.05059540355419648 0 0)
(-0.05078416803924127 0 0)
(-0.05096609557264421 0 0)
(-0.0511384975184153 0 0)
(-0.05130241467463941 0 0)
(-0.0514550654216626 0 0)
(-0.05159225939547697 0 0)
(-0.0517244766934688 0 0)
(-0.05183940782441907 0 0)
(-0.05193131335325586 0 0)
(-0.05201746700380797 0 0)
(-0.05208581230225778 0 0)
(-0.05214317518236505 0 0)
(-0.05218903587280003 0 0)
(-0.05222954019142165 0 0)
(-0.05225450348662956 0 0)
(-0.05228140939305305 0 0)
(-0.05230096325044574 0 0)
(-0.05232698890547537 0 0)
(-0.05234793829679412 0 0)
(-0.05237394908076504 0 0)
(-0.05238019688443949 0 0)
(-0.05239560759734106 0 0)
(-0.0524229589405075 0 0)
(-0.05245387129340832 0 0)
(-0.05248825515551579 0 0)
(-0.05252089368964673 0 0)
(-0.05256474263468851 0 0)
(-0.0526367191661592 0 0)
(-0.05276116528633652 0 0)
(-0.05280923298602173 0 0)
(-0.05295159530151827 0 0)
)
;

boundaryField
{
    inlet
    {
        type            calculated;
        value           uniform (-2.741758845294014e-05 0 0);
    }
    outlet
    {
        type            calculated;
        value           uniform (-0.05295159530151827 0 0);
    }
    frontAndBack
    {
        type            empty;
    }
}


// ************************************************************************* //
