/*--------------------------------*- C++ -*----------------------------------*\
| =========                 |                                                 |
| \\      /  F ield         | OpenFOAM: The Open Source CFD Toolbox           |
|  \\    /   O peration     | Version:  v2012                                 |
|   \\  /    A nd           | Website:  www.openfoam.com                      |
|    \\/     M anipulation  |                                                 |
\*---------------------------------------------------------------------------*/
FoamFile
{
    version     2.0;
    format      ascii;
    class       volVectorField;
    location    "0.001";
    object      U;
}
// * * * * * * * * * * * * * * * * * * * * * * * * * * * * * * * * * * * * * //

dimensions      [0 1 -1 0 0 0 0];


internalField   nonuniform List<vector> 
1000
(
(-0.001067449548784591 0 0)
(-0.03295404529468968 0 0)
(-0.04104386708277163 0 0)
(-0.05649884618967657 0 0)
(-0.07101791088552414 0 0)
(-0.08452955952749544 0 0)
(-0.09561535659290185 0 0)
(-0.1054596356206954 0 0)
(-0.1150609944346681 0 0)
(-0.1209533272620768 0 0)
(-0.1219547834820413 0 0)
(-0.121799034858076 0 0)
(-0.1215202868001297 0 0)
(-0.1198610672668431 0 0)
(-0.1159185045595613 0 0)
(-0.1088499171658548 0 0)
(-0.09899004431323255 0 0)
(-0.08726067977651167 0 0)
(-0.07427535126340781 0 0)
(-0.06016017321615093 0 0)
(-0.04490986246229849 0 0)
(-0.02867656164150974 0 0)
(-0.01175469796721831 0 0)
(0.005579189117497226 0 0)
(0.02299260901111125 0 0)
(0.03973850364991861 0 0)
(0.05491466639836941 0 0)
(0.06894854805367934 0 0)
(0.08441183442393475 0 0)
(0.103132000902984 0 0)
(0.1178045764918092 0 0)
(0.1215052524258045 0 0)
(0.1217055199446109 0 0)
(0.1217723384086779 0 0)
(0.1216684925611639 0 0)
(0.1213814703717465 0 0)
(0.1210364912113871 0 0)
(0.119603595078048 0 0)
(0.1161492695229435 0 0)
(0.1092335651438358 0 0)
(0.09791022782121456 0 0)
(0.08274925589437233 0 0)
(0.06584298793596711 0 0)
(0.04902210182749494 0 0)
(0.03247786241265171 0 0)
(0.01533282412061386 0 0)
(-0.00280717954177787 0 0)
(-0.02069360306310506 0 0)
(-0.03672112636621876 0 0)
(-0.05202707931191189 0 0)
(-0.07107171690369998 0 0)
(-0.09698978858723403 0 0)
(-0.1172791078494962 0 0)
(-0.1217091153946951 0 0)
(-0.1218448166364577 0 0)
(-0.1218422491549475 0 0)
(-0.121836815787667 0 0)
(-0.1218006944777159 0 0)
(-0.1216924686302514 0 0)
(-0.1214044478304989 0 0)
(-0.1206969324443007 0 0)
(-0.1190427577320392 0 0)
(-0.1154306463867399 0 0)
(-0.1082583547515191 0 0)
(-0.09580888819244193 0 0)
(-0.07770630382070455 0 0)
(-0.05612803721507122 0 0)
(-0.03446884334900856 0 0)
(-0.01491634385490196 0 0)
(0.001878616137621621 0 0)
(0.01641424774631179 0 0)
(0.03100323571885054 0 0)
(0.05067767591023456 0 0)
(0.08125037375240399 0 0)
(0.1117741114730461 0 0)
(0.1212992589387111 0 0)
(0.1217840161009481 0 0)
(0.1217873778070567 0 0)
(0.1217843822315301 0 0)
(0.1217788261188547 0 0)
(0.1217681163719511 0 0)
(0.1217205965919742 0 0)
(0.121600076292263 0 0)
(0.1212867309504547 0 0)
(0.1205300686998619 0 0)
(0.1188165171309542 0 0)
(0.1151684179280246 0 0)
(0.1079024043896761 0 0)
(0.09452605620350477 0 0)
(0.07262686724978598 0 0)
(0.04358113397852691 0 0)
(0.01597374556882599 0 0)
(-0.002970000460793791 0 0)
(-0.01631333618392615 0 0)
(-0.03156051014966953 0 0)
(-0.05804455193846611 0 0)
(-0.09676558402520057 0 0)
(-0.11916959778585 0 0)
(-0.1218125230570952 0 0)
(-0.1218434144876996 0 0)
(-0.1218432372343829 0 0)
(-0.1218435246149924 0 0)
(-0.1218401781543502 0 0)
(-0.1218321408699759 0 0)
(-0.1218091894174454 0 0)
(-0.1217486830072934 0 0)
(-0.1215926291742585 0 0)
(-0.1212129531083438 0 0)
(-0.12033494304545 0 0)
(-0.1183953808508286 0 0)
(-0.1142478839148689 0 0)
(-0.1056074584697996 0 0)
(-0.08861841884730352 0 0)
(-0.06018828328906235 0 0)
(-0.02595441141814258 0 0)
(0.001142954407866581 0 0)
(0.01962357581214844 0 0)
(0.03853643669133329 0 0)
(0.06817375146092347 0 0)
(0.1046790289790286 0 0)
(0.1205331028693567 0 0)
(0.1217799191317655 0 0)
(0.1217908886938212 0 0)
(0.121787081653564 0 0)
(0.1217823050052799 0 0)
(0.1217848085739508 0 0)
(0.1217841391658031 0 0)
(0.1217693587808889 0 0)
(0.121739981156967 0 0)
(0.1216737565777205 0 0)
(0.1213662539779004 0 0)
(0.1204106837599927 0 0)
(0.1170412455413338 0 0)
(0.1058093299484686 0 0)
(0.07457269686519491 0 0)
(0.02573442416315804 0 0)
(0.001984555983056371 0 0)
(1.332010320958763e-05 0 0)
(2.823560554666637e-09 0 0)
(-2.520252510334283e-13 0 0)
(-2.346441992380125e-13 0 0)
(-1.911915697494851e-13 0 0)
(-2.259536733403185e-13 0 0)
(-2.520252510334164e-13 0 0)
(-1.911915697495043e-13 0 0)
(-2.346441992379943e-13 0 0)
(-1.651199920563811e-13 0 0)
(-1.390484143632652e-13 0 0)
(-8.690525897706078e-15 0 0)
(-6.952420718163485e-14 0 0)
(6.083368128392788e-14 0 0)
(-6.952420718163102e-14 0 0)
(-7.82147330793248e-14 0 0)
(-5.214315538622283e-14 0 0)
(-1.738105179540799e-14 0 0)
(-8.690525897703719e-14 0 0)
(-2.607157769310477e-14 0 0)
(2.259536733403064e-13 0 0)
(3.736926136012702e-13 0 0)
(4.866694502714185e-13 0 0)
(3.823831394990051e-13 0 0)
(2.694063028288014e-13 0 0)
(3.302399841127738e-13 0 0)
(2.86787354624233e-13 0 0)
(3.38930510010482e-13 0 0)
(2.954778805219488e-13 0 0)
(4.084547171921009e-13 0 0)
(4.084547171921103e-13 0 0)
(2.867873546242218e-13 0 0)
(1.651199920563904e-13 0 0)
(5.214315538623301e-14 0 0)
(5.214315538623679e-14 0 0)
(1.216673625678482e-13 0 0)
(2.520252510334443e-13 0 0)
(2.694063028288176e-13 0 0)
(3.128589323173652e-13 0 0)
(1.738105179542296e-14 0 0)
(-8.690525897694872e-15 0 0)
(-7.821473307932572e-14 0 0)
(-1.390484143632697e-13 0 0)
(-1.129768366701476e-13 0 0)
(-2.520252510334032e-13 0 0)
(-1.216673625678618e-13 0 0)
(-3.302399841127378e-13 0 0)
(-2.780968287265175e-13 0 0)
(-3.563115618058837e-13 0 0)
(-3.38930510010419e-13 0 0)
(-2.520252510334424e-13 0 0)
(-1.825010438517636e-13 0 0)
(-3.041684064196724e-13 0 0)
(-2.694063028288117e-13 0 0)
(-3.302399841127653e-13 0 0)
(-3.04168406419659e-13 0 0)
(-2.954778805219292e-13 0 0)
(-2.60715776931115e-13 0 0)
(-3.041684064196636e-13 0 0)
(-3.041684064196293e-13 0 0)
(-4.866694502714219e-13 0 0)
(-3.215494582150607e-13 0 0)
(-5.301220797599778e-13 0 0)
(-3.997641912943774e-13 0 0)
(-5.30122079759983e-13 0 0)
(-4.953599761690911e-13 0 0)
(-4.432168207829546e-13 0 0)
(-4.605978725782928e-13 0 0)
(-4.084547171920925e-13 0 0)
(-2.780968287265426e-13 0 0)
(-2.172631474426023e-13 0 0)
(-3.041684064196478e-13 0 0)
(-1.477389402609688e-13 0 0)
(-1.998820956472021e-13 0 0)
(-1.390484143632502e-13 0 0)
(-9.559578487475294e-14 0 0)
(-1.6511999205637e-13 0 0)
(-1.911915697494931e-13 0 0)
(-1.216673625678529e-13 0 0)
(-4.345262948852092e-14 0 0)
(-1.12976836670154e-13 0 0)
(-1.564294661586581e-13 0 0)
(1.738105179540751e-14 0 0)
(-4.202852600431802e-27 0 0)
(-1.738105179541253e-14 0 0)
(3.476210359081622e-14 0 0)
(1.042863107724445e-13 0 0)
(8.69052589770425e-14 0 0)
(8.690525897711635e-15 0 0)
(2.60715776931207e-14 0 0)
(1.303578884655626e-13 0 0)
(1.825010438517929e-13 0 0)
(1.129768366701498e-13 0 0)
(1.738105179541744e-14 0 0)
(6.083368128393776e-14 0 0)
(1.129768366701688e-13 0 0)
(2.694063028288309e-13 0 0)
(2.52025251033429e-13 0 0)
(1.564294661586851e-13 0 0)
(1.477389402609632e-13 0 0)
(2.694063028288553e-13 0 0)
(1.82501043851782e-13 0 0)
(1.216673625678675e-13 0 0)
(3.476210359081844e-14 0 0)
(1.042863107724544e-13 0 0)
(-7.82147330793338e-14 0 0)
(-1.564294661586582e-13 0 0)
(-1.042863107724434e-13 0 0)
(-1.564294661586709e-13 0 0)
(-3.041684064196556e-13 0 0)
(-2.172631474425809e-13 0 0)
(-7.821473307934483e-14 0 0)
(-1.651199920563924e-13 0 0)
(-6.08336812839347e-14 0 0)
(8.690525897699029e-15 0 0)
(1.30357888465545e-13 0 0)
(1.47738940260976e-13 0 0)
(2.08572621544889e-13 0 0)
(1.738105179540807e-13 0 0)
(2.607157769311323e-14 0 0)
(-6.083368128393227e-14 0 0)
(9.559578487473541e-14 0 0)
(1.998820956471752e-13 0 0)
(6.95242071816256e-14 0 0)
(-1.738105179540719e-13 0 0)
(-2.780968287265504e-13 0 0)
(-3.128589323173234e-13 0 0)
(-3.128589323173599e-13 0 0)
(-3.476210359081706e-13 0 0)
(-1.998820956472024e-13 0 0)
(-2.259536733403243e-13 0 0)
(-5.214315538622738e-14 0 0)
(-7.821473307934371e-14 0 0)
(-8.690525897706599e-15 0 0)
(7.82147330793377e-14 0 0)
(7.821473307933712e-14 0 0)
(8.687439121737343e-27 0 0)
(-4.345262948851823e-14 0 0)
(4.345262948851097e-14 0 0)
(-1.738105179542106e-14 0 0)
(-1.651199920563836e-13 0 0)
(-2.259536733403218e-13 0 0)
(-1.564294661586738e-13 0 0)
(-1.216673625678684e-13 0 0)
(-1.564294661586783e-13 0 0)
(-1.911915697494841e-13 0 0)
(-7.821473307932657e-14 0 0)
(1.303578884655643e-13 0 0)
(2.780968287265114e-13 0 0)
(2.520252510334192e-13 0 0)
(1.738105179540692e-13 0 0)
(1.564294661586833e-13 0 0)
(1.738105179540685e-13 0 0)
(1.651199920563822e-13 0 0)
(2.694063028288285e-13 0 0)
(2.172631474426162e-13 0 0)
(3.128589323173398e-13 0 0)
(3.563115618058903e-13 0 0)
(5.64884183350719e-13 0 0)
(4.084547171921388e-13 0 0)
(3.389305100104352e-13 0 0)
(2.694063028288403e-13 0 0)
(3.041684064196327e-13 0 0)
(3.302399841127662e-13 0 0)
(3.389305100104258e-13 0 0)
(2.259536733403314e-13 0 0)
(1.477389402609627e-13 0 0)
(1.738105179541068e-13 0 0)
(2.346441992379999e-13 0 0)
(3.650020877036102e-13 0 0)
(4.77978924373706e-13 0 0)
(3.650020877035682e-13 0 0)
(2.60715776931126e-13 0 0)
(1.303578884655829e-13 0 0)
(1.998820956471874e-13 0 0)
(2.780968287265535e-13 0 0)
(2.867873546242108e-13 0 0)
(2.43334725135724e-13 0 0)
(1.911915697494896e-13 0 0)
(8.690525897703873e-14 0 0)
(8.690525897703351e-14 0 0)
(1.998820956471957e-13 0 0)
(6.952420718161985e-14 0 0)
(-5.214315538622694e-14 0 0)
(-6.083368128391985e-14 0 0)
(8.690525897704007e-15 0 0)
(4.345262948850849e-14 0 0)
(8.690525897703418e-14 0 0)
(4.345262948850391e-14 0 0)
(-1.216673625678734e-13 0 0)
(-6.083368128393023e-14 0 0)
(-4.322493032583737e-27 0 0)
(-4.345262948852461e-14 0 0)
(-1.042863107724543e-13 0 0)
(-5.684850211603605e-27 0 0)
(2.60715776931028e-14 0 0)
(-8.690525897704634e-14 0 0)
(-1.3035788846557e-13 0 0)
(-7.821473307934074e-14 0 0)
(-1.738105179540874e-13 0 0)
(-1.651199920563775e-13 0 0)
(-7.821473307933867e-14 0 0)
(-9.559578487474148e-14 0 0)
(-2.780968287265418e-13 0 0)
(-1.303578884655604e-13 0 0)
(-2.954778805219411e-13 0 0)
(-2.346441992380073e-13 0 0)
(-9.559578487474285e-14 0 0)
(-4.900433507252485e-27 0 0)
(-8.690525897701736e-15 0 0)
(7.821473307934267e-14 0 0)
(2.172631474425806e-13 0 0)
(2.694063028288174e-13 0 0)
(2.346441992380205e-13 0 0)
(2.694063028288278e-13 0 0)
(3.476210359081604e-13 0 0)
(2.433347251357036e-13 0 0)
(2.86787354624248e-13 0 0)
(1.477389402609788e-13 0 0)
(1.042863107724509e-13 0 0)
(1.738105179540858e-13 0 0)
(2.694063028288238e-13 0 0)
(1.390484143632671e-13 0 0)
(7.821473307933468e-14 0 0)
(4.345262948851754e-14 0 0)
(-6.95242071816333e-14 0 0)
(8.690525897704812e-14 0 0)
(3.476210359082069e-14 0 0)
(6.083368128392707e-14 0 0)
(1.216673625678528e-13 0 0)
(6.083368128392187e-14 0 0)
(-1.042863107724501e-13 0 0)
(-1.998820956471778e-13 0 0)
(-1.477389402609751e-13 0 0)
(-6.08336812839302e-14 0 0)
(-4.345262948851633e-14 0 0)
(8.690525897703577e-14 0 0)
(1.998820956471878e-13 0 0)
(1.303578884655606e-13 0 0)
(2.607157769311666e-14 0 0)
(-7.821473307931822e-14 0 0)
(-1.129768366701434e-13 0 0)
(9.559578487474613e-14 0 0)
(1.129768366701357e-13 0 0)
(2.694063028288177e-13 0 0)
(3.476210359081772e-13 0 0)
(3.128589323173479e-13 0 0)
(4.084547171920963e-13 0 0)
(4.345262948851962e-13 0 0)
(4.345262948852031e-13 0 0)
(3.476210359081701e-13 0 0)
(1.651199920563688e-13 0 0)
(1.129768366701473e-13 0 0)
(1.738105179540752e-13 0 0)
(1.042863107724348e-13 0 0)
(1.738105179540092e-14 0 0)
(5.214315538622004e-14 0 0)
(4.345262948852119e-14 0 0)
(-3.852614883729623e-27 0 0)
(-4.345262948852131e-14 0 0)
(-1.564294661586771e-13 0 0)
(-2.346441992380148e-13 0 0)
(-1.738105179540922e-13 0 0)
(-1.651199920563891e-13 0 0)
(-3.128589323173194e-13 0 0)
(-2.607157769311178e-13 0 0)
(-3.389305100104674e-13 0 0)
(-3.128589323173177e-13 0 0)
(-2.085726215449167e-13 0 0)
(-6.952420718164488e-14 0 0)
(-2.259536733403111e-13 0 0)
(-2.867873546242243e-13 0 0)
(-4.432168207829153e-13 0 0)
(-4.084547171920877e-13 0 0)
(-3.650020877035757e-13 0 0)
(-3.91073665396646e-13 0 0)
(-4.345262948852488e-13 0 0)
(-6.083368128392313e-13 0 0)
(-4.605978725783099e-13 0 0)
(-5.822652351461674e-13 0 0)
(-5.909557610439022e-13 0 0)
(-6.083368128392641e-13 0 0)
(-6.604799682255097e-13 0 0)
(-6.083368128392664e-13 0 0)
(-6.170273387370216e-13 0 0)
(-4.432168207828991e-13 0 0)
(-3.650020877035646e-13 0 0)
(-3.997641912943824e-13 0 0)
(-2.694063028288303e-13 0 0)
(-1.738105179540548e-14 0 0)
(1.738105179540816e-13 0 0)
(1.65119992056375e-13 0 0)
(2.607157769312802e-14 0 0)
(-9.559578487472741e-14 0 0)
(1.216673625678549e-13 0 0)
(6.083368128392616e-14 0 0)
(-7.821473307933078e-14 0 0)
(-3.476210359080865e-14 0 0)
(-3.476210359080826e-14 0 0)
(1.477389402609559e-13 0 0)
(-8.690525897705707e-14 0 0)
(5.214315538621241e-14 0 0)
(-1.564294661586756e-13 0 0)
(-8.690525897703853e-14 0 0)
(-1.998820956471797e-13 0 0)
(-2.607157769310229e-14 0 0)
(2.346441992380096e-13 0 0)
(4.34526294885174e-13 0 0)
(3.650020877035937e-13 0 0)
(7.82147330793386e-14 0 0)
(-9.559578487473755e-14 0 0)
(-2.433347251356899e-13 0 0)
(-2.085726215448989e-13 0 0)
(-2.607157769311171e-13 0 0)
(-3.041684064196429e-13 0 0)
(-3.650020877035606e-13 0 0)
(-5.735747092485088e-13 0 0)
(-5.909557610438505e-13 0 0)
(-5.996462869415577e-13 0 0)
(-5.214315538622443e-13 0 0)
(-7.386947013048673e-13 0 0)
(-7.821473307933614e-13 0 0)
(-8.603620638726695e-13 0 0)
(-9.298862710542976e-13 0 0)
(-9.125052192589933e-13 0 0)
(-7.821473307933472e-13 0 0)
(-7.908378566910625e-13 0 0)
(-7.908378566910561e-13 0 0)
(-7.126231236117434e-13 0 0)
(-6.257178646346769e-13 0 0)
(-5.648841833507521e-13 0 0)
(-4.866694502714602e-13 0 0)
(-4.432168207829147e-13 0 0)
(-3.476210359081376e-13 0 0)
(-4.34526294885208e-13 0 0)
(-4.779789243737259e-13 0 0)
(-4.605978725782784e-13 0 0)
(-4.171452430897991e-13 0 0)
(-3.302399841127591e-13 0 0)
(-3.041684064196473e-13 0 0)
(-3.997641912943931e-13 0 0)
(-3.563115618058334e-13 0 0)
(-3.21549458215051e-13 0 0)
(-2.694063028288294e-13 0 0)
(-2.433347251356992e-13 0 0)
(-3.128589323173448e-13 0 0)
(-3.041684064196374e-13 0 0)
(-2.433347251357076e-13 0 0)
(-1.738105179540771e-13 0 0)
(-1.303578884655436e-13 0 0)
(-1.303578884655536e-13 0 0)
(-1.738105179540233e-14 0 0)
(8.690525897703324e-14 0 0)
(3.47621035908168e-14 0 0)
(8.690525897710903e-15 0 0)
(6.95242071816391e-14 0 0)
(6.299454689673825e-27 0 0)
(-8.690525897702559e-14 0 0)
(-6.952420718161905e-14 0 0)
(-6.952420718162365e-14 0 0)
(-9.559578487473508e-14 0 0)
(-1.998820956471975e-13 0 0)
(-2.954778805219388e-13 0 0)
(-2.085726215448944e-13 0 0)
(-2.867873546242365e-13 0 0)
(-2.520252510334052e-13 0 0)
(-1.12976836670171e-13 0 0)
(-2.259536733403098e-13 0 0)
(-3.389305100104278e-13 0 0)
(-1.564294661586775e-13 0 0)
(-1.303578884655638e-13 0 0)
(-2.172631474426074e-13 0 0)
(-1.998820956472012e-13 0 0)
(-1.12976836670152e-13 0 0)
(-1.911915697494984e-13 0 0)
(-3.04168406419646e-13 0 0)
(-2.607157769310988e-13 0 0)
(-1.825010438517895e-13 0 0)
(-7.821473307933774e-14 0 0)
(-2.60715776931127e-14 0 0)
(-6.952420718163705e-14 0 0)
(-2.607157769311746e-14 0 0)
(-1.738105179541796e-14 0 0)
(2.607157769310267e-14 0 0)
(-8.690525897714659e-15 0 0)
(-1.39048414363268e-13 0 0)
(-1.651199920563794e-13 0 0)
(-1.738105179540892e-13 0 0)
(-2.259536733403216e-13 0 0)
(-2.520252510334156e-13 0 0)
(-4.17145243089824e-13 0 0)
(-6.691704941232355e-13 0 0)
(-8.255999602818337e-13 0 0)
(-7.995283825887979e-13 0 0)
(-8.516715379750149e-13 0 0)
(-8.690525897704212e-13 0 0)
(-8.082189084864831e-13 0 0)
(-7.039325977139657e-13 0 0)
(-4.953599761691244e-13 0 0)
(-1.651199920563788e-13 0 0)
(-1.042863107724467e-13 0 0)
(1.390484143632555e-13 0 0)
(3.563115618058459e-13 0 0)
(1.825010438517801e-13 0 0)
(4.345262948851794e-14 0 0)
(1.738105179541359e-14 0 0)
(1.825010438518013e-13 0 0)
(1.564294661586884e-13 0 0)
(1.825010438517816e-13 0 0)
(3.128589323173506e-13 0 0)
(3.910736653966992e-13 0 0)
(4.779789243737206e-13 0 0)
(3.736926136012947e-13 0 0)
(4.605978725782875e-13 0 0)
(5.735747092484934e-13 0 0)
(4.692883984760195e-13 0 0)
(3.215494582150336e-13 0 0)
(7.821473307933536e-14 0 0)
(-9.559578487474812e-14 0 0)
(-1.825010438517787e-13 0 0)
(-1.129768366701478e-13 0 0)
(1.216673625678513e-13 0 0)
(4.258357689875066e-13 0 0)
(5.822652351461735e-13 0 0)
(5.214315538622262e-13 0 0)
(6.170273387370841e-13 0 0)
(6.170273387369675e-13 0 0)
(5.475031315553651e-13 0 0)
(5.040505020668424e-13 0 0)
(3.389305100104363e-13 0 0)
(3.56311561805889e-13 0 0)
(3.736926136012756e-13 0 0)
(3.476210359081709e-13 0 0)
(3.215494582150373e-13 0 0)
(1.65119992056369e-13 0 0)
(1.738105179540804e-13 0 0)
(1.911915697494969e-13 0 0)
(8.69052589770374e-14 0 0)
(1.390484143632785e-13 0 0)
(1.998820956471969e-13 0 0)
(1.651199920563797e-13 0 0)
(1.564294661586699e-13 0 0)
(7.821473307933415e-14 0 0)
(1.99882095647207e-13 0 0)
(1.738105179540844e-13 0 0)
(8.690525897703772e-14 0 0)
(8.690525897703074e-15 0 0)
(-1.390484143632639e-13 0 0)
(-8.690525897704254e-14 0 0)
(1.738105179540283e-14 0 0)
(6.952420718162223e-14 0 0)
(-1.042863107724562e-13 0 0)
(-1.21667362567857e-13 0 0)
(-2.433347251356923e-13 0 0)
(-3.65002087703555e-13 0 0)
(-2.520252510334158e-13 0 0)
(-4.345262948851515e-14 0 0)
(8.690525897708755e-15 0 0)
(-7.821473307933004e-14 0 0)
(-1.738105179540482e-14 0 0)
(-6.083368128392922e-14 0 0)
(6.083368128392118e-14 0 0)
(8.690525897708923e-15 0 0)
(-1.73810517954033e-14 0 0)
(3.476210359081517e-14 0 0)
(-1.738105179540444e-14 0 0)
(-9.559578487472953e-14 0 0)
(-1.564294661586773e-13 0 0)
(-1.825010438517805e-13 0 0)
(-2.172631474425829e-13 0 0)
(-1.303578884655637e-13 0 0)
(-1.042863107724477e-13 0 0)
(-1.303578884655704e-13 0 0)
(-2.433347251357115e-13 0 0)
(-2.259536733402938e-13 0 0)
(-2.78096828726537e-13 0 0)
(-2.867873546242367e-13 0 0)
(-2.172631474425879e-13 0 0)
(-2.433347251357231e-13 0 0)
(-1.651199920563746e-13 0 0)
(-1.04286310772458e-13 0 0)
(-6.952420718164158e-14 0 0)
(-2.607157769311109e-14 0 0)
(5.210147851775073e-29 0 0)
(6.952420718163496e-14 0 0)
(9.559578487473467e-14 0 0)
(1.477389402609653e-13 0 0)
(6.952420718163034e-14 0 0)
(-2.60715776931136e-14 0 0)
(-1.216673625678528e-13 0 0)
(-2.607157769310849e-14 0 0)
(-4.345262948851996e-14 0 0)
(8.690525897703076e-15 0 0)
(7.821473307932904e-14 0 0)
(2.433347251357003e-13 0 0)
(2.520252510334158e-13 0 0)
(3.215494582150416e-13 0 0)
(3.563115618058737e-13 0 0)
(3.041684064196214e-13 0 0)
(3.302399841127544e-13 0 0)
(2.780968287265374e-13 0 0)
(2.172631474425884e-13 0 0)
(2.520252510334144e-13 0 0)
(1.998820956472065e-13 0 0)
(2.520252510334197e-13 0 0)
(3.823831394989903e-13 0 0)
(4.258357689874634e-13 0 0)
(3.736926136012758e-13 0 0)
(3.476210359081683e-13 0 0)
(4.084547171920354e-13 0 0)
(2.34644199238012e-13 0 0)
(2.607157769311142e-13 0 0)
(2.259536733403135e-13 0 0)
(1.390484143632682e-13 0 0)
(8.69052589770256e-15 0 0)
(1.129768366701568e-13 0 0)
(2.780968287265289e-13 0 0)
(2.69406302828815e-13 0 0)
(2.780968287265424e-13 0 0)
(2.607157769311287e-13 0 0)
(2.433347251357273e-13 0 0)
(1.911915697494867e-13 0 0)
(2.172631474425947e-13 0 0)
(2.954778805219409e-13 0 0)
(3.389305100104607e-13 0 0)
(3.476210359081341e-13 0 0)
(2.085726215449146e-13 0 0)
(3.650020877035712e-13 0 0)
(2.954778805219518e-13 0 0)
(2.433347251357152e-13 0 0)
(4.084547171920504e-13 0 0)
(2.954778805219503e-13 0 0)
(1.303578884655715e-13 0 0)
(4.345262948852733e-14 0 0)
(1.042863107724494e-13 0 0)
(-8.690525897702989e-15 0 0)
(1.738105179540558e-14 0 0)
(-1.042863107724514e-13 0 0)
(-1.216673625678476e-13 0 0)
(1.73810517954075e-14 0 0)
(2.607157769310718e-14 0 0)
(-7.8214733079334e-14 0 0)
(-1.390484143632656e-13 0 0)
(-2.562620869317444e-27 0 0)
(3.476210359081409e-14 0 0)
(1.738105179540788e-13 0 0)
(2.694063028287951e-13 0 0)
(2.867873546242408e-13 0 0)
(1.216673625678581e-13 0 0)
(4.345262948852153e-14 0 0)
(3.476210359082241e-14 0 0)
(-6.083368128392529e-14 0 0)
(2.607157769311389e-14 0 0)
(1.129768366701493e-13 0 0)
(1.390484143632407e-13 0 0)
(2.607157769309933e-14 0 0)
(-3.476210359082163e-14 0 0)
(1.904598492482178e-27 0 0)
(-3.476210359080936e-14 0 0)
(1.303578884655628e-13 0 0)
(3.30239984112762e-13 0 0)
(3.650020877035614e-13 0 0)
(2.954778805219157e-13 0 0)
(2.172631474426066e-13 0 0)
(1.56429466158669e-13 0 0)
(3.476210359080842e-14 0 0)
(-8.92671998604109e-27 0 0)
(-4.345262948852706e-14 0 0)
(-1.303578884655778e-13 0 0)
(-1.477389402609718e-13 0 0)
(-2.085726215448845e-13 0 0)
(-2.867873546242362e-13 0 0)
(-1.39048414363264e-13 0 0)
(-4.345262948851723e-14 0 0)
(1.216673625678619e-13 0 0)
(2.433347251356939e-13 0 0)
(1.651199920563781e-13 0 0)
(1.216673625678665e-13 0 0)
(1.30357888465556e-13 0 0)
(1.998820956472007e-13 0 0)
(1.651199920563885e-13 0 0)
(1.825010438517963e-13 0 0)
(2.346441992380196e-13 0 0)
(3.041684064196119e-13 0 0)
(4.779789243737397e-13 0 0)
(4.171452430897905e-13 0 0)
(3.476210359081489e-13 0 0)
(2.694063028288444e-13 0 0)
(3.563115618058901e-13 0 0)
(3.823831394989943e-13 0 0)
(4.084547171920863e-13 0 0)
(3.215494582150499e-13 0 0)
(1.825010438517836e-13 0 0)
(1.477389402609802e-13 0 0)
(1.390484143632565e-13 0 0)
(1.477389402609801e-13 0 0)
(1.738105179541186e-14 0 0)
(6.083368128392921e-14 0 0)
(8.690525897703933e-14 0 0)
(1.99882095647169e-13 0 0)
(1.738105179540899e-13 0 0)
(2.259536733403081e-13 0 0)
(3.650020877035554e-13 0 0)
(3.823831394989737e-13 0 0)
(4.34526294885189e-13 0 0)
(3.128589323173594e-13 0 0)
(2.259536733403177e-13 0 0)
(2.259536733402941e-13 0 0)
(3.041684064196355e-13 0 0)
(2.433347251357301e-13 0 0)
(1.73810517954065e-13 0 0)
(1.477389402609648e-13 0 0)
(-4.345262948852744e-14 0 0)
(-6.952420718163882e-14 0 0)
(-7.821473307934417e-14 0 0)
(-1.042863107724409e-13 0 0)
(-1.825010438517937e-13 0 0)
(-1.73810517954083e-13 0 0)
(-2.259536733402976e-13 0 0)
(-3.215494582150635e-13 0 0)
(-1.911915697495017e-13 0 0)
(-1.216673625678664e-13 0 0)
(1.042863107724369e-13 0 0)
(1.911915697494739e-13 0 0)
(2.259536733402859e-13 0 0)
(1.564294661586882e-13 0 0)
(1.564294661586557e-13 0 0)
(1.042863107724505e-13 0 0)
(6.952420718163325e-14 0 0)
(3.685697184033341e-27 0 0)
(8.690525897705458e-15 0 0)
(-2.607157769310667e-14 0 0)
(5.214315538622633e-14 0 0)
(1.129768366701364e-13 0 0)
(6.95242071816175e-14 0 0)
(-8.69052589770478e-14 0 0)
(-1.998820956471921e-13 0 0)
(-2.172631474426128e-13 0 0)
(-2.520252510334165e-13 0 0)
(-2.259536733402981e-13 0 0)
(-3.041684064196203e-13 0 0)
(-4.171452430898239e-13 0 0)
(-3.302399841127121e-13 0 0)
(-2.694063028288272e-13 0 0)
(-1.129768366701592e-13 0 0)
(7.82147330793353e-14 0 0)
(-1.129768366701488e-13 0 0)
(-6.08336812839181e-14 0 0)
(-1.042863107724573e-13 0 0)
(-1.303578884655538e-13 0 0)
(-1.303578884655608e-13 0 0)
(-1.73810517954079e-13 0 0)
(-2.259536733403185e-13 0 0)
(-1.477389402609703e-13 0 0)
(-3.476210359082161e-14 0 0)
(-1.129768366701529e-13 0 0)
(-4.345262948851547e-14 0 0)
(-4.345262948852028e-14 0 0)
(8.69052589770778e-15 0 0)
(6.083368128393557e-14 0 0)
(1.564294661586831e-13 0 0)
(3.823831394989737e-13 0 0)
(4.779789243737394e-13 0 0)
(5.822652351461789e-13 0 0)
(3.823831394989811e-13 0 0)
(5.388126056575617e-13 0 0)
(3.910736653966845e-13 0 0)
(3.563115618058592e-13 0 0)
(2.433347251357083e-13 0 0)
(8.690525897704476e-14 0 0)
(1.390484143632749e-13 0 0)
(-8.690525897694505e-15 0 0)
(9.733328060869559e-27 0 0)
(7.82147330793427e-14 0 0)
(2.172631474425974e-13 0 0)
(1.390484143632907e-13 0 0)
(1.216673625678618e-13 0 0)
(1.825010438518001e-13 0 0)
(1.738105179540592e-13 0 0)
(2.433347251357165e-13 0 0)
(2.433347251357157e-13 0 0)
(2.60715776931133e-13 0 0)
(1.564294661586778e-13 0 0)
(1.042863107724552e-13 0 0)
(1.738105179540918e-13 0 0)
(2.433347251356814e-13 0 0)
(2.259536733403101e-13 0 0)
(2.346441992380159e-13 0 0)
(1.738105179540889e-13 0 0)
(2.607157769311291e-14 0 0)
(-8.690525897705557e-15 0 0)
(-1.042863107724594e-13 0 0)
(-1.477389402609731e-13 0 0)
(-1.216673625678558e-13 0 0)
(-8.690525897703068e-15 0 0)
(-9.559578487474672e-14 0 0)
(-1.564294661586667e-13 0 0)
(-1.042863107724537e-13 0 0)
(-1.564294661586806e-13 0 0)
(-2.172631474426033e-13 0 0)
(-3.910736653966826e-13 0 0)
(-4.519073466805218e-13 0 0)
(-4.605978725783472e-13 0 0)
(-6.083368128392892e-13 0 0)
(-6.344083905324074e-13 0 0)
(-5.475031315553595e-13 0 0)
(-3.910736653966821e-13 0 0)
(-3.997641912944e-13 0 0)
(-3.215494582150418e-13 0 0)
(-2.346441992380205e-13 0 0)
(-1.477389402609423e-13 0 0)
(-1.042863107724505e-13 0 0)
(-7.821473307933728e-14 0 0)
(-7.821473307934549e-14 0 0)
(-6.95242071816401e-14 0 0)
(4.345262948851236e-14 0 0)
(-6.723020413179349e-27 0 0)
(1.216673625678355e-13 0 0)
(-2.607157769310421e-14 0 0)
(-9.559578487473588e-14 0 0)
(1.183282467669779e-26 0 0)
(8.690525897704708e-14 0 0)
(2.607157769311484e-14 0 0)
(-1.042863107724481e-13 0 0)
(-1.042863107724549e-13 0 0)
(-1.390484143632646e-13 0 0)
(-1.564294661586477e-13 0 0)
(-1.651199920563968e-13 0 0)
(-1.825010438517879e-13 0 0)
(-1.738105179540882e-13 0 0)
(-3.389305100104532e-13 0 0)
(-1.042863107724498e-13 0 0)
(-9.559578487475982e-14 0 0)
(-1.651199920563624e-13 0 0)
(-2.607157769311312e-13 0 0)
(-2.86787354624239e-13 0 0)
(-2.867873546242507e-13 0 0)
(-3.128589323173471e-13 0 0)
(-3.910736653966786e-13 0 0)
(-4.432168207829344e-13 0 0)
(-3.650020877035755e-13 0 0)
(-3.21549458215075e-13 0 0)
(1.738105179538899e-14 0 0)
(1.04286310772421e-13 0 0)
(6.083368128391131e-14 0 0)
(-6.083368128392851e-14 0 0)
(-1.477389402609614e-13 0 0)
(1.738105179540265e-14 0 0)
(-1.042863107724578e-13 0 0)
(-3.215494582150002e-13 0 0)
(-5.475031315553533e-13 0 0)
(-6.344083905323904e-13 0 0)
(-4.953599761691365e-13 0 0)
(-3.910736653967029e-13 0 0)
(-3.302399841127556e-13 0 0)
(-2.607157769311257e-13 0 0)
(-1.738105179540712e-13 0 0)
(-1.390484143632617e-13 0 0)
(6.083368128392175e-14 0 0)
(1.564294661586787e-13 0 0)
(2.346441992380084e-13 0 0)
(1.042863107724537e-13 0 0)
(1.21667362567869e-13 0 0)
(1.738105179540956e-13 0 0)
(2.780968287265497e-13 0 0)
(1.911915697494749e-13 0 0)
(1.129768366701591e-13 0 0)
(2.085726215449061e-13 0 0)
(2.346441992380232e-13 0 0)
(1.216673625678561e-13 0 0)
(1.564294661586801e-13 0 0)
(2.172631474426072e-13 0 0)
(1.651199920563874e-13 0 0)
(-1.477389402609446e-13 0 0)
(-2.433347251357204e-13 0 0)
(-2.346441992380095e-13 0 0)
(-3.128589323173583e-13 0 0)
(-3.823831394989307e-13 0 0)
(-2.346441992380078e-13 0 0)
(-5.214315538623033e-14 0 0)
(7.821473307932785e-14 0 0)
(2.520252510333996e-13 0 0)
(4.345262948851786e-14 0 0)
(7.821473307933996e-14 0 0)
(1.129768366701535e-13 0 0)
(-4.345262948851721e-14 0 0)
(-2.433347251357199e-13 0 0)
(-3.04168406419646e-13 0 0)
(-3.041684064196422e-13 0 0)
(-2.346441992380111e-13 0 0)
(-6.952420718163359e-14 0 0)
(-1.738105179541433e-14 0 0)
(4.345262948851404e-14 0 0)
(-8.69052589770367e-14 0 0)
(3.476210359081139e-14 0 0)
(-3.365369575368609e-27 0 0)
(-1.47738940260973e-13 0 0)
(-9.559578487474253e-14 0 0)
(-1.825010438517731e-13 0 0)
(-1.303578884655622e-13 0 0)
(-1.738105179540832e-13 0 0)
(-1.303578884655637e-13 0 0)
(-3.302399841127326e-13 0 0)
(-3.04168406419647e-13 0 0)
(-3.21549458215058e-13 0 0)
(-3.476210359081832e-13 0 0)
(-4.345262948851718e-13 0 0)
(-4.953599761691258e-13 0 0)
(-4.60597872578334e-13 0 0)
(-5.909557610438571e-13 0 0)
(-4.519073466805689e-13 0 0)
(-2.172631474426067e-13 0 0)
(-1.390484143632731e-13 0 0)
(-2.607157769311263e-13 0 0)
(-2.346441992380169e-13 0 0)
(-1.390484143632663e-13 0 0)
(-9.559578487475481e-14 0 0)
(-1.042863107724619e-13 0 0)
(-2.780968287265305e-13 0 0)
(-2.780968287265144e-13 0 0)
(-2.52025251033429e-13 0 0)
(-2.607157769311213e-13 0 0)
(-3.650020877035866e-13 0 0)
(-4.258357689874672e-13 0 0)
(-3.476210359081746e-13 0 0)
(-3.128589323173557e-13 0 0)
(-2.085726215449049e-13 0 0)
(-4.171452430897607e-13 0 0)
(-3.736926136012821e-13 0 0)
(-3.65002087703577e-13 0 0)
(-3.21549458215054e-13 0 0)
(-3.389305100104437e-13 0 0)
(-4.258357689874905e-13 0 0)
(-5.127410279645518e-13 0 0)
(-6.170273387370013e-13 0 0)
(-4.779789243737082e-13 0 0)
(-5.909557610438613e-13 0 0)
(-6.86551545918628e-13 0 0)
(-6.34408390532404e-13 0 0)
(-7.560757531002574e-13 0 0)
(-1.034172581826695e-12 0 0)
(-1.347031514144133e-12 0 0)
(-1.338340988246476e-12 0 0)
(-1.564294661586698e-12 0 0)
(-1.373103091837139e-12 0 0)
(-1.268816781064848e-12 0 0)
(-1.355722040041857e-12 0 0)
(-1.442627299018846e-12 0 0)
(-1.407865195427903e-12 0 0)
(-1.407865195428114e-12 0 0)
(-1.451317824916603e-12 0 0)
(-1.286197832860225e-12 0 0)
(-1.477389402609635e-12 0 0)
(-1.486079928507372e-12 0 0)
(-1.416555721325792e-12 0 0)
(-1.442627299018926e-12 0 0)
(-1.590366239279714e-12 0 0)
(-1.538223083893586e-12 0 0)
(-1.529532557995944e-12 0 0)
(-1.668580972359156e-12 0 0)
(-1.642509394666048e-12 0 0)
(-1.798938860824783e-12 0 0)
(-1.920606223392572e-12 0 0)
)
;

boundaryField
{
    inlet
    {
        type            zeroGradient;
    }
    outlet
    {
        type            pressureInletOutletVelocity;
        value           uniform (-1.920606223392572e-12 0 0);
    }
    frontAndBack
    {
        type            empty;
    }
}


// ************************************************************************* //
