/*--------------------------------*- C++ -*----------------------------------*\
| =========                 |                                                 |
| \\      /  F ield         | OpenFOAM: The Open Source CFD Toolbox           |
|  \\    /   O peration     | Version:  v2012                                 |
|   \\  /    A nd           | Website:  www.openfoam.com                      |
|    \\/     M anipulation  |                                                 |
\*---------------------------------------------------------------------------*/
FoamFile
{
    version     2.0;
    format      ascii;
    class       volScalarField;
    location    "0.004";
    object      p;
}
// * * * * * * * * * * * * * * * * * * * * * * * * * * * * * * * * * * * * * //

dimensions      [1 -1 -2 0 0 0 0];


internalField   nonuniform List<scalar> 
1000
(
101310.9372151605
101313.5714397892
101306.8339536273
101301.5413620867
101295.7105819438
101290.4700549876
101285.9469529774
101282.0726934712
101278.7521502059
101276.5348195248
101275.9541725894
101275.9689158615
101276.336755239
101277.3498546057
101279.3273456794
101282.3317202885
101286.2492499797
101290.9024554223
101296.1450613144
101301.8758661297
101308.0110009621
101314.4594928679
101321.1149906033
101327.8554473141
101334.5461683574
101341.0509698516
101347.2539049198
101353.0854528701
101358.5371936494
101363.6208813222
101368.1803374867
101371.5662196557
101373.0167233689
101373.1842058602
101373.112019368
101372.8489033141
101372.1073412918
101370.6541751736
101368.280511955
101364.8912167252
101360.5261052789
101355.3384807043
101349.5324610647
101343.2993673982
101336.787919567
101330.1115960072
101323.3707344416
101316.667794629
101310.1074310987
101303.7788201001
101297.7267007324
101291.9489366049
101286.4968813773
101281.7445315379
101278.5844987528
101277.5087988109
101277.4356514892
101277.4765654174
101277.7375400007
101278.3800381606
101279.6296773135
101281.6777258369
101284.6604951513
101288.6215001583
101293.4993976962
101299.1421675455
101305.345484075
101311.9000850901
101318.6270606381
101325.3886461479
101332.0819485598
101338.6347563353
101345.0109606985
101351.2090672832
101357.2231116338
101362.9249562592
101367.8264514059
101370.9820092571
101372.0194717151
101372.0952223148
101372.0386543006
101371.8333248062
101371.2866047044
101370.2240891691
101368.4604801305
101365.8448514374
101362.2868740955
101357.7806218359
101352.4106597446
101346.3377527359
101339.7692170721
101332.9223878915
101325.9893315566
101319.1113281932
101312.3698658803
101305.7933923497
101299.3766597076
101293.1313198306
101287.2289121878
101282.2698042516
101279.2681343267
101278.3939027972
101278.349579673
101278.3858632138
101278.5939966653
101279.0993456493
101280.0782120307
101281.6960546592
101284.0982587008
101287.384366629
101291.5885685446
101296.6667269833
101302.4971629835
101308.8989619016
101315.6633918269
101322.5883155939
101329.5081712947
101336.3162997002
101342.9729836808
101349.4852886832
101355.8404952287
101361.8629946639
101366.9739243704
101370.1779519016
101371.203216085
101371.281505786
101371.2389550194
101371.0809325115
101370.6538682613
101369.8140738257
101368.4015722168
101366.2698755991
101363.303091272
101359.4366767741
101354.6725636048
101349.0854130494
101342.817723486
101336.0613569511
101329.0253373011
101321.8976496661
101314.8150645055
101307.8522508154
101301.0374969307
101294.4151946184
101288.2049466423
101283.0649412318
101280.0143285843
101279.1359594069
101279.0862836596
101279.1136164049
101279.2776171533
101279.6850385642
101280.483531906
101281.8174374417
101283.8235154149
101286.6130255961
101290.2558153296
101294.7650933976
101300.0885941206
101306.1110641453
101312.6686139388
101319.5720403476
101326.6366185621
101333.7139798041
101340.7134716059
101347.593322298
101354.3006510663
101360.6301659049
101365.9858991356
101369.3698406232
101370.4953729275
101370.5955596993
101370.5647284379
101370.4463837322
101370.1095862652
101369.4315557562
101368.270668467
101366.490749393
101363.9723076314
101360.6284094038
101356.418457204
101351.3586512389
101345.5269262756
101339.0581070445
101332.1255473571
101324.9120467527
101317.5797764165
101310.2503759554
101303.0083189289
101295.9553573091
101289.3671655991
101283.9487392251
101280.7322794847
101279.7792208241
101279.7139095772
101279.7344631187
101279.8652732201
101280.1974767391
101280.8592251202
101281.9788158195
101283.6833859698
101286.0850406892
101289.2683468969
101293.2769522848
101298.1033646806
101303.6855569163
101309.9114444034
101316.6310511988
101323.6773618222
101330.8941332669
101338.1595031865
101345.3857698395
101352.4719658219
101359.1747074398
101364.8774735748
101368.5606727947
101369.8633001382
101370.0020182179
101369.9803911245
101369.8909590257
101369.6220891282
101369.0671392149
101368.1000124626
101366.5950834896
101364.4349582138
101361.5231028649
101357.7954873048
101353.2311468854
101347.8601919474
101341.7653683515
101335.0731870828
101327.935550056
101320.5076756845
101312.9295596794
101305.3237289945
101297.8409970041
101290.8094149285
101284.9855947343
101281.4613939345
101280.360764463
101280.2694173884
101280.2826968713
101280.3851137707
101280.65577228
101281.209047873
101282.1597415046
101283.6248989888
101285.7129008609
101288.5139326951
101292.0887866837
101296.4591475052
101301.6020048996
101307.4489965015
101313.8914309798
101320.7933919903
101328.0126670861
101335.4206496375
101342.9046505365
101350.3304127702
101357.4272051252
101363.5645214872
101367.6805569454
101369.2632626393
101369.468530746
101369.4548458065
101369.3902436991
101369.1769443615
101368.7212785912
101367.9092793101
101366.6255962692
101364.7580634563
101362.2075004024
101358.8970924785
101354.7819731307
101349.8578408267
101344.165409228
101337.7874552465
101330.8386083264
101323.4509798175
101315.7601573201
101307.9031358428
101300.059156648
101292.5878244171
101286.2742974338
101282.2847434701
101280.9161559215
101280.7716567946
101280.7797180206
101280.8586390398
101281.0783899643
101281.541472946
101282.3522103093
101283.6191505927
101285.4461650148
101287.9247268034
101291.1247354859
101295.0862722392
101299.8138012101
101305.2730654441
101311.3918124512
101318.067307095
101325.1808815507
101332.6125042505
101340.2425959174
101347.9222503035
101355.3738837
101361.9786573965
101366.6464337155
101368.6481475993
101368.9746907637
101368.9695215292
101368.9263966893
101368.7596589063
101368.3874405673
101367.7049637005
101366.6055824126
101364.982889552
101362.7384081587
101359.7889705008
101356.0748794012
101351.5679201022
101346.2767632913
101340.2474361203
101333.5588189891
101326.3146065916
101318.6342528416
101310.6525241888
101302.5553319513
101294.7029405867
101287.8670620419
101283.2721225494
101281.4879167275
101281.2432996373
101281.2448635009
101281.3025704559
101281.4772123508
101281.8621063864
101282.5532512001
101283.651816067
101285.2567373161
101287.4585482195
101290.3318918722
101293.9286727918
101298.2725485532
101303.3547529592
101309.1325945657
101315.5334126114
101322.4640170952
101329.8201698363
101337.4871956055
101345.3168525776
101353.04450671
101360.0937922185
101365.389063172
101367.9641200822
101368.5005770256
101368.513565664
101368.4868912964
101368.3598768699
101368.0591044047
101367.487681855
101366.5461490067
101365.133386773
101363.1528815482
101360.5186264732
101357.1619408187
101353.0382860053
101348.1326351345
101342.4620460536
101336.0749299609
101329.0471516195
101321.4768197813
101313.4859971016
101305.2516524937
101297.1102416274
101289.7784719514
101284.4885050583
101282.1249526261
101281.6997656028
101281.6930673598
101281.7296522505
101281.8640567618
101282.1787207197
101282.7638469276
101283.7148428048
101285.1262182296
101287.0865670231
101289.6725737756
101292.9434820823
101296.9361210016
101301.6603979707
101307.096754665
101313.1978813207
101319.8942799621
101327.0996735254
101334.7107286512
101342.5897885646
101350.4983153769
101357.9252958257
101363.8609392846
101367.1459873525
101368.0227244736
101368.0773996639
101368.0622304683
101367.9688971211
101367.7304863558
101367.2561718604
101366.452759716
101365.2236751148
101363.4748212431
101361.1191996192
101358.0825848265
101354.3094238179
101349.7678075766
101344.4527522682
101338.3876538569
101331.6236088961
101324.2372674476
101316.3334561201
101308.0706543064
101299.7467824667
101291.9951518844
101285.9890753764
101282.8871938977
101282.1556320025
101282.120845854
101282.1441628027
101282.2433724804
101282.4966834251
101282.987923872
101283.807866089
101285.0472762084
101286.7927867126
101289.122138113
101292.09938977
101295.770249691
101300.158019872
101305.2610888002
101311.0528223236
101317.4837764524
101324.4848412736
101331.9675549897
101339.8109539975
101347.8079784008
101355.5216824404
101362.0491665898
101366.129689704
101367.5032591122
101367.6471893897
101367.6388913366
101367.576389678
101367.3935686224
101367.007067409
101366.3277523917
101365.2630280067
101363.721067557
101361.6147905422
101358.8667657815
101355.4143427104
101351.2138002086
101346.2435967385
101340.5073768993
101334.0356709593
101326.8853519074
101319.1421234164
101310.9415943545
101302.5383280945
101294.4705482174
101287.7962272913
101283.8440227775
101282.6411099962
101282.5363163422
101282.5520906687
101282.6204141548
101282.8199142759
101283.2270449557
101283.9292008801
101285.0139399307
101286.5661387717
101288.663623827
101291.3734928511
101294.7480556729
101298.8206048666
101303.6026349453
101309.0835078185
101315.2312421301
101321.9928479759
101329.2935495805
101337.0285587298
101345.0239189201
101352.9201654602
101359.9479819811
101364.8542876739
101366.9042320798
101367.2316601183
101367.2366052722
101367.1936480553
101367.0574536349
101366.7453721673
101366.1744021766
101365.2550224098
101363.897766902
101362.0161990519
101359.5311083696
101356.3746561142
101352.494236354
101347.8561347266
101342.4488680982
101336.2853522491
101329.4040026123
101321.872612535
101313.8049737147
101305.4126308891
101297.1380236364
101289.8934873289
101285.0551528489
101283.2066887565
101282.9564632803
101282.9608173801
101283.0056948749
101283.1565174688
101283.4871558692
101284.0814035344
101285.0241955244
101286.3989531867
101288.2837613341
101290.7478819931
101293.8480761114
101297.6250801557
101302.1009868807
101307.2778077678
101313.1368730061
101319.6388038483
101326.7229825322
101334.3006884865
101342.2252717975
101350.2039064051
101357.6048860262
101363.2748364838
101366.1338803768
101366.7807190694
101366.8084843284
101366.7865602775
101366.69313076
101366.4574219382
101366.0034569151
101365.2505601427
101364.119786569
101362.5381552171
101360.4437174825
101357.7913491241
101354.5593829741
101350.7573754996
101346.4364732473
101341.7075081679
101336.7803283348
101332.0450534156
101328.1615661665
101325.8550703406
101325.0997282857
101325.0033179239
101325.0000206143
101325.0000000172
101325.0000000011
101325.000000001
101325.0000000011
101325.0000000011
101325.0000000011
101325.0000000011
101325.0000000012
101325.0000000011
101325.0000000011
101325.0000000012
101325.0000000012
101325.0000000012
101325.0000000012
101325.0000000013
101325.0000000013
101325.0000000013
101325.0000000013
101325.0000000013
101325.0000000013
101325.0000000012
101325.0000000011
101325.000000001
101325.000000001
101325.0000000009
101325.000000001
101325.000000001
101325.000000001
101325.000000001
101325.000000001
101325.000000001
101325.000000001
101325.0000000011
101325.000000001
101325.000000001
101325.000000001
101325.0000000009
101325.0000000009
101325.0000000009
101325.0000000009
101325.0000000008
101325.0000000008
101325.0000000007
101325.0000000007
101325.0000000006
101325.0000000006
101325.0000000006
101325.0000000007
101325.0000000007
101325.0000000007
101325.0000000007
101325.0000000007
101325.0000000007
101325.0000000006
101325.0000000006
101325.0000000005
101325.0000000005
101325.0000000005
101325.0000000005
101325.0000000005
101325.0000000005
101325.0000000005
101325.0000000004
101325.0000000003
101325.0000000001
101324.9999999999
101324.9999999997
101324.9999999994
101324.9999999993
101324.9999999992
101324.9999999991
101324.999999999
101324.9999999989
101324.9999999988
101324.9999999988
101324.9999999988
101324.9999999988
101324.9999999988
101324.9999999987
101324.9999999986
101324.9999999986
101324.9999999984
101324.9999999984
101324.9999999983
101324.9999999981
101324.999999998
101324.9999999978
101324.9999999977
101324.9999999974
101324.9999999972
101324.9999999969
101324.9999999967
101324.9999999966
101324.9999999965
101324.9999999964
101324.9999999963
101324.9999999963
101324.9999999963
101324.9999999963
101324.9999999963
101324.9999999963
101324.9999999962
101324.9999999962
101324.9999999962
101324.9999999963
101324.9999999963
101324.9999999963
101324.9999999963
101324.9999999962
101324.9999999962
101324.9999999961
101324.999999996
101324.999999996
101324.999999996
101324.9999999959
101324.9999999959
101324.9999999959
101324.9999999959
101324.9999999959
101324.9999999959
101324.9999999958
101324.9999999957
101324.9999999956
101324.9999999955
101324.9999999955
101324.9999999955
101324.9999999955
101324.9999999955
101324.9999999955
101324.9999999956
101324.9999999956
101324.9999999956
101324.9999999956
101324.9999999956
101324.9999999956
101324.9999999956
101324.9999999957
101324.9999999956
101324.9999999956
101324.9999999957
101324.9999999956
101324.9999999956
101324.9999999955
101324.9999999955
101324.9999999955
101324.9999999956
101324.9999999955
101324.9999999954
101324.9999999954
101324.9999999954
101324.9999999955
101324.9999999955
101324.9999999954
101324.9999999953
101324.9999999952
101324.9999999952
101324.9999999951
101324.999999995
101324.9999999949
101324.9999999947
101324.9999999946
101324.9999999945
101324.9999999944
101324.9999999943
101324.9999999942
101324.9999999941
101324.9999999939
101324.9999999936
101324.9999999934
101324.9999999931
101324.9999999929
101324.9999999927
101324.9999999925
101324.9999999924
101324.9999999923
101324.9999999921
101324.9999999919
101324.9999999917
101324.9999999914
101324.9999999911
101324.9999999907
101324.9999999904
101324.99999999
101324.9999999898
101324.9999999895
101324.9999999892
101324.9999999891
101324.9999999888
101324.9999999886
101324.9999999884
101324.9999999881
101324.999999988
101324.9999999878
101324.9999999877
101324.9999999876
101324.9999999876
101324.9999999874
101324.9999999872
101324.9999999871
101324.999999987
101324.9999999868
101324.9999999866
101324.9999999865
101324.9999999863
101324.999999986
101324.9999999857
101324.9999999855
101324.9999999852
101324.999999985
101324.9999999848
101324.9999999845
101324.9999999842
101324.9999999841
101324.9999999839
101324.9999999838
101324.9999999837
101324.9999999835
101324.9999999834
101324.9999999833
101324.9999999832
101324.999999983
101324.9999999829
101324.9999999826
101324.9999999825
101324.9999999822
101324.9999999819
101324.9999999816
101324.9999999813
101324.999999981
101324.9999999807
101324.9999999804
101324.9999999801
101324.9999999799
101324.9999999796
101324.9999999794
101324.9999999791
101324.9999999787
101324.9999999785
101324.9999999782
101324.9999999779
101324.9999999775
101324.9999999772
101324.9999999769
101324.9999999766
101324.9999999764
101324.9999999762
101324.999999976
101324.9999999758
101324.9999999758
101324.9999999757
101324.9999999757
101324.9999999757
101324.9999999757
101324.9999999757
101324.9999999756
101324.9999999756
101324.9999999756
101324.9999999757
101324.9999999759
101324.9999999762
101324.9999999763
101324.9999999765
101324.9999999766
101324.9999999768
101324.9999999769
101324.999999977
101324.999999977
101324.9999999771
101324.9999999773
101324.9999999773
101324.9999999774
101324.9999999774
101324.9999999774
101324.9999999776
101324.9999999778
101324.9999999779
101324.999999978
101324.9999999781
101324.9999999782
101324.9999999783
101324.9999999783
101324.9999999785
101324.9999999786
101324.9999999787
101324.9999999788
101324.9999999789
101324.999999979
101324.9999999792
101324.9999999793
101324.9999999795
101324.9999999797
101324.9999999798
101324.99999998
101324.9999999801
101324.9999999802
101324.9999999802
101324.9999999803
101324.9999999803
101324.9999999803
101324.9999999803
101324.9999999802
101324.9999999803
101324.9999999803
101324.9999999804
101324.9999999804
101324.9999999805
101324.9999999805
101324.9999999806
101324.9999999806
101324.9999999807
101324.9999999809
101324.9999999809
101324.9999999809
101324.999999981
101324.9999999811
101324.9999999812
101324.9999999813
101324.9999999813
101324.9999999813
101324.9999999813
101324.9999999813
101324.9999999812
101324.9999999813
101324.9999999813
101324.9999999813
101324.9999999813
101324.9999999814
101324.9999999814
101324.9999999814
101324.9999999815
101324.9999999815
101324.9999999815
101324.9999999815
101324.9999999815
101324.9999999815
101324.9999999814
101324.9999999814
101324.9999999815
101324.9999999815
101324.9999999815
101324.9999999814
101324.9999999814
101324.9999999814
101324.9999999815
101324.9999999816
101324.9999999816
101324.9999999816
101324.9999999816
101324.9999999816
101324.9999999816
101324.9999999816
101324.9999999817
101324.9999999816
101324.9999999816
101324.9999999816
101324.9999999816
101324.9999999816
101324.9999999815
101324.9999999815
101324.9999999815
101324.9999999815
101324.9999999815
101324.9999999815
101324.9999999815
101324.9999999815
101324.9999999815
101324.9999999815
101324.9999999816
101324.9999999816
101324.9999999817
101324.9999999817
101324.9999999817
101324.9999999817
101324.9999999817
101324.9999999817
101324.9999999817
101324.9999999816
101324.9999999815
101324.9999999815
101324.9999999814
101324.9999999813
101324.9999999814
101324.9999999814
101324.9999999814
101324.9999999814
101324.9999999814
101324.9999999814
101324.9999999814
101324.9999999814
101324.9999999814
101324.9999999814
101324.9999999814
101324.9999999814
101324.9999999814
101324.9999999814
101324.9999999814
101324.9999999814
101324.9999999814
101324.9999999814
101324.9999999814
101324.9999999814
101324.9999999815
101324.9999999815
101324.9999999814
101324.9999999814
101324.9999999814
101324.9999999814
101324.9999999814
101324.9999999814
101324.9999999814
101324.9999999814
101324.9999999814
101324.9999999814
101324.9999999814
101324.9999999813
101324.9999999813
101324.9999999813
101324.9999999814
101324.9999999814
101324.9999999813
101324.9999999814
101324.9999999813
101324.9999999812
101324.9999999811
101324.9999999811
101324.9999999811
101324.9999999811
101324.9999999811
101324.9999999811
101324.9999999811
101324.9999999811
101324.9999999811
101324.9999999812
101324.9999999812
101324.9999999812
101324.9999999812
101324.9999999812
101324.9999999812
)
;

boundaryField
{
    inlet
    {
        type            uniformFixedValue;
        uniformValue    sine;
        uniformValueCoeffs
        {
            frequency       constant 3000;
            scale           constant 50;
            level           constant 101325;
        }
        value           uniform 101323.6421297957;
    }
    outlet
    {
        type            pressureOutletNSCBC;
        pInf            101325;
        gamma           1.4;
        etaAc           1;
        fieldInf        1;
        lInf            2.25;
        value           uniform 101324.9999999812;
    }
    frontAndBack
    {
        type            empty;
    }
}


// ************************************************************************* //
