/*--------------------------------*- C++ -*----------------------------------*\
| =========                 |                                                 |
| \\      /  F ield         | OpenFOAM: The Open Source CFD Toolbox           |
|  \\    /   O peration     | Version:  v2012                                 |
|   \\  /    A nd           | Website:  www.openfoam.com                      |
|    \\/     M anipulation  |                                                 |
\*---------------------------------------------------------------------------*/
FoamFile
{
    version     2.0;
    format      ascii;
    class       volScalarField;
    location    "0.004";
    object      pMean;
}
// * * * * * * * * * * * * * * * * * * * * * * * * * * * * * * * * * * * * * //

dimensions      [1 -1 -2 0 0 0 0];


internalField   nonuniform List<scalar> 
1000
(
101325.032884794
101325.0105655137
101325.0442861422
101325.0759221054
101325.1226609448
101325.1788218784
101325.2432719713
101325.3168872813
101325.3962682202
101325.4818635516
101325.5696845721
101325.6581674434
101325.7459351826
101325.832949178
101325.9170410322
101325.9971676803
101326.0709108536
101326.137408837
101326.1948203068
101326.2427526936
101326.2798006255
101326.3058500363
101326.3198713522
101326.3221193648
101326.3120227547
101326.2902644768
101326.2567761383
101326.212640447
101326.158080563
101326.094185951
101326.0212056208
101325.9408612651
101325.8555837297
101325.7690613633
101325.6823443541
101325.5960170997
101325.5104753503
101325.4268359217
101325.3464464589
101325.2711014263
101325.2025262055
101325.1424215503
101325.0920558717
101325.0524594841
101325.0242356259
101325.0078601553
101325.0035213774
101325.0113112398
101325.0310486178
101325.0624251408
101325.1049693555
101325.158228003
101325.2216962127
101325.294601589
101325.3750741686
101325.4597097988
101325.5453295776
101325.6309402481
101325.7162312935
101325.8008675824
101325.8837861664
101325.9639825498
101326.0396954748
101326.1094448751
101326.1712837318
101326.2239087449
101326.2658681655
101326.2965326717
101326.3151762112
101326.3218054981
101326.3162194769
101326.2988026591
101326.2696216209
101326.2291964272
101326.1776500192
101326.1155545232
101326.0435336307
101325.963861579
101325.8800285642
101325.7953631158
101325.7106335334
101325.626167423
101325.5423145538
101325.459831373
101325.3797663264
101325.3035013969
101325.2326208961
101325.1688351337
101325.113773851
101325.0688880562
101325.0352722272
101325.0136726647
101325.0044359686
101325.0076359713
101325.0230961327
101325.0505654354
101325.0897421235
101325.1403805626
101325.2020831948
101325.273891248
101325.3533469627
101325.4365688851
101325.5205440418
101325.6045110171
101325.6882171686
101325.7714062551
101325.8532516315
101325.9329504718
101326.0090840572
101326.0803314454
101326.1449140274
101326.2013771874
101326.2480757145
101326.2839519684
101326.3079670472
101326.3197842687
101326.3190753744
101326.3060917789
101326.2808925499
101326.2439012208
101326.1952141923
101326.1353469106
101326.0650691213
101325.9868761341
101325.9045172358
101325.8213113564
101325.7380386807
101325.6549767372
101325.5723805557
101325.4908734373
101325.4112778305
101325.3347653191
101325.2626761452
101325.1965959116
101325.1381042971
101325.0887982806
101325.0500185184
101325.0228796216
101325.0080768888
101325.0060090015
101325.0167070084
101325.0400656016
101325.0758273448
101325.123760922
101325.1833809469
101325.2535831217
101325.3316482789
101325.4135337593
101325.4961710516
101325.5788183148
101325.6612551719
101325.743280339
101325.824213625
101325.9033887445
101325.9796037776
101326.0517072738
101326.1180998353
101326.1773756849
101326.227877345
101326.2683594887
101326.2975473822
101326.3147585636
101326.31937046
101326.3113434825
101326.2905741118
101326.2573710312
101326.2118307043
101326.1545020306
101326.0862624797
101326.0097138189
101325.9287315282
101325.8467736112
101325.7647252463
101325.6828461333
101325.6013225288
101325.520673757
101325.4415805173
101325.3650433213
101325.2922273092
101325.2245572825
101325.1635136183
101325.1106790937
101325.0674872118
101325.0352655117
101325.0149949483
101325.0074178191
101325.0128769251
101325.0315385545
101325.0633023351
101325.1080137809
101325.1651427732
101325.2334671739
101325.3100702961
101325.3907272325
101325.4722188237
101325.553741893
101325.6350891913
101325.7161127288
101325.7962284159
101325.874885536
101325.9510347706
101326.0236746031
101326.0913573205
101326.1527775083
101326.2063239398
101326.2507019029
101326.284500309
101326.3068068576
101326.3167247715
101326.3139134927
101326.2980202065
101326.2691511617
101326.2273036319
101326.1729861049
101326.1071157483
101326.0323389793
101325.9526694088
101325.8718023433
101325.7908148938
101325.7099644742
101325.6293879415
101325.5495241351
101325.4709431613
101325.3945100197
101325.321242498
101325.2524232033
101325.18941617
101325.1337405146
101325.0868417337
101325.0501473403
101325.0248305077
101325.0118943225
101325.0119863605
101325.0255641224
101325.0527806584
101325.093643342
101325.1477091323
101325.2137371994
101325.2887168578
101325.3681903625
101325.4486666582
101325.5291911644
101325.6095798084
101325.6897094338
101325.7690860237
101325.8472342863
101325.9232387197
101325.9962113988
101326.0648491583
101326.1279425303
101326.1839661419
101326.2316221229
101326.2694525679
101326.2963905605
101326.3113476009
101326.313718346
101326.3029060699
101326.2787705556
101326.2411398636
101326.1903854463
101326.1273503726
101326.0546169829
101325.9762989683
101325.8964389568
101325.8164021364
101325.7364799397
101325.6567598788
101325.5776256035
101325.4995499042
101325.4233001053
101325.3497612678
101325.2800988316
101325.2155539067
101325.1575695509
101325.1075526077
101325.0669710676
101325.0371059807
101325.0191488851
101325.0139886265
101325.0223554534
101325.0446663666
101325.0811531254
101325.1315460588
101325.1947249275
101325.2677376458
101325.3459599388
101325.4254945775
101325.5051165196
101325.5846351615
101325.6639447257
101325.7426347358
101325.820281296
101325.8960922865
101325.9692595216
101326.0386212601
101326.1030424293
101326.1611084839
101326.2115318784
101326.2528730838
101326.2839566173
101326.3035854614
101326.3109296698
101326.3052020204
101326.2860030742
101326.2529848199
101326.2063010727
101326.1466429277
101326.0763604314
101325.9995695295
101325.9206841412
101325.8415308165
101325.7624589927
101325.6835447393
101325.6050930485
101325.5275293071
101325.451505779
101325.3778303437
101325.3075340816
101325.2417765693
101325.1818893734
101325.1292468204
101325.0852909708
101325.0513769712
101325.0287999199
101325.0186439843
101325.0218494336
101325.0390838483
101325.0708047981
101325.1169744499
101325.1767088132
101325.2472969445
101325.3240931603
101325.4027029086
101325.4814831854
101325.5601830664
101325.6387263484
101325.7167572544
101325.7939143373
101325.8694867237
101325.9427581655
101326.0126622976
101326.0781627587
101326.1379204477
101326.1907098384
101326.235098213
101326.2698863822
101326.2937779915
101326.3058180746
101326.3050296043
101326.2908315953
101326.2626583899
101326.2204744039
101326.1647034099
101326.0973836343
101326.0223981754
101325.9445427359
101325.8662109989
101325.7879546253
101325.7097929984
101325.6320153231
101325.5549529314
101325.4792123876
101325.4054830194
101325.3347312438
101325.267990931
101325.2065376972
101325.1516528342
101325.1047777667
101325.0672564277
101325.0404810256
101325.0256339569
101325.0238498367
101325.0359708866
101325.062693757
101325.1042012377
101325.1599405634
101325.2275742125
101325.3026552823
101325.3802936237
101325.4582682591
101325.5361805619
101325.6139814778
101325.6913720732
101325.7680324238
101325.8433383055
101325.9166322346
101325.9869529402
101326.0533265345
101326.1145145289
101326.1693266875
101326.2163884153
101326.2544680293
101326.2822487746
101326.2986541192
101326.3026070403
101326.2933367817
101326.2701331464
101326.2327260982
101326.1813004179
101326.1174459985
101326.0446810765
101325.9679719309
101325.8904572835
101325.8129698023
101325.735552764
101325.6584246965
101325.5818895102
101325.5064568924
101325.4327691274
101325.361678541
101325.2941639926
101325.2313895445
101325.1746009778
101325.1251660327
101325.084451811
101325.0538522562
101325.0346599231
101325.0280982353
101325.0351964918
101325.0568035358
101325.0933622109
101325.1446171057
101325.208753187
101325.2816980018
101325.3582628842
101325.4354449997
101325.5126062099
101325.5896802617
101325.6664407385
101325.7425898722
101325.8175954598
101325.8908394908
101325.9614664966
101326.0285473323
101326.0909476019
101326.1475051091
101326.1969187503
101326.2379358195
101326.2692532885
101326.2897032729
101326.2981517414
101326.2936700027
101326.2754381423
101326.2429689338
101326.1962175352
101326.1362946754
101326.0662179516
101325.9908902867
101325.9142214292
101325.8374948707
101325.7608159406
101325.6843524159
101325.6083584253
101325.5332834936
101325.4597006111
101325.3883888178
101325.3202501643
101325.2563742726
101325.1979416758
101325.1462705741
101325.1027046315
101325.0686434756
101325.045424548
101325.0343503795
101325.0365674031
101325.0530703073
101325.0845041364
101325.1309250607
101325.1910418537
101325.2613636015
101325.3366298207
101325.4130162595
101325.4894361403
101325.5658043409
101325.6419194911
101325.7175552072
101325.7922090108
101325.8653539393
101325.9361741844
101326.0038386549
101326.0672509255
101326.1253371943
101326.1768122554
101326.2204774616
101326.2549976101
101326.2792038999
101326.2918716879
101326.2920150076
101326.2786676925
101326.251221851
101326.2093669161
101326.1538246885
101326.0869506094
101326.0133648206
101325.9375718383
101325.8615849758
101325.785612088
101325.7098002688
101325.6343581922
101325.5596721049
101325.4862615492
101325.4148274071
101325.3462096447
101325.2814181574
101325.2215777126
101325.1679443698
101325.121835188
101325.0846313232
101325.0576976232
101325.042378751
101325.0399102258
101325.0513960522
101325.077657867
101325.1190216507
101325.1746950581
101325.2418631747
101325.3154983951
101325.3910242184
101325.466704796
101325.5423472436
101325.6178145479
101325.6928905835
101325.767164401
101325.8401285868
101325.9110689302
101325.9791782623
101326.0434625895
101326.1028638492
101326.1561834314
101326.2022114167
101326.2396651921
101326.2673202086
101326.2839560743
101326.2884802678
101326.2798849215
101326.2573965003
101326.2205535005
101326.169664465
101326.1065104205
101326.0351253819
101325.9604257889
101325.8852054879
101325.8099902437
101325.7348750406
101325.660034084
101325.5857775539
101325.5125554512
101325.4409620248
101325.3717294432
101325.3057134267
101325.2438692216
101325.1872166128
101325.1367923482
101325.0935872048
101325.0584602035
101325.0320080372
101325.0143364962
101325.0046639068
101325.0009033343
101325.0000772633
101325.0000019926
101325.0000000107
101325.0000000005
101325.0000000005
101325.0000000005
101325.0000000005
101325.0000000005
101325.0000000004
101325.0000000004
101325.0000000004
101325.0000000004
101325.0000000005
101325.0000000005
101325.0000000005
101325.0000000004
101325.0000000004
101325.0000000005
101325.0000000004
101325.0000000005
101325.0000000005
101325.0000000004
101325.0000000004
101325.0000000005
101325.0000000004
101325.0000000004
101325.0000000004
101325.0000000004
101325.0000000004
101325.0000000004
101325.0000000004
101325.0000000004
101325.0000000004
101325.0000000004
101325.0000000005
101325.0000000005
101325.0000000004
101325.0000000004
101325.0000000004
101325.0000000004
101325.0000000005
101325.0000000004
101325.0000000004
101325.0000000005
101325.0000000005
101325.0000000005
101325.0000000004
101325.0000000005
101325.0000000005
101325.0000000005
101325.0000000004
101325.0000000005
101325.0000000005
101325.0000000005
101325.0000000005
101325.0000000005
101325.0000000005
101325.0000000005
101325.0000000005
101325.0000000005
101325.0000000005
101325.0000000005
101325.0000000005
101325.0000000005
101325.0000000005
101325.0000000005
101325.0000000005
101325.0000000005
101325.0000000005
101325.0000000005
101325.0000000005
101325.0000000005
101325.0000000005
101325.0000000005
101325.0000000005
101325.0000000005
101325.0000000005
101325.0000000005
101325.0000000005
101325.0000000005
101325.0000000004
101325.0000000005
101325.0000000004
101325.0000000004
101325.0000000004
101325.0000000004
101325.0000000004
101325.0000000005
101325.0000000004
101325.0000000004
101325.0000000004
101325.0000000004
101325.0000000004
101325.0000000004
101325.0000000004
101325.0000000004
101325.0000000003
101325.0000000003
101325.0000000003
101325.0000000003
101325.0000000003
101325.0000000003
101325.0000000003
101325.0000000003
101325.0000000003
101325.0000000003
101325.0000000002
101325.0000000002
101325.0000000002
101325.0000000002
101325.0000000002
101325.0000000002
101325.0000000002
101325.0000000002
101325.0000000002
101325.0000000002
101325.0000000002
101325.0000000002
101325.0000000001
101325.0000000001
101325.0000000001
101325.0000000001
101325.0000000001
101325.0000000001
101325.0000000001
101325
101325
101325
101325
101325
101325
101325
101325
101324.9999999999
101324.9999999999
101325
101325
101325
101325
101325
101325
101325
101325
101324.9999999999
101324.9999999999
101324.9999999999
101324.9999999999
101324.9999999999
101324.9999999999
101324.9999999999
101324.9999999998
101324.9999999998
101324.9999999998
101324.9999999998
101324.9999999998
101324.9999999998
101324.9999999997
101324.9999999998
101324.9999999998
101324.9999999997
101324.9999999997
101324.9999999997
101324.9999999997
101324.9999999997
101324.9999999997
101324.9999999997
101324.9999999997
101324.9999999997
101324.9999999996
101324.9999999996
101324.9999999996
101324.9999999996
101324.9999999996
101324.9999999996
101324.9999999996
101324.9999999995
101324.9999999995
101324.9999999995
101324.9999999994
101324.9999999994
101324.9999999994
101324.9999999994
101324.9999999994
101324.9999999994
101324.9999999994
101324.9999999994
101324.9999999994
101324.9999999994
101324.9999999993
101324.9999999993
101324.9999999993
101324.9999999993
101324.9999999992
101324.9999999992
101324.9999999991
101324.9999999991
101324.9999999991
101324.9999999991
101324.9999999991
101324.999999999
101324.999999999
101324.9999999989
101324.9999999989
101324.9999999989
101324.9999999989
101324.9999999989
101324.9999999988
101324.9999999988
101324.9999999988
101324.9999999987
101324.9999999987
101324.9999999986
101324.9999999986
101324.9999999986
101324.9999999986
101324.9999999985
101324.9999999984
101324.9999999984
101324.9999999984
101324.9999999984
101324.9999999984
101324.9999999984
101324.9999999984
101324.9999999984
101324.9999999983
101324.9999999983
101324.9999999982
101324.9999999982
101324.9999999981
101324.9999999981
101324.9999999981
101324.9999999981
101324.999999998
101324.999999998
101324.9999999979
101324.9999999979
101324.9999999978
101324.9999999977
101324.9999999977
101324.9999999977
101324.9999999976
101324.9999999976
101324.9999999976
101324.9999999976
101324.9999999976
101324.9999999974
101324.9999999974
101324.9999999974
101324.9999999973
101324.9999999973
101324.9999999972
101324.9999999971
101324.9999999971
101324.9999999971
101324.999999997
101324.9999999969
101324.9999999969
101324.9999999969
101324.9999999969
101324.9999999969
101324.9999999968
101324.9999999968
101324.9999999968
101324.9999999968
101324.9999999968
101324.9999999968
101324.9999999967
101324.9999999967
101324.9999999967
101324.9999999966
101324.9999999966
101324.9999999965
101324.9999999964
101324.9999999964
101324.9999999964
101324.9999999964
101324.9999999963
101324.9999999962
101324.9999999962
101324.9999999962
101324.9999999961
101324.9999999961
101324.9999999961
101324.999999996
101324.999999996
101324.9999999959
101324.9999999959
101324.9999999959
101324.9999999958
101324.9999999958
101324.9999999957
101324.9999999956
101324.9999999955
101324.9999999955
101324.9999999954
101324.9999999954
101324.9999999953
101324.9999999952
101324.9999999952
101324.9999999952
101324.9999999951
101324.9999999951
101324.9999999951
101324.9999999951
101324.999999995
101324.999999995
101324.999999995
101324.9999999949
101324.9999999949
101324.9999999949
101324.9999999949
101324.9999999948
101324.9999999947
101324.9999999947
101324.9999999947
101324.9999999946
101324.9999999946
101324.9999999946
101324.9999999946
101324.9999999945
101324.9999999945
101324.9999999945
101324.9999999944
101324.9999999944
101324.9999999944
101324.9999999944
101324.9999999943
101324.9999999943
101324.9999999942
101324.9999999942
101324.9999999941
101324.9999999941
101324.9999999941
101324.9999999941
101324.9999999941
101324.9999999941
101324.999999994
101324.9999999939
101324.9999999939
101324.9999999938
101324.9999999937
101324.9999999937
101324.9999999937
101324.9999999937
101324.9999999936
101324.9999999935
101324.9999999935
101324.9999999934
101324.9999999934
101324.9999999934
101324.9999999933
101324.9999999933
101324.9999999932
101324.9999999932
101324.9999999932
101324.9999999932
101324.9999999932
101324.9999999931
101324.9999999931
101324.9999999931
101324.999999993
101324.9999999929
101324.9999999929
101324.9999999928
101324.9999999928
101324.9999999928
101324.9999999927
101324.9999999927
101324.9999999927
101324.9999999926
101324.9999999926
101324.9999999926
101324.9999999926
101324.9999999925
101324.9999999925
101324.9999999924
101324.9999999924
101324.9999999923
101324.9999999924
101324.9999999923
101324.9999999923
101324.9999999922
101324.9999999923
101324.9999999922
101324.9999999922
101324.9999999921
101324.9999999921
101324.9999999921
101324.9999999921
101324.9999999921
101324.999999992
101324.9999999919
101324.9999999919
101324.9999999919
101324.9999999918
101324.9999999917
101324.9999999917
101324.9999999916
101324.9999999916
101324.9999999915
101324.9999999915
101324.9999999915
101324.9999999914
101324.9999999914
101324.9999999914
101324.9999999914
101324.9999999913
101324.9999999912
101324.9999999912
101324.9999999912
101324.9999999912
101324.9999999912
101324.9999999912
101324.9999999911
101324.9999999911
101324.999999991
101324.9999999909
101324.9999999909
101324.9999999909
101324.9999999908
101324.9999999908
101324.9999999908
101324.9999999908
101324.9999999908
101324.9999999907
101324.9999999906
101324.9999999906
101324.9999999906
101324.9999999905
101324.9999999905
101324.9999999904
101324.9999999904
101324.9999999903
101324.9999999903
101324.9999999902
101324.9999999902
101324.9999999902
101324.9999999901
101324.9999999901
101324.99999999
101324.99999999
)
;

boundaryField
{
    inlet
    {
        type            calculated;
        value           uniform 101324.9999999998;
    }
    outlet
    {
        type            calculated;
        value           uniform 101324.99999999;
    }
    frontAndBack
    {
        type            empty;
    }
}


// ************************************************************************* //
