/*--------------------------------*- C++ -*----------------------------------*\
| =========                 |                                                 |
| \\      /  F ield         | OpenFOAM: The Open Source CFD Toolbox           |
|  \\    /   O peration     | Version:  v2012                                 |
|   \\  /    A nd           | Website:  www.openfoam.com                      |
|    \\/     M anipulation  |                                                 |
\*---------------------------------------------------------------------------*/
FoamFile
{
    version     2.0;
    format      ascii;
    class       volScalarField;
    location    "0.004";
    object      rho;
}
// * * * * * * * * * * * * * * * * * * * * * * * * * * * * * * * * * * * * * //

dimensions      [1 -3 0 0 0 0 0];


internalField   nonuniform List<scalar> 
1000
(
1.176295568229214
1.176319189563562
1.176265701217513
1.176222533025397
1.176172323966055
1.176126682621748
1.176088094542256
1.176055735956414
1.176028211757278
1.176009769675752
1.176004861607708
1.176004831473598
1.176007733105563
1.176016161120938
1.176032693847732
1.176057746057737
1.176090333436894
1.176128985890677
1.17617250082389
1.176220044832422
1.176270924251237
1.176324386490724
1.17637955369199
1.176435419757728
1.176490873836401
1.176544791164294
1.176596212433541
1.176644560968774
1.176689765150596
1.176731920341612
1.176769729741453
1.176797807901838
1.176809838433195
1.176811229872136
1.176810632444394
1.176808449760092
1.176802298820551
1.176790248620371
1.176770567414674
1.176742466131911
1.176706274658672
1.17666326367646
1.176615125090087
1.176563444757342
1.176509455441349
1.176454097843337
1.176398203844984
1.176342623048777
1.176288223357968
1.17623574439665
1.176185557331126
1.176137644602155
1.176092432199788
1.176053021763274
1.176026815911484
1.1760178952145
1.176017288642635
1.176017627982853
1.176019792252756
1.176025120453081
1.176035483629843
1.176052467908036
1.176077203580543
1.17611005130973
1.176150502127578
1.176197295092321
1.176248735560484
1.176303088044552
1.176358868855303
1.176414935585464
1.176470435059643
1.176524768564536
1.176577636772839
1.176629027374332
1.176678890996343
1.176726165334201
1.176766803333132
1.176792965592367
1.176801566989574
1.176802195018196
1.176801726020468
1.17680002367249
1.176795490926013
1.176786681808174
1.176772060000035
1.176750374098236
1.176720875028204
1.176683513419108
1.176638990120071
1.176588637768457
1.176534175034453
1.176477403766101
1.176419916416439
1.176362884440896
1.176306983579666
1.176252449795611
1.17619923964759
1.176147449834558
1.176098502974189
1.176057377996265
1.176032485432762
1.176025235475964
1.176024867903902
1.176025168798766
1.176026894839733
1.176031085676718
1.17603920335831
1.176052619985307
1.176072541141339
1.176099792176252
1.176134656412983
1.176176767568428
1.176225116319252
1.176278202166615
1.176334294028062
1.176391715622795
1.176449094070697
1.176505544996915
1.17656073914221
1.176614735160286
1.176667427660544
1.176717360744395
1.176759735273202
1.176786299454155
1.176794799739801
1.176795448822967
1.176795096040645
1.17679378590462
1.176790245195038
1.176783282606984
1.176771571768944
1.176753898106606
1.17672930064821
1.176697244093653
1.176657744213179
1.176611419746855
1.176559451891898
1.176503431196204
1.176445090608971
1.176385988755645
1.176327259706949
1.176269522661696
1.17621301225876
1.176158096694986
1.176106597175894
1.176063972157991
1.176038673774424
1.176031389520299
1.176030977560401
1.176031204226437
1.176032564273705
1.176035942995106
1.176042564843832
1.176053626796454
1.17607026293476
1.176093395817047
1.176123604512599
1.176160998338106
1.17620514360785
1.176255084299383
1.176309461117385
1.176366704941529
1.176425283895155
1.176483967672318
1.176542004620727
1.176599048436045
1.176654660733656
1.176707139515474
1.176751543840555
1.176779599735925
1.176788931346627
1.176789761975327
1.176789506355925
1.176788525178073
1.17678573284764
1.17678011140728
1.176770486657306
1.176755729544306
1.176734849296026
1.176707125010127
1.17667221989314
1.176630268009316
1.176581915245093
1.176528279190589
1.176470796956548
1.176410984069357
1.176350185118674
1.176289408706313
1.176229355322677
1.176170868799643
1.176116235328578
1.176071301553419
1.176044627879727
1.176036724245503
1.176036182621697
1.176036353067387
1.176037437863475
1.17604019280199
1.176045680626439
1.176054965278092
1.176069101050325
1.176089017537785
1.176115415912585
1.176148657953895
1.176188681300435
1.17623497132216
1.176286598291199
1.176342318314204
1.176400746280651
1.176460586502064
1.176520828461698
1.176580744965102
1.176639498890026
1.176695072398859
1.176742354141033
1.176772891232523
1.176783691132462
1.176784841219507
1.176784661909819
1.176783920439392
1.17678169128059
1.176777090275042
1.176769071958958
1.176756594756486
1.176738685301846
1.176714543131979
1.1766836372123
1.176645793506931
1.176601261403025
1.17655072668275
1.176495238020451
1.176436054677404
1.176374463498987
1.176311625200953
1.176248555739349
1.176186505724926
1.176128195654845
1.176079900211783
1.176050674556893
1.176041547148607
1.176040789612851
1.176040899735109
1.176041749067037
1.176043993613999
1.176048581876984
1.176056465876113
1.176068616228578
1.176085931659841
1.176109159963778
1.176138805128665
1.176175046781511
1.176217693867213
1.176266179226118
1.176319601285334
1.176376832760035
1.176436694228935
1.176498119171907
1.176560173134204
1.17662174291488
1.176680583885526
1.176731468711629
1.176765594517267
1.176778716536575
1.176780418382824
1.176780304920677
1.176779769311219
1.176778000876702
1.176774223016639
1.176767490836122
1.176756847957117
1.17674136437468
1.1767202177063
1.176692770953116
1.176658651941874
1.176617824774898
1.176570626747087
1.176517743902834
1.176460126413056
1.176398869455395
1.176335097107728
1.176269945208094
1.176204900019599
1.176142943629785
1.176090587401321
1.176057502744025
1.176046153210919
1.176044954892423
1.176045021741004
1.176045676223208
1.176047498595841
1.176051338896031
1.176058062248273
1.176068568809798
1.176083719924189
1.176104274084231
1.176130810830601
1.17616366237763
1.176202865532267
1.176248135969818
1.17629887427773
1.176354228288512
1.176413213762304
1.176474835214449
1.176538100985304
1.176601776337904
1.176663559758249
1.176718320578682
1.176757020976735
1.176773616982501
1.176776324308228
1.176776281449297
1.176775923905048
1.176774541504215
1.176771455491972
1.176765797161043
1.176756682305683
1.176743228678217
1.176724619747075
1.176700165865328
1.176669371928756
1.17663200380226
1.176588133127022
1.176538141246954
1.176482681900581
1.176422614599035
1.176358929575119
1.176292744106828
1.176225599680079
1.176160483762514
1.176103796120523
1.17606569124697
1.1760508950761
1.176048866493373
1.176048879460891
1.176049358017109
1.176050806303618
1.176053998188011
1.176059729769197
1.176068840014045
1.176082149351623
1.176100408495668
1.176124236346216
1.176154063191659
1.176190085029889
1.176232228940319
1.176280140651249
1.176333217369997
1.176390686090724
1.176451682237027
1.17651525474996
1.176580174331127
1.176644246756592
1.17670269341228
1.176746596540696
1.176767946134541
1.176772393836709
1.176772501523068
1.176772280368201
1.176771227307459
1.176768733641212
1.176763996044672
1.176756189891679
1.176744476785628
1.176728056486903
1.176706215829683
1.176678385252567
1.176644195306124
1.176603521175316
1.176556504025532
1.176503544959565
1.17644527271043
1.176382500476193
1.176316240130851
1.176247958927597
1.176180446802408
1.176119647268521
1.176075778866978
1.176056178307787
1.176052652285581
1.176052596737187
1.176052900130878
1.176054014732087
1.176056624203917
1.176061476582372
1.176069363055668
1.176081067352403
1.176097324115114
1.176118769191235
1.176145893752505
1.176179003048009
1.176218179032119
1.176263259278642
1.176313851215781
1.176369378281583
1.176429124801464
1.176492233714052
1.176557563427304
1.176623136012324
1.176684714597456
1.176733927308625
1.176761163471487
1.176768432412324
1.176768885717803
1.176768759951379
1.176767986135727
1.176766009500732
1.176762077012844
1.176755416001916
1.176745225753746
1.176730726077008
1.17671119560062
1.176686018813627
1.17665473496991
1.176617079307246
1.176573010257625
1.176522721521697
1.176466636458691
1.176405390311258
1.176339851988071
1.176271335358674
1.176202310717325
1.176138029873825
1.176088223203558
1.176062499881212
1.176056433143136
1.17605614466596
1.176056338030412
1.176057160764282
1.176059261440896
1.176063335233716
1.176070134895
1.176080413112803
1.17609488827444
1.176114204998324
1.176138894410952
1.176169335413545
1.176205721058263
1.176248037761026
1.176296064409643
1.176349390731746
1.176407443386865
1.176469488594934
1.17653452313035
1.176600829992775
1.176664786315876
1.176718906320557
1.176752737855368
1.176764126009592
1.176765319320958
1.176765250522682
1.176764732328554
1.176763216579839
1.176760012139565
1.176754380002998
1.176745552452245
1.176732768125901
1.176715304986012
1.176692520960607
1.176663896479662
1.176629068869123
1.176587859299356
1.176540297721151
1.176486636972951
1.176427348302163
1.176363142024798
1.176295142316945
1.176225459862436
1.176158557823962
1.176103209918367
1.17607043514877
1.176060459586918
1.176059590548036
1.176059721362555
1.176060287960565
1.17606194238917
1.176065318668202
1.176071141542172
1.17608013709812
1.176093009170562
1.176110403102274
1.176132875232421
1.176160859228442
1.176194631011328
1.176234285698392
1.176279734837687
1.176330712967431
1.176386780410208
1.176447316850617
1.176511453151401
1.176577746734462
1.176643217057937
1.176701485744005
1.176742164009948
1.176759159979864
1.17676187465711
1.176761915657012
1.176761559503402
1.176760430329848
1.176757842893676
1.176753109032831
1.176745486521883
1.176734233578864
1.176718633515142
1.176698029521746
1.176671859032643
1.176639685730987
1.176601229882269
1.176556396027813
1.176505290968409
1.176448232909123
1.176385783642694
1.176318886403272
1.176249295090863
1.176180678468139
1.17612060235036
1.176080479276324
1.176065150300267
1.176063075219229
1.176063111327334
1.176063483490414
1.17606473424141
1.17606747617819
1.176072404182317
1.176080222593761
1.176091623184802
1.176107253450906
1.176127687692652
1.176153396506265
1.176184717561352
1.176221833880775
1.17626476192471
1.176313346625409
1.1763672611735
1.17642600264296
1.176488835103825
1.17655454235111
1.176620696291598
1.176682059358392
1.176729069264753
1.176752773506874
1.176758136399875
1.176758366599426
1.176758184829356
1.176757410214298
1.176755455974298
1.176751692188678
1.176745449974588
1.17673607478568
1.176722961506653
1.176705596468515
1.176683605465777
1.176656808748057
1.176625285419266
1.176589459402841
1.176550249503898
1.17650939556597
1.176470132286372
1.176437931356744
1.176418806296883
1.176412543106512
1.176411743684021
1.176411716343129
1.17641171617234
1.176411716172207
1.176411716172206
1.176411716172206
1.176411716172206
1.176411716172206
1.176411716172205
1.176411716172205
1.176411716172205
1.176411716172205
1.176411716172206
1.176411716172206
1.176411716172207
1.176411716172207
1.176411716172208
1.176411716172209
1.176411716172209
1.176411716172209
1.176411716172209
1.176411716172209
1.176411716172208
1.176411716172207
1.176411716172206
1.176411716172206
1.176411716172206
1.176411716172207
1.176411716172207
1.176411716172207
1.176411716172206
1.176411716172206
1.176411716172206
1.176411716172206
1.176411716172206
1.176411716172205
1.176411716172205
1.176411716172205
1.176411716172206
1.176411716172207
1.176411716172207
1.176411716172206
1.176411716172205
1.176411716172205
1.176411716172204
1.176411716172204
1.176411716172203
1.176411716172203
1.176411716172203
1.176411716172203
1.176411716172203
1.176411716172203
1.176411716172204
1.176411716172204
1.176411716172204
1.176411716172203
1.176411716172203
1.176411716172203
1.176411716172202
1.176411716172201
1.176411716172201
1.176411716172201
1.176411716172201
1.176411716172201
1.176411716172201
1.176411716172201
1.176411716172199
1.176411716172197
1.176411716172196
1.176411716172194
1.176411716172193
1.176411716172192
1.176411716172191
1.176411716172191
1.17641171617219
1.176411716172188
1.176411716172188
1.176411716172188
1.176411716172189
1.176411716172189
1.176411716172189
1.176411716172188
1.176411716172188
1.176411716172187
1.176411716172186
1.176411716172185
1.176411716172184
1.176411716172183
1.176411716172182
1.17641171617218
1.176411716172178
1.176411716172176
1.176411716172174
1.176411716172171
1.17641171617217
1.17641171617217
1.176411716172169
1.176411716172169
1.176411716172169
1.176411716172167
1.176411716172167
1.176411716172167
1.176411716172167
1.176411716172167
1.176411716172167
1.176411716172168
1.176411716172168
1.176411716172167
1.176411716172166
1.176411716172165
1.176411716172165
1.176411716172166
1.176411716172166
1.176411716172166
1.176411716172166
1.176411716172165
1.176411716172165
1.176411716172164
1.176411716172164
1.176411716172164
1.176411716172163
1.176411716172164
1.176411716172163
1.176411716172163
1.176411716172162
1.176411716172162
1.176411716172162
1.176411716172162
1.176411716172161
1.176411716172161
1.176411716172162
1.176411716172162
1.176411716172162
1.176411716172162
1.176411716172163
1.176411716172162
1.176411716172162
1.176411716172162
1.176411716172161
1.176411716172161
1.176411716172161
1.176411716172162
1.176411716172161
1.176411716172162
1.176411716172162
1.176411716172162
1.176411716172162
1.176411716172162
1.176411716172162
1.176411716172161
1.176411716172161
1.176411716172161
1.176411716172161
1.176411716172161
1.17641171617216
1.176411716172159
1.176411716172158
1.176411716172157
1.176411716172157
1.176411716172156
1.176411716172156
1.176411716172155
1.176411716172153
1.176411716172153
1.176411716172152
1.176411716172152
1.176411716172151
1.17641171617215
1.176411716172148
1.176411716172145
1.176411716172143
1.176411716172141
1.176411716172138
1.176411716172137
1.176411716172135
1.176411716172135
1.176411716172134
1.176411716172132
1.17641171617213
1.176411716172128
1.176411716172125
1.176411716172123
1.176411716172121
1.176411716172118
1.176411716172115
1.176411716172113
1.176411716172112
1.17641171617211
1.176411716172108
1.176411716172106
1.176411716172104
1.176411716172102
1.176411716172099
1.176411716172097
1.176411716172096
1.176411716172095
1.176411716172094
1.176411716172094
1.176411716172093
1.176411716172092
1.176411716172091
1.17641171617209
1.176411716172089
1.176411716172087
1.176411716172085
1.176411716172083
1.176411716172081
1.176411716172079
1.176411716172077
1.176411716172075
1.176411716172073
1.176411716172072
1.17641171617207
1.176411716172067
1.176411716172065
1.176411716172063
1.176411716172062
1.176411716172061
1.17641171617206
1.176411716172059
1.176411716172058
1.176411716172057
1.176411716172056
1.176411716172055
1.176411716172053
1.176411716172051
1.176411716172048
1.176411716172046
1.176411716172044
1.176411716172042
1.17641171617204
1.176411716172038
1.176411716172035
1.176411716172033
1.176411716172031
1.176411716172029
1.176411716172027
1.176411716172024
1.176411716172022
1.17641171617202
1.176411716172017
1.176411716172014
1.176411716172012
1.176411716172009
1.176411716172007
1.176411716172005
1.176411716172002
1.176411716172001
1.176411716171999
1.176411716171997
1.176411716171996
1.176411716171995
1.176411716171996
1.176411716171996
1.176411716171995
1.176411716171995
1.176411716171995
1.176411716171994
1.176411716171995
1.176411716171996
1.176411716171998
1.176411716172
1.176411716172001
1.176411716172003
1.176411716172004
1.176411716172006
1.176411716172006
1.176411716172007
1.176411716172008
1.176411716172008
1.176411716172009
1.17641171617201
1.17641171617201
1.176411716172011
1.176411716172011
1.176411716172012
1.176411716172014
1.176411716172014
1.176411716172015
1.176411716172015
1.176411716172016
1.176411716172016
1.176411716172017
1.176411716172018
1.176411716172019
1.17641171617202
1.176411716172022
1.176411716172023
1.176411716172024
1.176411716172025
1.176411716172026
1.176411716172028
1.176411716172029
1.176411716172031
1.176411716172032
1.176411716172033
1.176411716172034
1.176411716172033
1.176411716172033
1.176411716172033
1.176411716172033
1.176411716172034
1.176411716172034
1.176411716172035
1.176411716172035
1.176411716172036
1.176411716172036
1.176411716172036
1.176411716172036
1.176411716172038
1.176411716172038
1.176411716172039
1.17641171617204
1.17641171617204
1.17641171617204
1.176411716172041
1.176411716172042
1.176411716172043
1.176411716172043
1.176411716172043
1.176411716172043
1.176411716172043
1.176411716172043
1.176411716172043
1.176411716172043
1.176411716172043
1.176411716172043
1.176411716172043
1.176411716172044
1.176411716172044
1.176411716172044
1.176411716172045
1.176411716172045
1.176411716172045
1.176411716172045
1.176411716172044
1.176411716172045
1.176411716172044
1.176411716172044
1.176411716172045
1.176411716172045
1.176411716172045
1.176411716172044
1.176411716172044
1.176411716172044
1.176411716172045
1.176411716172045
1.176411716172046
1.176411716172046
1.176411716172045
1.176411716172045
1.176411716172045
1.176411716172045
1.176411716172046
1.176411716172045
1.176411716172045
1.176411716172045
1.176411716172045
1.176411716172045
1.176411716172045
1.176411716172045
1.176411716172045
1.176411716172045
1.176411716172045
1.176411716172045
1.176411716172045
1.176411716172045
1.176411716172044
1.176411716172045
1.176411716172046
1.176411716172046
1.176411716172046
1.176411716172046
1.176411716172046
1.176411716172046
1.176411716172046
1.176411716172046
1.176411716172046
1.176411716172046
1.176411716172045
1.176411716172044
1.176411716172044
1.176411716172044
1.176411716172044
1.176411716172044
1.176411716172044
1.176411716172044
1.176411716172044
1.176411716172044
1.176411716172044
1.176411716172044
1.176411716172044
1.176411716172044
1.176411716172044
1.176411716172044
1.176411716172044
1.176411716172043
1.176411716172043
1.176411716172044
1.176411716172044
1.176411716172044
1.176411716172044
1.176411716172044
1.176411716172044
1.176411716172044
1.176411716172044
1.176411716172044
1.176411716172044
1.176411716172044
1.176411716172044
1.176411716172044
1.176411716172044
1.176411716172044
1.176411716172044
1.176411716172044
1.176411716172044
1.176411716172043
1.176411716172043
1.176411716172043
1.176411716172043
1.176411716172043
1.176411716172043
1.176411716172043
1.176411716172043
1.176411716172042
1.176411716172041
1.176411716172041
1.17641171617204
1.176411716172041
1.176411716172041
1.176411716172041
1.176411716172041
1.176411716172041
1.176411716172041
1.176411716172042
1.176411716172043
1.176411716172044
1.176411716172044
1.176411716172044
1.176411716172044
)
;

boundaryField
{
    inlet
    {
        type            calculated;
        value           uniform 1.176395950917642;
    }
    outlet
    {
        type            calculated;
        value           uniform 1.176411716172041;
    }
    frontAndBack
    {
        type            empty;
    }
}


// ************************************************************************* //
