/*--------------------------------*- C++ -*----------------------------------*\
| =========                 |                                                 |
| \\      /  F ield         | OpenFOAM: The Open Source CFD Toolbox           |
|  \\    /   O peration     | Version:  v2012                                 |
|   \\  /    A nd           | Website:  www.openfoam.com                      |
|    \\/     M anipulation  |                                                 |
\*---------------------------------------------------------------------------*/
FoamFile
{
    version     2.0;
    format      ascii;
    class       volScalarField;
    location    "0.004";
    object      T;
}
// * * * * * * * * * * * * * * * * * * * * * * * * * * * * * * * * * * * * * //

dimensions      [0 0 0 1 0 0 0];


internalField   nonuniform List<scalar> 
1000
(
299.9879813523739
299.9897573244136
299.9834481408759
299.9787850782923
299.9743236180637
299.9704448133831
299.9668914552914
299.9636706317652
299.960856522191
299.9589932323368
299.9585253575152
299.9585767102316
299.9589260669134
299.9597769498117
299.9614168829909
299.9639250876929
299.9672156920116
299.9711379130022
299.9755651667788
299.9804102086309
299.9856014980256
299.9910615044674
299.9966991341431
300.0024095568265
300.0080772489659
300.0135858687975
300.0188368344175
300.0237714611463
300.0283831639599
300.0326824939407
300.0365378909036
300.0394006077677
300.0406264585548
300.0407674050526
300.0407060706664
300.0404838074315
300.0398572007801
300.0386284688751
300.0366208157704
300.0337537593691
300.030060919796
300.0256719444949
300.0207595105984
300.0154854916557
300.0099757265507
300.0043262362496
299.9986219197806
299.992949472056
299.9873974523474
299.9820413334759
299.976918992499
299.9720286409099
299.9674137725031
299.9633910046325
299.960716010904
299.9598053998416
299.9597434695382
299.9597780933858
299.9599990102029
299.9605429001816
299.9616007376199
299.9633344139665
299.9658592840194
299.9692121309444
299.9733409633291
299.9781170336568
299.9833673343228
299.9889147027192
299.9946076915631
300.0003296994076
300.0059936546366
300.0115384632242
300.0169335892982
300.0221777884494
300.0272660337853
300.032089938631
300.0362365689903
300.0389060684201
300.0397837145763
300.0398477968423
300.0397999441303
300.0396262461497
300.0391637455378
300.0382648988509
300.0367729387358
300.0345601608596
300.0315501059455
300.0277377002541
300.0231944155984
300.0180561936445
300.0124983782638
300.0067048177392
300.0008380102262
299.995017506163
299.9893122764325
299.9837464140951
299.9783154965769
299.9730294040147
299.9680333553962
299.9638355906896
299.9612946740522
299.960554625586
299.9605171059221
299.9605478212951
299.9607240095781
299.961151793004
299.9619804090773
299.9633499092153
299.9653833402816
299.9681649271509
299.9717235575112
299.9760218042524
299.9809566028519
299.9863747614994
299.9920995672907
299.9979599182854
300.0038156950842
300.0095766469141
300.0152091816042
300.0207192949322
300.0260962417642
300.0311914711696
300.0355153092544
300.0382258270542
300.0390931583325
300.0391593884511
300.0391233928942
300.0389897130167
300.038628433806
300.0379179976187
300.0367230616409
300.0349196843559
300.0324097924024
300.0291387366826
300.0251080891971
300.0203809437945
300.0150777903074
300.0093609003053
300.0034070931835
299.9973754169552
299.9913816082429
299.9854888678359
299.9797211529592
299.9741160547976
299.9688594782174
299.9645086145151
299.9619262812683
299.9611827339581
299.9611406833342
299.9611638215402
299.9613026502367
299.9616475354778
299.9623234625046
299.9634526086283
299.9651507258542
299.9675119673626
299.9705954157387
299.9744121954694
299.9789179999019
299.9840152072596
299.9895650414064
299.9954073234768
300.0013856923363
300.0073745807749
300.0132972824948
300.019118464054
300.0247933992101
300.0301484257594
300.0346794025969
300.0375421407288
300.0384942998701
300.0385790545042
300.0385529732047
300.0384528588691
300.0381679408493
300.0375943496279
300.0366122707479
300.0351064918394
300.0329759036276
300.0301469249611
300.0265851590885
300.0223042474731
300.0173700548418
300.0118965828591
300.0060304486181
299.9999262862012
299.9937213015575
299.9875184254834
299.9813891536417
299.9754196202023
299.9698431912871
299.9652566851463
299.9625339781049
299.9617272095143
299.9616719236598
299.9616893232435
299.9618000555528
299.9620812674885
299.9626414380263
299.9635891659515
299.9650320612043
299.9670649991607
299.9697595313164
299.9731525575751
299.9772376774131
299.981962322846
299.9872315585699
299.9929183907625
299.9988814247276
300.0049884067878
300.011136200513
300.0172505939045
300.0232461658985
300.0289170228687
300.0337416347884
300.0368575592958
300.0379595398849
300.0380768909824
300.0380585959995
300.0379829404876
300.0377554860622
300.0372860157207
300.0364678516338
300.0351947092531
300.0333672587651
300.030903805674
300.0277501388476
300.0238884664416
300.0193441964981
300.0141872657401
300.0085246457393
300.0024848071285
299.9961990485265
299.9897858107279
299.983348774105
299.9770155820251
299.9710639245201
299.9661343095006
299.963151120283
299.9622194363101
299.9621421112259
299.9621533532242
299.9622400501961
299.9624691632788
299.9629375102807
299.9637422662887
299.9649825015847
299.9667499434096
299.9691209062511
299.9721468107374
299.9758459613756
299.9801988206884
299.9851474599022
299.9905998199147
299.9964408117581
300.0025500363647
300.0088186295199
300.0151512167911
300.0214341949029
300.0274385206283
300.0326308234432
300.0361129469706
300.0374518713036
300.0376255218002
300.0376139453958
300.0375592948974
300.0373788506728
300.0369933705678
300.0363064390048
300.0352204660459
300.0336405486806
300.0314827594752
300.0286820796098
300.0252005044442
300.0210343353039
300.0162179496359
300.0108213116603
300.0049413426767
299.9986897702382
299.9921812827928
299.9855317823484
299.9788929516656
299.9725691704707
299.9672250972325
299.9638480175821
299.9626895118967
299.9625671936146
299.9625740180621
299.9626408253266
299.9628268444152
299.963218842399
299.9639051250008
299.9649775714518
299.9665240953062
299.9686221062717
299.9713307409494
299.9746838832412
299.9786852575519
299.983305805666
299.988484307762
299.9941337494968
300.0001536438476
300.0064423657828
300.0128986917697
300.0193966051053
300.0257012472462
300.0312891010096
300.0352380283824
300.036931431086
300.0372076770073
300.0372033043786
300.0371668226027
300.0370257674425
300.0367108805464
300.0361335205924
300.0352034627986
300.0338306789121
300.0319318413006
300.0294365628518
300.0262942996306
300.0224811290208
300.0180043234688
300.0129027543839
300.0072430895126
300.0011129992632
299.9946135022333
299.9878585939226
299.981005580169
299.9743593761739
299.9685732354922
299.9646837444519
299.9631734267049
299.9629663589233
299.9629676830975
299.9630165322757
299.9631643660666
299.9634901764659
299.9640752237413
299.9650051419672
299.9663636699086
299.968227425665
299.9706595667024
299.9737039914915
299.9773806770913
299.9816821460498
299.9865722002507
299.9919892757109
299.9978544391893
300.0040794181472
300.0105671229987
300.0171920814486
300.0237303715791
300.029694386045
300.0341742229444
300.0363526749474
300.0368065030741
300.0368174913078
300.0367949257965
300.0366874750195
300.0364330286896
300.0359496171168
300.0351530955036
300.0339579113407
300.0322824015309
300.0300537822069
300.0272139157362
300.0237250761149
300.0195744925813
300.0147765297082
300.0093720739766
300.0034252411176
299.9970189756815
299.9902565060975
299.9832875498209
299.9763968461215
299.9701910603173
299.9657132980519
299.9637125801862
299.9633526613295
299.9633469914618
299.9633779605368
299.9634917331147
299.9637580934223
299.9642533959487
299.965058398398
299.9662530945318
299.9679124638981
299.9701013965326
299.9728700087709
299.9762494326988
299.9802480021451
299.9848491022622
299.990012625348
299.9956796852058
300.0017772010465
300.008217669012
300.0148845582062
300.0215760073764
300.0278596741999
300.0328813378879
300.0356604531166
300.0364021519902
300.0364484058907
300.0364355732289
300.0363566154178
300.036154925001
300.0357536639239
300.0350739893142
300.0340341946628
300.0325546642259
300.0305617793647
300.0279927170486
300.0248004390972
300.0209578980127
300.0164608144706
300.011328911566
300.0056053456008
299.999354896288
299.9926661946252
299.9856732938022
299.9786282951788
299.9720672426626
299.9669833886455
299.9643577057283
299.9637384441629
299.9637089979539
299.9637287355962
299.9638127156551
299.9640271405668
299.9644429690044
299.9651370358072
299.9661861672103
299.9676636850433
299.969635376828
299.9721554400278
299.9752625277745
299.9789763169056
299.9832953872321
299.9881971325118
299.9936396380003
299.9995643468027
300.0058963317892
300.0125331754657
300.0192996335831
300.0258260038117
300.031348459768
300.034800574031
300.0359625872194
300.0360843489339
300.0360773289675
300.0360244538177
300.0358697906501
300.0355428172037
300.0349681260715
300.0340673783619
300.0327628810156
300.0309809493578
300.0286560528289
300.0257351541806
300.0221812184346
300.0179759629272
300.0131224030932
300.0076462944699
300.0015956791601
299.9950429986913
299.9881029389198
299.9809908863626
299.9741623704012
299.9685129676675
299.9651675366424
299.9641492849793
299.9640605780626
299.9640739308322
299.9641317658037
299.9643006399835
299.9646452699003
299.9652396318518
299.9661578375143
299.9674717244768
299.9692471560202
299.97154090556
299.9743972192089
299.9778442353422
299.9818916316144
299.9865303440009
299.9917332384053
299.9974553986812
300.0036334746728
300.0101787280096
300.0169439109526
300.0236248535944
300.0295707072663
300.0337214836396
300.0354557085383
300.0357327059806
300.0357368894541
300.0357005483656
300.0355853301247
300.0353213139297
300.0348382804574
300.0340604925792
300.0329122561291
300.0313204339205
300.0292179939681
300.0265475146555
300.0232644497531
300.0193402233551
300.0147650563801
300.0095498033494
300.0037268883357
299.9973535932547
299.9905261323769
299.9834234688563
299.9764200337387
299.9702880845269
299.9661926193061
299.9646279256827
299.9644161126289
299.9644197982729
299.9644577863705
299.9645854553307
299.9648653350931
299.9653683539598
299.96616640436
299.9673300936415
299.9689255063344
299.9710112512935
299.9736353465818
299.9768322361567
299.9806205729377
299.9850020033507
299.9899606621279
299.995463152864
300.0014581045825
300.0078703699612
300.0145757966629
300.0213265791572
300.0275882596401
300.032385155234
300.0348038880442
300.0353511025593
300.0353745914376
300.0353560439858
300.0352770039231
300.0350775973674
300.0346935480144
300.0340566030218
300.0330999707525
300.0317619008792
300.0299899706948
300.027745984125
300.0250115830192
300.0217948194199
300.018138929989
300.0141376533496
300.0099685207513
300.0059616307886
300.0026754034114
300.0007235898062
300.000084393633
300.0000028077415
300.0000000174433
300.0000000000133
299.9999999999996
299.9999999999995
299.9999999999996
299.9999999999998
299.9999999999999
300.0000000000001
300.0000000000003
300.0000000000003
300.0000000000002
300.0000000000001
300
300
299.9999999999999
299.9999999999998
299.9999999999998
299.9999999999998
299.9999999999997
299.9999999999997
299.9999999999996
299.9999999999995
299.9999999999995
299.9999999999994
299.9999999999994
299.9999999999993
299.9999999999993
299.9999999999991
299.9999999999991
299.9999999999993
299.9999999999995
299.9999999999995
299.9999999999997
299.9999999999998
299.9999999999998
299.9999999999998
299.9999999999995
299.9999999999992
299.999999999999
299.999999999999
299.9999999999991
299.9999999999991
299.9999999999992
299.9999999999991
299.9999999999991
299.999999999999
299.999999999999
299.999999999999
299.9999999999991
299.9999999999992
299.9999999999993
299.9999999999993
299.9999999999992
299.9999999999991
299.999999999999
299.9999999999989
299.999999999999
299.9999999999991
299.9999999999993
299.9999999999994
299.9999999999994
299.9999999999993
299.9999999999991
299.999999999999
299.9999999999988
299.9999999999985
299.9999999999984
299.9999999999982
299.999999999998
299.9999999999979
299.9999999999977
299.9999999999976
299.9999999999975
299.9999999999976
299.9999999999975
299.9999999999976
299.9999999999976
299.9999999999974
299.9999999999973
299.9999999999972
299.999999999997
299.999999999997
299.9999999999969
299.9999999999969
299.9999999999967
299.9999999999966
299.9999999999965
299.9999999999962
299.9999999999962
299.999999999996
299.9999999999959
299.9999999999957
299.9999999999956
299.9999999999956
299.9999999999954
299.9999999999953
299.9999999999952
299.9999999999953
299.9999999999954
299.9999999999955
299.9999999999956
299.9999999999955
299.9999999999953
299.9999999999953
299.9999999999952
299.9999999999954
299.9999999999957
299.9999999999959
299.9999999999959
299.9999999999957
299.9999999999956
299.9999999999953
299.999999999995
299.9999999999949
299.999999999995
299.999999999995
299.9999999999951
299.9999999999951
299.9999999999952
299.9999999999952
299.9999999999952
299.999999999995
299.9999999999948
299.9999999999947
299.9999999999946
299.9999999999947
299.9999999999947
299.9999999999946
299.9999999999946
299.9999999999947
299.9999999999948
299.9999999999948
299.9999999999948
299.9999999999947
299.9999999999948
299.9999999999948
299.9999999999949
299.9999999999951
299.9999999999951
299.9999999999951
299.9999999999951
299.999999999995
299.9999999999948
299.9999999999945
299.9999999999945
299.9999999999945
299.9999999999947
299.9999999999946
299.9999999999945
299.9999999999945
299.9999999999945
299.9999999999946
299.9999999999946
299.9999999999946
299.9999999999946
299.9999999999945
299.9999999999946
299.9999999999945
299.9999999999944
299.9999999999943
299.999999999994
299.9999999999939
299.9999999999939
299.9999999999937
299.9999999999936
299.9999999999935
299.9999999999934
299.9999999999933
299.9999999999931
299.999999999993
299.9999999999928
299.9999999999927
299.9999999999926
299.9999999999924
299.9999999999923
299.999999999992
299.999999999992
299.9999999999919
299.9999999999918
299.9999999999916
299.9999999999913
299.9999999999909
299.9999999999905
299.9999999999901
299.9999999999898
299.9999999999895
299.9999999999892
299.9999999999891
299.9999999999889
299.9999999999887
299.9999999999887
299.9999999999886
299.9999999999886
299.9999999999886
299.9999999999885
299.9999999999883
299.9999999999884
299.9999999999882
299.9999999999879
299.9999999999877
299.9999999999876
299.9999999999875
299.9999999999874
299.9999999999874
299.9999999999873
299.9999999999871
299.9999999999867
299.9999999999865
299.9999999999861
299.9999999999859
299.9999999999856
299.9999999999854
299.9999999999853
299.9999999999853
299.9999999999853
299.9999999999853
299.9999999999852
299.9999999999851
299.9999999999849
299.9999999999848
299.9999999999846
299.9999999999845
299.9999999999844
299.9999999999842
299.9999999999842
299.999999999984
299.9999999999837
299.9999999999833
299.9999999999829
299.9999999999824
299.9999999999823
299.999999999982
299.9999999999819
299.9999999999817
299.9999999999815
299.9999999999811
299.9999999999809
299.9999999999806
299.9999999999803
299.9999999999802
299.9999999999799
299.9999999999795
299.9999999999792
299.999999999979
299.9999999999787
299.9999999999785
299.9999999999785
299.9999999999783
299.9999999999782
299.9999999999783
299.9999999999783
299.9999999999783
299.9999999999783
299.9999999999783
299.9999999999783
299.9999999999783
299.9999999999782
299.9999999999782
299.9999999999781
299.9999999999782
299.9999999999785
299.9999999999786
299.9999999999787
299.9999999999787
299.9999999999789
299.999999999979
299.9999999999792
299.9999999999792
299.9999999999793
299.9999999999794
299.9999999999794
299.9999999999794
299.9999999999795
299.9999999999795
299.9999999999797
299.9999999999798
299.9999999999799
299.9999999999801
299.9999999999803
299.9999999999805
299.9999999999806
299.9999999999806
299.9999999999807
299.9999999999808
299.9999999999807
299.9999999999808
299.9999999999808
299.9999999999808
299.999999999981
299.9999999999811
299.9999999999812
299.9999999999815
299.9999999999815
299.9999999999816
299.9999999999818
299.9999999999819
299.9999999999822
299.9999999999823
299.9999999999823
299.9999999999822
299.999999999982
299.9999999999819
299.9999999999819
299.9999999999819
299.9999999999819
299.9999999999819
299.999999999982
299.9999999999821
299.9999999999821
299.9999999999821
299.9999999999822
299.9999999999823
299.9999999999823
299.9999999999824
299.9999999999825
299.9999999999825
299.9999999999826
299.9999999999826
299.9999999999827
299.9999999999827
299.9999999999827
299.9999999999827
299.9999999999826
299.9999999999827
299.9999999999827
299.9999999999827
299.9999999999827
299.9999999999828
299.9999999999828
299.9999999999828
299.9999999999828
299.9999999999829
299.999999999983
299.9999999999829
299.9999999999829
299.9999999999828
299.9999999999828
299.9999999999828
299.9999999999828
299.9999999999828
299.9999999999828
299.9999999999828
299.9999999999829
299.9999999999828
299.9999999999829
299.999999999983
299.999999999983
299.9999999999831
299.9999999999832
299.9999999999832
299.9999999999832
299.9999999999831
299.9999999999832
299.9999999999832
299.9999999999831
299.9999999999831
299.9999999999831
299.9999999999831
299.9999999999829
299.9999999999829
299.9999999999829
299.9999999999829
299.9999999999829
299.9999999999829
299.9999999999829
299.9999999999829
299.9999999999829
299.9999999999829
299.9999999999829
299.999999999983
299.999999999983
299.9999999999831
299.9999999999831
299.9999999999831
299.9999999999832
299.9999999999831
299.9999999999831
299.999999999983
299.999999999983
299.9999999999829
299.9999999999828
299.9999999999828
299.9999999999828
299.9999999999828
299.9999999999828
299.9999999999829
299.9999999999829
299.9999999999828
299.9999999999829
299.9999999999828
299.9999999999829
299.9999999999829
299.9999999999829
299.999999999983
299.9999999999829
299.9999999999829
299.9999999999829
299.9999999999829
299.9999999999829
299.9999999999829
299.9999999999829
299.9999999999829
299.9999999999829
299.9999999999829
299.9999999999828
299.9999999999828
299.9999999999828
299.9999999999828
299.9999999999828
299.9999999999828
299.9999999999828
299.9999999999828
299.9999999999828
299.9999999999828
299.9999999999828
299.9999999999827
299.9999999999828
299.9999999999828
299.9999999999829
299.9999999999829
299.9999999999829
299.9999999999829
299.9999999999828
299.9999999999828
299.9999999999828
299.9999999999828
299.9999999999829
299.9999999999829
299.9999999999827
299.9999999999827
299.9999999999828
299.9999999999828
299.9999999999828
299.9999999999827
299.9999999999825
299.9999999999823
299.9999999999822
299.9999999999822
299.9999999999823
)
;

boundaryField
{
    inlet
    {
        type            fixedValue;
        value           uniform 300;
    }
    outlet
    {
        type            temperatureOutletNSCBC;
        pInf            101325;
        gamma           1.4;
        etaAc           1;
        fieldInf        1;
        lInf            2.25;
        value           uniform 299.9999999999829;
    }
    frontAndBack
    {
        type            empty;
    }
}


// ************************************************************************* //
