/*--------------------------------*- C++ -*----------------------------------*\
| =========                 |                                                 |
| \\      /  F ield         | OpenFOAM: The Open Source CFD Toolbox           |
|  \\    /   O peration     | Version:  v2012                                 |
|   \\  /    A nd           | Website:  www.openfoam.com                      |
|    \\/     M anipulation  |                                                 |
\*---------------------------------------------------------------------------*/
FoamFile
{
    version     2.0;
    format      ascii;
    class       volVectorField;
    location    "0.004";
    object      U;
}
// * * * * * * * * * * * * * * * * * * * * * * * * * * * * * * * * * * * * * //

dimensions      [0 1 -1 0 0 0 0];


internalField   nonuniform List<vector> 
1000
(
(-0.002793328948424014 0 0)
(-0.03444473048945342 0 0)
(-0.04263443653967308 0 0)
(-0.05778437513236972 0 0)
(-0.07164937732938118 0 0)
(-0.08457342426241575 0 0)
(-0.09561041558729334 0 0)
(-0.105051479712706 0 0)
(-0.1132046684952442 0 0)
(-0.1186941929278194 0 0)
(-0.1201297812625442 0 0)
(-0.1199668991630986 0 0)
(-0.1191660088205132 0 0)
(-0.1166530954530394 0 0)
(-0.1118166975850194 0 0)
(-0.1044608849611048 0 0)
(-0.09486831694173921 0 0)
(-0.08347241213652208 0 0)
(-0.07063629864663822 0 0)
(-0.05660946768746863 0 0)
(-0.04159063961988183 0 0)
(-0.02579872646442806 0 0)
(-0.009503602198656994 0 0)
(0.006987399479434515 0 0)
(0.02335649986758664 0 0)
(0.03928684290191835 0 0)
(0.05448187697296848 0 0)
(0.06874268353752294 0 0)
(0.08205826754666232 0 0)
(0.09450510835451598 0 0)
(0.1057021725063819 0 0)
(0.1139892144295036 0 0)
(0.117489643286072 0 0)
(0.1178740067175382 0 0)
(0.1177868385957467 0 0)
(0.1170835255089165 0 0)
(0.1152877179180042 0 0)
(0.1117291211201527 0 0)
(0.1059201644097365 0 0)
(0.097626427977713 0 0)
(0.08694727802798259 0 0)
(0.07425369462163364 0 0)
(0.06004228781098245 0 0)
(0.04478607206733796 0 0)
(0.02885387286238531 0 0)
(0.01251701578078348 0 0)
(-0.003988075425354604 0 0)
(-0.02040335573929848 0 0)
(-0.036456920089549 0 0)
(-0.05193699976115749 0 0)
(-0.06675960216007379 0 0)
(-0.08092758225244416 0 0)
(-0.09427551548551316 0 0)
(-0.105880007885883 0 0)
(-0.1136092202648022 0 0)
(-0.1162812769475653 0 0)
(-0.1164851692133389 0 0)
(-0.1163176016966904 0 0)
(-0.1157197448599409 0 0)
(-0.1141340512228172 0 0)
(-0.1110759084353142 0 0)
(-0.106061752169926 0 0)
(-0.0987585557712409 0 0)
(-0.08905814125893177 0 0)
(-0.07711406778566314 0 0)
(-0.0633010394695481 0 0)
(-0.04811549729454841 0 0)
(-0.03206589911070434 0 0)
(-0.01559542255137541 0 0)
(0.0009513650326839513 0 0)
(0.01732838126187951 0 0)
(0.03337155770044824 0 0)
(0.04898732867599331 0 0)
(0.06415122343131061 0 0)
(0.07885075466686992 0 0)
(0.09280480955514764 0 0)
(0.104824364063356 0 0)
(0.1125519024974162 0 0)
(0.1150596011252491 0 0)
(0.1152256817090311 0 0)
(0.1151413555478793 0 0)
(0.1146055733752828 0 0)
(0.1132779496477634 0 0)
(0.1106767685408025 0 0)
(0.1063608107230612 0 0)
(0.0999601223899997 0 0)
(0.09125540720527145 0 0)
(0.08022940038031788 0 0)
(0.0670863969292705 0 0)
(0.05222281514058073 0 0)
(0.03614986507875739 0 0)
(0.01939535654556199 0 0)
(0.002422266520934258 0 0)
(-0.01441956536044677 0 0)
(-0.03091881838166994 0 0)
(-0.04700850324972734 0 0)
(-0.06272045857784107 0 0)
(-0.0780274428337363 0 0)
(-0.09248070961835349 0 0)
(-0.1046011208176827 0 0)
(-0.1119412244466215 0 0)
(-0.1141068180006681 0 0)
(-0.1142387688821491 0 0)
(-0.1141009931755833 0 0)
(-0.1136190176748718 0 0)
(-0.1123734795662283 0 0)
(-0.1099776738781971 0 0)
(-0.1060167433141742 0 0)
(-0.1001350151713237 0 0)
(-0.09208751662793746 0 0)
(-0.0817930170730644 0 0)
(-0.06936149525271691 0 0)
(-0.05508805458876451 0 0)
(-0.03941295266333152 0 0)
(-0.02285134526390386 0 0)
(-0.005903344387641502 0 0)
(0.01103039372028551 0 0)
(0.02769783705197182 0 0)
(0.0439972870120194 0 0)
(0.05993094355971695 0 0)
(0.07547044864812719 0 0)
(0.09021001490358362 0 0)
(0.1027351128458231 0 0)
(0.1105779186601002 0 0)
(0.1130648369005205 0 0)
(0.113242279408127 0 0)
(0.1131786185085561 0 0)
(0.1127665039737399 0 0)
(0.1117293351786091 0 0)
(0.1096733832264319 0 0)
(0.1062167684881723 0 0)
(0.1010003673783542 0 0)
(0.09374189458300558 0 0)
(0.08428139566279132 0 0)
(0.0726217157598998 0 0)
(0.05894778873426695 0 0)
(0.04361086757882698 0 0)
(0.02707707480627311 0 0)
(0.009853018891773591 0 0)
(-0.007597595234001552 0 0)
(-0.02493179659958528 0 0)
(-0.04197010877941761 0 0)
(-0.05865679300083476 0 0)
(-0.0748817838185049 0 0)
(-0.09008637843286055 0 0)
(-0.1026553965244366 0 0)
(-0.1101205419583892 0 0)
(-0.1122909488281731 0 0)
(-0.1124258376724995 0 0)
(-0.1123242201679097 0 0)
(-0.1119435566677901 0 0)
(-0.110939556319091 0 0)
(-0.1089852878887061 0 0)
(-0.1057195491333465 0 0)
(-0.1008075805306435 0 0)
(-0.09397618008307482 0 0)
(-0.08505651665391267 0 0)
(-0.07401747356820872 0 0)
(-0.06098440947816106 0 0)
(-0.0462378336972283 0 0)
(-0.03018310364068346 0 0)
(-0.01328722719703567 0 0)
(0.004002490578588118 0 0)
(0.02132960013309597 0 0)
(0.03846647443924427 0 0)
(0.05529891707827438 0 0)
(0.07170301223808676 0 0)
(0.08719633873856006 0 0)
(0.1003175863117846 0 0)
(0.1085966666182138 0 0)
(0.1113316917568632 0 0)
(0.1115678637571947 0 0)
(0.1115276397580311 0 0)
(0.1112139804376266 0 0)
(0.1103975799609754 0 0)
(0.1087373141119824 0 0)
(0.1058964792833054 0 0)
(0.1015409291714783 0 0)
(0.09537936696616633 0 0)
(0.0871973613690232 0 0)
(0.07689413064496999 0 0)
(0.06451123620998502 0 0)
(0.0502412598712323 0 0)
(0.03441104557630867 0 0)
(0.01744096778777187 0 0)
(-0.0002182337608758625 0 0)
(-0.01816337082235756 0 0)
(-0.03610037533777212 0 0)
(-0.05383306996272588 0 0)
(-0.07110962703770721 0 0)
(-0.08723824945988871 0 0)
(-0.100492239636654 0 0)
(-0.1083663691521773 0 0)
(-0.1107154609965116 0 0)
(-0.1108850495505338 0 0)
(-0.1108062778237559 0 0)
(-0.1105040084283473 0 0)
(-0.1096848734897456 0 0)
(-0.1080654417828389 0 0)
(-0.1053243698231335 0 0)
(-0.1011505803938487 0 0)
(-0.09526906175066002 0 0)
(-0.08747457828593912 0 0)
(-0.07766099771779851 0 0)
(-0.06584444821115534 0 0)
(-0.05217589317377633 0 0)
(-0.03693341309906625 0 0)
(-0.02048668619104593 0 0)
(-0.003240070527293586 0 0)
(0.01442838281467159 0 0)
(0.03221440109604344 0 0)
(0.04989488996459848 0 0)
(0.06722959648017218 0 0)
(0.08363763991056526 0 0)
(0.09760390904308108 0 0)
(0.1066124898843286 0 0)
(0.1097855426252547 0 0)
(0.1101199674932975 0 0)
(0.1100955301109513 0 0)
(0.1098553600654898 0 0)
(0.1092047410314445 0 0)
(0.1078455566954594 0 0)
(0.1054788645966214 0 0)
(0.1017963075039582 0 0)
(0.09651145830715027 0 0)
(0.08938648466178217 0 0)
(0.08026373104831303 0 0)
(0.06909381494058192 0 0)
(0.05595163590787835 0 0)
(0.04103648236924188 0 0)
(0.02465507916033201 0 0)
(0.007182924914644858 0 0)
(-0.01099541514567572 0 0)
(-0.02954219989364389 0 0)
(-0.04816604436451354 0 0)
(-0.06649258505585245 0 0)
(-0.08370445227891583 0 0)
(-0.09795293680827243 0 0)
(-0.1065842719018201 0 0)
(-0.10929275572205 0 0)
(-0.1095217828550056 0 0)
(-0.1094644395175797 0 0)
(-0.1092311910253869 0 0)
(-0.1085626041075206 0 0)
(-0.1072089728179034 0 0)
(-0.1048813588852292 0 0)
(-0.1012936781319454 0 0)
(-0.09618030614538396 0 0)
(-0.08932200191600707 0 0)
(-0.08057015922496941 0 0)
(-0.06986971561676841 0 0)
(-0.05727682596607204 0 0)
(-0.04296225078451952 0 0)
(-0.02719342528646408 0 0)
(-0.01029873874776462 0 0)
(0.007376148729279786 0 0)
(0.02551001049349981 0 0)
(0.04382139001344004 0 0)
(0.06198995589643661 0 0)
(0.07936381155004416 0 0)
(0.09439031836275225 0 0)
(0.1044556948334446 0 0)
(0.108317290943923 0 0)
(0.1088171330845557 0 0)
(0.1088092436649515 0 0)
(0.1086298633240391 0 0)
(0.1081156653493705 0 0)
(0.1069991383874566 0 0)
(0.1050121823167352 0 0)
(0.1018710860588345 0 0)
(0.09730199596848654 0 0)
(0.09106094514952487 0 0)
(0.08295946148911004 0 0)
(0.0728892522148545 0 0)
(0.06084032069620035 0 0)
(0.0469096795956417 0 0)
(0.0312982032265125 0 0)
(0.01428951064209704 0 0)
(-0.00379043541927984 0 0)
(-0.02261433291385614 0 0)
(-0.04185226666592017 0 0)
(-0.06106010015496861 0 0)
(-0.07934806792792806 0 0)
(-0.09479931857345006 0 0)
(-0.1045715052687609 0 0)
(-0.1079318128217871 0 0)
(-0.1082883661114421 0 0)
(-0.1082498095044426 0 0)
(-0.108071138031745 0 0)
(-0.1075278419673008 0 0)
(-0.1063950781207325 0 0)
(-0.1044100931219471 0 0)
(-0.1013076546863793 0 0)
(-0.09683346626960977 0 0)
(-0.09076490651491056 0 0)
(-0.08293061020413993 0 0)
(-0.07323071778633623 0 0)
(-0.06165478580461213 0 0)
(-0.04828975323007115 0 0)
(-0.03331272049002091 0 0)
(-0.01697110548290315 0 0)
(0.000445200080955612 0 0)
(0.01863579963926946 0 0)
(0.0373051620552161 0 0)
(0.05609796696798533 0 0)
(0.07434120450057914 0 0)
(0.09050844897766398 0 0)
(0.1019225348420522 0 0)
(0.1068121622092776 0 0)
(0.107610696599726 0 0)
(0.1076222802770985 0 0)
(0.1074940783170258 0 0)
(0.107094910550764 0 0)
(0.1061821074023202 0 0)
(0.1045122605379847 0 0)
(0.1018222098407171 0 0)
(0.09785205544608 0 0)
(0.09235984226402676 0 0)
(0.08514194743084323 0 0)
(0.0760534200261392 0 0)
(0.06502518474045819 0 0)
(0.05207635656118351 0 0)
(0.03731884178997449 0 0)
(0.02094820295108635 0 0)
(0.003219230798039421 0 0)
(-0.01557989127213534 0 0)
(-0.03512225177650533 0 0)
(-0.05494742373813183 0 0)
(-0.0741679215657704 0 0)
(-0.09090091051028826 0 0)
(-0.102156159601239 0 0)
(-0.1065310870919333 0 0)
(-0.1071311447960211 0 0)
(-0.1071120500321259 0 0)
(-0.1069839728799836 0 0)
(-0.1065512718698943 0 0)
(-0.105610071893157 0 0)
(-0.1039178106533847 0 0)
(-0.1012275883977651 0 0)
(-0.09729738245755963 0 0)
(-0.09190656253452599 0 0)
(-0.08487180387868888 0 0)
(-0.07606470562520923 0 0)
(-0.06542834532271825 0 0)
(-0.05298664130218734 0 0)
(-0.03884338466206914 0 0)
(-0.02317312218259283 0 0)
(-0.006205015408487832 0 0)
(0.01179995401236093 0 0)
(0.03056094021425629 0 0)
(0.04972358459446462 0 0)
(0.06864210491936491 0 0)
(0.08589412877646371 0 0)
(0.09884264814897371 0 0)
(0.1051377386265553 0 0)
(0.1064583796429844 0 0)
(0.1065031870367243 0 0)
(0.1064179460093978 0 0)
(0.1061170070847593 0 0)
(0.1053785121572169 0 0)
(0.1039806840905191 0 0)
(0.1016768613487125 0 0)
(0.09822012308982443 0 0)
(0.0933738407536157 0 0)
(0.08692763859190095 0 0)
(0.07871382152477177 0 0)
(0.0686230667817844 0 0)
(0.05661766986444527 0 0)
(0.0427393197474801 0 0)
(0.02710736360643366 0 0)
(0.009907122281275684 0 0)
(-0.008623261091762287 0 0)
(-0.02818545399633502 0 0)
(-0.04834384291521643 0 0)
(-0.06827394084342116 0 0)
(-0.08622439749641396 0 0)
(-0.09917927652178467 0 0)
(-0.1049692622695838 0 0)
(-0.1060078709006557 0 0)
(-0.1060203118141816 0 0)
(-0.1059363976912391 0 0)
(-0.1056044665051879 0 0)
(-0.1048348307646773 0 0)
(-0.1034021212997267 0 0)
(-0.1010731972047622 0 0)
(-0.09761709759191999 0 0)
(-0.09281754957349946 0 0)
(-0.08648601401111777 0 0)
(-0.07847663935061935 0 0)
(-0.06870058366262638 0 0)
(-0.05713524588840429 0 0)
(-0.0438271117499126 0 0)
(-0.02888975048784826 0 0)
(-0.01249556633095801 0 0)
(0.00513982513820758 0 0)
(0.02376553333581262 0 0)
(0.04305135817355745 0 0)
(0.06241153211733139 0 0)
(0.08058492290758941 0 0)
(0.09510115888801229 0 0)
(0.1031384110275134 0 0)
(0.1052931787048226 0 0)
(0.1054328879857925 0 0)
(0.1053782503770512 0 0)
(0.1051608260869679 0 0)
(0.1045742490104484 0 0)
(0.1034141770730635 0 0)
(0.1014483461010677 0 0)
(0.09844104822472838 0 0)
(0.09416152489108608 0 0)
(0.08839717250411627 0 0)
(0.08096676063770963 0 0)
(0.07173376941067972 0 0)
(0.06061917869288665 0 0)
(0.04761116195627303 0 0)
(0.03276792358745937 0 0)
(0.0162135336812257 0 0)
(-0.001866590926325876 0 0)
(-0.02121539542307246 0 0)
(-0.04144217067984558 0 0)
(-0.061818220810542 0 0)
(-0.08079734471573867 0 0)
(-0.09550656400806376 0 0)
(-0.103102514742318 0 0)
(-0.1048901776137373 0 0)
(-0.104972816612113 0 0)
(-0.1049223210621902 0 0)
(-0.1046754587571379 0 0)
(-0.1040563535729758 0 0)
(-0.1028532728932222 0 0)
(-0.1008455138487355 0 0)
(-0.09781070332317705 0 0)
(-0.09353681910309973 0 0)
(-0.08783334808483247 0 0)
(-0.08054348944564167 0 0)
(-0.07155576867829529 0 0)
(-0.06081338414161001 0 0)
(-0.04832001174731081 0 0)
(-0.03414088086609266 0 0)
(-0.01839795028373933 0 0)
(-0.001261063769068502 0 0)
(0.01705396133893252 0 0)
(0.03625168861661474 0 0)
(0.05582393685341751 0 0)
(0.07469982789879331 0 0)
(0.09067167722222834 0 0)
(0.1006574145200469 0 0)
(0.1040199194451572 0 0)
(0.1043723134579111 0 0)
(0.1043485251150151 0 0)
(0.1041986686811856 0 0)
(0.1037501148814606 0 0)
(0.1028044759604298 0 0)
(0.1011425531627252 0 0)
(0.09853741776182229 0 0)
(0.09476386573860722 0 0)
(0.08960967259092199 0 0)
(0.08288593184487565 0 0)
(0.07443791823193376 0 0)
(0.06415741616396514 0 0)
(0.05199337324688052 0 0)
(0.03795633510444763 0 0)
(0.02211818289318674 0 0)
(0.004614549577388487 0 0)
(-0.01434173523503802 0 0)
(-0.03441331440770569 0 0)
(-0.05498110601431828 0 0)
(-0.07473671456848312 0 0)
(-0.09108575307652263 0 0)
(-0.1007611685056175 0 0)
(-0.1036980036646457 0 0)
(-0.1039511611947093 0 0)
(-0.1039293634628418 0 0)
(-0.1037499595512018 0 0)
(-0.103265535560977 0 0)
(-0.102267760052371 0 0)
(-0.1005482703158078 0 0)
(-0.0978923045336349 0 0)
(-0.09409210214516375 0 0)
(-0.08895614445089721 0 0)
(-0.08232038981535357 0 0)
(-0.07405833311064473 0 0)
(-0.06408847272651073 0 0)
(-0.05238060917575123 0 0)
(-0.03896089924008723 0 0)
(-0.02391127206069941 0 0)
(-0.007362422745515347 0 0)
(0.0105074494359461 0 0)
(0.02944376392099791 0 0)
(0.04901323248341719 0 0)
(0.06833132183904216 0 0)
(0.08552532277476202 0 0)
(0.09753688076898959 0 0)
(0.1025595698094734 0 0)
(0.1033603024847213 0 0)
(0.103354120318086 0 0)
(0.103266615063813 0 0)
(0.1029264835821274 0 0)
(0.1021644531493099 0 0)
(0.1007672171716644 0 0)
(0.09851760482618922 0 0)
(0.09519627471320695 0 0)
(0.09059218692727584 0 0)
(0.08451147306995471 0 0)
(0.07678737896127347 0 0)
(0.06729095744575297 0 0)
(0.05594049360891732 0 0)
(0.04270788209885226 0 0)
(0.02762304473123127 0 0)
(0.01077919204043286 0 0)
(-0.007655958722895666 0 0)
(-0.0274030075497881 0 0)
(-0.04794725977354426 0 0)
(-0.06820787740755824 0 0)
(-0.08594713276938855 0 0)
(-0.09779167373317874 0 0)
(-0.1023153696482888 0 0)
(-0.1029278657106616 0 0)
(-0.1029240376117842 0 0)
(-0.1028079440784121 0 0)
(-0.1024410446783751 0 0)
(-0.1016308316530402 0 0)
(-0.1001757612467484 0 0)
(-0.09786733684015539 0 0)
(-0.09450126502685222 0 0)
(-0.08988609814211423 0 0)
(-0.08385256673185847 0 0)
(-0.07626218274316353 0 0)
(-0.06701498015898885 0 0)
(-0.05605642030080783 0 0)
(-0.04338223733464196 0 0)
(-0.02903932155622714 0 0)
(-0.01312375592562069 0 0)
(0.004217341596944455 0 0)
(0.02276598109089054 0 0)
(0.04216066111584951 0 0)
(0.0616850178924152 0 0)
(0.07979658498428764 0 0)
(0.09367356033394145 0 0)
(0.1006700234806243 0 0)
(0.102249757232729 0 0)
(0.1023160507523195 0 0)
(0.1022671994661679 0 0)
(0.1020357397259806 0 0)
(0.1014597843712394 0 0)
(0.1003488221656576 0 0)
(0.09850657766399792 0 0)
(0.09573965302165746 0 0)
(0.09186947170864403 0 0)
(0.08674439602079216 0 0)
(0.08025393755256402 0 0)
(0.07234498155081878 0 0)
(0.06304079784772845 0 0)
(0.05246642202779878 0 0)
(0.04089296364711006 0 0)
(0.02883390499803292 0 0)
(0.01724404374319771 0 0)
(0.007738630736932517 0 0)
(0.002092992465525225 0 0)
(0.0002441098934822502 0 0)
(8.121447558017869e-06 0 0)
(5.045587011570955e-08 0 0)
(3.933777817728664e-11 0 0)
(-2.784975446180291e-13 0 0)
(-2.436853515408055e-13 0 0)
(-2.784975446180394e-13 0 0)
(-2.00170110194199e-13 0 0)
(-1.827640136555993e-13 0 0)
(-3.133097376952861e-13 0 0)
(-1.479518205783576e-13 0 0)
(-4.351524134660019e-14 0 0)
(-6.092133788521764e-14 0 0)
(-3.13309737695298e-13 0 0)
(-4.003402203884583e-13 0 0)
(-4.786676548122377e-13 0 0)
(-3.829341238498627e-13 0 0)
(-4.438554617350373e-13 0 0)
(-3.829341238499015e-13 0 0)
(-3.0460668942605e-13 0 0)
(-3.307158342339526e-13 0 0)
(-3.39418882503328e-13 0 0)
(-1.392487723091259e-13 0 0)
(-1.305457240397748e-13 0 0)
(-1.653579171170174e-13 0 0)
(-1.392487723090698e-13 0 0)
(-8.703048269319063e-14 0 0)
(-8.703048269320371e-14 0 0)
(-2.436853515408123e-13 0 0)
(-3.481219307725994e-13 0 0)
(-4.003402203884622e-13 0 0)
(-4.786676548122361e-13 0 0)
(-5.134798478894903e-13 0 0)
(-4.786676548122459e-13 0 0)
(-3.916371721191041e-13 0 0)
(-3.307158342339236e-13 0 0)
(-3.394188825032141e-13 0 0)
(-3.220127859646466e-13 0 0)
(-2.872005928873953e-13 0 0)
(-2.523883998101437e-13 0 0)
(-2.610914480795082e-13 0 0)
(-2.088731584636381e-13 0 0)
(-2.175762067329603e-13 0 0)
(-2.175762067329645e-13 0 0)
(-2.34982303271534e-13 0 0)
(-4.090432686578581e-13 0 0)
(-4.351524134657742e-13 0 0)
(-5.308859444281885e-13 0 0)
(-6.26619475390656e-13 0 0)
(-7.484621511609672e-13 0 0)
(-7.397591028917275e-13 0 0)
(-6.788377650064952e-13 0 0)
(-5.395889926974699e-13 0 0)
(-4.351524134657559e-13 0 0)
(-4.090432686578032e-13 0 0)
(-3.655280273112488e-13 0 0)
(-4.438554617351015e-13 0 0)
(-4.264493651964591e-13 0 0)
(-4.612615582737405e-13 0 0)
(-4.612615582736873e-13 0 0)
(-4.612615582736434e-13 0 0)
(-3.481219307726355e-13 0 0)
(-2.610914480794565e-13 0 0)
(-2.610914480794601e-13 0 0)
(-1.740609653872574e-14 0 0)
(8.703048269302887e-14 0 0)
(3.742310755803833e-13 0 0)
(8.790078752005356e-13 0 0)
(1.436002964436489e-12 0 0)
(1.879858426171545e-12 0 0)
(2.175762067328366e-12 0 0)
(2.541290094639236e-12 0 0)
(2.750163253102923e-12 0 0)
(2.950333363297283e-12 0 0)
(3.23753395618453e-12 0 0)
(3.568249790418605e-12 0 0)
(3.803232093689743e-12 0 0)
(3.942480865999065e-12 0 0)
(4.264493651963832e-12 0 0)
(4.395039376003297e-12 0 0)
(4.569100341389762e-12 0 0)
(4.56039729312077e-12 0 0)
(4.464663762158136e-12 0 0)
(4.351524134657258e-12 0 0)
(4.438554617349911e-12 0 0)
(4.542991196582102e-12 0 0)
(4.88241007908546e-12 0 0)
(5.343671637358314e-12 0 0)
(5.683090519862391e-12 0 0)
(6.370631333137906e-12 0 0)
(6.997250808528766e-12 0 0)
(7.606464187380865e-12 0 0)
(8.180865373154116e-12 0 0)
(8.711751317583593e-12 0 0)
(9.216528117203478e-12 0 0)
(9.407995179128027e-12 0 0)
(9.460213468744595e-12 0 0)
(9.747414061631833e-12 0 0)
(9.851850640864182e-12 0 0)
(9.956287220095464e-12 0 0)
(1.009553599240429e-11 0 0)
(1.019126952336723e-11 0 0)
(1.041754877836953e-11 0 0)
(1.069604632298669e-11 0 0)
(1.084399814356646e-11 0 0)
(1.100065301241347e-11 0 0)
(1.108768349510717e-11 0 0)
(1.11311987364532e-11 0 0)
(1.114860483299099e-11 0 0)
(1.116601092953114e-11 0 0)
(1.107898044683762e-11 0 0)
(1.100065301241286e-11 0 0)
(1.10441682537602e-11 0 0)
(1.095713777106775e-11 0 0)
(1.125304141222373e-11 0 0)
(1.137488408799461e-11 0 0)
(1.163597553607288e-11 0 0)
(1.171430297049732e-11 0 0)
(1.188836393588422e-11 0 0)
(1.184484869453643e-11 0 0)
(1.182744259799852e-11 0 0)
(1.197539441857696e-11 0 0)
(1.211464319088595e-11 0 0)
(1.223648586665683e-11 0 0)
(1.233221939761785e-11 0 0)
(1.224518891492617e-11 0 0)
(1.218426757704047e-11 0 0)
(1.225389196319446e-11 0 0)
(1.240184378377507e-11 0 0)
(1.253238950781243e-11 0 0)
(1.261071694223695e-11 0 0)
(1.267163828012246e-11 0 0)
(1.264552913531341e-11 0 0)
(1.276737181108517e-11 0 0)
(1.283699619723911e-11 0 0)
(1.27238565697383e-11 0 0)
(1.256720170089035e-11 0 0)
(1.243665597685015e-11 0 0)
(1.237573463896604e-11 0 0)
(1.251498341127422e-11 0 0)
(1.255849865262038e-11 0 0)
(1.268904437666126e-11 0 0)
(1.281959010070043e-11 0 0)
(1.299365106608695e-11 0 0)
(1.314160288666527e-11 0 0)
(1.321993032108761e-11 0 0)
(1.320252422455109e-11 0 0)
(1.320252422455019e-11 0 0)
(1.335047604512775e-11 0 0)
(1.323733641762773e-11 0 0)
(1.321122727281978e-11 0 0)
(1.312419679012669e-11 0 0)
(1.312419679012672e-11 0 0)
(1.302846325916332e-11 0 0)
(1.296754192127901e-11 0 0)
(1.311549374185772e-11 0 0)
(1.335047604512744e-11 0 0)
(1.357675530013082e-11 0 0)
(1.379433150686399e-11 0 0)
(1.415115648590586e-11 0 0)
(1.439484183744667e-11 0 0)
(1.461241804417792e-11 0 0)
(1.482999425091272e-11 0 0)
(1.505627350591418e-11 0 0)
(1.542180153322471e-11 0 0)
(1.559586249861209e-11 0 0)
(1.583084480188394e-11 0 0)
(1.618766978092549e-11 0 0)
(1.666633743573738e-11 0 0)
(1.721462947670373e-11 0 0)
(1.784995200036383e-11 0 0)
(1.859841415152607e-11 0 0)
(1.932947020614595e-11 0 0)
(2.009533845384813e-11 0 0)
(2.060011525346757e-11 0 0)
(2.120062558405029e-11 0 0)
(2.147912312866923e-11 0 0)
(2.185335420424697e-11 0 0)
(2.246256758310197e-11 0 0)
(2.317621754118466e-11 0 0)
(2.37941339683051e-11 0 0)
(2.429020771965723e-11 0 0)
(2.482979671235462e-11 0 0)
(2.548252533255456e-11 0 0)
(2.617876919409974e-11 0 0)
(2.685760695910394e-11 0 0)
(2.757995996545753e-11 0 0)
(2.817176724777362e-11 0 0)
(2.859821661296564e-11 0 0)
(2.920742999182045e-11 0 0)
(2.973831593624986e-11 0 0)
(3.038234150817935e-11 0 0)
(3.074786953548996e-11 0 0)
(3.114820975587506e-11 0 0)
(3.157465912107596e-11 0 0)
(3.200981153453947e-11 0 0)
(3.234923041704213e-11 0 0)
(3.261902491339405e-11 0 0)
(3.294974074762727e-11 0 0)
(3.303677123031987e-11 0 0)
(3.322823829224555e-11 0 0)
(3.344581449897696e-11 0 0)
(3.36982028987863e-11 0 0)
(3.415946445706482e-11 0 0)
(3.471645954629453e-11 0 0)
(3.528215768380414e-11 0 0)
(3.592618325573275e-11 0 0)
(3.669205150343256e-11 0 0)
(3.744921670286466e-11 0 0)
(3.804102398517212e-11 0 0)
(3.843266115729993e-11 0 0)
(3.879818918460425e-11 0 0)
(3.929426293595784e-11 0 0)
(3.980774278384761e-11 0 0)
(4.046047140404625e-11 0 0)
(4.093043601059138e-11 0 0)
(4.17311164513666e-11 0 0)
(4.245346945771877e-11 0 0)
(4.297565235387667e-11 0 0)
(4.334118038119393e-11 0 0)
(4.368930231195769e-11 0 0)
(4.385466022907988e-11 0 0)
(4.402001814619877e-11 0 0)
(4.434203093216362e-11 0 0)
(4.453349799408664e-11 0 0)
(4.495124431100802e-11 0 0)
(4.545602111063929e-11 0 0)
(4.61957802135239e-11 0 0)
(4.690943017160875e-11 0 0)
(4.768400146757914e-11 0 0)
(4.837154228085717e-11 0 0)
(4.911130138374674e-11 0 0)
(4.985106048663934e-11 0 0)
(5.043416472068221e-11 0 0)
(5.122614211318731e-11 0 0)
(5.17222158645465e-11 0 0)
(5.230532009858088e-11 0 0)
(5.280139384993941e-11 0 0)
(5.339320113225179e-11 0 0)
(5.422869376610486e-11 0 0)
(5.469865837265052e-11 0 0)
(5.558636929611968e-11 0 0)
(5.617817657843327e-11 0 0)
(5.721383932247296e-11 0 0)
(5.801451976326036e-11 0 0)
(5.886741849365102e-11 0 0)
(5.969420807923597e-11 0 0)
(6.022509402366705e-11 0 0)
(6.077338606463402e-11 0 0)
(6.099096227136575e-11 0 0)
(6.126945981597202e-11 0 0)
(6.134778725040942e-11 0 0)
(6.146092687790811e-11 0 0)
(6.159147260195948e-11 0 0)
(6.166980003637162e-11 0 0)
(6.173942442253046e-11 0 0)
(6.165239393982366e-11 0 0)
(6.166980003637209e-11 0 0)
(6.158276955368035e-11 0 0)
(6.154795736060446e-11 0 0)
(6.109539885059734e-11 0 0)
(6.062543424405447e-11 0 0)
(5.98769720928959e-11 0 0)
(5.944181967941808e-11 0 0)
(5.920683737615716e-11 0 0)
(5.894574592807899e-11 0 0)
(5.871946667307672e-11 0 0)
(5.850189046634111e-11 0 0)
(5.841485998364758e-11 0 0)
(5.804062890806991e-11 0 0)
(5.781434965306643e-11 0 0)
(5.753585210844673e-11 0 0)
(5.735308809478311e-11 0 0)
(5.715291798459931e-11 0 0)
(5.690923263305614e-11 0 0)
(5.667425032978586e-11 0 0)
(5.615206743362814e-11 0 0)
(5.582135159939272e-11 0 0)
(5.542971442727358e-11 0 0)
(5.503807725514271e-11 0 0)
(5.47247675174616e-11 0 0)
(5.458551874514838e-11 0 0)
(5.451589435899532e-11 0 0)
(5.429831815226114e-11 0 0)
(5.428091205572222e-11 0 0)
(5.403722670418421e-11 0 0)
(5.392408707668068e-11 0 0)
(5.380224440091376e-11 0 0)
(5.367169867686034e-11 0 0)
(5.362818343552489e-11 0 0)
(5.342801332532869e-11 0 0)
(5.311470358763754e-11 0 0)
(5.259252069147439e-11 0 0)
(5.230532009858711e-11 0 0)
(5.180924634723916e-11 0 0)
(5.165259147838196e-11 0 0)
(5.157426404396607e-11 0 0)
(5.142631222338738e-11 0 0)
(5.138279698204064e-11 0 0)
(5.136539088550082e-11 0 0)
(5.148723356127115e-11 0 0)
(5.146112441646383e-11 0 0)
(5.152204575435037e-11 0 0)
(5.1417609175118e-11 0 0)
(5.13827969820298e-11 0 0)
(5.147853051300545e-11 0 0)
(5.145242136819436e-11 0 0)
(5.152204575434926e-11 0 0)
(5.150463965781116e-11 0 0)
(5.162648233357977e-11 0 0)
(5.151334270608152e-11 0 0)
(5.151334270607212e-11 0 0)
(5.129576649934829e-11 0 0)
(5.110429943742066e-11 0 0)
(5.085191103761382e-11 0 0)
(5.064303787914692e-11 0 0)
(5.056471044472421e-11 0 0)
(5.032102509318615e-11 0 0)
(4.998160621068063e-11 0 0)
(4.96857025695256e-11 0 0)
(4.976403000394016e-11 0 0)
(4.961607818336923e-11 0 0)
(4.96160781833676e-11 0 0)
(4.955515684548437e-11 0 0)
(4.938109588009826e-11 0 0)
(4.932887759048195e-11 0 0)
(4.919833186644219e-11 0 0)
(4.915481662508779e-11 0 0)
(4.90938952872102e-11 0 0)
(4.894594346663016e-11 0 0)
(4.891983432182381e-11 0 0)
(4.894594346663201e-11 0 0)
(4.894594346663012e-11 0 0)
(4.878928859778492e-11 0 0)
(4.860652458412705e-11 0 0)
(4.837154228085863e-11 0 0)
(4.82932148464244e-11 0 0)
(4.828451179816343e-11 0 0)
(4.830191789470246e-11 0 0)
(4.835413618431864e-11 0 0)
(4.848468190835867e-11 0 0)
(4.8502088004897e-11 0 0)
(4.846727581181979e-11 0 0)
(4.853690019796808e-11 0 0)
(4.837154228085687e-11 0 0)
(4.835413618431836e-11 0 0)
(4.810174778450818e-11 0 0)
(4.77536258537314e-11 0 0)
(4.76840014675812e-11 0 0)
(4.755345574354145e-11 0 0)
(4.758826793661892e-11 0 0)
(4.771881366065343e-11 0 0)
(4.790157767431443e-11 0 0)
(4.803212339835324e-11 0 0)
(4.811915388104721e-11 0 0)
(4.834543313604411e-11 0 0)
(4.83889483773956e-11 0 0)
(4.849338495662746e-11 0 0)
(4.848468190835732e-11 0 0)
(4.84237605704686e-11 0 0)
(4.831062094297141e-11 0 0)
(4.836283923258794e-11 0 0)
(4.831062094297187e-11 0 0)
(4.822359046027438e-11 0 0)
(4.801471730181533e-11 0 0)
(4.782325023989041e-11 0 0)
(4.765789232277355e-11 0 0)
(4.757086184008037e-11 0 0)
(4.770140756411562e-11 0 0)
(4.764918927450434e-11 0 0)
(4.792768681912232e-11 0 0)
(4.798860815700677e-11 0 0)
(4.804082644661913e-11 0 0)
(4.811915388104664e-11 0 0)
(4.807563863970064e-11 0 0)
(4.817137217066309e-11 0 0)
(4.810174778450443e-11 0 0)
(4.820618436374067e-11 0 0)
(4.831062094297243e-11 0 0)
(4.846727581182e-11 0 0)
(4.819748131546694e-11 0 0)
(4.821488741201007e-11 0 0)
(4.812785692931675e-11 0 0)
(4.821488741200987e-11 0 0)
(4.827580874989076e-11 0 0)
(4.830191789470267e-11 0 0)
(4.831932399124156e-11 0 0)
(4.824969960508661e-11 0 0)
(4.840635447393038e-11 0 0)
(4.846727581182e-11 0 0)
(4.836283923258816e-11 0 0)
(4.828451179816415e-11 0 0)
(4.827580874989504e-11 0 0)
(4.828451179815984e-11 0 0)
(4.831932399124113e-11 0 0)
(4.843246361874264e-11 0 0)
(4.83976514256651e-11 0 0)
(4.847597886008466e-11 0 0)
(4.857171239105166e-11 0 0)
(4.870225811509071e-11 0 0)
(4.870225811509131e-11 0 0)
(4.861522763239385e-11 0 0)
(4.851079105316623e-11 0 0)
(4.838024532912669e-11 0 0)
(4.830191789470279e-11 0 0)
(4.808434168796557e-11 0 0)
(4.808434168797005e-11 0 0)
(4.802342035008467e-11 0 0)
(4.802342035008463e-11 0 0)
(4.804952949488798e-11 0 0)
(4.804082644662276e-11 0 0)
(4.809304473623885e-11 0 0)
(4.800601425354603e-11 0 0)
(4.805823254315756e-11 0 0)
(4.801471730181464e-11 0 0)
(4.797990510873816e-11 0 0)
(4.797120206046877e-11 0 0)
(4.791898377085307e-11 0 0)
(4.789287462604069e-11 0 0)
(4.777103195027492e-11 0 0)
(4.788417157777557e-11 0 0)
(4.781454719162082e-11 0 0)
(4.784935938469424e-11 0 0)
(4.797990510873811e-11 0 0)
(4.819748131547125e-11 0 0)
(4.835413618431861e-11 0 0)
(4.83367300877754e-11 0 0)
(4.838024532912678e-11 0 0)
(4.845857276355052e-11 0 0)
(4.847597886008966e-11 0 0)
(4.829321484642922e-11 0 0)
(4.831932399124121e-11 0 0)
(4.831932399124191e-11 0 0)
(4.844116666701217e-11 0 0)
(4.851079105316187e-11 0 0)
(4.842376057047325e-11 0 0)
(4.860652458412918e-11 0 0)
(4.853690019797425e-11 0 0)
(4.853690019797463e-11 0 0)
(4.844116666701192e-11 0 0)
(4.851949410143595e-11 0 0)
)
;

boundaryField
{
    inlet
    {
        type            zeroGradient;
    }
    outlet
    {
        type            velocityOutletNSCBCx;
        pInf            101325;
        gamma           1.4;
        etaAc           1;
        fieldInf        (-1 0 0);
        lInf            2.25;
        value           uniform (4.846861440707163e-11 0 0);
    }
    frontAndBack
    {
        type            empty;
    }
}


// ************************************************************************* //
