/*--------------------------------*- C++ -*----------------------------------*\
| =========                 |                                                 |
| \\      /  F ield         | OpenFOAM: The Open Source CFD Toolbox           |
|  \\    /   O peration     | Version:  v2012                                 |
|   \\  /    A nd           | Website:  www.openfoam.com                      |
|    \\/     M anipulation  |                                                 |
\*---------------------------------------------------------------------------*/
FoamFile
{
    version     2.0;
    format      ascii;
    class       volVectorField;
    location    "0.004";
    object      UMean;
}
// * * * * * * * * * * * * * * * * * * * * * * * * * * * * * * * * * * * * * //

dimensions      [0 1 -1 0 0 0 0];


internalField   nonuniform List<vector> 
1000
(
(-6.077454955939987e-05 0 0)
(3.971849078940561e-05 0 0)
(8.267406999164401e-05 0 0)
(0.0001778844301208179 0 0)
(0.0002888565672387092 0 0)
(0.0004242624186790789 0 0)
(0.0005844134607160844 0 0)
(0.0007616997178257144 0 0)
(0.0009581640114238548 0 0)
(0.001166475323170574 0 0)
(0.001382396031712113 0 0)
(0.001598212060130304 0 0)
(0.001813970097037093 0 0)
(0.00202610960302911 0 0)
(0.002232852155312293 0 0)
(0.002428213303359031 0 0)
(0.002609533035310888 0 0)
(0.002771569045602386 0 0)
(0.002912850754797225 0 0)
(0.003029492425243667 0 0)
(0.003120858138757638 0 0)
(0.003183967670044668 0 0)
(0.003218937678340703 0 0)
(0.003223825767589574 0 0)
(0.003199706728359171 0 0)
(0.003145858132769363 0 0)
(0.003064474216704132 0 0)
(0.002955923731627258 0 0)
(0.002822913830279957 0 0)
(0.002665996325493921 0 0)
(0.002487888601379826 0 0)
(0.002290840108517793 0 0)
(0.002082605817456994 0 0)
(0.001870382403330129 0 0)
(0.001658522224123403 0 0)
(0.001447063556568326 0 0)
(0.001237838352055421 0 0)
(0.001033063462811998 0 0)
(0.0008364100043271018 0 0)
(0.000651939126818377 0 0)
(0.0004841899452191046 0 0)
(0.0003370185085176763 0 0)
(0.0002138272314972371 0 0)
(0.0001168435363887146 0 0)
(4.782497328291603e-05 0 0)
(7.693893720636512e-06 0 0)
(-2.8688487720061e-06 0 0)
(1.615343400184843e-05 0 0)
(6.449220759449588e-05 0 0)
(0.0001412844588392404 0 0)
(0.0002454697238671882 0 0)
(0.0003758330593518517 0 0)
(0.0005311959652787413 0 0)
(0.0007096703076927509 0 0)
(0.0009067383689237794 0 0)
(0.001113941605856261 0 0)
(0.001323550795230642 0 0)
(0.00153305899738404 0 0)
(0.001742078463457452 0 0)
(0.001949034010474068 0 0)
(0.002152309683418627 0 0)
(0.002348376317407438 0 0)
(0.002534014375116452 0 0)
(0.002704491945419689 0 0)
(0.002856165110382329 0 0)
(0.002984718127357395 0 0)
(0.003087710454204089 0 0)
(0.003162501324389168 0 0)
(0.003208411620561182 0 0)
(0.003224384410232622 0 0)
(0.003210963838934957 0 0)
(0.00316807534119508 0 0)
(0.003096907581121069 0 0)
(0.00299774112088913 0 0)
(0.002871816705573369 0 0)
(0.002719592709451234 0 0)
(0.002543562616831763 0 0)
(0.002348391738191391 0 0)
(0.002143456395620038 0 0)
(0.001936024243137437 0 0)
(0.001728824812198281 0 0)
(0.001522051307266243 0 0)
(0.001316867800323126 0 0)
(0.001114996615459437 0 0)
(0.00091907020050471 0 0)
(0.0007324129460690152 0 0)
(0.0005589604996934858 0 0)
(0.0004028401173914744 0 0)
(0.0002681015874543354 0 0)
(0.0001582254968707767 0 0)
(7.596720744941192e-05 0 0)
(2.308510213837484e-05 0 0)
(5.037173553105567e-07 0 0)
(8.313372036363605e-06 0 0)
(4.617306509585553e-05 0 0)
(0.0001133990581056107 0 0)
(0.0002093406408577982 0 0)
(0.0003332824436125702 0 0)
(0.0004843422191497198 0 0)
(0.0006601147685645974 0 0)
(0.0008546924537509411 0 0)
(0.001058423758455157 0 0)
(0.001264029581081962 0 0)
(0.001469511226253696 0 0)
(0.00167461469859253 0 0)
(0.001878082894476527 0 0)
(0.002078664062436108 0 0)
(0.002273586089563801 0 0)
(0.002460174444904026 0 0)
(0.00263440296056653 0 0)
(0.002792711607312947 0 0)
(0.002930741093106483 0 0)
(0.003045259102843413 0 0)
(0.003132883404197791 0 0)
(0.003191874878288139 0 0)
(0.00322060577328538 0 0)
(0.003219069219705961 0 0)
(0.003187085519121627 0 0)
(0.003125612350982142 0 0)
(0.003034892772185821 0 0)
(0.002915919810484418 0 0)
(0.00276920063598921 0 0)
(0.002597391980038035 0 0)
(0.002405874045439899 0 0)
(0.002204504149201578 0 0)
(0.002000682642190676 0 0)
(0.001797034232744679 0 0)
(0.001593685440699278 0 0)
(0.001391598992062041 0 0)
(0.001192088329445634 0 0)
(0.0009973405088229909 0 0)
(0.000810046298813345 0 0)
(0.0006336676772738393 0 0)
(0.0004719028030757697 0 0)
(0.0003287959064548453 0 0)
(0.0002080795337557163 0 0)
(0.0001132049461973387 0 0)
(4.674629780015975e-05 0 0)
(1.05565001823968e-05 0 0)
(5.455910614228078e-06 0 0)
(3.167706965105536e-05 0 0)
(8.8822591670584e-05 0 0)
(0.0001764182474350632 0 0)
(0.0002937159764104154 0 0)
(0.000439704653109471 0 0)
(0.0006115244499072147 0 0)
(0.0008027144054380972 0 0)
(0.001003144135380139 0 0)
(0.001205498009420696 0 0)
(0.001407751461980023 0 0)
(0.001609720444736913 0 0)
(0.001810371724667863 0 0)
(0.002008687312680985 0 0)
(0.002202355810640914 0 0)
(0.002389115473636533 0 0)
(0.00256546937240121 0 0)
(0.002728179023436219 0 0)
(0.002873126082683147 0 0)
(0.002996923465479123 0 0)
(0.003095856675424964 0 0)
(0.003167479340957313 0 0)
(0.003209443697821932 0 0)
(0.003220901822556092 0 0)
(0.003201078959872549 0 0)
(0.003150423849039468 0 0)
(0.003068993220114951 0 0)
(0.002957702851620881 0 0)
(0.002817212093432841 0 0)
(0.002650383003125034 0 0)
(0.002462894353998779 0 0)
(0.002264879343002047 0 0)
(0.00206412225274103 0 0)
(0.001863468903843581 0 0)
(0.00166301021207248 0 0)
(0.001463550367100693 0 0)
(0.001266139950883171 0 0)
(0.001072618636518707 0 0)
(0.0008852681874251446 0 0)
(0.0007071064401078413 0 0)
(0.000541454027593916 0 0)
(0.0003921021745010841 0 0)
(0.0002627470342857259 0 0)
(0.0001570823359661449 0 0)
(7.817378949384419e-05 0 0)
(2.861194096268108e-05 0 0)
(1.00133326321635e-05 0 0)
(2.342615966383169e-05 0 0)
(6.905865165249152e-05 0 0)
(0.0001468782499583823 0 0)
(0.0002562740867631855 0 0)
(0.0003961780722114624 0 0)
(0.0005633913245556596 0 0)
(0.0007510063844435391 0 0)
(0.0009484161908705062 0 0)
(0.001147976348065185 0 0)
(0.00134747533219088 0 0)
(0.001546769600905813 0 0)
(0.001744976335679996 0 0)
(0.001941281836673569 0 0)
(0.00213368954103168 0 0)
(0.0023202800091984 0 0)
(0.002497955221926225 0 0)
(0.002663815981366407 0 0)
(0.002814019591898631 0 0)
(0.002945266263102182 0 0)
(0.003053742657132417 0 0)
(0.003136646565491164 0 0)
(0.003191089861704232 0 0)
(0.003215528035027753 0 0)
(0.003208483588049987 0 0)
(0.003169750361499689 0 0)
(0.003098937210904672 0 0)
(0.00299666981950907 0 0)
(0.002863565464648103 0 0)
(0.002702520789505687 0 0)
(0.002519378190963532 0 0)
(0.002324555390547745 0 0)
(0.002126488187573756 0 0)
(0.001928421677733389 0 0)
(0.001730479864124478 0 0)
(0.001533338678812213 0 0)
(0.001337848067382902 0 0)
(0.001145580097060195 0 0)
(0.0009584841435920014 0 0)
(0.0007792179199403445 0 0)
(0.0006107526709005428 0 0)
(0.0004565957672093961 0 0)
(0.0003202889320368035 0 0)
(0.0002055517040194273 0 0)
(0.0001156982770634956 0 0)
(5.378256287669642e-05 0 0)
(2.207034560856035e-05 0 0)
(2.234135840037029e-05 0 0)
(5.553642615987809e-05 0 0)
(0.00012221365422706 0 0)
(0.000222194619612766 0 0)
(0.0003545906777823117 0 0)
(0.0005161947290417135 0 0)
(0.0006998204816354516 0 0)
(0.0008943408314980094 0 0)
(0.001091402564786118 0 0)
(0.001288477974032785 0 0)
(0.001485399161949385 0 0)
(0.001681441511203001 0 0)
(0.001875914072386285 0 0)
(0.002067096562313003 0 0)
(0.002253313053566672 0 0)
(0.002431821672054384 0 0)
(0.002600002628015362 0 0)
(0.002754320465588555 0 0)
(0.002891614178335119 0 0)
(0.003008134899591194 0 0)
(0.003100890767395203 0 0)
(0.003166689706147148 0 0)
(0.003203444958000646 0 0)
(0.003209103631584412 0 0)
(0.003182789798382161 0 0)
(0.00312357496399648 0 0)
(0.003031612500299011 0 0)
(0.00290724313340917 0 0)
(0.002753126917398039 0 0)
(0.002574990397334092 0 0)
(0.002383463299392014 0 0)
(0.002187867895360295 0 0)
(0.001992131353473939 0 0)
(0.001796450040398197 0 0)
(0.001601415825691345 0 0)
(0.001407698211596046 0 0)
(0.001216678412086749 0 0)
(0.001030019111419452 0 0)
(0.0008501003863022632 0 0)
(0.0006795611767210332 0 0)
(0.0005216498500823801 0 0)
(0.0003796858232177902 0 0)
(0.0002573244043372249 0 0)
(0.0001579525425667917 0 0)
(8.490768276559046e-05 0 0)
(4.090482581056451e-05 0 0)
(2.832194389139798e-05 0 0)
(4.876036712690428e-05 0 0)
(0.0001034250190110648 0 0)
(0.0001926954379858192 0 0)
(0.0003160984504470928 0 0)
(0.0004707316380651302 0 0)
(0.0006495309183787854 0 0)
(0.0008409921199231294 0 0)
(0.001035743143808448 0 0)
(0.001230624993162229 0 0)
(0.001425388355663628 0 0)
(0.001619453847332573 0 0)
(0.001812212215221732 0 0)
(0.002002199673452627 0 0)
(0.002187907819608691 0 0)
(0.002366928261797919 0 0)
(0.002536845314109953 0 0)
(0.002694450799509047 0 0)
(0.002836707671698922 0 0)
(0.002960042425043387 0 0)
(0.003061354138380211 0 0)
(0.003137339856809946 0 0)
(0.003185492351974643 0 0)
(0.003203365651313068 0 0)
(0.00318945717846793 0 0)
(0.003142362203820413 0 0)
(0.003061647468540051 0 0)
(0.002947283121169833 0 0)
(0.002801390804735846 0 0)
(0.002629288264515466 0 0)
(0.002441454827041132 0 0)
(0.002248285197924045 0 0)
(0.002054679102648757 0 0)
(0.001861105811345839 0 0)
(0.00166801350945143 0 0)
(0.001475996926489831 0 0)
(0.001286198047839464 0 0)
(0.001100123586986759 0 0)
(0.0009198399761667578 0 0)
(0.0007477790421611185 0 0)
(0.0005868717350599263 0 0)
(0.0004402783148654107 0 0)
(0.0003114667266593959 0 0)
(0.0002038594049719069 0 0)
(0.0001208837945018644 0 0)
(6.559213470010764e-05 0 0)
(4.076669165057669e-05 0 0)
(4.85833017774685e-05 0 0)
(9.08085012272729e-05 0 0)
(0.0001684192626576179 0 0)
(0.0002814799957487053 0 0)
(0.0004276819233392758 0 0)
(0.0006005407977963252 0 0)
(0.0007885068177039197 0 0)
(0.0009809979990249374 0 0)
(0.001173820381275089 0 0)
(0.001366572299165645 0 0)
(0.001558767094632052 0 0)
(0.001749907471717121 0 0)
(0.001938697701433534 0 0)
(0.002123822042758434 0 0)
(0.002303094901002286 0 0)
(0.00247434438887479 0 0)
(0.002634585169394205 0 0)
(0.00278099307505369 0 0)
(0.002910109789703882 0 0)
(0.003018893595243548 0 0)
(0.003103933801067115 0 0)
(0.003162537754814559 0 0)
(0.003191889512956941 0 0)
(0.003190088273887893 0 0)
(0.003155211430820117 0 0)
(0.003086376291838464 0 0)
(0.002983004324087581 0 0)
(0.002846647122976426 0 0)
(0.002681765341638584 0 0)
(0.002498373620723278 0 0)
(0.002307702136061904 0 0)
(0.002116137450070623 0 0)
(0.00192451997328196 0 0)
(0.00173330847934457 0 0)
(0.001542902547275292 0 0)
(0.001354367930500476 0 0)
(0.001168948288098851 0 0)
(0.0009885698958166187 0 0)
(0.0008153567013144532 0 0)
(0.0006520807859374103 0 0)
(0.0005016196592515875 0 0)
(0.000367355747570984 0 0)
(0.0002525692597015816 0 0)
(0.0001607978420191845 0 0)
(9.519997676941469e-05 0 0)
(5.892361626756121e-05 0 0)
(5.449552434193061e-05 0 0)
(8.422996541249702e-05 0 0)
(0.0001495805780419971 0 0)
(0.0002512548439844235 0 0)
(0.0003876485669779797 0 0)
(0.0005532909880427764 0 0)
(0.0007370378023130258 0 0)
(0.0009271742491708475 0 0)
(0.001118010535118674 0 0)
(0.001308828339347366 0 0)
(0.001499221159382543 0 0)
(0.001688773280194997 0 0)
(0.001876368978038798 0 0)
(0.002060816908056309 0 0)
(0.002240170059406122 0 0)
(0.002412411947577198 0 0)
(0.00257481900515276 0 0)
(0.002724698820694975 0 0)
(0.002858799698601935 0 0)
(0.002974094558488132 0 0)
(0.00306722681685867 0 0)
(0.003135316279741688 0 0)
(0.003175391431554811 0 0)
(0.003185156211779209 0 0)
(0.003162378483226736 0 0)
(0.003105666907718851 0 0)
(0.003014029267052512 0 0)
(0.002888261302596162 0 0)
(0.002731898376165488 0 0)
(0.002553896444964161 0 0)
(0.002366078718520846 0 0)
(0.002176470922041763 0 0)
(0.001986767725513072 0 0)
(0.001797345098130712 0 0)
(0.001608563542859164 0 0)
(0.001421282350435202 0 0)
(0.001236652709255529 0 0)
(0.001056338749090862 0 0)
(0.0008823337540878259 0 0)
(0.0007171251121771692 0 0)
(0.0005634687819080991 0 0)
(0.0004245078938694389 0 0)
(0.0003034951333272475 0 0)
(0.0002038705391191918 0 0)
(0.000128951996274822 0 0)
(8.20015584739653e-05 0 0)
(6.591824472732506e-05 0 0)
(8.331748414132923e-05 0 0)
(0.0001361832422226414 0 0)
(0.0002257033242641747 0 0)
(0.0003511569099919547 0 0)
(0.0005081946955763917 0 0)
(0.0006867486055267709 0 0)
(0.0008742187894937223 0 0)
(0.001063153871503738 0 0)
(0.001252092716624174 0 0)
(0.001440742849123739 0 0)
(0.001628715124516865 0 0)
(0.001815095611364293 0 0)
(0.001998771015239391 0 0)
(0.002178039154162459 0 0)
(0.002350992034667502 0 0)
(0.002515170150835333 0 0)
(0.002667978569776431 0 0)
(0.002806392214650635 0 0)
(0.002927403066259502 0 0)
(0.003027769402711873 0 0)
(0.003104475732201554 0 0)
(0.003154493547169165 0 0)
(0.003175216200562714 0 0)
(0.003164204810315299 0 0)
(0.0031196205422048 0 0)
(0.003040111426350198 0 0)
(0.002925729525256066 0 0)
(0.002779033991378869 0 0)
(0.0026075701332608 0 0)
(0.002423182315427084 0 0)
(0.002235590568047551 0 0)
(0.002047780595102248 0 0)
(0.001860154487991243 0 0)
(0.001672999254994353 0 0)
(0.001487043070639265 0 0)
(0.001303287169801774 0 0)
(0.001123230656570999 0 0)
(0.0009486836854933211 0 0)
(0.0007819471875883082 0 0)
(0.0006255957439087973 0 0)
(0.0004826113114746461 0 0)
(0.0003561272418466801 0 0)
(0.0002495210006920565 0 0)
(0.0001661319603385948 0 0)
(0.0001093253777264926 0 0)
(8.219995168645679e-05 0 0)
(8.7645741245514e-05 0 0)
(0.0001280180445189937 0 0)
(0.0002049910377323942 0 0)
(0.0003186157486184414 0 0)
(0.0004658049619978019 0 0)
(0.0006379354654660177 0 0)
(0.0008222232660754515 0 0)
(0.001009219098856381 0 0)
(0.001196342775818066 0 0)
(0.001383245296322739 0 0)
(0.001569667002421038 0 0)
(0.001754756492303564 0 0)
(0.001937604608697109 0 0)
(0.002116595418939584 0 0)
(0.002290056026935681 0 0)
(0.002455627041798172 0 0)
(0.002610949048450158 0 0)
(0.002753070104294046 0 0)
(0.002879163775596084 0 0)
(0.002985975189304676 0 0)
(0.00307055925146907 0 0)
(0.003129736748398595 0 0)
(0.003160824904119689 0 0)
(0.003161093213106032 0 0)
(0.003128501924566299 0 0)
(0.003061252692701875 0 0)
(0.002958893454252532 0 0)
(0.00282287230169897 0 0)
(0.002659280801862043 0 0)
(0.002479121357385035 0 0)
(0.002293717980066746 0 0)
(0.002107677512756035 0 0)
(0.001921793268550111 0 0)
(0.001736236632330006 0 0)
(0.00155162018756118 0 0)
(0.001368827353605966 0 0)
(0.001189180256681942 0 0)
(0.001014344884615594 0 0)
(0.000846424908602265 0 0)
(0.0006878439481705377 0 0)
(0.0005414029223912911 0 0)
(0.0004101265191127088 0 0)
(0.0002972867652374477 0 0)
(0.0002062169864810063 0 0)
(0.0001403076802900214 0 0)
(0.0001028002671307004 0 0)
(9.676901383859483e-05 0 0)
(0.0001248714364661459 0 0)
(0.000189172607830363 0 0)
(0.0002904193634649383 0 0)
(0.0004267218818207791 0 0)
(0.0005911440728794252 0 0)
(0.0007714310854709769 0 0)
(0.0009563232523908779 0 0)
(0.00114161611175185 0 0)
(0.001326779004303109 0 0)
(0.001511568903130216 0 0)
(0.001695334972143524 0 0)
(0.001877204566402224 0 0)
(0.002055800426876714 0 0)
(0.002229506210796325 0 0)
(0.002396215803076266 0 0)
(0.002553623006755753 0 0)
(0.002699012883233892 0 0)
(0.002829571601031623 0 0)
(0.002942219956282598 0 0)
(0.003033933812990152 0 0)
(0.003101604587343906 0 0)
(0.003142352114857495 0 0)
(0.003153400434587481 0 0)
(0.003132386194338269 0 0)
(0.003077321615512035 0 0)
(0.00298716841900127 0 0)
(0.002862596155677914 0 0)
(0.002708054426133491 0 0)
(0.0025333341603216 0 0)
(0.002350539880507746 0 0)
(0.002166431622261238 0 0)
(0.001982368725817499 0 0)
(0.00179853341709911 0 0)
(0.001615374737398621 0 0)
(0.001433644851115276 0 0)
(0.001254446320652838 0 0)
(0.001079232993030942 0 0)
(0.0009097965124013901 0 0)
(0.0007482308725069316 0 0)
(0.0005968737098540415 0 0)
(0.0004582207310428985 0 0)
(0.0003348093378274859 0 0)
(0.0002290646525790571 0 0)
(0.0001430895951054467 0 0)
(7.834529279000875e-05 0 0)
(3.509154738774842e-05 0 0)
(1.141599333295301e-05 0 0)
(2.211131869220798e-06 0 0)
(1.89120294236937e-07 0 0)
(4.876316856500311e-09 0 0)
(2.513137802368397e-11 0 0)
(1.053238136194381e-13 0 0)
(4.547154614484105e-14 0 0)
(7.602313309890326e-14 0 0)
(5.451318562926295e-14 0 0)
(5.046263146357523e-14 0 0)
(5.766396499190324e-14 0 0)
(6.022220972812702e-14 0 0)
(5.445675376008491e-14 0 0)
(3.185892525675417e-14 0 0)
(5.606819713558997e-14 0 0)
(-2.034682394387358e-15 0 0)
(1.961947985206437e-14 0 0)
(-5.799942110484319e-16 0 0)
(-1.062800202933335e-15 0 0)
(-3.354561112651641e-16 0 0)
(-1.804565772270845e-14 0 0)
(7.006957090012898e-15 0 0)
(-4.022338231098897e-14 0 0)
(-2.737572676069338e-14 0 0)
(-3.193103264516829e-14 0 0)
(-2.771431797575642e-14 0 0)
(-2.534731457397749e-14 0 0)
(-3.720741241361009e-14 0 0)
(-4.49417135953143e-14 0 0)
(-4.310767784691475e-14 0 0)
(-5.881454810224201e-15 0 0)
(-5.740061626903362e-14 0 0)
(-2.092054794707574e-14 0 0)
(-3.173038599915309e-14 0 0)
(-2.652924872293118e-14 0 0)
(-3.295934670576483e-14 0 0)
(-4.303557045848798e-14 0 0)
(-4.045224489151646e-14 0 0)
(-4.933085897604917e-14 0 0)
(-4.614872857459198e-15 0 0)
(-6.415049484387952e-14 0 0)
(-3.672147131785804e-14 0 0)
(-4.290389609707263e-14 0 0)
(-3.796297243985108e-14 0 0)
(-3.655531081417318e-14 0 0)
(-4.974469268342098e-14 0 0)
(-2.086411607789003e-14 0 0)
(-8.077595052552732e-14 0 0)
(-5.422789117950512e-14 0 0)
(-5.551641885915026e-14 0 0)
(-4.712374587032632e-14 0 0)
(-3.909788003117912e-14 0 0)
(-3.45363039390276e-14 0 0)
(-3.295621160195266e-14 0 0)
(-4.679769507062349e-14 0 0)
(-2.894954889007384e-14 0 0)
(-9.878085189825023e-14 0 0)
(-7.26967879210608e-14 0 0)
(-7.576291947992587e-14 0 0)
(-6.807564485587427e-14 0 0)
(-6.665857791864737e-14 0 0)
(-5.655100312747033e-14 0 0)
(-4.449025864185967e-14 0 0)
(-5.992123975914365e-14 0 0)
(1.394180679167197e-14 0 0)
(-8.422769985712062e-14 0 0)
(-8.583914323268852e-15 0 0)
(-3.837680614722214e-14 0 0)
(-2.199902366923011e-14 0 0)
(-1.813030552645367e-14 0 0)
(-6.62760952496864e-15 0 0)
(-2.194572690393698e-16 0 0)
(1.197923178568416e-14 0 0)
(3.176487214146188e-14 0 0)
(4.559695029860337e-14 0 0)
(6.416617036313343e-14 0 0)
(8.053454752958433e-14 0 0)
(9.811620988344363e-14 0 0)
(1.043205803895446e-13 0 0)
(9.182719157355732e-14 0 0)
(1.211560880286938e-13 0 0)
(7.041443232305508e-14 0 0)
(1.239651410723971e-13 0 0)
(1.21196844378668e-13 0 0)
(1.365463127960142e-13 0 0)
(1.491870514926483e-13 0 0)
(1.713177495232641e-13 0 0)
(1.969127373009182e-13 0 0)
(2.034776447490349e-13 0 0)
(2.728041960383906e-13 0 0)
(1.788419987475052e-13 0 0)
(2.556081514573016e-13 0 0)
(2.415346703042301e-13 0 0)
(2.533665522092721e-13 0 0)
(2.623423545129092e-13 0 0)
(2.794318055633992e-13 0 0)
(2.984179944390808e-13 0 0)
(3.220190561722717e-13 0 0)
(3.409143270365517e-13 0 0)
(3.636062086551751e-13 0 0)
(3.725694705435155e-13 0 0)
(3.883829343296639e-13 0 0)
(4.126360976622843e-13 0 0)
(4.41714185809963e-13 0 0)
(4.407642493454279e-13 0 0)
(4.772568580827127e-13 0 0)
(4.310705082616131e-13 0 0)
(4.958229430434438e-13 0 0)
(5.030430871948497e-13 0 0)
(5.276755980925142e-13 0 0)
(5.446239694699519e-13 0 0)
(5.510039057913721e-13 0 0)
(5.848536219886978e-13 0 0)
(6.024070684079194e-13 0 0)
(6.930491907287248e-13 0 0)
(6.074326398689918e-13 0 0)
(7.100414535600136e-13 0 0)
(7.220771172149062e-13 0 0)
(7.613348875420413e-13 0 0)
(7.784306088002065e-13 0 0)
(7.867668499198827e-13 0 0)
(7.972036106145195e-13 0 0)
(8.202999206289801e-13 0 0)
(8.378408266328844e-13 0 0)
(8.633919229567008e-13 0 0)
(8.902597628947924e-13 0 0)
(9.09988971381288e-13 0 0)
(9.300128796292691e-13 0 0)
(9.612416490134593e-13 0 0)
(1.003985654814507e-12 0 0)
(1.042942455172945e-12 0 0)
(1.065559094299132e-12 0 0)
(1.09231093539504e-12 0 0)
(1.113093538773063e-12 0 0)
(1.134478082088889e-12 0 0)
(1.155777977601151e-12 0 0)
(1.168798063862783e-12 0 0)
(1.194123432709902e-12 0 0)
(1.215943755460017e-12 0 0)
(1.235773287269539e-12 0 0)
(1.241733119675966e-12 0 0)
(1.281410993918116e-12 0 0)
(1.256866265927997e-12 0 0)
(1.320812979022203e-12 0 0)
(1.323979433904001e-12 0 0)
(1.34825140785973e-12 0 0)
(1.376796528354012e-12 0 0)
(1.407620869342297e-12 0 0)
(1.434071740469395e-12 0 0)
(1.462657617313537e-12 0 0)
(1.548866702799619e-12 0 0)
(1.456572380753508e-12 0 0)
(1.5430071937164e-12 0 0)
(1.543204705258544e-12 0 0)
(1.573605807228139e-12 0 0)
(1.598404478629422e-12 0 0)
(1.629971839228839e-12 0 0)
(1.658683120226863e-12 0 0)
(1.667690273568769e-12 0 0)
(1.6800300422966e-12 0 0)
(1.703916398479601e-12 0 0)
(1.72797205027011e-12 0 0)
(1.757050138417771e-12 0 0)
(1.788231881244165e-12 0 0)
(1.802471522901194e-12 0 0)
(1.813293901368571e-12 0 0)
(1.879999505844791e-12 0 0)
(1.867374442667498e-12 0 0)
(1.923699718318291e-12 0 0)
(1.951818464689823e-12 0 0)
(1.991637418604964e-12 0 0)
(2.012752342990296e-12 0 0)
(2.038676516671491e-12 0 0)
(2.074281891021271e-12 0 0)
(2.060192734348703e-12 0 0)
(2.146768626984814e-12 0 0)
(2.086615389541161e-12 0 0)
(2.176295034981987e-12 0 0)
(2.20808498795428e-12 0 0)
(2.238034634970115e-12 0 0)
(2.247662538873538e-12 0 0)
(2.27821099072363e-12 0 0)
(2.327930602576223e-12 0 0)
(2.352845272819933e-12 0 0)
(2.403032015145268e-12 0 0)
(2.436894271758096e-12 0 0)
(2.483002243983158e-12 0 0)
(2.543936122283516e-12 0 0)
(2.587304013749484e-12 0 0)
(2.624690127082432e-12 0 0)
(2.675077516053343e-12 0 0)
(2.759606185879693e-12 0 0)
(2.746376047660619e-12 0 0)
(2.845912459585145e-12 0 0)
(2.898397233027652e-12 0 0)
(2.960983311053377e-12 0 0)
(3.010696652698782e-12 0 0)
(3.043806484388852e-12 0 0)
(3.121243549321103e-12 0 0)
(3.162072006674161e-12 0 0)
(3.26955277173781e-12 0 0)
(3.224087495800584e-12 0 0)
(3.35620390686592e-12 0 0)
(3.393185591802657e-12 0 0)
(3.465782056400633e-12 0 0)
(3.523320617239288e-12 0 0)
(3.585389403130527e-12 0 0)
(3.643285365807278e-12 0 0)
(3.703664330727487e-12 0 0)
(3.763052602833263e-12 0 0)
(3.822741844908179e-12 0 0)
(3.861886751496436e-12 0 0)
(3.92970218273418e-12 0 0)
(4.014331175882562e-12 0 0)
(4.093379684190646e-12 0 0)
(4.15293411680014e-12 0 0)
(4.256508542474971e-12 0 0)
(4.262173675120229e-12 0 0)
(4.368613585707775e-12 0 0)
(4.430246592165329e-12 0 0)
(4.513916243538233e-12 0 0)
(4.583173822543704e-12 0 0)
(4.662134547942952e-12 0 0)
(4.738872484718739e-12 0 0)
(4.791752281245792e-12 0 0)
(4.923846746584184e-12 0 0)
(4.866298780434272e-12 0 0)
(5.010529232749828e-12 0 0)
(5.069190160765169e-12 0 0)
(5.178439124395785e-12 0 0)
(5.262074289626633e-12 0 0)
(5.340498912269753e-12 0 0)
(5.414057853747978e-12 0 0)
(5.477678516042114e-12 0 0)
(5.633903875663325e-12 0 0)
(5.617168691347043e-12 0 0)
(5.77080445519321e-12 0 0)
(5.841356832086274e-12 0 0)
(5.939805362976023e-12 0 0)
(6.035328841981819e-12 0 0)
(6.130081085441182e-12 0 0)
(6.280086399036802e-12 0 0)
(6.309797778161123e-12 0 0)
(6.519382605197006e-12 0 0)
(6.508695036194839e-12 0 0)
(6.693374598297727e-12 0 0)
(6.790211685814262e-12 0 0)
(6.905110106571252e-12 0 0)
(7.030746257992178e-12 0 0)
(7.123260037307784e-12 0 0)
(7.308601106322685e-12 0 0)
(7.316570540292515e-12 0 0)
(7.501685881829208e-12 0 0)
(7.593444101119872e-12 0 0)
(7.719265223667275e-12 0 0)
(7.799501936333218e-12 0 0)
(7.909277597408853e-12 0 0)
(8.026301618572519e-12 0 0)
(8.149134987155656e-12 0 0)
(8.258396491203738e-12 0 0)
(8.355045472488669e-12 0 0)
(8.523911570806637e-12 0 0)
(8.519400156375604e-12 0 0)
(8.709766796851496e-12 0 0)
(8.8047228220612e-12 0 0)
(8.936716964074811e-12 0 0)
(9.040855708443063e-12 0 0)
(9.16777098223229e-12 0 0)
(9.263031112514447e-12 0 0)
(9.355372461117877e-12 0 0)
(9.546977467611894e-12 0 0)
(9.546403743609048e-12 0 0)
(9.724878935206725e-12 0 0)
(9.812683788548967e-12 0 0)
(9.915894542176572e-12 0 0)
(9.993018096726404e-12 0 0)
(1.00893723782494e-11 0 0)
(1.024436877716418e-11 0 0)
(1.029574058874256e-11 0 0)
(1.044171102369167e-11 0 0)
(1.054264882703419e-11 0 0)
(1.065137422832157e-11 0 0)
(1.075039334811472e-11 0 0)
(1.085341913061616e-11 0 0)
(1.095935742458921e-11 0 0)
(1.104162254944015e-11 0 0)
(1.120101122883927e-11 0 0)
(1.119321109047739e-11 0 0)
(1.137940804284105e-11 0 0)
(1.145687018860489e-11 0 0)
(1.158028668650181e-11 0 0)
(1.166550194407196e-11 0 0)
(1.175778999591022e-11 0 0)
(1.185164873477518e-11 0 0)
(1.193325862292224e-11 0 0)
(1.208981316844689e-11 0 0)
(1.208415117090634e-11 0 0)
(1.225349066990225e-11 0 0)
(1.234020764221302e-11 0 0)
(1.244939703887139e-11 0 0)
(1.254340626271998e-11 0 0)
(1.26222008276162e-11 0 0)
(1.274095542610083e-11 0 0)
(1.277352288482645e-11 0 0)
(1.28742192851734e-11 0 0)
(1.294345805355499e-11 0 0)
(1.303255770478211e-11 0 0)
(1.311510498898244e-11 0 0)
(1.322141636031172e-11 0 0)
(1.331968305517991e-11 0 0)
(1.339356491235382e-11 0 0)
(1.356660069878293e-11 0 0)
(1.355342699243362e-11 0 0)
(1.372572602945743e-11 0 0)
(1.381172192788462e-11 0 0)
(1.391235562615388e-11 0 0)
(1.400515156481574e-11 0 0)
(1.408865505568433e-11 0 0)
(1.419202883471327e-11 0 0)
(1.426431492403179e-11 0 0)
(1.443340988492943e-11 0 0)
(1.442674151905496e-11 0 0)
(1.459184235765412e-11 0 0)
(1.467288165690478e-11 0 0)
(1.476235752059546e-11 0 0)
(1.484449724129327e-11 0 0)
(1.492360845167797e-11 0 0)
(1.505062718389387e-11 0 0)
(1.508469008715258e-11 0 0)
(1.521468403291341e-11 0 0)
(1.529506809546095e-11 0 0)
(1.538252808738026e-11 0 0)
(1.546244501945312e-11 0 0)
(1.553536753485116e-11 0 0)
(1.561355075449752e-11 0 0)
(1.567153763518584e-11 0 0)
(1.58316129023261e-11 0 0)
(1.58086858879201e-11 0 0)
(1.59846153751938e-11 0 0)
(1.603652955973984e-11 0 0)
(1.612371052741741e-11 0 0)
(1.6228912071987e-11 0 0)
(1.631859798763555e-11 0 0)
(1.641520934767423e-11 0 0)
(1.647442832417269e-11 0 0)
(1.662881651293929e-11 0 0)
(1.660746645576768e-11 0 0)
(1.676004882472276e-11 0 0)
(1.683635098206377e-11 0 0)
(1.694143025758191e-11 0 0)
(1.702740421028138e-11 0 0)
(1.710254637920038e-11 0 0)
(1.721858284265304e-11 0 0)
(1.724901529565885e-11 0 0)
(1.735957786780292e-11 0 0)
(1.743166644557774e-11 0 0)
(1.751503199187859e-11 0 0)
(1.759439401056853e-11 0 0)
(1.769049121357877e-11 0 0)
(1.777966610730107e-11 0 0)
(1.783333908509963e-11 0 0)
(1.798187403499194e-11 0 0)
(1.795291508079133e-11 0 0)
(1.811506578667695e-11 0 0)
(1.818373710126307e-11 0 0)
(1.828505111706514e-11 0 0)
(1.836912206173178e-11 0 0)
(1.84553562280487e-11 0 0)
(1.854961312510094e-11 0 0)
(1.862216256314143e-11 0 0)
(1.878171740304249e-11 0 0)
(1.876583810207738e-11 0 0)
(1.891134767676197e-11 0 0)
(1.897155734607413e-11 0 0)
(1.906677672000524e-11 0 0)
(1.916035016442064e-11 0 0)
(1.923353602854168e-11 0 0)
(1.938169476597373e-11 0 0)
(1.935166674135982e-11 0 0)
(1.951900917921145e-11 0 0)
(1.956201026352777e-11 0 0)
(1.971821367742193e-11 0 0)
(1.969691378190808e-11 0 0)
(1.986066652585904e-11 0 0)
(1.993892812310219e-11 0 0)
(2.002851058032403e-11 0 0)
(2.011090737953458e-11 0 0)
(2.01939782260749e-11 0 0)
(2.034393651311365e-11 0 0)
(2.032330439471957e-11 0 0)
(2.049212660158207e-11 0 0)
(2.056843189402877e-11 0 0)
(2.065476951877254e-11 0 0)
(2.075077893887314e-11 0 0)
(2.08451863209099e-11 0 0)
(2.092628832223356e-11 0 0)
(2.099741128802641e-11 0 0)
(2.114605596655486e-11 0 0)
(2.112842100743505e-11 0 0)
(2.128619824345707e-11 0 0)
(2.135625527394421e-11 0 0)
(2.14502895786228e-11 0 0)
(2.154074672981729e-11 0 0)
(2.1637637114096e-11 0 0)
(2.173756854910671e-11 0 0)
(2.181209937277617e-11 0 0)
(2.196347472675151e-11 0 0)
(2.194819423061673e-11 0 0)
(2.210551374148124e-11 0 0)
(2.218150238843788e-11 0 0)
(2.227545831552108e-11 0 0)
(2.235677036880213e-11 0 0)
(2.242381142939102e-11 0 0)
(2.259022901160741e-11 0 0)
(2.257074747632461e-11 0 0)
(2.272357438337769e-11 0 0)
(2.278604132745894e-11 0 0)
(2.28931615555812e-11 0 0)
(2.297933615492517e-11 0 0)
(2.306698738817932e-11 0 0)
(2.31670881187936e-11 0 0)
(2.324243406946448e-11 0 0)
(2.339637707348786e-11 0 0)
(2.337155332125499e-11 0 0)
(2.354694043556546e-11 0 0)
(2.361212864978389e-11 0 0)
(2.370589333553255e-11 0 0)
(2.379966742659232e-11 0 0)
(2.389877432928815e-11 0 0)
(2.398571075886899e-11 0 0)
(2.4045487783851e-11 0 0)
(2.421099305084882e-11 0 0)
(2.418164534376868e-11 0 0)
(2.434366751039761e-11 0 0)
(2.442902071253512e-11 0 0)
(2.451956251153316e-11 0 0)
(2.461452794205144e-11 0 0)
(2.469819132321856e-11 0 0)
(2.487506447675291e-11 0 0)
(2.485398090340542e-11 0 0)
(2.502237046593905e-11 0 0)
(2.510853879507567e-11 0 0)
(2.520782126358854e-11 0 0)
)
;

boundaryField
{
    inlet
    {
        type            calculated;
        value           uniform (-6.077454955939987e-05 0 0);
    }
    outlet
    {
        type            calculated;
        value           uniform (2.524298374899965e-11 0 0);
    }
    frontAndBack
    {
        type            empty;
    }
}


// ************************************************************************* //
