/*--------------------------------*- C++ -*----------------------------------*\
| =========                 |                                                 |
| \\      /  F ield         | OpenFOAM: The Open Source CFD Toolbox           |
|  \\    /   O peration     | Version:  v2012                                 |
|   \\  /    A nd           | Website:  www.openfoam.com                      |
|    \\/     M anipulation  |                                                 |
\*---------------------------------------------------------------------------*/
FoamFile
{
    version     2.0;
    format      ascii;
    class       volScalarField;
    location    "0.014";
    object      p;
}
// * * * * * * * * * * * * * * * * * * * * * * * * * * * * * * * * * * * * * //

dimensions      [1 -1 -2 0 0 0 0];


internalField   nonuniform List<scalar> 
1000
(
101310.9798212168
101313.6854748064
101306.9587700519
101301.6575455276
101295.8051064802
101290.5449629836
101286.0064678014
101282.096418439
101278.7248614739
101276.4613628654
101275.7508991725
101275.7006279922
101276.0973157365
101277.1751935133
101279.2326104694
101282.3344377844
101286.3638950977
101291.1338741474
101296.4806477988
101302.2829394966
101308.4401821445
101314.85172021
101321.4099438715
101328.0011990154
101334.5073672157
101340.8112018893
101346.812352566
101352.453961136
101357.7558361266
101362.7574337478
101367.2186759054
101370.6903799231
101372.4058369323
101372.8926605407
101373.2074008172
101373.2127726818
101372.7899746759
101371.6702222807
101369.6234168119
101366.5346062255
101362.4166797538
101357.3959392374
101351.6556569428
101345.3726983087
101338.6862800017
101331.7028748413
101324.5192803909
101317.2415431296
101309.9763924358
101302.8109532403
101295.8111750784
101288.9928516256
101282.3951791745
101276.5619086308
101272.4823005602
101269.9618919605
101267.9636471861
101266.6465531625
101265.9730666064
101265.9097731774
101266.4516344442
101267.7810894422
101270.1643986297
101273.7400559401
101278.4752273455
101284.2073068057
101290.7238158956
101297.8187500697
101305.317937657
101313.0821840606
101321.0029187423
101329.0130901801
101337.0786855231
101345.1425834227
101353.1498273531
101360.9417293625
101367.6698218365
101372.5632892755
101376.693157691
101379.8880262078
101382.2139721002
101383.8254858652
101384.6791365316
101384.6837828385
101383.8370551838
101382.0599703668
101379.1414424009
101374.9278206269
101369.4233783811
101362.8127096786
101355.3716314924
101347.3743811458
101339.0547775374
101330.589899628
101322.0779594631
101313.5759783373
101305.1808363415
101297.0164160892
101289.3440564858
101282.8762173181
101278.1286253733
101274.3554017831
101271.3812584606
101269.3246677989
101268.0155956893
101267.5048531212
101267.8058430044
101268.7202755821
101270.3920623287
101272.9762586134
101276.6196380324
101281.3846187091
101287.2086155821
101293.9149104306
101301.2676939725
101309.0382014479
101317.0473790916
101325.1893155949
101333.4251058643
101341.6623413607
101349.7160108095
101357.461817116
101364.3544364084
101369.5523004684
101373.9166655304
101377.4854901466
101380.1716781267
101382.0198545736
101383.1080436714
101383.3361232726
101382.6789364943
101381.2586109639
101378.885139377
101375.418894237
101370.7597460681
101364.9108307417
101357.9896011684
101350.2076382405
101341.8284932599
101333.1108777752
101324.2520132945
101315.3921221754
101306.7007640202
101298.3641110941
101290.5865213103
101283.9031729648
101278.8313467632
101274.9108742941
101271.6827487314
101269.3586871902
101267.8274003793
101267.1465713032
101267.3073463552
101268.0875719606
101269.5393159832
101271.7588158927
101274.8704698069
101278.973489645
101284.1010675503
101290.2036620614
101297.1542778639
101304.7675513067
101312.8339506277
101321.1662005156
101329.6297101018
101338.0753475763
101346.2739007401
101354.0792075783
101361.1553145439
101366.704711881
101371.2199768707
101375.0466116522
101378.012515901
101380.1539091353
101381.566271227
101382.0898081742
101381.6707404817
101380.5174219433
101378.5127317724
101375.5449435052
101371.498516631
101366.3125458221
101360.0101705445
101352.7042085948
101344.5777932211
101335.8601648458
101326.7930456348
101317.6028393884
101308.5428610929
101299.8798523859
101291.8328435602
101284.8329066822
101279.4140062885
101275.3352585165
101271.8959549252
101269.3223279621
101267.576866592
101266.682794189
101266.6107344563
101267.2232107416
101268.4750130891
101270.4294078167
101273.1743795037
101276.8021299623
101281.3723999706
101286.8984675117
101293.3353369335
101300.5729841622
101308.4502567836
101316.7785922997
101325.3675118133
101334.0218137633
101342.4691732341
101350.4567210223
101357.7731008319
101363.7760892168
101368.3865252072
101372.4455457036
101375.6693523082
101378.1043749975
101379.7813442811
101380.6012064068
101380.5154941903
101379.6370008781
101377.9694293108
101375.4105627306
101371.8445307709
101367.1943851949
101361.4532020933
101354.6721800284
101346.9519502903
101338.456420703
101329.409593631
101320.0582718604
101310.6910849409
101301.6465499045
101293.2125241876
101285.7787831538
101279.9275964547
101275.6198035253
101271.9767124878
101269.1663857847
101267.2239921002
101266.06042467
101265.7233439833
101266.1820491554
101267.2306290775
101268.9507509035
101271.3991894922
101274.653535623
101278.7813361217
101283.8198613029
101289.7639403995
101296.5599254879
101304.1059669743
101312.2495185928
101320.8015964225
101329.5628913656
101338.2421473448
101346.4821206906
101354.1148415975
101360.6226521454
101365.4434877661
101369.7163963776
101373.2043953368
101375.8941389697
101377.7910862805
101378.9465194776
101379.2244427197
101378.6055386584
101377.2683585657
101375.065474408
101371.9093439477
101367.7281371017
101362.4920529587
101356.207241229
101348.9234890659
101340.7569929324
101331.8926329815
101322.5533994288
101313.015773901
101303.6508258995
101294.8145147523
101286.8778302081
101280.4658529132
101275.7891466657
101271.9435809514
101268.8941143356
101266.7249649941
101265.3098720556
101264.7314407233
101264.9939182267
101265.8497745241
101267.3451971778
101269.5271920818
101272.4650145867
101276.2228786508
101280.8434010182
101286.3412689097
101292.6996714223
101299.8599188978
101307.7106126911
101316.0958446352
101324.8316343299
101333.6403043874
101342.1327895787
101350.0835538296
101357.085910418
101362.3404054516
101366.7951462976
101370.5371120222
101373.4923887227
101375.6889138904
101377.1691288241
101377.7813936926
101377.4724060631
101376.4106972113
101374.5353509757
101371.767795648
101368.0250121534
101363.2490419842
101357.4188168969
101350.5644950961
101342.7733134526
101334.1865618716
101324.9897408839
101315.4273126087
101305.8573722653
101296.6730724785
101288.2429034615
101281.1915808751
101275.9709443201
101271.9207771152
101268.5905467943
101266.1561556424
101264.5213034508
101263.7208760813
101263.7357169254
101264.4010811546
101265.6920011988
101267.6386511307
101270.2976558357
101273.7302640203
101277.9827076632
101283.0820978763
101289.0312145086
101295.7976175096
101303.3068114249
101311.4384981921
101320.0271679535
101328.841271583
101337.5215942431
101345.7259515949
101353.1584469787
101359.0805165969
101363.6775044897
101367.705873004
101370.9552642503
101373.4533413626
101375.1880755346
101376.1143385481
101376.1690781846
101375.3917444292
101373.8515159261
101371.4486301883
101368.095973581
101363.7206342274
101358.3041897456
101351.871268975
101344.4743381395
101336.2085771426
101327.2300191562
101317.7542518475
101308.0959582549
101298.6491807169
101289.7976817231
101282.1157767171
101276.2327694605
101271.9132132622
101268.2664287211
101265.5187017186
101263.6537451972
101262.5861427529
101262.3336776074
101262.8401097628
101263.9342042959
101265.6726659833
101268.0878448425
101271.2339606806
101275.1606477477
101279.9018605071
101285.4704086598
101291.8517357568
101298.9983568876
101306.8183113397
101315.1746979778
101323.8885111121
101332.6451194085
101341.0280547545
101348.8182989788
101355.4574610805
101360.2998572731
101364.6275693444
101368.1721333017
101370.9383432428
101372.9413537905
101374.2334719089
101374.6527652979
101374.1649211622
101372.9572165875
101370.9029014193
101367.9143700292
101363.9289650845
101358.9268623696
101352.9085310633
101345.8958423231
101337.9620932443
101329.2470268482
101319.9356931093
101310.2886236932
101300.6836428344
101291.5148624199
101283.2674604084
101276.6675199086
101271.8879551271
101267.9570644875
101264.8817303008
101262.7388387978
101261.3791472172
101260.8653178776
101261.1882457647
101262.0943009697
101263.6286682154
101265.818016629
101268.710247418
101272.3532141447
101276.7801848683
101282.0057645853
101288.02587834
101294.8114427939
101302.2968536466
101310.3764037749
101318.9014202186
101327.6154563434
101336.1289579978
101344.166330569
101351.3242992906
101356.7216330968
101361.2306919527
101365.0728930815
101368.1636113613
101370.5126897178
101372.1167076024
101372.8796956044
101372.748299563
101371.8136394832
101370.0722269986
101367.4443204097
101363.8590296245
101359.2611765437
101353.6258635614
101346.9724323744
101339.37256462
101330.9448821393
101321.8432155029
101312.2843139944
101302.6091931531
101293.2062613541
101284.4991428932
101277.1965489662
101271.7647010432
101267.5787426408
101264.1473266714
101261.674994534
101260.0394374533
101259.268647392
101259.3401822598
101260.0553125142
101261.3957672874
101263.3764552222
101266.0354843604
101269.417476739
101273.5564690947
101278.4705946448
101284.1608929159
101290.6075318701
101297.7632732501
101305.5428241287
101313.8192513308
101322.4054364205
101330.9718233172
101339.1358197612
101346.641037349
101352.8267047485
101357.4456124942
101361.6269468811
101365.0342016353
101367.6941840075
101369.5746795996
101370.7084553652
101370.9562040504
101370.3083284472
101368.9291338769
101366.6700313877
101363.4467140725
101359.2007050535
101353.9239012807
101347.6424778442
101340.4023012551
101332.2838798955
101323.4234313348
101314.0165397861
101304.3556710929
101294.8094665329
101285.7678807714
101277.848227453
101271.708901477
101267.2054571551
101263.4221339342
101260.5722278551
101258.6561963502
101257.5961092265
101257.3776842024
101257.9141163846
101259.052643382
101260.8335606938
101263.2745574654
101266.4158329292
101270.2926759007
101274.9254109582
101280.3175913818
101286.4535132593
101293.2943150723
101300.7700072359
101308.7791601377
101317.1783664688
101325.6923858084
101333.9298903971
101341.6797146167
101348.4772904638
101353.4680676449
101357.8651969803
101361.5633102665
101364.5255372338
101366.747821012
101368.2331601457
101368.8596768275
101368.5854353172
101367.5284736858
101365.6139299424
101362.7471771926
101358.8746657023
101353.9834411775
101348.0747953104
101341.167743388
101333.3344967575
101324.7135018075
101315.4809173767
101305.8773184959
101296.2486471048
101286.9663912515
101278.5327671535
101271.6914404567
101266.6402703238
101262.5596320288
101259.3363012663
101257.1058597924
101255.7079833546
101255.1857184718
101255.5213448602
101256.4540216797
101258.0261385576
101260.2502811951
101263.1597439099
101266.7922074292
101271.1703681288
101276.2952010013
101282.1497686089
101288.7008699089
101295.8923021462
101303.6359997018
101311.8055702621
101320.1965865165
101328.4763372385
101336.3257536786
101343.4589489753
101349.1145271802
101353.5816228042
101357.5534356582
101360.8361403469
101363.4022493907
101365.188292484
101366.1787521639
101366.2884630391
101365.5248816997
101363.9641624073
101361.4755618146
101357.997584753
101353.4821688815
101347.9143819396
101341.3241240697
101333.790836665
101325.4354520542
101316.4079955235
101306.9165144447
101297.2752292709
101287.8337361166
101279.017144591
101271.529929925
101265.8198014681
101261.4824671839
101257.8883027614
101255.2985090369
101253.5894204652
101252.7834842771
101252.8500372543
101253.5691667742
101254.9287484363
101256.9359137241
101259.6169064968
101263.0072628661
101267.1325729982
101271.9985695878
101277.5918113886
101283.8809980918
101290.8127209432
101298.3043119488
101306.2466835665
101314.4852243339
101322.7331902476
101330.6266411326
101337.9844249001
101344.3223283324
101348.9351606683
101353.1501775432
101356.6939415164
101359.5388322779
101361.6448811326
101363.011599319
101363.5128003625
101363.1203605942
101361.9510598575
101359.8701572609
101356.7694822498
101352.6043509478
101347.3876482171
101341.1561882753
101333.9591140555
101325.8810751668
101317.0657794214
101307.7142924383
101298.1063777277
101288.5746288856
101279.4852900529
101271.4454697417
101265.0944457887
101260.3543949488
101256.4567958523
101253.4715335411
101251.460297092
101250.3515292691
101250.1129256863
101250.6359298883
101251.7726469618
101253.5580495738
101256.0023816876
101259.142001213
101263.0125555487
101267.6298535546
101272.9830913378
101279.0367350445
101285.7358861575
101293.0050982601
101300.7442380901
101308.8149752293
101316.9861901136
101324.9325960569
101332.3959537638
101339.0732204821
101344.2162543299
101348.4380680013
101352.182976721
101355.2984050095
101357.7238322626
101359.3955249016
101360.2535889493
101360.2604964323
101359.4276344273
101357.7128004783
101354.997051651
101351.2422393203
101346.4364862167
101340.575055342
101333.6824164188
101325.8539997765
101317.2541002159
101308.0698277054
101298.5335686035
101288.9600573863
101279.6875495137
101271.2097195108
101264.2256527658
101258.9161967338
101254.7669519965
101251.4225953039
101249.1196995227
101247.6841280714
101247.1324824509
101247.4405727919
101248.3510885056
101249.9087719859
101252.117268214
101255.0029048713
101258.6077258125
101262.9598399821
101268.0568920539
101273.8703725532
101280.3519463485
101287.4279521911
101294.993349856
101302.917727308
101311.0152063547
101318.9866107367
101326.5103850167
101333.3943502727
101339.1774261953
101343.3751027671
101347.283701294
101350.5981493124
101353.2607183401
101355.189532671
101356.3814723864
101356.7368424768
101356.2359582892
101354.942937596
101352.6728488258
101349.3317777867
101344.8944793886
101339.3745383811
101332.8194071224
101325.3199368357
101317.0083005213
101308.0472354793
101298.6536477753
101289.1245048374
101279.7709080831
101270.9976553001
101263.4702658039
101257.611409458
101253.1721730076
101249.5301909957
101246.8625283865
101245.1093525373
101244.2926292179
101244.3674930776
101245.0696633693
101246.4008459648
101248.3669817462
101250.9928469191
101254.3188991812
101258.3811564388
101263.1958103999
101268.7526543753
101275.0107929315
101281.8979087684
101289.3124363317
101297.1283545934
101305.1731416108
101313.1745680764
101320.8209206877
101327.870951414
101333.9895953281
101338.6226555037
101342.4132207101
101345.8004497105
101348.5997471015
101350.7332682185
101352.1602787932
101352.8150834579
101352.6875724754
101351.7783307217
101349.9197286421
101346.9742996364
101342.9176676561
101337.7729807069
101331.576258333
101324.3835447103
101316.3023383143
101307.5072786019
101298.2238836888
101288.7281896366
101279.3152178694
101270.3184888497
101262.3116732283
101255.8830596565
101250.9886581548
101247.1029711225
101244.0590707497
101242.0031632731
101240.8930548525
101240.671458173
101241.1909173507
101242.3220431945
101244.0799915901
101246.4623788098
101249.5069007539
101253.2665322337
101257.7762484772
101263.035570748
101269.0140406288
101275.6613932217
101282.8978859304
101290.6009014792
101298.6055951234
101306.6683386724
101314.4663795762
101321.7095382926
101328.1229118913
101333.3011938227
101337.0569150727
101340.4844950111
101343.3902584624
101345.6824224478
101347.2792958683
101348.1679533054
101348.3421300853
101347.767979508
101346.3405853851
101343.8634021878
101340.2836840622
101335.5897338376
101329.7829063542
101322.9122101154
101315.1058454072
101306.5579832226
101297.4813997361
101288.1182023618
101278.7515919829
101269.6718846929
101261.3356821249
101254.3779057257
101248.9955367985
101244.8708817425
101241.5049245277
101239.1475508626
101237.7073178479
101237.1763593969
101237.5086514351
101238.4299020168
101239.9801710625
101242.1504371694
101244.9601372698
101248.4505077233
101252.6557654319
101257.590556312
101263.251330065
101269.6110617327
101276.6070970937
101284.1366129049
101292.0629731698
101300.1752737159
101308.1511950891
101315.6794578779
101322.4606060625
101328.0664512548
101332.2592995356
101335.5555939415
101338.4409636398
101340.7159242794
101342.3440124928
101343.3274162298
101343.6880046739
101343.4306429358
101342.4262657532
101340.4164417892
101337.2892627522
101333.0133129743
101327.5937359077
101321.0888928844
101313.6184594551
101305.3520701241
101296.4907194425
101287.278551741
101278.0004846273
101268.9205116228
101260.3846902708
101252.9799398805
101247.122276107
101242.6587307407
101239.0529011357
101236.3144041186
101234.5030400491
101233.6665873404
101233.7610453969
101234.4928202145
101235.852330643
101237.8258135005
101240.4194160397
101243.6646424818
101247.6003956014
101252.2501140845
101257.6098225304
101263.652177496
101270.3373732192
101277.6039579171
101285.3484163135
101293.4061063189
101301.498708852
101309.2955903035
101316.4947306329
101322.6482313784
101327.3857678094
101330.8868402547
101333.780067313
101336.0234101689
101337.5928583419
101338.5068287581
101338.863137337
101338.7590563248
101338.0516529059
101336.4721162294
101333.864954396
101330.1331697679
101325.2231623903
101319.1462188708
101311.9962562915
101303.9577078213
101295.2828640175
101286.2460147509
101277.115832257
101268.1282337954
101259.5342177162
101251.7893802483
101245.427889483
101240.5309396988
101236.7417675988
101233.6404057094
101231.5119782377
101230.3331070011
101230.0655777025
101230.5905923462
101231.7370870293
101233.5218391341
101235.9272744914
101238.9689417991
101242.6744106661
101247.0599356771
101252.1260710749
101257.8653573438
101264.2585451282
101271.2532359044
101278.7535967832
101286.6327666702
101294.6818914744
101302.5888719778
101310.0830100403
101316.7933175708
101322.1833405697
101326.2196644965
101329.4605775004
101331.8690946335
101333.4453931724
101334.1838842535
101334.2281726999
101333.9386294388
101333.2642856436
101332.072056921
101330.1240266167
101327.1389783456
101322.8889119506
101317.281571966
101310.4002368507
101302.4956668368
101293.9242317291
101285.0438035813
101276.1331194457
101267.3636432641
101258.8829104542
101250.9929060863
101244.1727128428
101238.7829281299
101234.6636178573
101231.2215831942
101228.7345855506
101227.1890723466
101226.6011591867
101226.9146499958
101227.8205482925
101229.367723928
101231.5677160164
101234.4329062532
101237.9616160597
101242.1381117855
101246.94581812
101252.3754238234
101258.4344792881
101265.0871334078
101272.4418345832
101279.7699391687
101290.3729864024
)
;

boundaryField
{
    inlet
    {
        type            uniformFixedValue;
        uniformValue    sine;
        uniformValueCoeffs
        {
            frequency       constant 3000;
            scale           constant 50;
            level           constant 101325;
        }
        value           uniform 101323.6440830864;
    }
    outlet
    {
        type            waveTransmissive;
        gamma           1.4;
        fieldInf        101325;
        lInf            2.25;
        value           uniform 101292.2942351578;
    }
    frontAndBack
    {
        type            empty;
    }
}


// ************************************************************************* //
