/*--------------------------------*- C++ -*----------------------------------*\
| =========                 |                                                 |
| \\      /  F ield         | OpenFOAM: The Open Source CFD Toolbox           |
|  \\    /   O peration     | Version:  v2012                                 |
|   \\  /    A nd           | Website:  www.openfoam.com                      |
|    \\/     M anipulation  |                                                 |
\*---------------------------------------------------------------------------*/
FoamFile
{
    version     2.0;
    format      ascii;
    class       volScalarField;
    location    "0.014";
    object      pMean;
}
// * * * * * * * * * * * * * * * * * * * * * * * * * * * * * * * * * * * * * //

dimensions      [1 -1 -2 0 0 0 0];


internalField   nonuniform List<scalar> 
1000
(
101325.0414410987
101325.0027237866
101325.0129891799
101325.0227431067
101325.0360287096
101325.0521022622
101325.0691918814
101325.090545239
101325.1131482212
101325.1378472431
101325.1631694789
101325.1883051074
101325.2134083214
101325.2380751439
101325.2621095497
101325.2849227395
101325.306077681
101325.3251295771
101325.3417052405
101325.3555816538
101325.3663977623
101325.3740174786
101325.378233086
101325.3789473959
101325.3760898485
101325.3697414261
101325.3600518511
101325.3471346644
101325.331188751
101325.3124962641
101325.2912219085
101325.2679743043
101325.2432871107
101325.218335875
101325.1934140313
101325.1687944114
101325.144597685
101325.1211535258
101325.0987741503
101325.0780791361
101325.0594278024
101325.043307247
101325.0299867652
101325.0196853369
101325.0126333638
101325.0088521107
101325.0082711994
101325.0108924401
101325.0165984365
101325.0251960418
101325.0366333303
101325.0505603492
101325.0668531433
101325.0851815689
101325.1049694542
101325.1250327388
101325.1449974373
101325.1645163417
101325.1834729486
101325.2015510627
101325.2186314204
101325.2343973755
101325.2486367846
101325.2609681477
101325.2709485648
101325.2783030415
101325.2826327105
101325.2840458617
101325.2823976468
101325.2777755732
101325.2702009421
101325.2599217415
101325.247102384
101325.2320340957
101325.2147699381
101325.1956155508
101325.1748508324
101325.1535253868
101325.132189941
101325.1112855075
101325.0910721699
101325.0719813448
101325.0541119655
101325.0374220408
101325.022446353
101325.009146485
101324.9976253991
101324.988220975
101324.9812480353
101324.9768180143
101324.9753264938
101324.9767716397
101324.9810739176
101324.9881409342
101324.9978319658
101325.0103499004
101325.0250997215
101325.0419496435
101325.0608029757
101325.0812822607
101325.1025998676
101325.1240796188
101325.1453416132
101325.16604979
101325.185973266
101325.2049070002
101325.2225996198
101325.2387420067
101325.2531658618
101325.2659295611
101325.2765445001
101325.2848359886
101325.2902258435
101325.2927352982
101325.2921075462
101325.2883409209
101325.2814521009
101325.2714946324
101325.259201302
101325.2442941577
101325.226894926
101325.2075465534
101325.186614547
101325.1648905944
101325.1432207784
101325.1218245012
101325.1010172495
101325.0812651397
101325.0626368739
101325.0455231715
101325.0297869057
101325.015674794
101325.0034032487
101324.9930322944
101324.9847857868
101324.9788440315
101324.975542657
101324.9750753358
101324.9774971456
101324.9828188119
101324.9909522889
101325.0021464655
101325.0161131768
101325.0319675253
101325.0498559382
101325.069498568
101325.0900377428
101325.110994867
101325.1316922592
101325.1520524373
101325.1716232438
101325.1902637938
101325.2078466387
101325.223878751
101325.2379733658
101325.2506731211
101325.2613490931
101325.2698958011
101325.2758841131
101325.2791165609
101325.2793744244
101325.2765418581
101325.2704815934
101325.2612990237
101325.249190279
101325.2351476632
101325.2177709212
101325.1983735102
101325.1772797372
101325.1551977004
101325.1331374671
101325.1112154607
101325.0899100825
101325.0694907072
101325.0501552814
101325.0324540087
101325.0160521684
101325.0010782175
101324.9880202333
101324.9767760682
101324.9674752491
101324.9603673764
101324.9555345937
101324.9533642535
101324.9539455697
101324.9573907432
101324.9638084161
101324.9729749899
101324.9863821948
101325.0009717726
101325.017835792
101325.0365203459
101325.0563299391
101325.0766327682
101325.0967933541
101325.1167097533
101325.1358675628
101325.1541753979
101325.1714795997
101325.1875190131
101325.2013691213
101325.2137497747
101325.2243723667
101325.2329788574
101325.239262499
101325.2428968068
101325.2437745317
101325.2416907917
101325.2363571309
101325.2280055618
101325.2159255725
101325.2032703959
101325.1859838143
101325.1666398249
101325.1453125389
101325.1228574993
101325.100165855
101325.0777111582
101325.0557345396
101325.0345890104
101325.0145498254
101324.9959423881
101324.9790863276
101324.9632676908
101324.9491022486
101324.937015674
101324.9267071515
101324.9185157189
101324.9123264001
101324.9086398404
101324.9075394109
101324.9091215839
101324.9137078821
101324.9206453575
101324.9331172996
101324.9463386615
101324.9620123839
101324.9795622177
101324.9985353506
101325.018087794
101325.0377021456
101325.0570422055
101325.0757389272
101325.0936836013
101325.1104217951
101325.1266089129
101325.1402721969
101325.1520431529
101325.1625536489
101325.1710648627
101325.1774129149
101325.1812769317
101325.182489649
101325.1809145143
101325.1761584371
101325.1684559845
101325.1568676943
101325.1446048265
101325.1281812021
101325.1089911396
101325.0875325037
101325.0647059132
101325.0413209583
101325.0182720765
101324.9955174345
101324.9735904935
101324.9527502896
101324.9330661124
101324.91564658
101324.8990456285
101324.883737574
101324.8707763489
101324.8594968202
101324.8502292045
101324.8429058278
101324.8378131295
101324.8351434503
101324.8350171508
101324.8377145747
101324.842925381
101324.8527209167
101324.8654559271
101324.8795678291
101324.8958973783
101324.9138156341
101324.9325263581
101324.9514951191
101324.9702184121
101324.9883742763
101325.0058730133
101325.0220309311
101325.0378387576
101325.0514705407
101325.062828536
101325.0729955364
101325.0813117356
101325.0875497579
101325.0915058401
101325.0928327705
101325.0915108272
101325.0872128947
101325.0798468686
101325.0691180416
101325.0558784363
101325.041574766
101325.0222866291
101325.0009586727
101324.9777837329
101324.9537794704
101324.9299417326
101324.9064423707
101324.8836117755
101324.8618744754
101324.8412129678
101324.8227241225
101324.8054646479
101324.7893155521
101324.7751636005
101324.76294395
101324.7526149422
101324.7442487789
101324.7378579409
101324.7337399906
101324.7321245388
101324.7328884432
101324.7366883915
101324.7427517342
101324.7559997377
101324.7679258424
101324.7830169825
101324.7996641987
101324.8174865328
101324.8356038545
101324.8537305745
101324.8713214593
101324.888248474
101324.9040366887
101324.9190968612
101324.9328858332
101324.9440888183
101324.953473871
101324.9615556265
101324.9675595267
101324.9714899956
101324.9728193888
101324.9716084324
101324.9676442737
101324.960456534
101324.9505393445
101324.9360345087
101324.9241044032
101324.904741831
101324.8836880712
101324.8603297859
101324.8357442014
101324.8110831835
101324.7868036435
101324.7630603342
101324.7402881281
101324.7187565198
101324.6988053901
101324.6811889268
101324.6642104524
101324.6485492758
101324.6353835339
101324.6239927675
101324.6145466675
101324.6070295508
101324.6015263059
101324.598433019
101324.5974702297
101324.59961669
101324.6027256939
101324.6150463657
101324.6255680023
101324.639011071
101324.6542608993
101324.6709338109
101324.688080577
101324.7054685067
101324.7223917072
101324.7386499063
101324.7541021752
101324.768164859
101324.7822610237
101324.7933332768
101324.8017910087
101324.8095408002
101324.8152229303
101324.8189382928
101324.8202740184
101324.8190030531
101324.8151244469
101324.8081442975
101324.7984959145
101324.7841336115
101324.7718093115
101324.7540784447
101324.7329592627
101324.7096416121
101324.6845945164
101324.6590866453
101324.633883014
101324.6092382266
101324.5853104802
101324.5628076531
101324.5412972422
101324.5229402273
101324.5051579658
101324.4881420947
101324.4738732844
101324.4613980314
101324.4508413158
101324.4422556022
101324.4354473177
101324.4309055498
101324.4284592289
101324.4286868828
101324.4305346046
101324.4383593546
101324.4497005347
101324.4609041103
101324.474785572
101324.4900897755
101324.5062044641
101324.5225670295
101324.5388185957
101324.5543682003
101324.5692591311
101324.5826589353
101324.5959809643
101324.6072692643
101324.6153333696
101324.6224179682
101324.6277616847
101324.6311454581
101324.6323501134
101324.6309958415
101324.6270198521
101324.6202378959
101324.6104570991
101324.5972983277
101324.5817101163
101324.5677036602
101324.5460481197
101324.5230097774
101324.4976732675
101324.4713892779
101324.4451635544
101324.4195850356
101324.3945289261
101324.3707800676
101324.3481832651
101324.3279495215
101324.309639777
101324.2918230789
101324.27583114
101324.2622418193
101324.2504702644
101324.240720114
101324.2327863713
101324.2267506915
101324.2229075849
101324.2210834172
101324.2220964983
101324.2240852927
101324.237337962
101324.2458099599
101324.2581887222
101324.2719241978
101324.2867896121
101324.3019651292
101324.3172817178
101324.3320426551
101324.3461130228
101324.3590843229
101324.3710517993
101324.3826457846
101324.3907928026
101324.3965268898
101324.4014318933
101324.4043178341
101324.4051471678
101324.4036871256
101324.3994265717
101324.3926383374
101324.3825815049
101324.3701703267
101324.3518920029
101324.3405822138
101324.3189668993
101324.2958884895
101324.2703965986
101324.2434117362
101324.2161465528
101324.1893633145
101324.16320063
101324.1380142116
101324.11423238
101324.0919496813
101324.0730177
101324.0544437073
101324.0362882301
101324.0214780542
101324.0083799804
101323.9973183472
101323.9881870984
101323.9807143047
101323.9753395929
101323.9717130402
101323.9710436008
101323.970039015
101323.9808753944
101323.9890894672
101323.9990517066
101324.0112189483
101324.0245701942
101324.038486621
101324.0525060662
101324.0664631439
101324.0795159551
101324.0919427091
101324.1027034198
101324.1140005009
101324.1223740072
101324.1268938518
101324.1312935186
101324.1335837299
101324.1339492338
101324.1321716467
101324.1277515453
101324.120679008
101324.1105071754
101324.0979293555
101324.0803272069
101324.0655920273
101324.0476174455
101324.0237770786
101323.9983687913
101323.9708761194
101323.9425794213
101323.914520987
101323.8872008715
101323.8605153114
101323.8353670381
101323.8113651198
101323.7905373069
101323.7712853997
101323.7517007796
101323.7352966484
101323.7207879216
101323.7083455503
101323.697845687
101323.6892006792
101323.6822006836
101323.6770534372
101323.6741233094
101323.6727103445
101323.6758055444
101323.6870147758
101323.6939153702
101323.7044206773
101323.7160771701
101323.7285261601
101323.7411074369
101323.7538010814
101323.7658680415
101323.7772936726
101323.7874224223
101323.7969160646
101323.8056706812
101323.8100788606
101323.812917682
101323.8146175172
101323.8142680991
101323.8118957899
101323.8072199196
101323.7996990821
101323.7893678805
101323.7759760006
101323.7600012686
101323.7390785334
101323.7266446982
101323.7014678457
101323.676144277
101323.6482422989
101323.6190229989
101323.5896198871
101323.5607380201
101323.532608024
101323.5057007827
101323.4802775144
101323.4566997259
101323.4366449256
101323.4163732444
101323.3969619077
101323.381062347
101323.3668352743
101323.3547537181
101323.3446342351
101323.3360213668
101323.3291817073
101323.3238036374
101323.3215034707
101323.317455555
101323.3307085579
101323.3348647284
101323.3431862597
101323.3528429026
101323.3636082932
101323.3745553854
101323.3856067313
101323.3964325733
101323.4065368405
101323.4158872895
101323.423566192
101323.4322482323
101323.4370439264
101323.4375297657
101323.4386527173
101323.4372878144
101323.4341300034
101323.4288143803
101323.4208825201
101323.4100726521
101323.3958947631
101323.3798974949
101323.3571040793
101323.3439827834
101323.3207995227
101323.2944484919
101323.2661764525
101323.2362040102
101323.2054273769
101323.1749284064
101323.1451222719
101323.1162966044
101323.0891266986
101323.0631551505
101323.0412074982
101323.0201967121
101322.9981203844
101322.98056325
101322.9645172241
101322.95066063
101322.9388066707
101322.9287692308
101322.9201210436
101322.9127079921
101322.9080421339
101322.9029745668
101322.9081048897
101322.9155289122
101322.9201665393
101322.9279557876
101322.9368424355
101322.9461353749
101322.9554510145
101322.9646385371
101322.9734206335
101322.981590321
101322.9882672084
101322.9949658471
101323.0001283246
101322.9999144846
101322.999617365
101322.99750255
101322.9933468039
101322.9871961464
101322.978810863
101322.967435549
101322.9527900214
101322.9356441599
101322.914817857
101322.8932644012
101322.8770358557
101322.8486902904
101322.8204142164
101322.7897316212
101322.7579073845
101322.7258135482
101322.6941261118
101322.663435036
101322.6341465624
101322.6065982595
101322.5811348061
101322.5592077314
101322.5361753777
101322.5151473083
101322.4974649177
101322.4814362427
101322.4676413194
101322.4558286352
101322.4455411455
101322.4362893614
101322.4284547557
101322.4236588789
101322.4170395097
101322.4308684715
101322.4305287149
101322.4364777193
101322.4429948016
101322.4505949569
101322.458018125
101322.4653117212
101322.4723450425
101322.4789656136
101322.4848995195
101322.4890514564
101322.4944334037
101322.4948018354
101322.4912659938
101322.4885263642
101322.4831539829
101322.4759113624
101322.4665733139
101322.4547129611
101322.4395074198
101322.4207726342
101322.4009389717
101322.3723984939
101322.3617530332
101322.3319164369
101322.3030372652
101322.2715932507
101322.2389432568
101322.205343921
101322.1718387809
101322.1388330822
101322.1073325046
101322.0776968041
101322.0490643122
101322.0256227937
101322.0019443796
101321.9764647013
101321.9569467768
101321.9386391865
101321.9225662286
101321.9085578942
101321.8965017421
101321.8853235592
101321.8747966811
101321.8676666035
101321.8578018131
101321.866005357
101321.8676448581
101321.8695214269
101321.8739276667
101321.8795245141
101321.8852890946
101321.8907528049
101321.895723478
101321.9007061473
101321.9053245503
101321.9080155327
101321.9119247277
101321.9129110648
101321.90743994
101321.9037469138
101321.8974352813
101321.8890792448
101321.87867671
101321.8661381641
101321.8505319977
101321.8309214061
101321.8096964825
101321.7834378044
101321.7622101816
101321.7412631662
101321.709384514
101321.6778282707
101321.6443708346
101321.6098528644
101321.5748034424
101321.5396224293
101321.5058061295
101321.4736080007
101321.44321601
101321.4156431327
101321.3906847484
101321.3637779449
101321.340672025
101321.3202929334
101321.3017714867
101321.2853047999
101321.2709784437
101321.2581414068
101321.2454092776
101321.2344327834
101321.2257242402
101321.2178833972
101321.2296073039
101321.2247866333
101321.2271521308
101321.2299841058
101321.2339063839
101321.2374367821
101321.2401171708
101321.242699616
101321.2452586821
101321.2473457993
101321.2477668169
101321.2488743458
101321.2441749861
101321.236556225
101321.2294946794
101321.219728466
101321.2078716668
101321.1939260726
101321.1776691535
101321.15734576
101321.133483037
101321.1095996546
101321.0747006152
101321.0670428181
101321.0293509961
101320.9976534045
101320.9627584164
101320.9273298865
101320.8909809494
101320.8538444164
101320.8171103971
101320.7821473233
101320.7495672467
101320.717630664
101320.6916342169
101320.6641992254
101320.6349662619
101320.6126263101
101320.5913376191
101320.5722475912
101320.5551086404
101320.5401590454
101320.5255526446
101320.5110323725
101320.5008086499
101320.484767145
101320.4972839521
101320.4906761347
101320.4892575052
101320.489332368
101320.4910284774
101320.4930020975
101320.4939485521
101320.4939772277
101320.494172156
101320.4948224367
101320.4925776029
101320.4939222477
101320.4901009541
101320.4780136159
101320.470613565
101320.4595673929
101320.4466468106
101320.4312443132
101320.4139608652
101320.3931863066
101320.3681648328
101320.3421818799
101320.3098712617
101320.2891652367
101320.2623750459
101320.2262635119
101320.1908693605
101320.1542290003
101320.1170605488
101320.0789781094
101320.0398840347
101320.0020500477
101319.966476001
101319.9323244872
101319.9023745241
101319.8734812196
101319.8413886869
101319.8154369087
101319.7915875391
101319.7698658715
101319.7498559466
101319.7321233047
101319.7154826897
101319.6987320163
101319.6840134352
101319.6706338622
101319.6616115429
101319.670646033
101319.660631094
101319.6586306209
101319.6573904867
101319.6574439909
101319.6573069375
101319.6553060776
101319.6529100983
101319.6508889561
101319.6486650654
101319.6453025314
101319.6418069166
101319.6316279507
101319.6197805287
101319.6082100141
101319.5940804002
101319.5775815101
101319.5588278324
101319.5372993769
101319.5117554056
101319.4828059243
101319.4544765464
101319.4125142747
101319.4091634794
101319.3623337785
101319.3273019399
101319.2886491731
101319.2503935488
101319.2117574317
101319.1716817999
101319.131231462
101319.0922007683
101319.0563243374
101319.0206665694
101318.9914133428
101318.9597498435
101318.926099212
101318.9003635122
101318.8755889652
101318.8531476325
101318.8323942946
101318.8133914334
101318.7941579488
101318.7760928838
101318.762293634
101318.7401520403
101318.7567996388
101318.7415009646
101318.7363510388
101318.7318265239
101318.7294380908
101318.7276326343
101318.724863914
101318.7204876136
101318.7152926619
101318.7115155014
101318.7039813451
101318.7029482498
101318.6946328268
101318.6754792011
101318.6644082204
101318.6487781403
101318.6314858925
101318.6115315856
101318.5893244781
101318.5621136563
101318.5328579139
101318.5021107565
101318.4643712833
101318.443140064
101318.411676242
101318.3701868144
101318.3307507894
101318.2907399606
101318.2508500949
101318.2103839029
101318.1691331721
101318.1275618607
101318.0882797743
101318.0496459537
101318.0172791539
101317.9848191565
101317.9466484386
101317.9173585801
101317.8897979554
101317.86463367
101317.8413305246
101317.820239928
101317.7980949361
101317.7773592603
101317.759019375
101317.7419959178
101317.7283288476
101317.7413672316
101317.7213618674
101317.7159127471
101317.710552142
101317.7067040334
101317.7023327536
101317.6969708169
101317.6907732933
101317.683631454
101317.6754398194
101317.6676564192
101317.6612547224
101317.645723903
101317.6285794533
101317.6134886085
101317.5948335801
101317.5731037802
101317.5496429928
101317.5243858236
101317.490609882
101317.4491246793
101317.3989758259
101317.3656340624
)
;

boundaryField
{
    inlet
    {
        type            calculated;
        value           uniform 101324.9999999998;
    }
    outlet
    {
        type            calculated;
        value           uniform 101317.3782873529;
    }
    frontAndBack
    {
        type            empty;
    }
}


// ************************************************************************* //
