/*--------------------------------*- C++ -*----------------------------------*\
| =========                 |                                                 |
| \\      /  F ield         | OpenFOAM: The Open Source CFD Toolbox           |
|  \\    /   O peration     | Version:  v2012                                 |
|   \\  /    A nd           | Website:  www.openfoam.com                      |
|    \\/     M anipulation  |                                                 |
\*---------------------------------------------------------------------------*/
FoamFile
{
    version     2.0;
    format      ascii;
    class       volScalarField;
    location    "0.014";
    object      rho;
}
// * * * * * * * * * * * * * * * * * * * * * * * * * * * * * * * * * * * * * //

dimensions      [1 -3 0 0 0 0 0];


internalField   nonuniform List<scalar> 
1000
(
1.176301870983502
1.17632633207248
1.176273061193548
1.176229576011918
1.176178676880075
1.176132284078293
1.176092916264537
1.176059498549645
1.176030676023059
1.176010920247705
1.176004191988674
1.176002922593099
1.176005298829584
1.176013726790859
1.176030582538561
1.176056222584735
1.176089659411602
1.176129345533157
1.176173907793085
1.176222312489759
1.176273694317868
1.176327190448748
1.176381883510161
1.176436806176805
1.176490956801338
1.176543351574649
1.176593161105574
1.176639925328223
1.176683821505407
1.176725192689137
1.176762063946905
1.176790708479051
1.176804786263482
1.176808709042977
1.176811253393686
1.176811243744638
1.176807704508278
1.176798438783872
1.176781509156036
1.176755951215319
1.176721865982356
1.176680292436253
1.176632743490599
1.176580682220264
1.176525262049694
1.176467366269603
1.176407798602858
1.176347439919238
1.176287177431284
1.176227736893243
1.17616966937318
1.176113109607602
1.176058384703856
1.17601000425326
1.175976171506458
1.175955272933151
1.175938707695543
1.175927792719333
1.175922213646866
1.175921694669334
1.175926195305
1.17593722455227
1.175956989821179
1.175986641803176
1.176025908571102
1.176073441457443
1.176127478452068
1.176186311348662
1.176248495903421
1.17631287785641
1.176378556813672
1.176444976587362
1.176511854883582
1.176578717784433
1.176645109383152
1.176709713862024
1.176765496746912
1.176806067863279
1.176840307399757
1.176866794636509
1.176886077693292
1.176899437621117
1.176906514608582
1.176906552913248
1.176899532840098
1.176884799775784
1.176860603526426
1.176825669894642
1.176780033896027
1.176725225492377
1.176663530999461
1.176597223765757
1.176528242191625
1.17645805438218
1.176387474624765
1.176316975732194
1.176247361089683
1.176179658074476
1.176116034043464
1.176062397608276
1.176023026204759
1.175991734781133
1.175967069915155
1.175950014284818
1.175939157888789
1.175934922185119
1.175937418346603
1.175945001903673
1.175958866307647
1.175980297361317
1.176010512096719
1.176050027873184
1.17609832531323
1.176153938527363
1.176214911663704
1.176279347409223
1.176345760806502
1.176413273514074
1.176481562865445
1.176549862605929
1.17661663875261
1.176680860849315
1.176738007832431
1.176781102805539
1.176817286822214
1.176846874847192
1.176869145005908
1.176884467433348
1.176893489094512
1.176895379978642
1.176889931529904
1.176878156224678
1.176858478721653
1.176829741250297
1.17679111339105
1.176742620755042
1.176685236668425
1.176620714886758
1.176551240168128
1.176478957311252
1.176405501441742
1.176332035206846
1.176259964650632
1.176190833714943
1.176126337293783
1.176070913858889
1.176028853700939
1.175996341184534
1.1759695700365
1.175950296223094
1.175937596943053
1.175931950666396
1.175933283993122
1.175939754548423
1.175951794121067
1.175970200752521
1.175996005964268
1.176030032325821
1.176072554811483
1.17612316221956
1.176180801016068
1.176243933680831
1.176310822381661
1.176379913974909
1.176450092304207
1.176520120756667
1.1765880988614
1.176652814901221
1.176711483711111
1.176757493591617
1.176794928971117
1.1768266546424
1.176851243975713
1.176868997431448
1.176880706708966
1.176885047106697
1.176881572778113
1.176872011074081
1.176855390950758
1.176830785999207
1.1767972380958
1.17675424197611
1.176701989077689
1.176641414303655
1.176574035569845
1.176501753176879
1.176426571074498
1.1763503663855
1.176275239586892
1.176203402712228
1.17613667235523
1.176078623687846
1.17603368536152
1.175999860304439
1.175971337853132
1.175949994351384
1.175935518869163
1.175928104106253
1.175927506476722
1.175932585857072
1.175942967295983
1.175959175418834
1.17598193979179
1.176012024897858
1.176049925941829
1.176095752733911
1.176149131768614
1.176209150259131
1.176274471472127
1.176343531472326
1.176414750562788
1.17648651003842
1.176556551890814
1.176622779632132
1.176683441154978
1.176733212175162
1.176771436906609
1.176805089480945
1.176831817176407
1.176852005117963
1.176865908213186
1.176872705345629
1.176871994717111
1.176864711444607
1.176850886204395
1.176829671458336
1.176800106389623
1.176761552779814
1.176713952871913
1.176657730722915
1.176593720204824
1.176523279853378
1.17644826657268
1.176370726489683
1.176293052781102
1.176218052568194
1.176148113156835
1.176086467257736
1.176037944124205
1.176002219630536
1.175972007160659
1.175948700663491
1.175932591967082
1.175922942198396
1.175920146681854
1.175923950816709
1.17593264691217
1.175946912219708
1.175967217497624
1.175994206088623
1.17602843797824
1.176070221993812
1.176119514932755
1.176175871534361
1.176238446809311
1.176305975409382
1.176376889933218
1.176449537505429
1.176521503032548
1.176589824524834
1.176653109568701
1.176707066597792
1.176747036076022
1.176782462236991
1.176811380487685
1.176833680380269
1.176849407324668
1.176858986579664
1.176861290715151
1.176856159584308
1.176845073463374
1.176826810020742
1.176800643327927
1.176765977641315
1.176722565585387
1.176670457762155
1.176610066507051
1.176542354745774
1.176468854934461
1.176391415646594
1.176312329195262
1.176234672499822
1.17616139750288
1.176095581084916
1.176042407509619
1.176003623659622
1.175971732051813
1.175946442315464
1.17592845306373
1.175916717309726
1.17591192020204
1.175914096980876
1.175921194799313
1.175933596681316
1.175951692387552
1.175976056156811
1.176007220367876
1.176045538227054
1.176091131253445
1.176143859697415
1.176203236483881
1.176268337449272
1.176337869397762
1.176410306463018
1.176483346020909
1.176553762105912
1.176619684920291
1.17667774290351
1.17672130825804
1.176758242280995
1.176789266358927
1.176813767885357
1.176831978642768
1.17684425061037
1.176849326675918
1.176846764943239
1.176837962632526
1.176822414670196
1.176799469532281
1.176768438746606
1.176728841528376
1.176680502854869
1.176623672343215
1.176559072814973
1.176487875274224
1.176411617374778
1.176332325818243
1.176252969802747
1.176176809562418
1.176106901154666
1.176048425758375
1.176005131164864
1.175971542787123
1.175943924617945
1.175923735630279
1.175910177329843
1.175903539133654
1.175903662195101
1.175909180233915
1.175919886174848
1.175936030199877
1.175958081819779
1.175986548849177
1.176021814509484
1.176064103387307
1.176113438229586
1.176169549662822
1.176231819541896
1.176299249926664
1.176370468043917
1.17644355365974
1.176515528180813
1.176583554503088
1.176645179571779
1.176694280329624
1.176732394060408
1.176765792943674
1.176792733111581
1.176813444089801
1.176827826283328
1.176835505641053
1.176835959451581
1.1768295147829
1.176816745150488
1.176796823370373
1.176769027049991
1.17673275146085
1.176687843551588
1.176634507129957
1.176573176750976
1.176504641098771
1.176430193453862
1.176351621015472
1.17627153288671
1.17619319654263
1.176119794565616
1.17605609008397
1.176007302559104
1.175971480132805
1.175941236711526
1.175918449124031
1.175902982472976
1.175894128482315
1.175892034687833
1.175896234679989
1.175905308333651
1.175919725880334
1.175939755525727
1.175965846813162
1.175998411208577
1.176037730083804
1.176083909395404
1.176136828101486
1.17619609205782
1.176260938300079
1.176330231247076
1.176402486280025
1.176475094356516
1.176544602306692
1.176609194404231
1.176664241297755
1.176704390116734
1.17674027116104
1.176769658797387
1.176792592975235
1.176809199486532
1.176819912093949
1.176823388328843
1.176819343724563
1.176809330924665
1.176792299025177
1.176767521580397
1.176734478907855
1.176693006370086
1.176643107502685
1.176584963214744
1.176519180754388
1.176446918310577
1.176369709822047
1.176289715277888
1.17621006754099
1.176134034885405
1.176065641127272
1.176010908231467
1.175971270944345
1.17593867136485
1.175913166815978
1.175895395127236
1.175884118708275
1.17587985731776
1.17588253546165
1.175890049682372
1.175902774685664
1.175920931576743
1.175944917513027
1.175975129215449
1.176011842390706
1.176055177913807
1.176105101694181
1.176161372208981
1.176223445061152
1.17629044332164
1.176361133844389
1.176433389954912
1.176503981509267
1.176570623553545
1.17662997272586
1.176674723084493
1.176712108043072
1.176743963651059
1.176769588481905
1.176789064304043
1.17680236287851
1.17680868863232
1.176807599241559
1.176799850155715
1.176785412422216
1.176763624818362
1.1767338994365
1.176695778555097
1.176649055419541
1.176593889987373
1.176530876126898
1.176460996899672
1.176385527351892
1.176306264361775
1.176226035459517
1.176148061497349
1.176075855719123
1.176015295916298
1.175970249231104
1.175935534305029
1.175907076632497
1.175886572733103
1.17587300841517
1.175866615928949
1.175867209180204
1.175873140022472
1.17588425691238
1.175900683430407
1.175922735528921
1.175950783148412
1.175985108394791
1.17602586142975
1.17607305060427
1.176126511138829
1.176185850952554
1.176250362394632
1.176318992562615
1.176390189589197
1.176461220701955
1.176528913634142
1.1765911428153
1.176642430023842
1.176680726166238
1.176715393876326
1.176743643337949
1.176765696997922
1.176781287910569
1.176790687835244
1.176792741859566
1.176787370421705
1.176775935720733
1.176757205765763
1.176730481433196
1.176695277672368
1.176651526999598
1.176599446061021
1.176539414711032
1.176472100001229
1.176398630916078
1.176320628786166
1.176240518476648
1.176161356808918
1.176086377691366
1.176020700844511
1.17596978704513
1.175932439129135
1.175901062941169
1.1758774276262
1.175861537168381
1.175852745380493
1.17585093386501
1.175855382718293
1.175864825000089
1.175879594853785
1.175899838898364
1.175925890409789
1.175958041898151
1.175996461720985
1.176041179099407
1.176092063510434
1.176148792356434
1.176210784896132
1.176277199699162
1.176346847315069
1.176417445262346
1.176485748718241
1.176550006967725
1.176606368422261
1.176647748287899
1.176684205564151
1.176714866834381
1.176739426599926
1.176757851377798
1.17677016614117
1.176775360498026
1.176773086782841
1.176764323622325
1.176748450303243
1.176724682164811
1.176692575033097
1.176652021233044
1.176603031127703
1.176545761957491
1.176480811981276
1.176409328652486
1.176332772199453
1.176253137140233
1.176173291967129
1.176096317338919
1.176026378370281
1.175969642893392
1.175927752553789
1.175893910575512
1.175867178234023
1.175848680167572
1.175837086876278
1.175832755452834
1.175835538953271
1.175843274081207
1.175856312366706
1.175874758113731
1.175898887344501
1.175929012424352
1.175965321400485
1.176007822130674
1.176056373881033
1.176110701013083
1.176170337125591
1.176234551604292
1.176302296067068
1.176371875158208
1.17644052998035
1.176505615007247
1.176564760077044
1.176611652608932
1.17664869043875
1.176681621352945
1.176708838484824
1.176730114098121
1.176744922095556
1.176753133915184
1.176754043504447
1.17674771268736
1.176734772822012
1.176714139839342
1.176685303715143
1.176647865717649
1.176601701715156
1.176547059213357
1.176484596432509
1.176415315611558
1.176340460267963
1.176261755150877
1.176181805628815
1.176103510719666
1.176030395993674
1.175968304166345
1.175920948898489
1.175884977964794
1.175855170046434
1.175833691605209
1.175819517195554
1.175812833100314
1.175813385040349
1.175819349155069
1.175830624878998
1.175847271291624
1.175869505952099
1.175897623454825
1.175931835865181
1.175972190515903
1.17601857568269
1.176070731501519
1.176128214747999
1.176190339566797
1.176256201059076
1.176324516909375
1.176392909290323
1.176458360503466
1.176519368715486
1.176571919416127
1.176610166097371
1.176645113898794
1.176674495839359
1.176698083093024
1.176715544418533
1.176726875869867
1.176731031310142
1.176727777579014
1.176718082881852
1.17670083003035
1.176675122038546
1.176640588202148
1.176597335047271
1.176545667435595
1.17648599239528
1.176419011328227
1.176345915348414
1.176268371270254
1.176188698671571
1.176109655491211
1.176034279040911
1.175967604462939
1.175914934061553
1.175875623165518
1.175843298613122
1.175818540237629
1.175801859858264
1.175792664142613
1.175790685227817
1.175795022798217
1.17580445026164
1.175819257623181
1.17583952975203
1.175865568072154
1.175897668075628
1.175935960676038
1.175980356033701
1.1760305591846
1.1760861145545
1.176146396171724
1.176210573377426
1.176277498834354
1.176345255897614
1.176411147279124
1.176473031865944
1.176528397235166
1.176571040615142
1.176606045233702
1.176637095301256
1.176662925922558
1.176683035452459
1.176696895590075
1.17670400984757
1.176704067101385
1.176697161760632
1.176682943900062
1.176660427238731
1.17662929528613
1.176589449294347
1.176540849636267
1.176483698771306
1.176418787485599
1.176347477587962
1.176271320155774
1.176192241860187
1.176112852469362
1.176035957101787
1.175965650090523
1.175907729647998
1.175863696341695
1.175829284626233
1.175801547944032
1.175782448540716
1.175770542346749
1.175765967141435
1.17576852231915
1.1757760738187
1.175788992698298
1.175807309108198
1.175831241297008
1.175861137825508
1.175897231636519
1.175939502970038
1.175987715122828
1.176041466950934
1.176100147278587
1.176162884737553
1.176228597625238
1.176295744397921
1.176361844188246
1.176424230787275
1.176481310955274
1.176529261955623
1.176564066940555
1.176596474658882
1.176623955755044
1.17664603173609
1.176662023882226
1.176671906422194
1.176674852831712
1.176670699909013
1.17665997924474
1.176641157476797
1.176613455778629
1.176576664582273
1.176530896188409
1.176476543638831
1.176414359777953
1.176345440081187
1.176271133513817
1.176193238337703
1.176114216925211
1.176036649136991
1.175963892159116
1.175901465734271
1.175852875906455
1.17581605899229
1.175785853777332
1.175763728992029
1.175749188576982
1.175742414841843
1.175743035710353
1.175748859299098
1.175759899759098
1.175776206294548
1.175797984295895
1.175825569185845
1.175859259521496
1.175899189378856
1.175945273854487
1.175997173502214
1.176054288280089
1.176115775611393
1.176180590170703
1.176247301117657
1.176313650957661
1.176377055002546
1.176435513071475
1.176486247230963
1.17652466273647
1.176556092215284
1.176584177139933
1.176607387072367
1.176625076698957
1.176636908384532
1.176642337511836
1.176641280270797
1.176633741504523
1.176618331323654
1.176593909819615
1.176560274652837
1.176517617443499
1.176466236466263
1.176406595974226
1.176339586839966
1.176266656698335
1.17618967519353
1.176110931085439
1.176032870832489
1.175958260446212
1.175891857862477
1.17583854260724
1.17579795055581
1.175765723934982
1.175740478565168
1.175723427236026
1.175714220142098
1.175712382214601
1.175716690488374
1.175726071825612
1.175740651885354
1.175760410807122
1.175785661127192
1.175816842063099
1.175854243496043
1.175897861217156
1.175947442346406
1.176002569722401
1.176062581722146
1.176126461201223
1.176192840918777
1.17625970046346
1.176324363503856
1.176384424039349
1.176437602927283
1.17648053987857
1.176511680920848
1.176540100840973
1.176564193873302
1.17658319912206
1.176596439362249
1.176603807501105
1.176605251636134
1.176600491135551
1.176588656083236
1.176568116763022
1.176538435643973
1.176499515460631
1.17645136708179
1.176394396428285
1.17632966603206
1.176258785491113
1.176183518787697
1.176105873299487
1.176028197405148
1.175952898755068
1.17588376432284
1.175826060295949
1.175781421037609
1.175747212284199
1.175719295658148
1.175699743865176
1.175687798645646
1.175683394868029
1.175686150826186
1.175693791553404
1.175706649298968
1.175724649158264
1.175747952236441
1.175776900415464
1.175811777314575
1.175852704187934
1.175899651333255
1.175952394327808
1.176010413251192
1.176072855076735
1.176138586432424
1.176205858176752
1.176271997446052
1.176334423165814
1.176390652520664
1.176437135424634
1.176471901449167
1.176499233171504
1.176523157437032
1.176542020304014
1.176555519535557
1.176563673346672
1.176566663118605
1.176564529196055
1.176556201431566
1.17653953700282
1.176513607864574
1.176478153281167
1.17643321555754
1.176379278189495
1.176317333046002
1.176248786277374
1.176175304157014
1.176098910921705
1.17602196914677
1.175946668143903
1.175875878053077
1.17581446687137
1.175765885492267
1.175728865870637
1.175698959596791
1.17567624665164
1.175661223180048
1.175654285596395
1.175655068985575
1.175661138277311
1.175672414015473
1.17568878197477
1.175710293044888
1.175737208408063
1.175769850570371
1.175808413733027
1.175852864689202
1.175902976395806
1.175958418436102
1.176018680875568
1.176082904971119
1.17614972513897
1.176216833259934
1.176281487621597
1.176341184025279
1.176392208849145
1.176431491876202
1.176460521948646
1.176484511685741
1.176503112641808
1.176516125831446
1.176523704034639
1.176526658352103
1.176525795325988
1.176519929821501
1.176506832953897
1.176485215332806
1.176454272491089
1.176413559689892
1.176363170107338
1.176303882019031
1.176237224270201
1.176165288484484
1.176090348879359
1.176014633306597
1.175940098216737
1.175868825346503
1.175804593480172
1.175751833334724
1.175711218942589
1.175679791846808
1.175654069131196
1.175636415790031
1.175626638072725
1.175624419093372
1.175628773538137
1.175638282596018
1.17565308538916
1.175673036058404
1.175698263462262
1.17572899613429
1.175765368720487
1.175807385609929
1.175854984689765
1.175908006031454
1.175966014762616
1.176028215805397
1.176093556813822
1.176160305599076
1.176225873989449
1.176288017369071
1.176343659737739
1.176388353304888
1.176421821636972
1.176448694491337
1.176468665503978
1.176481736424842
1.176487860570348
1.176488229597474
1.176485832274319
1.176480245324429
1.176470365284653
1.176454218816
1.176429472416761
1.176394232730564
1.176347731399437
1.176290655576478
1.176225081206758
1.176153959872624
1.176080256609997
1.176006284595498
1.175933476481277
1.175863077203394
1.175797615874032
1.175741080152102
1.175696465598552
1.175662463878696
1.175634184954829
1.175613947601445
1.175601673722038
1.175597260438015
1.175600526872693
1.175609068669071
1.175622837818781
1.175641921634577
1.175666451643177
1.175696351680031
1.175731368627907
1.175771069986598
1.175814744915276
1.175861529270319
1.17591045917456
1.175963152995437
1.176016950912659
1.176108375742773
)
;

boundaryField
{
    inlet
    {
        type            calculated;
        value           uniform 1.176395973595895;
    }
    outlet
    {
        type            calculated;
        value           uniform 1.176129308183987;
    }
    frontAndBack
    {
        type            empty;
    }
}


// ************************************************************************* //
