/*--------------------------------*- C++ -*----------------------------------*\
| =========                 |                                                 |
| \\      /  F ield         | OpenFOAM: The Open Source CFD Toolbox           |
|  \\    /   O peration     | Version:  v2012                                 |
|   \\  /    A nd           | Website:  www.openfoam.com                      |
|    \\/     M anipulation  |                                                 |
\*---------------------------------------------------------------------------*/
FoamFile
{
    version     2.0;
    format      ascii;
    class       volScalarField;
    location    "0.014";
    object      T;
}
// * * * * * * * * * * * * * * * * * * * * * * * * * * * * * * * * * * * * * //

dimensions      [0 0 0 1 0 0 0];


internalField   nonuniform List<scalar> 
1000
(
299.9865001424106
299.9882734794181
299.9819407316517
299.9773329214532
299.9729832824581
299.9692380098905
299.9658379144711
299.9627812165484
299.9601471595486
299.958482199548
299.9580941001196
299.9582689863509
299.9588377976179
299.9598805555767
299.9616748189443
299.9643217117658
299.9677271360958
299.97173152846
299.9762001235863
299.9810373163299
299.9861659024911
299.9915078076307
299.9969783031241
300.0024875350022
300.007941219193
300.0132431397611
300.0183077575743
300.0230841339917
300.0275857774124
300.031842072522
300.0356460114707
300.0386183811223
300.0401064804017
300.0405472117432
300.0408300595915
300.0408484191761
300.0404994024192
300.0395475831846
300.0378058511269
300.0351797848259
300.0316816634038
300.0274202837768
300.022552240147
300.0172278970252
300.0115651605099
300.0056539169466
299.9995757286594
299.9934199004247
299.9872761776401
299.9812174669763
299.9752985488906
299.9695318733676
299.963950139044
299.9590136318284
299.9555601763196
299.9534256118751
299.9517322794038
299.9506152180691
299.950043441968
299.9499883455999
299.9504453324824
299.9515698620482
299.9535874896927
299.9566148177866
299.9606238062598
299.9654766678504
299.9709933466556
299.9769992754793
299.9833468851038
299.9899182752647
299.9966215268694
300.003399909776
300.0102246876845
300.0170475903896
300.0238221853616
300.0304142688988
300.036106100533
300.0402457458647
300.0437393726543
300.0464420292054
300.0484096393615
300.0497728936181
300.0504950314652
300.0504990166112
300.0497828574917
300.0482796658068
300.0458108637404
300.0422464361428
300.0375899085286
300.0319973243219
300.0257019133219
300.0189356024002
300.0118961605787
300.0047333846831
299.9975303636775
299.9903353445345
299.9832303193048
299.9763201550363
299.9698260913372
299.9643512825008
299.9603324450642
299.9571383155188
299.9546205670898
299.9528795377462
299.9517713160924
299.9513389345187
299.9515937492282
299.9523678889263
299.9537831708598
299.9559708332216
299.9590550805636
299.9630886796591
299.9680185588613
299.9736950305441
299.9799184066498
299.986494993056
299.9932732029633
300.0001633776266
300.0071325774218
300.0141025975162
300.0209169017528
300.0274703557214
300.0333016529935
300.0376989631877
300.0413910250684
300.0444100115049
300.046682296839
300.0482456710404
300.0491661627816
300.0493590960458
300.0488031958137
300.0476017568355
300.0455940269094
300.0426618505892
300.0387204543716
300.0337723914078
300.0279169070865
300.0213328848021
300.0142432059112
300.0068667009489
299.9993702157964
299.9918723979777
299.9845167520028
299.9774608779079
299.9708778027524
299.9652206190933
299.9609273455496
299.9576085839803
299.9548758399148
299.9529083860824
299.9516120460017
299.9510356731359
299.9511717865756
299.9518323143748
299.9530613230114
299.9549402650066
299.9575744168872
299.9610477117146
299.9653881723727
299.9705537710163
299.9764369132487
299.982880611716
299.9897074498084
299.9967588807891
300.0039209745577
300.0110675219656
300.0180045867694
300.024608543631
300.0305952194855
300.0352900243489
300.0391098178043
300.0423469549601
300.0448558983869
300.0466673319896
300.0478620550379
300.048304915837
300.0479504352332
300.0469748525321
300.0452790731568
300.0427685532542
300.0393454996515
300.0349583084985
300.0296264503679
300.0234452516474
300.0165695349
300.0091931593273
300.0015205865111
299.9937433624721
299.9860758556253
299.9787438522421
299.9719328059791
299.9660076926227
299.9614206501658
299.9579679200972
299.955056413979
299.9528776917854
299.9514000371973
299.9506431363164
299.9505821370121
299.9511006560467
299.9521604090172
299.9538149393203
299.9561387056399
299.9592097187547
299.9630784902515
299.9677561819697
299.9732046147124
299.9793305629432
299.9859975364216
299.9930458698874
300.0003143087431
300.007637637803
300.0147854236953
300.0215437498877
300.027733863158
300.0328125233227
300.0367129098398
300.0401467008236
300.0428738606417
300.044933712894
300.0463522874796
300.0470458154065
300.0469733173888
300.0462302053148
300.0448195923589
300.0426549857274
300.0396383237334
300.0357044445122
300.0308473994272
300.0251103935112
300.0185784462773
300.011390121482
300.003734857064
299.9958214270855
299.9878940543166
299.9802392475591
299.9731007069614
299.9668084527294
299.9618555114154
299.9582089022836
299.9551248877345
299.9527457860818
299.9511014119009
299.9501163603815
299.9498309966767
299.9502193374088
299.9511070553463
299.9525632728749
299.9546360328706
299.957390985955
299.9608852626279
299.9651503460108
299.9701817773876
299.9759340538764
299.982320872773
299.9892130340263
299.9964505237629
300.0038646240907
300.0112088535002
300.0181809588
300.0246388914002
300.0301447769714
300.0342232477798
300.0378380536337
300.0407887600839
300.0430641252901
300.0446688053475
300.0456462094613
300.0458813130008
300.0453577822985
300.0442266462885
300.0423631684637
300.0396932582571
300.0361560945849
300.0317263877531
300.0264092416097
300.0202466636581
300.0133368444179
300.0058361025781
299.9979330363334
299.9898615561706
299.9819356872192
299.9744567467745
299.9677388429843
299.9623112324304
299.9583523426413
299.9550969281977
299.9525153787237
299.9506790351406
299.9494810416363
299.9489913492445
299.9492135667099
299.9499381344468
299.9512041407962
299.9530513623209
299.9555383997418
299.9587195703
299.9626308923586
299.9672847265253
299.9726667583498
299.9787272181711
299.985371725351
299.99246824276
299.999861001671
300.0073149813941
300.0145009692869
300.0212281912036
300.0271526431437
300.031598096583
300.0353668094158
300.0385324241124
300.0410324592682
300.0428905901401
300.044142749664
300.044660680371
300.0443993075633
300.0435011912411
300.0419147803103
300.0395735782471
300.0364073082011
300.0323668705391
300.0274343517092
300.0216351585751
300.0150429810935
300.0077772485731
299.9999948197197
299.991902483173
299.9838032502953
299.9760298852693
299.9688943582395
299.9629255981613
299.9585062771433
299.9550776617662
299.9522584263116
299.9501975298118
299.9488134844066
299.9481358464095
299.9481484153467
299.9487117191924
299.9498046083758
299.9514526135199
299.9537036478994
299.9566095252814
299.9602093324117
299.9645259553228
299.9695616702994
299.9752889312259
299.9816445919079
299.9885267459562
299.9957952407096
300.0032540672238
300.0105992357992
300.0175412420796
300.02382980416
300.0288401711571
300.0327293118439
300.0361372873094
300.0388861823085
300.0409994435904
300.0424669289516
300.0432504868086
300.0432967974102
300.0426392345794
300.0413363031885
300.0393035852463
300.0364673473402
300.0327658474816
300.0281834185537
300.0227407976793
300.0164822620642
300.0094882251228
300.0018906010596
299.9938717264848
299.9856978461301
299.9777024423663
299.9702103819172
299.9637079064966
299.9587279006464
299.9550712397934
299.9519840189216
299.9496578519543
299.9480789937647
299.9471751608627
299.9469614255604
299.9473901802241
299.9483164493107
299.949788224709
299.9518328733545
299.9544962645957
299.9578203721306
299.9618338824167
299.9665475695131
299.9719490316486
299.9779979883556
299.9846165151235
299.9916886625517
299.9990628702018
300.0064728441625
300.0135661879727
300.0201576473251
300.0257748686662
300.0298717290001
300.0335330303735
300.0365316959308
300.038871828936
300.0405662885318
300.041659352559
300.0420140522795
300.0416013712429
300.0405797271465
300.0388418742749
300.0363136681343
300.0329420497043
300.0287101746154
300.0236183482904
300.0176849677968
300.0109719321119
300.0035973666794
299.9957177555294
299.9875534954562
299.9794243114041
299.971663799062
299.9646827202822
299.9590958560404
299.9550497859752
299.9517220487343
299.9491185275739
299.9473043616646
299.9461532372632
299.9457182241106
299.9459916249353
299.9467587087776
299.9480577166349
299.9499112093104
299.952359711871
299.9554436960661
299.9591912734379
299.9636147445561
299.9687105867238
299.9744541005674
299.98078967139
299.9876277469807
299.9948424264775
300.0022166321405
300.0094207055193
300.0162214914742
300.0222778508074
300.0268443328662
300.0306591494625
300.0339096877403
300.0365244001754
300.0385116551448
300.03986859072
300.0405140424257
300.0404028924614
300.0396122219034
300.0381390608032
300.0359159227288
300.032882791952
300.0289929234431
300.0242251681478
300.0185957869301
300.0121653139714
300.0050340022389
299.997331911776
299.9892423739324
299.9810539361395
299.9730953355966
299.9657252015927
299.959543577105
299.954945330683
299.9514016566966
299.9484966718288
299.9464035894983
299.9450189035953
299.9443663360877
299.9444269038129
299.9450323567646
299.9461672142472
299.9478440836612
299.950095203662
299.9529583152876
299.9564621862048
299.9606221094114
299.9654388972106
299.9708956861174
299.9769524102706
299.9835367955699
299.9905413351777
299.9978076077595
300.0050566945142
300.011964867903
300.0183152526953
300.0235488723858
300.0274567297309
300.0309942675357
300.0338768337083
300.0361271522698
300.0377180065847
300.0386771445273
300.0388867335246
300.0383386607712
300.037171911686
300.0352607598862
300.0325338450691
300.0289416374753
300.0244772024989
300.0191625893644
300.0130364963225
300.0061669281094
299.9986690355959
299.9907082290702
299.9825319494285
299.9744521757823
299.9667990087132
299.9600950906062
299.9548979488335
299.9510854969855
299.9478825812614
299.9454698294533
299.9438476755505
299.9429501736185
299.9427652509692
299.9432194200393
299.9441833378845
299.9456911056857
299.9477576792701
299.9504170600886
299.9536990806507
299.9576208940518
299.9621854454717
299.9673793704191
299.9731696973271
299.9794971067806
299.9862756751072
299.9933839652045
300.000589001024
300.0075596300892
300.0141172181784
300.0198687573007
300.024091359777
300.0278115685392
300.0309402843874
300.0334463588611
300.035326399085
300.0365829718501
300.0371129908715
300.0368809942726
300.0359868346902
300.0343671595049
300.0319418827065
300.0286656498926
300.0245274300481
300.0195282262494
300.0136840213086
300.0070557988224
299.9997605923108
299.9919473677311
299.9838196378113
299.9756701465459
299.9678133378437
299.9606743958955
299.9548830001605
299.9506068536292
299.9471522178436
299.9444233016263
299.9425349431982
299.9413514456842
299.9409092742951
299.9411934376282
299.9419830908805
299.9433141092722
299.9451971310414
299.9476603164408
299.950735527046
299.9544419276848
299.9587802848996
299.9637361940901
299.9692814786069
299.9753684904486
299.9819226163393
299.9888368157286
299.9959380278389
300.0029446734093
300.0095867830609
300.0156225175207
300.0204077526417
300.0241872713591
300.0275476435131
300.0303249216846
300.0324958909449
300.034006888071
300.0348448118187
300.0349376296442
300.0342916527342
300.0329712927533
300.0308659126726
300.0279234437629
300.024103159434
300.0193923403633
300.0138161814138
300.0074417862701
300.0003713691842
299.9927317772693
299.9846989857284
299.9765388734998
299.9685473315488
299.9610842479012
299.9547460941921
299.9499120776414
299.9462401007457
299.9431972051069
299.9410045842447
299.9395575825201
299.9388752297875
299.9389315834201
299.9395404512118
299.9406915541298
299.9423909154322
299.9446607307036
299.9475310504461
299.9510234934056
299.9551428573573
299.9598777003143
299.9652014569102
299.9710688455264
299.9774098214123
299.9841319877855
299.9911044351677
299.9980844623936
300.0047641005362
300.0109901151084
300.0163528676862
300.0202558205247
300.0238220705789
300.026820305433
300.0292271977519
300.031008968779
300.0321652335704
300.0325892554755
300.0322572539532
300.0312680185869
300.0295075335425
300.0268842467783
300.0233602955601
300.018946501427
300.0136739158196
300.0075840107546
300.0007482982218
299.9932882736712
299.9853739961505
299.9772421696787
299.96917427459
299.9614803477844
299.9546744063504
299.9492978111374
299.9452848689349
299.9419850507725
299.9394575825966
299.9377547428645
299.9368159808666
299.9366139661806
299.9370567912709
299.9380192265967
299.9395308680098
299.941600369746
299.9442584831353
299.9475353458538
299.951444289153
299.9559761052683
299.9611006456668
299.9667713682089
299.9729243406173
299.9794747427311
299.9863054389431
299.9932207888468
299.9999455074067
300.0062611058464
300.0119112247492
300.0162629368443
300.0198350568503
300.0230035754761
300.0256394354555
300.0276914689273
300.029105784941
300.0298317322271
300.0298375803357
300.0291329637861
300.0276821576848
300.025384502149
300.0222076717101
300.0181415459443
300.0131820252839
300.0073497052542
300.0007252172315
299.9934474747776
299.9856747233458
299.9776035611756
299.9695003360353
299.9616513741234
299.9544746430481
299.9485621066995
299.9440670653475
299.9405541580833
299.9377226254965
299.9357728187385
299.9345573410436
299.934090270194
299.9343511376308
299.9351220742685
299.9364409479155
299.9383108288773
299.9407539816845
299.9438059643919
299.9474905256733
299.9518056129135
299.9567270250958
299.9622137749755
299.9682034381491
299.9746070366094
299.981314131558
299.9881673612144
299.9949135153705
300.0012805021753
300.0071057606173
300.0119992215785
300.0155510453102
300.0188581762636
300.0216625171813
300.0239152590618
300.0255471606123
300.0265556082687
300.0268562715116
300.026432505118
300.0253385464389
300.023417907168
300.0205910876736
300.0168366635382
300.0121660416013
300.0066192684346
300.0002731055027
299.9932392856159
299.9856554244668
299.9777050112901
299.9696393439566
299.9617217468455
299.954294928238
299.9479224063845
299.9429622003387
299.9392037379703
299.9361201814153
299.9338615036095
299.9323770914342
299.9316855677941
299.9317489651453
299.9323435131589
299.9334706396525
299.9351353619476
299.937358636662
299.9401746847317
299.9436139562342
299.9476901048158
299.9523944256842
299.9576922279011
299.9635222206345
299.9697983612116
299.9764139199303
299.9832228287084
299.9899946653777
299.9964656446219
300.0024316640627
300.0076092691919
300.0115296248413
300.0147369959986
300.0176030151696
300.0199715201426
300.0217766768095
300.0229840456803
300.023538060133
300.0234301816286
300.02266090304
300.0210883759333
300.0185962576019
300.0151638660341
300.0108107067427
300.0055671583325
299.9994805313552
299.9926416749596
299.98519827057
299.97734108978
299.9693037063356
299.9613358216657
299.9537197908904
299.9469413515383
299.9414987206687
299.9373548350674
299.9340648871289
299.9314876048026
299.9297468310336
299.9288068748597
299.9286192503071
299.9290591058411
299.9300168722999
299.9315053679621
299.9335225581194
299.9361003315902
299.9392835016708
299.943101630311
299.9475542518783
299.952615512102
299.9582427861286
299.9643684975758
299.9708887868748
299.9776640701982
299.9844881119345
299.9910877581451
299.9972174779497
300.0026447121269
300.0070265895019
300.0102045963287
300.0131048661572
300.0155635450667
300.0175029998662
300.0188541351042
300.0196060349103
300.0197534110855
300.0192676296804
300.0180599091246
300.0159639226532
300.0129349944972
300.0089631562169
300.0040494602648
299.9982352644959
299.9916289348228
299.9843946802657
299.9767124872523
299.9687872081423
299.9608585295744
299.953172220003
299.9461148865068
299.9402241998085
299.9356671151678
299.9321747863108
299.9293247707361
299.9273287040471
299.9261092007124
299.9256596195149
299.9259410029496
299.9267210879734
299.9280337762016
299.9298714151071
299.9322504394631
299.9352057296907
299.938766212071
299.9429442325242
299.9477367223296
299.953120732426
299.9590431490912
299.9654168596116
299.972126143221
299.978992439873
299.9857429321227
299.9921142052235
299.9978529006115
300.0025967664075
300.0061447868051
300.0089340674885
300.0113755769696
300.0133005443192
300.0146781414057
300.0155102383878
300.0158153481627
300.0155975937561
300.0147477651317
300.0130471747067
300.010401095347
300.0067828813914
300.0021967971771
299.9966921204907
299.990370007481
299.9833739022705
299.9758738154585
299.9680763173725
299.9602225410355
299.952535963133
299.9453095899442
299.9390404258938
299.9340808634001
299.9303015409324
299.9272483693206
299.9249295466157
299.9233957543762
299.9226874750422
299.9227674723015
299.9233871360527
299.9245383341297
299.9262094009256
299.9284055223104
299.9311533431903
299.9344857627423
299.9384225767239
299.9429603609366
299.9480759003121
299.9537354259633
299.9598868445057
299.9664424613289
299.9732628560445
299.9801124219104
299.9867113292569
299.9928040214133
299.9980115378284
300.0020206184301
300.0049832762895
300.0074315133768
300.0093297890064
300.0106578132695
300.0114311884783
300.0117326893391
300.0116446292406
300.0110460621751
300.0097095170943
300.0075033965717
300.0043455724415
300.0001906116283
299.995047963306
299.9889969849077
299.9821936373799
299.9748513383133
299.9672021719555
299.9594735210061
299.9518650921134
299.9445894064405
299.9380322617256
299.9326460619288
299.9284997148986
299.9252912527644
299.922665130031
299.9208628252434
299.9198645776486
299.9196380502787
299.9200826521521
299.9210535121533
299.9225648191122
299.9246016764023
299.9271772220422
299.9303147620787
299.9340280131425
299.9383173905869
299.9431765185838
299.9485890357196
299.9545105167381
299.9608597740458
299.9675293690591
299.9743424810545
299.981034941144
299.9873776727259
299.9930567600965
299.9976183018221
300.0010341144484
300.0037766811736
300.0058147201137
300.007148381617
300.0077730708057
300.0078100872282
300.0075641956891
300.0069924316937
300.0059821622124
300.0043321901902
300.0018049262907
299.9982080283503
299.9934640894579
299.9876441874636
299.9809611273894
299.9737171907822
299.9662157996245
299.9586924056559
299.951289437645
299.9441263987376
299.9374527936524
299.9316708000041
299.927084789086
299.9235549765119
299.9205715812514
299.9183660750883
299.916918313547
299.9163023436339
299.9163978334678
299.9169026741782
299.9179738871244
299.9196233506729
299.9218541433727
299.9246806547974
299.9281207600921
299.9322355853203
299.9371787579666
299.9431929298855
299.9504175984154
299.9587609809947
299.9667432207883
299.9748265733228
)
;

boundaryField
{
    inlet
    {
        type            fixedValue;
        value           uniform 300;
    }
    outlet
    {
        type            inletOutlet;
        inletValue      uniform 300;
        value           uniform 299.9751774411362;
    }
    frontAndBack
    {
        type            empty;
    }
}


// ************************************************************************* //
