/*--------------------------------*- C++ -*----------------------------------*\
| =========                 |                                                 |
| \\      /  F ield         | OpenFOAM: The Open Source CFD Toolbox           |
|  \\    /   O peration     | Version:  v2012                                 |
|   \\  /    A nd           | Website:  www.openfoam.com                      |
|    \\/     M anipulation  |                                                 |
\*---------------------------------------------------------------------------*/
FoamFile
{
    version     2.0;
    format      ascii;
    class       volVectorField;
    location    "0.014";
    object      U;
}
// * * * * * * * * * * * * * * * * * * * * * * * * * * * * * * * * * * * * * //

dimensions      [0 1 -1 0 0 0 0];


internalField   nonuniform List<vector> 
1000
(
(-0.002639000328142304 0 0)
(-0.03434117754696387 0 0)
(-0.04264629798596052 0 0)
(-0.05795572594210142 0 0)
(-0.07193403618926511 0 0)
(-0.08485109201086057 0 0)
(-0.09580407337245377 0 0)
(-0.1051222030735252 0 0)
(-0.1130536081317673 0 0)
(-0.1183193036929422 0 0)
(-0.1198052474576113 0 0)
(-0.1196108359462215 0 0)
(-0.1186883951784783 0 0)
(-0.116199997225036 0 0)
(-0.1115071114372772 0 0)
(-0.1043971025698319 0 0)
(-0.09510266872136874 0 0)
(-0.08400850396567895 0 0)
(-0.07143243623195457 0 0)
(-0.05758303960634481 0 0)
(-0.04262566597408706 0 0)
(-0.02675593616151005 0 0)
(-0.0102341783649688 0 0)
(0.006619203175584349 0 0)
(0.0234447311530593 0 0)
(0.03987296659225176 0 0)
(0.05556685953383918 0 0)
(0.07027709094241595 0 0)
(0.08393467267464028 0 0)
(0.09655641866011112 0 0)
(0.1074947021909691 0 0)
(0.1155183394246567 0 0)
(0.1187904759500539 0 0)
(0.1190192284336921 0 0)
(0.1182875111316102 0 0)
(0.1164850274542747 0 0)
(0.1137182478505258 0 0)
(0.1092263779510499 0 0)
(0.102566223626219 0 0)
(0.09354798718447649 0 0)
(0.0822988417273724 0 0)
(0.06922605011111428 0 0)
(0.05487124137075521 0 0)
(0.03974390745484504 0 0)
(0.02423724984708991 0 0)
(0.008640514408930057 0 0)
(-0.00679805789813499 0 0)
(-0.02181734166493106 0 0)
(-0.03616040202668472 0 0)
(-0.04963458427073213 0 0)
(-0.06212295678285359 0 0)
(-0.07362304317634931 0 0)
(-0.08410685552495455 0 0)
(-0.09238726492723981 0 0)
(-0.09614871857538004 0 0)
(-0.09644675706313839 0 0)
(-0.09508303011821582 0 0)
(-0.09239366196010006 0 0)
(-0.08871714318535572 0 0)
(-0.08356284196847144 0 0)
(-0.07812479224091884 0 0)
(-0.07145325183428242 0 0)
(-0.06304385514608979 0 0)
(-0.05262860468499574 0 0)
(-0.04037349559984491 0 0)
(-0.0267459873158065 0 0)
(-0.01230660730512839 0 0)
(0.002417416240738319 0 0)
(0.01698769472360715 0 0)
(0.03106635494408094 0 0)
(0.04440871326932062 0 0)
(0.05689228933348467 0 0)
(0.06848167210735211 0 0)
(0.07910298094627996 0 0)
(0.08877451675073279 0 0)
(0.0971926042289534 0 0)
(0.1023927997078528 0 0)
(0.1035890700427514 0 0)
(0.1023314963066267 0 0)
(0.09913077209268767 0 0)
(0.09433189383902431 0 0)
(0.08871675162063944 0 0)
(0.08260627671987628 0 0)
(0.0748675902035412 0 0)
(0.06731738296871945 0 0)
(0.05886771715758514 0 0)
(0.04927957718535719 0 0)
(0.03824496727628895 0 0)
(0.0257691598349119 0 0)
(0.01221601065278141 0 0)
(-0.001860442989452935 0 0)
(-0.01591845541615305 0 0)
(-0.02954789064197897 0 0)
(-0.0425148778187184 0 0)
(-0.05477695704339156 0 0)
(-0.06636728829648557 0 0)
(-0.07721752389836252 0 0)
(-0.08719127832000911 0 0)
(-0.09575077587782685 0 0)
(-0.1013787657412378 0 0)
(-0.1032932536142117 0 0)
(-0.1029421171898502 0 0)
(-0.1010413305761349 0 0)
(-0.09757866470070588 0 0)
(-0.09298430573392298 0 0)
(-0.08691606683118162 0 0)
(-0.08013497837930038 0 0)
(-0.07281007265392415 0 0)
(-0.06465938314514513 0 0)
(-0.05529875198032131 0 0)
(-0.04440754604661148 0 0)
(-0.03189533678608691 0 0)
(-0.01797967563100849 0 0)
(-0.003117916865609019 0 0)
(0.01211621883498055 0 0)
(0.02715877889400731 0 0)
(0.04157163858967421 0 0)
(0.0551182109238265 0 0)
(0.06772947500544586 0 0)
(0.07926052730358572 0 0)
(0.08940824525527619 0 0)
(0.0978901365101381 0 0)
(0.1035942634100913 0 0)
(0.1053959775122363 0 0)
(0.1045634464219051 0 0)
(0.1019330130534005 0 0)
(0.09765246191473964 0 0)
(0.09226636090438707 0 0)
(0.08615557544008344 0 0)
(0.07824241037722687 0 0)
(0.07056195734761056 0 0)
(0.0623155811263077 0 0)
(0.05344190571305681 0 0)
(0.04360739592677233 0 0)
(0.03255608806866753 0 0)
(0.02025749446648164 0 0)
(0.006938024460906936 0 0)
(-0.007008525508691994 0 0)
(-0.02112410052393777 0 0)
(-0.03497555483134013 0 0)
(-0.04826522469351276 0 0)
(-0.06083264792309365 0 0)
(-0.07245570579778039 0 0)
(-0.08285083016410212 0 0)
(-0.09164739117321041 0 0)
(-0.09776678495439045 0 0)
(-0.1002085890179699 0 0)
(-0.1002373386322769 0 0)
(-0.09882451995161361 0 0)
(-0.09580737060156455 0 0)
(-0.09152992519331593 0 0)
(-0.08589090917750011 0 0)
(-0.07906458787894929 0 0)
(-0.07186501233507729 0 0)
(-0.0639858838145322 0 0)
(-0.05521596751608347 0 0)
(-0.04528949311354966 0 0)
(-0.0340167321500864 0 0)
(-0.02136842040856798 0 0)
(-0.00749875634177804 0 0)
(0.007260022597664524 0 0)
(0.02244636270569402 0 0)
(0.03755532638930578 0 0)
(0.05212464423225519 0 0)
(0.06582673426465444 0 0)
(0.07837453568744925 0 0)
(0.08928485752789454 0 0)
(0.09822273488771953 0 0)
(0.1046601005558524 0 0)
(0.1072069892978235 0 0)
(0.1067803826247962 0 0)
(0.1046001508064561 0 0)
(0.1007728588750591 0 0)
(0.09561919064499781 0 0)
(0.08955995249490116 0 0)
(0.08210013700786534 0 0)
(0.07418414098532965 0 0)
(0.065999023609647 0 0)
(0.05741650774697832 0 0)
(0.04815644379615071 0 0)
(0.03798082094303067 0 0)
(0.02676703724908399 0 0)
(0.0145179730096001 0 0)
(0.00135107889931437 0 0)
(-0.01247756081878986 0 0)
(-0.02658113336025719 0 0)
(-0.04054811729108311 0 0)
(-0.05402824466111265 0 0)
(-0.06660726296961403 0 0)
(-0.07780424732000621 0 0)
(-0.08723589548583695 0 0)
(-0.09404410812431123 0 0)
(-0.09711454986804752 0 0)
(-0.09749027631472736 0 0)
(-0.0963832919998532 0 0)
(-0.09367974158584801 0 0)
(-0.08969025883653983 0 0)
(-0.08463432482401657 0 0)
(-0.07773067167157691 0 0)
(-0.07075699536020758 0 0)
(-0.06307115081690885 0 0)
(-0.05466224472443908 0 0)
(-0.04533175874915855 0 0)
(-0.03488129822878632 0 0)
(-0.02320986971766358 0 0)
(-0.01033567465830662 0 0)
(0.003604347907155307 0 0)
(0.01834880963034075 0 0)
(0.03350631815096485 0 0)
(0.04859302746309801 0 0)
(0.06315120773840401 0 0)
(0.07674097470387112 0 0)
(0.08869905525339625 0 0)
(0.09851478405932221 0 0)
(0.1059145080217867 0 0)
(0.1094143137690159 0 0)
(0.1095398949541419 0 0)
(0.1077789220416511 0 0)
(0.1042505659372541 0 0)
(0.09926287299350151 0 0)
(0.09329349587384246 0 0)
(0.08645613449709599 0 0)
(0.07819611607235528 0 0)
(0.07012581313176926 0 0)
(0.0616324811294855 0 0)
(0.05268015607098121 0 0)
(0.04307442436753007 0 0)
(0.03264323304572501 0 0)
(0.02127518683265078 0 0)
(0.008945644346749172 0 0)
(-0.004241461138816213 0 0)
(-0.01804521331573354 0 0)
(-0.03213035277082802 0 0)
(-0.04611972089137092 0 0)
(-0.05950536603685169 0 0)
(-0.07163231928451995 0 0)
(-0.08197782999066121 0 0)
(-0.08974401943618621 0 0)
(-0.09369660483365559 0 0)
(-0.09450458705741305 0 0)
(-0.09364979531775636 0 0)
(-0.09128426415355775 0 0)
(-0.08759107429089809 0 0)
(-0.08283296326406693 0 0)
(-0.07621747797285264 0 0)
(-0.0693003434287521 0 0)
(-0.06177543981201098 0 0)
(-0.05362935071408122 0 0)
(-0.04470742211002943 0 0)
(-0.03484175683845777 0 0)
(-0.02391465072578654 0 0)
(-0.01188332771557132 0 0)
(0.001230214512713854 0 0)
(0.01530991885629712 0 0)
(0.03010027712673673 0 0)
(0.04521379625915822 0 0)
(0.06019306674119433 0 0)
(0.07452986274347975 0 0)
(0.08752120245938112 0 0)
(0.09844997409404666 0 0)
(0.1069189543262886 0 0)
(0.1117090566267732 0 0)
(0.1126255133228706 0 0)
(0.1112312348458985 0 0)
(0.1080350464256105 0 0)
(0.1033207745375869 0 0)
(0.09751628271734651 0 0)
(0.09093971980048764 0 0)
(0.0826283907695745 0 0)
(0.07452270231341696 0 0)
(0.0660428928737251 0 0)
(0.05727690093785014 0 0)
(0.04804180453334937 0 0)
(0.03814964413366615 0 0)
(0.02745177866160457 0 0)
(0.01587951622816616 0 0)
(0.003437382398222511 0 0)
(-0.009787831692359448 0 0)
(-0.02358778485235951 0 0)
(-0.03764076307879825 0 0)
(-0.05146918332823057 0 0)
(-0.06436463751530745 0 0)
(-0.07565118502049535 0 0)
(-0.0845382475513069 0 0)
(-0.08970891596115248 0 0)
(-0.09119175373387099 0 0)
(-0.0906611980898461 0 0)
(-0.08866917125413698 0 0)
(-0.08518904868774924 0 0)
(-0.08056329704967054 0 0)
(-0.07445572223965075 0 0)
(-0.06748032708339453 0 0)
(-0.06007964067277439 0 0)
(-0.05213501036108013 0 0)
(-0.04352466657269218 0 0)
(-0.03410434160666034 0 0)
(-0.02375435054497061 0 0)
(-0.01240300527962174 0 0)
(-2.078039926837384e-05 0 0)
(0.0133568334538256 0 0)
(0.02759112888461131 0 0)
(0.04241639858931854 0 0)
(0.05743393830873387 0 0)
(0.07216013858466093 0 0)
(0.08596261554760576 0 0)
(0.0979490448864381 0 0)
(0.1074802133422151 0 0)
(0.1137844792776054 0 0)
(0.1158021694331453 0 0)
(0.1148863008154392 0 0)
(0.1121636668473165 0 0)
(0.107792114409824 0 0)
(0.1020860243222499 0 0)
(0.09546442515211538 0 0)
(0.08768755668980231 0 0)
(0.07919188616630415 0 0)
(0.07069395719422163 0 0)
(0.06200441461572116 0 0)
(0.05296420450997806 0 0)
(0.04339186918452091 0 0)
(0.03317598026467284 0 0)
(0.02224683443353635 0 0)
(0.0105239265357404 0 0)
(-0.002034220813777195 0 0)
(-0.01532833034002637 0 0)
(-0.0291159881442069 0 0)
(-0.04301833265706082 0 0)
(-0.05638913025297614 0 0)
(-0.06845665174263404 0 0)
(-0.07844079887800674 0 0)
(-0.08505169246274671 0 0)
(-0.08751925871141485 0 0)
(-0.08744781403362736 0 0)
(-0.08586204898947232 0 0)
(-0.08262334438426544 0 0)
(-0.07814839677578221 0 0)
(-0.07260014438385309 0 0)
(-0.06546573652954006 0 0)
(-0.05822911419228423 0 0)
(-0.0504044810815379 0 0)
(-0.04201675798793258 0 0)
(-0.03294484337859084 0 0)
(-0.02306033061249384 0 0)
(-0.01227528665004969 0 0)
(-0.000537503711929776 0 0)
(0.01216844172921867 0 0)
(0.02579111628937514 0 0)
(0.04016142878762053 0 0)
(0.05496495811061497 0 0)
(0.06979328143965553 0 0)
(0.08409184953449259 0 0)
(0.09693231189912005 0 0)
(0.1075128635319695 0 0)
(0.1153358501249299 0 0)
(0.1187948955402094 0 0)
(0.1186450351804223 0 0)
(0.1164686891738649 0 0)
(0.1124370186196327 0 0)
(0.1069157401692096 0 0)
(0.1003639296463019 0 0)
(0.09312036799555365 0 0)
(0.08411910324314444 0 0)
(0.07570507813439391 0 0)
(0.06692604832235641 0 0)
(0.05792449362840448 0 0)
(0.04858171437241921 0 0)
(0.03877595175140662 0 0)
(0.02838002794257093 0 0)
(0.01726180025147031 0 0)
(0.005342435199043627 0 0)
(-0.007342257818295076 0 0)
(-0.02064957557642539 0 0)
(-0.03432841195741516 0 0)
(-0.04785586702429318 0 0)
(-0.06045545980312479 0 0)
(-0.07136340371007452 0 0)
(-0.07936365180484733 0 0)
(-0.08309021188730084 0 0)
(-0.08365063743523664 0 0)
(-0.0825320920890677 0 0)
(-0.07974546093133351 0 0)
(-0.07560332102297129 0 0)
(-0.07041817793313489 0 0)
(-0.06335830497207559 0 0)
(-0.05617348064366228 0 0)
(-0.04842445920363739 0 0)
(-0.04017764726807304 0 0)
(-0.03134769303447226 0 0)
(-0.02181518238373003 0 0)
(-0.01148588872574106 0 0)
(-0.000299237797397054 0 0)
(0.01179205489842055 0 0)
(0.02479756070646425 0 0)
(0.03862986633061752 0 0)
(0.05306981575479814 0 0)
(0.06777712660081341 0 0)
(0.08226764650178789 0 0)
(0.09575702435242087 0 0)
(0.1073387890485091 0 0)
(0.1164040235456228 0 0)
(0.1215712823889298 0 0)
(0.1225293603763944 0 0)
(0.1209400952358373 0 0)
(0.1174110544439808 0 0)
(0.1122599342574346 0 0)
(0.1058501452016205 0 0)
(0.09858145754341013 0 0)
(0.08989945505757756 0 0)
(0.08109054741498814 0 0)
(0.07215238263507204 0 0)
(0.06314702024968333 0 0)
(0.0539380809712065 0 0)
(0.04438264662652455 0 0)
(0.03434298502583771 0 0)
(0.02370818531949961 0 0)
(0.01239369021848418 0 0)
(0.000353671083338122 0 0)
(-0.01237576370260072 0 0)
(-0.02563981366513358 0 0)
(-0.03904983355414277 0 0)
(-0.05190848426813047 0 0)
(-0.06346340488618714 0 0)
(-0.07264913690532199 0 0)
(-0.07790021317838483 0 0)
(-0.07934708719350084 0 0)
(-0.07873150771456364 0 0)
(-0.07652973904574571 0 0)
(-0.07275142971446673 0 0)
(-0.06777568849637372 0 0)
(-0.06119086884079204 0 0)
(-0.05392704204068605 0 0)
(-0.04623290062631646 0 0)
(-0.03808818559654143 0 0)
(-0.02942618855428491 0 0)
(-0.02015766002735294 0 0)
(-0.01019527442320394 0 0)
(0.0005297607303481026 0 0)
(0.01208129903450605 0 0)
(0.02450238268108238 0 0)
(0.03776968598020748 0 0)
(0.05174814247519242 0 0)
(0.06616584610140046 0 0)
(0.08063544781094828 0 0)
(0.09455269555517208 0 0)
(0.1069319861726445 0 0)
(0.1169717355612422 0 0)
(0.1239017160181897 0 0)
(0.1263105529525145 0 0)
(0.1254382253336636 0 0)
(0.1225943270277658 0 0)
(0.1179120169542292 0 0)
(0.1117246618426719 0 0)
(0.1044763822465997 0 0)
(0.09631766557062223 0 0)
(0.08694541484536111 0 0)
(0.07796777018212299 0 0)
(0.06887385927599481 0 0)
(0.05965400147722972 0 0)
(0.05017126140693483 0 0)
(0.04034866960180861 0 0)
(0.03012636965309981 0 0)
(0.01938449493942867 0 0)
(0.007981574892881493 0 0)
(-0.004122781254221164 0 0)
(-0.01683325341314423 0 0)
(-0.02989615159439508 0 0)
(-0.04275644503037246 0 0)
(-0.05468491566186898 0 0)
(-0.06478996031374723 0 0)
(-0.07157477912772897 0 0)
(-0.07416742956911128 0 0)
(-0.07416058927788362 0 0)
(-0.07256680375430835 0 0)
(-0.0692013791487146 0 0)
(-0.06449320874306817 0 0)
(-0.05855393143489467 0 0)
(-0.05115849457512447 0 0)
(-0.04358338249727452 0 0)
(-0.03549686678940375 0 0)
(-0.02694753094757846 0 0)
(-0.01787587642839964 0 0)
(-0.00820159361237275 0 0)
(0.002144762602780742 0 0)
(0.01323018369521436 0 0)
(0.0251167665897834 0 0)
(0.03782733611338011 0 0)
(0.05129365559344175 0 0)
(0.06532469118023899 0 0)
(0.07961955197018332 0 0)
(0.09368500759419018 0 0)
(0.1066337187360358 0 0)
(0.1175879929920935 0 0)
(0.1259924349917011 0 0)
(0.1300958041151226 0 0)
(0.1302656310906904 0 0)
(0.1281600172756526 0 0)
(0.1240127244788262 0 0)
(0.1182292845993944 0 0)
(0.1111870998582057 0 0)
(0.1032959736952628 0 0)
(0.09374266005153196 0 0)
(0.0845882538692258 0 0)
(0.07525675881063625 0 0)
(0.06590020734803295 0 0)
(0.05643910847550811 0 0)
(0.04681519529578319 0 0)
(0.03691842359097741 0 0)
(0.02659157284393684 0 0)
(0.01569728025444428 0 0)
(0.004184154094798585 0 0)
(-0.007922056282386132 0 0)
(-0.02050456904634443 0 0)
(-0.03316895154797952 0 0)
(-0.04525454561863407 0 0)
(-0.05601390770319131 0 0)
(-0.06409595978391179 0 0)
(-0.06805209591760446 0 0)
(-0.06881142590530238 0 0)
(-0.067832605655129 0 0)
(-0.06509807399895305 0 0)
(-0.06087466814226471 0 0)
(-0.05549917810612551 0 0)
(-0.04813373103663381 0 0)
(-0.0406775026745851 0 0)
(-0.03264859692859631 0 0)
(-0.02417647803298137 0 0)
(-0.01524398976169493 0 0)
(-0.005783186689615515 0 0)
(0.00426843973792263 0 0)
(0.01496340110112346 0 0)
(0.02636565994074126 0 0)
(0.03853306498718419 0 0)
(0.05146306074430675 0 0)
(0.06504202658416354 0 0)
(0.07902780196961949 0 0)
(0.0930333257320782 0 0)
(0.1063901991478948 0 0)
(0.1181434932839978 0 0)
(0.1275586467511777 0 0)
(0.1335536569456331 0 0)
(0.1351399137681894 0 0)
(0.1337675769823386 0 0)
(0.1303750443674709 0 0)
(0.1251261667800615 0 0)
(0.1183428818127726 0 0)
(0.1104647488466971 0 0)
(0.1014557160258671 0 0)
(0.09168180594518147 0 0)
(0.08214686816049044 0 0)
(0.07264979754156119 0 0)
(0.06315513702895932 0 0)
(0.05356204100076521 0 0)
(0.04378559965806759 0 0)
(0.03374505320184124 0 0)
(0.02333681624673449 0 0)
(0.01244283174968791 0 0)
(0.0009878602043133138 0 0)
(-0.01100035995050165 0 0)
(-0.02326441873211215 0 0)
(-0.03525155783386725 0 0)
(-0.04630523956322771 0 0)
(-0.05534594299062735 0 0)
(-0.06077545097735185 0 0)
(-0.06249921999760388 0 0)
(-0.06210962860028409 0 0)
(-0.06009267594219509 0 0)
(-0.05638624914780869 0 0)
(-0.05136067443452883 0 0)
(-0.04457906705750603 0 0)
(-0.03708100368261723 0 0)
(-0.02911398218646487 0 0)
(-0.02070255215173296 0 0)
(-0.01185513675230088 0 0)
(-0.00255068231558991 0 0)
(0.007255485029234521 0 0)
(0.01761392314129964 0 0)
(0.02859196169423439 0 0)
(0.04026257752065751 0 0)
(0.05266050065935695 0 0)
(0.06573318544926944 0 0)
(0.07931629425586777 0 0)
(0.09313499330013614 0 0)
(0.1066760334418836 0 0)
(0.1190115555042643 0 0)
(0.1293044280819594 0 0)
(0.1369554595819581 0 0)
(0.1402477706967878 0 0)
(0.1398749720529342 0 0)
(0.1373447181890328 0 0)
(0.1327831235535686 0 0)
(0.1264819540870536 0 0)
(0.1188415591458171 0 0)
(0.1103213880546006 0 0)
(0.1000157693102753 0 0)
(0.09046173033999334 0 0)
(0.08076750693648874 0 0)
(0.07108718755498568 0 0)
(0.0613760823237165 0 0)
(0.05164132098224916 0 0)
(0.04184862094135988 0 0)
(0.0318578836353084 0 0)
(0.02147776508635689 0 0)
(0.01059637680985541 0 0)
(-0.0007869284418085772 0 0)
(-0.01254369872940011 0 0)
(-0.024282392745834 0 0)
(-0.03543300695120803 0 0)
(-0.04515897236381455 0 0)
(-0.05194589625416078 0 0)
(-0.05482082490700513 0 0)
(-0.0551252953516763 0 0)
(-0.05385623988595892 0 0)
(-0.05074978022679039 0 0)
(-0.04616081058882385 0 0)
(-0.04018516914562831 0 0)
(-0.03264363633799756 0 0)
(-0.02484376393069341 0 0)
(-0.01649124166052489 0 0)
(-0.007695969422929706 0 0)
(0.001520388379951316 0 0)
(0.01117447231470164 0 0)
(0.02129929064915817 0 0)
(0.03194617414039874 0 0)
(0.04318258299343426 0 0)
(0.05506769889326445 0 0)
(0.06761003120489456 0 0)
(0.08072453742931691 0 0)
(0.09420829379410106 0 0)
(0.1076701016802811 0 0)
(0.1203886996156907 0 0)
(0.1314765749708525 0 0)
(0.1402504453763991 0 0)
(0.1453979408550617 0 0)
(0.1463837395969916 0 0)
(0.1447023742581135 0 0)
(0.1409558277910975 0 0)
(0.1353063622331821 0 0)
(0.1280293917088832 0 0)
(0.1195625006494065 0 0)
(0.1097612193159986 0 0)
(0.09958119829164302 0 0)
(0.08955511500189789 0 0)
(0.07963835655470505 0 0)
(0.06982381145601363 0 0)
(0.06011039496122629 0 0)
(0.05044021101514466 0 0)
(0.04067260223481223 0 0)
(0.03065246446846045 0 0)
(0.02027979347515965 0 0)
(0.009494631153044338 0 0)
(-0.001706620311226318 0 0)
(-0.01308096193762376 0 0)
(-0.02414723059141259 0 0)
(-0.0342663085043242 0 0)
(-0.04210849109986418 0 0)
(-0.0463010405750032 0 0)
(-0.04743213296712745 0 0)
(-0.04682208950315651 0 0)
(-0.04449024040549455 0 0)
(-0.04054747972133332 0 0)
(-0.03529379883396939 0 0)
(-0.02791780827998226 0 0)
(-0.02029702667736453 0 0)
(-0.01202930660862666 0 0)
(-0.003283003022544154 0 0)
(0.005874564999734913 0 0)
(0.01543793584309986 0 0)
(0.0254158578835387 0 0)
(0.03582015040995411 0 0)
(0.04669255343750345 0 0)
(0.05810457596600811 0 0)
(0.07011015065656021 0 0)
(0.08268547649674961 0 0)
(0.09570525728269894 0 0)
(0.1089216581329488 0 0)
(0.1218024343528322 0 0)
(0.1334481590927452 0 0)
(0.143084911879779 0 0)
(0.1500173359654135 0 0)
(0.1526942017450228 0 0)
(0.1520127385374594 0 0)
(0.149264461840962 0 0)
(0.1444518287302376 0 0)
(0.1377590439919914 0 0)
(0.1295764658407313 0 0)
(0.1203966809813381 0 0)
(0.1095767423083407 0 0)
(0.09953277998191137 0 0)
(0.08944448985607278 0 0)
(0.0794567186389674 0 0)
(0.06955309878492054 0 0)
(0.05976227901768219 0 0)
(0.0500793007732122 0 0)
(0.04040269752151058 0 0)
(0.03054661918232672 0 0)
(0.02033815347323916 0 0)
(0.009705966318917099 0 0)
(-0.00120998110390447 0 0)
(-0.01203156989047317 0 0)
(-0.02225418237020716 0 0)
(-0.03087172491010156 0 0)
(-0.03640493855028163 0 0)
(-0.03853036077561404 0 0)
(-0.03857487942987541 0 0)
(-0.03704313200799293 0 0)
(-0.03375411001968139 0 0)
(-0.02903276993286309 0 0)
(-0.02242438657132842 0 0)
(-0.0149254733145072 0 0)
(-0.006829565697249028 0 0)
(0.001841760773304789 0 0)
(0.01099057007668205 0 0)
(0.02053617365132061 0 0)
(0.03044082040257267 0 0)
(0.04069452964321792 0 0)
(0.05131936951143043 0 0)
(0.06236486321425197 0 0)
(0.07388427161504207 0 0)
(0.08590300384177919 0 0)
(0.09838262987949582 0 0)
(0.1111791599709485 0 0)
(0.1239163517052455 0 0)
(0.1358803542256168 0 0)
(0.1462822487807514 0 0)
(0.1544128865311227 0 0)
(0.1589134860064889 0 0)
(0.1596032640150348 0 0)
(0.1578978969624609 0 0)
(0.1541278921470398 0 0)
(0.1483397404543144 0 0)
(0.1407599734824359 0 0)
(0.1318372826134747 0 0)
(0.1213757472064808 0 0)
(0.1109190260955895 0 0)
(0.1005378491587441 0 0)
(0.09025727300793865 0 0)
(0.08012729314780816 0 0)
(0.07025991645286016 0 0)
(0.06065665404196596 0 0)
(0.05116135092505072 0 0)
(0.04155499507389887 0 0)
(0.03168682075605338 0 0)
(0.0214893617924334 0 0)
(0.01098583593972593 0 0)
(0.0004077251483000871 0 0)
(-0.009854105104584695 0 0)
(-0.0190662551727461 0 0)
(-0.0257718387513059 0 0)
(-0.02904742891008552 0 0)
(-0.0298238896169818 0 0)
(-0.02908548563593956 0 0)
(-0.02663703294919979 0 0)
(-0.02257735334583334 0 0)
(-0.01687568583268568 0 0)
(-0.009526174943898683 0 0)
(-0.001706355521907077 0 0)
(0.006808991329727563 0 0)
(0.01587134241286343 0 0)
(0.02538225713196936 0 0)
(0.03528459273557394 0 0)
(0.04553013579003855 0 0)
(0.05607055623552493 0 0)
(0.06688679949154723 0 0)
(0.0780139154456968 0 0)
(0.08951347341288732 0 0)
(0.1014046103016393 0 0)
(0.1136271753222313 0 0)
(0.1259801262115572 0 0)
(0.1379521793967679 0 0)
(0.1487849591631732 0 0)
(0.1577798371284647 0 0)
(0.164078462927234 0 0)
(0.1664512558262268 0 0)
(0.1658687082958446 0 0)
(0.1633377936626676 0 0)
(0.158694842197884 0 0)
(0.151982061234423 0 0)
(0.1435555265381007 0 0)
(0.1338009069459008 0 0)
(0.122928678664113 0 0)
(0.1124427508816092 0 0)
(0.1019695754018682 0 0)
(0.09164654270323938 0 0)
(0.08161123451243602 0 0)
(0.07191237231673812 0 0)
(0.06245720078008277 0 0)
(0.05309101691332747 0 0)
(0.04366584319305088 0 0)
(0.03403176008696076 0 0)
(0.02407466664786121 0 0)
(0.01390418049928204 0 0)
(0.003833867297138315 0 0)
(-0.005614256801091876 0 0)
(-0.01319858407231713 0 0)
(-0.01765524762220387 0 0)
(-0.01924032835073672 0 0)
(-0.01913174981346499 0 0)
(-0.01744376191040475 0 0)
(-0.01410644283700896 0 0)
(-0.009335259533655833 0 0)
(-0.002329442271232354 0 0)
(0.005098562383203388 0 0)
(0.01336128947255997 0 0)
(0.02228001962291867 0 0)
(0.03172504923700351 0 0)
(0.04161135326654079 0 0)
(0.05185802642069358 0 0)
(0.06238118962946189 0 0)
(0.07312832289820639 0 0)
(0.08409053500705695 0 0)
(0.09527964539566297 0 0)
(0.1067052509872136 0 0)
(0.1183652426298532 0 0)
(0.1301924686279837 0 0)
(0.1418654522809305 0 0)
(0.1527812524895636 0 0)
(0.1623224913161667 0 0)
(0.1696798830331661 0 0)
(0.1736881032472058 0 0)
(0.1744376229391241 0 0)
(0.1731181115438041 0 0)
(0.1697998454687506 0 0)
(0.1642621630291994 0 0)
(0.1566750682388612 0 0)
(0.1475221529378759 0 0)
(0.1367040751335236 0 0)
(0.1261179000964417 0 0)
(0.1154412957821543 0 0)
(0.1047913067545444 0 0)
(0.09437990678052829 0 0)
(0.08439321647799006 0 0)
(0.07485188346189267 0 0)
(0.06561785717063401 0 0)
(0.05645600020665487 0 0)
(0.04713468589070974 0 0)
(0.03750824275876261 0 0)
(0.02761373918520026 0 0)
(0.01767173195835793 0 0)
(0.00805066611841523 0 0)
(-0.0003172870917763675 0 0)
(-0.006022849213691628 0 0)
(-0.008623924634777496 0 0)
(-0.009147264837987773 0 0)
(-0.008202923889675175 0 0)
(-0.005612729362533556 0 0)
(-0.001500421760007399 0 0)
(0.004705558767653109 0 0)
(0.01182195224828068 0 0)
(0.01970678676076048 0 0)
(0.02833349214655969 0 0)
(0.03759067074223076 0 0)
(0.04737087207307675 0 0)
(0.05759338278624342 0 0)
(0.06816604463968694 0 0)
(0.07898067302028328 0 0)
(0.08994194640471451 0 0)
(0.1010029940288352 0 0)
(0.1121654158525682 0 0)
(0.1234271479136395 0 0)
(0.1347485876317669 0 0)
(0.1459598207334922 0 0)
(0.1566331066392963 0 0)
(0.166264627509392 0 0)
(0.174240344514574 0 0)
(0.1795768446135668 0 0)
(0.1816506368314214 0 0)
(0.1814611629943802 0 0)
(0.1795514876333092 0 0)
(0.1755124492104279 0 0)
(0.1692442031045653 0 0)
(0.1609687085451502 0 0)
(0.1509874008535271 0 0)
(0.1403300565766358 0 0)
(0.1295064708827217 0 0)
(0.1185582608534873 0 0)
(0.1078275416395599 0 0)
(0.09760041608276046 0 0)
(0.08793562418911346 0 0)
(0.07868970522829927 0 0)
(0.06962123228423724 0 0)
(0.06050839323518321 0 0)
(0.05118204788652734 0 0)
(0.04156046916329952 0 0)
(0.03175068796246591 0 0)
(0.02203296892415339 0 0)
(0.01308300847293126 0 0)
(0.006256887169988653 0 0)
(0.002488440476918719 0 0)
(0.001266437779316409 0 0)
(0.001569664502068923 0 0)
(0.003388798432293966 0 0)
(0.006841659765520021 0 0)
(0.01207407169642573 0 0)
(0.01899710254357605 0 0)
(0.02649070336002593 0 0)
(0.03478149701511123 0 0)
(0.04374776690848339 0 0)
(0.05330945185824527 0 0)
(0.06340322683022036 0 0)
(0.07392770274731494 0 0)
(0.08474344950240405 0 0)
(0.09573117982843618 0 0)
(0.1068228124268114 0 0)
(0.1179686849577848 0 0)
(0.1291008528927106 0 0)
(0.1401550922714032 0 0)
(0.1510399525561311 0 0)
(0.1614328306391453 0 0)
(0.1708910869936202 0 0)
(0.1790249921445114 0 0)
(0.1849765888450766 0 0)
(0.1879842457129172 0 0)
(0.1887226689093841 0 0)
(0.1879923033941332 0 0)
(0.185528614612939 0 0)
(0.1809418215954701 0 0)
(0.1740583143447187 0 0)
(0.1651904176899455 0 0)
(0.1551000451975886 0 0)
(0.1444010298741908 0 0)
(0.1332467858385984 0 0)
(0.1221125611908439 0 0)
(0.1113937859191568 0 0)
(0.1012912169566768 0 0)
(0.09181179747232253 0 0)
(0.08279386888294452 0 0)
(0.07395729335803106 0 0)
(0.06497329985630479 0 0)
(0.0555989484234781 0 0)
(0.04586926111144381 0 0)
(0.03606170877769393 0 0)
(0.02667888045772924 0 0)
(0.01881153006078588 0 0)
(0.0137109021238718 0 0)
(0.01163207013841625 0 0)
(0.01145373684498989 0 0)
(0.01273106885384761 0 0)
(0.01561407990752926 0 0)
(0.01992159725687039 0 0)
(0.02651248815231254 0 0)
(0.03351762523865122 0 0)
(0.04138700982426183 0 0)
(0.05000504686640268 0 0)
(0.05929429904182208 0 0)
(0.06918689324059271 0 0)
(0.07958620661926968 0 0)
(0.09035949659622838 0 0)
(0.1013665194266093 0 0)
(0.112480566123301 0 0)
(0.1236026296097838 0 0)
(0.1346692588489354 0 0)
(0.1456267863056711 0 0)
(0.1563950796006232 0 0)
(0.1667353477917719 0 0)
(0.176205229069665 0 0)
(0.1844600398207981 0 0)
(0.1908773377305377 0 0)
(0.1944608222949847 0 0)
(0.1955200569701761 0 0)
(0.1951914335990849 0 0)
(0.1936062332514579 0 0)
(0.1905056340829425 0 0)
(0.1854145772663095 0 0)
(0.1783546600574396 0 0)
(0.1699616148851922 0 0)
(0.1599968300502122 0 0)
(0.1487776835220934 0 0)
(0.1369260702291463 0 0)
(0.125210082571022 0 0)
(0.1142827998071334 0 0)
(0.1044539525201472 0 0)
(0.09560679521275493 0 0)
(0.08726849332945669 0 0)
(0.07880710956473044 0 0)
(0.06972436021576434 0 0)
(0.05993850400789118 0 0)
(0.04977004502406492 0 0)
(0.03983686745436107 0 0)
(0.03112043868410756 0 0)
(0.02486269765721041 0 0)
(0.02187109687951869 0 0)
(0.0212628102456552 0 0)
(0.02199609119269926 0 0)
(0.02419116544705875 0 0)
(0.02790442521893859 0 0)
(0.03372189361049013 0 0)
(0.0405495737053915 0 0)
(0.04810847887593701 0 0)
(0.05635881124749972 0 0)
(0.0652384553239571 0 0)
(0.07472538279501369 0 0)
(0.08480630344568735 0 0)
(0.09540635736569204 0 0)
(0.1063925538244518 0 0)
(0.1176070052373252 0 0)
(0.1289002899963086 0 0)
(0.1400216045391611 0 0)
(0.1511443415150225 0 0)
(0.1607245877948583 0 0)
(0.1761922823562379 0 0)
)
;

boundaryField
{
    inlet
    {
        type            zeroGradient;
    }
    outlet
    {
        type            pressureInletOutletVelocity;
        value           uniform (0.1761922823562379 0 0);
    }
    frontAndBack
    {
        type            empty;
    }
}


// ************************************************************************* //
