/*--------------------------------*- C++ -*----------------------------------*\
| =========                 |                                                 |
| \\      /  F ield         | OpenFOAM: The Open Source CFD Toolbox           |
|  \\    /   O peration     | Version:  v2012                                 |
|   \\  /    A nd           | Website:  www.openfoam.com                      |
|    \\/     M anipulation  |                                                 |
\*---------------------------------------------------------------------------*/
FoamFile
{
    version     2.0;
    format      ascii;
    class       volVectorField;
    location    "0.014";
    object      UMean;
}
// * * * * * * * * * * * * * * * * * * * * * * * * * * * * * * * * * * * * * //

dimensions      [0 1 -1 0 0 0 0];


internalField   nonuniform List<vector> 
1000
(
(-2.546644841693562e-05 0 0)
(4.285623658171507e-07 0 0)
(1.523332264674748e-05 0 0)
(4.428683219144742e-05 0 0)
(7.843999464569952e-05 0 0)
(0.0001132044573711855 0 0)
(0.0001590673494624068 0 0)
(0.0002073164401092189 0 0)
(0.0002646607591206936 0 0)
(0.0003247201389499913 0 0)
(0.0003872742500282745 0 0)
(0.0004494079193918594 0 0)
(0.0005111501704764255 0 0)
(0.0005720455380980191 0 0)
(0.00063108732669691 0 0)
(0.000687190542492186 0 0)
(0.0007387748932249946 0 0)
(0.0007850064051818602 0 0)
(0.0008248281116324454 0 0)
(0.0008578085167845064 0 0)
(0.0008832678804181782 0 0)
(0.0009008519991420239 0 0)
(0.0009104324488743937 0 0)
(0.0009116323116119218 0 0)
(0.0009046167285392442 0 0)
(0.0008894353311881324 0 0)
(0.000866662649913249 0 0)
(0.0008363285499289589 0 0)
(0.0007991660040019716 0 0)
(0.000755344216940321 0 0)
(0.0007054802974002136 0 0)
(0.0006506181557163641 0 0)
(0.00059202897357542 0 0)
(0.0005319956835187734 0 0)
(0.0004714523558562047 0 0)
(0.0004107298753455522 0 0)
(0.000350306098805618 0 0)
(0.0002906928243663546 0 0)
(0.0002328529789135462 0 0)
(0.0001782834248227 0 0)
(0.0001281014352945447 0 0)
(8.357034913666301e-05 0 0)
(4.573567668396599e-05 0 0)
(1.532109614140256e-05 0 0)
(-6.854843708172886e-06 0 0)
(-2.033908649203413e-05 0 0)
(-2.496470648912459e-05 0 0)
(-2.054550773304296e-05 0 0)
(-6.880882448407034e-06 0 0)
(1.565315956326976e-05 0 0)
(4.744406639519913e-05 0 0)
(8.788487002540505e-05 0 0)
(0.0001368596853114059 0 0)
(0.0001937702661899169 0 0)
(0.0002574496381139613 0 0)
(0.0003251621738907586 0 0)
(0.0003957872220665538 0 0)
(0.0004684894358260373 0 0)
(0.0005428400703411933 0 0)
(0.0006175080011533105 0 0)
(0.0006919450282517017 0 0)
(0.0007649273612123801 0 0)
(0.0008358492682587243 0 0)
(0.0009030142264694596 0 0)
(0.0009650591696742985 0 0)
(0.001020632163580547 0 0)
(0.00106842844492624 0 0)
(0.001107824709572986 0 0)
(0.00113814939934907 0 0)
(0.001158823954349553 0 0)
(0.001169492688031116 0 0)
(0.001170235893521554 0 0)
(0.001160677362349897 0 0)
(0.001140965622927181 0 0)
(0.001111069601644101 0 0)
(0.001071072030340211 0 0)
(0.001021672413855812 0 0)
(0.0009649531795131386 0 0)
(0.0009025130563334298 0 0)
(0.0008352572001271765 0 0)
(0.0007644640532644245 0 0)
(0.0006911287878829588 0 0)
(0.0006162073968472951 0 0)
(0.0005404736577813442 0 0)
(0.0004658829844443012 0 0)
(0.0003926054823493671 0 0)
(0.0003223081746677906 0 0)
(0.000256284380190615 0 0)
(0.000196474656989498 0 0)
(0.0001438482849038511 0 0)
(0.000100366096162841 0 0)
(6.651021548185019e-05 0 0)
(4.298857748698649e-05 0 0)
(2.992151473670495e-05 0 0)
(2.754755504445689e-05 0 0)
(3.562174005854188e-05 0 0)
(5.51025438831837e-05 0 0)
(8.461658656121967e-05 0 0)
(0.0001242906235838497 0 0)
(0.0001729757302829479 0 0)
(0.0002289747934953495 0 0)
(0.0002904909073643695 0 0)
(0.000356306381114297 0 0)
(0.0004252637346026595 0 0)
(0.0004966905214779519 0 0)
(0.0005694850980399103 0 0)
(0.0006420244266912999 0 0)
(0.0007130011072786358 0 0)
(0.0007832470650231979 0 0)
(0.0008507977112984086 0 0)
(0.0009145534103674144 0 0)
(0.0009731801988117429 0 0)
(0.001024910466826288 0 0)
(0.001069094464800237 0 0)
(0.001104349485814872 0 0)
(0.001130178038304766 0 0)
(0.001146066368635143 0 0)
(0.001151345636824283 0 0)
(0.00114650887981704 0 0)
(0.001131657003120806 0 0)
(0.001106040513281492 0 0)
(0.001070439827196657 0 0)
(0.001025400393181233 0 0)
(0.0009724916583776122 0 0)
(0.0009138292884998105 0 0)
(0.0008498900780792332 0 0)
(0.0007819790316779284 0 0)
(0.0007111654958919164 0 0)
(0.0006384008714432247 0 0)
(0.0005649462111744468 0 0)
(0.000490673273972988 0 0)
(0.0004188378424995539 0 0)
(0.0003493597797954876 0 0)
(0.0002834035871199462 0 0)
(0.0002225844058132749 0 0)
(0.0001679680825348903 0 0)
(0.0001216205626050407 0 0)
(8.424237698370842e-05 0 0)
(5.727460235116693e-05 0 0)
(4.08542774772545e-05 0 0)
(3.538045462056075e-05 0 0)
(4.053821840945581e-05 0 0)
(5.807660827119202e-05 0 0)
(8.591624016208954e-05 0 0)
(0.0001238958746978272 0 0)
(0.0001711150983058832 0 0)
(0.0002258420160630858 0 0)
(0.0002866189245911329 0 0)
(0.0003518920978127398 0 0)
(0.0004206872451670034 0 0)
(0.0004922026272174808 0 0)
(0.0005654054888458919 0 0)
(0.0006391625046477508 0 0)
(0.0007096991903708601 0 0)
(0.0007807682966203585 0 0)
(0.0008496972548727315 0 0)
(0.0009154975233199989 0 0)
(0.0009767070270452107 0 0)
(0.001032133883127322 0 0)
(0.001080461415349711 0 0)
(0.001120671303442361 0 0)
(0.001151808448179105 0 0)
(0.001173008618225976 0 0)
(0.001183667034793705 0 0)
(0.001183100114675883 0 0)
(0.001173124819328216 0 0)
(0.001152348994516671 0 0)
(0.001120978439133948 0 0)
(0.00108013344140433 0 0)
(0.001030942184145312 0 0)
(0.0009758139454899151 0 0)
(0.0009151229694036645 0 0)
(0.0008501969774375678 0 0)
(0.000781995527625603 0 0)
(0.000711553557950864 0 0)
(0.0006401236830447781 0 0)
(0.00056675999188704 0 0)
(0.0004954678373084263 0 0)
(0.0004268269891479006 0 0)
(0.0003612448218489026 0 0)
(0.0003000133450936527 0 0)
(0.0002443473232488523 0 0)
(0.0001957900834686053 0 0)
(0.0001557263594685074 0 0)
(0.00012547121910733 0 0)
(0.0001055736233921944 0 0)
(9.702908953296253e-05 0 0)
(9.842238523174689e-05 0 0)
(0.0001133589452971926 0 0)
(0.0001395779638917631 0 0)
(0.0001756401502368745 0 0)
(0.0002214108581877355 0 0)
(0.0002751336189830902 0 0)
(0.0003350988967423562 0 0)
(0.0004000122614940598 0 0)
(0.0004687063192131341 0 0)
(0.0005404293506991015 0 0)
(0.0006141341328359357 0 0)
(0.0006888109275995544 0 0)
(0.0007610144869321968 0 0)
(0.000831861281438379 0 0)
(0.0009024161474371693 0 0)
(0.0009701907693044072 0 0)
(0.001033913370520498 0 0)
(0.001092597888245577 0 0)
(0.001144621897352036 0 0)
(0.001189441206212435 0 0)
(0.001225567281339419 0 0)
(0.001252134060743694 0 0)
(0.001268764335024561 0 0)
(0.001272916659387937 0 0)
(0.001268209146646603 0 0)
(0.001252935067372709 0 0)
(0.001226053663787269 0 0)
(0.001189696661597014 0 0)
(0.001144526274920784 0 0)
(0.001092794763859551 0 0)
(0.001035612769962779 0 0)
(0.00097386713869194 0 0)
(0.0009084926354513714 0 0)
(0.0008406911528849068 0 0)
(0.0007712171193364022 0 0)
(0.0007009447069935185 0 0)
(0.0006286463409714812 0 0)
(0.0005612487749092753 0 0)
(0.0004961179676000159 0 0)
(0.0004349272480388649 0 0)
(0.000378784638955464 0 0)
(0.0003287704433431967 0 0)
(0.0002867766116056603 0 0)
(0.0002538288336755583 0 0)
(0.0002307925700793083 0 0)
(0.0002193033102989798 0 0)
(0.0002172857068711338 0 0)
(0.0002288457322407671 0 0)
(0.0002528658763686356 0 0)
(0.0002868809983257066 0 0)
(0.0003310994455882887 0 0)
(0.0003838552383808988 0 0)
(0.0004430779566765841 0 0)
(0.0005078213184626884 0 0)
(0.0005765542086601532 0 0)
(0.000648568541640636 0 0)
(0.0007229838980397734 0 0)
(0.0007985383831780666 0 0)
(0.0008743266444502294 0 0)
(0.0009433166593199745 0 0)
(0.001016162798395662 0 0)
(0.001085850034967825 0 0)
(0.001152258460254859 0 0)
(0.001214030855127442 0 0)
(0.0012697338024479 0 0)
(0.001318764362205136 0 0)
(0.001359691466177118 0 0)
(0.001391518712669732 0 0)
(0.001413902897249583 0 0)
(0.001423932959533467 0 0)
(0.001424175495281748 0 0)
(0.001414539120154333 0 0)
(0.001393179723741072 0 0)
(0.001361643363114969 0 0)
(0.00132080358231673 0 0)
(0.001272728439198559 0 0)
(0.001219197422281403 0 0)
(0.00116075169173886 0 0)
(0.001098289386597443 0 0)
(0.001033375703538669 0 0)
(0.0009661865775282655 0 0)
(0.0008998450605783404 0 0)
(0.0008258499699672604 0 0)
(0.0007600095466956727 0 0)
(0.0006954003416568518 0 0)
(0.000634712361895371 0 0)
(0.0005783278623909629 0 0)
(0.0005276546307438197 0 0)
(0.0004840483372617127 0 0)
(0.0004490327818103143 0 0)
(0.0004234343381450561 0 0)
(0.0004088965445270906 0 0)
(0.0004044022219815347 0 0)
(0.0004114420506142376 0 0)
(0.0004328431295750959 0 0)
(0.0004652260726939359 0 0)
(0.0005075784932591207 0 0)
(0.0005592518591529857 0 0)
(0.0006178583130356776 0 0)
(0.0006824297842293775 0 0)
(0.0007513941931665359 0 0)
(0.0008237935091451589 0 0)
(0.0008990827271359643 0 0)
(0.0009758092982297763 0 0)
(0.001054729448332909 0 0)
(0.001123422512070803 0 0)
(0.001197656070958124 0 0)
(0.001269573545871519 0 0)
(0.001338679904122552 0 0)
(0.001403589926228402 0 0)
(0.001463004238768308 0 0)
(0.001516001316402411 0 0)
(0.001561560712756799 0 0)
(0.00159870259610535 0 0)
(0.001626294042258926 0 0)
(0.001643230708631527 0 0)
(0.001647488784246681 0 0)
(0.001643992282653765 0 0)
(0.001629163575748766 0 0)
(0.001602872106777213 0 0)
(0.001566868867363473 0 0)
(0.001522916465093192 0 0)
(0.001472968017033515 0 0)
(0.001418126519502227 0 0)
(0.001358857733199189 0 0)
(0.001296848765903732 0 0)
(0.001232255685927127 0 0)
(0.001168372511838102 0 0)
(0.001096878366914209 0 0)
(0.001030140674492378 0 0)
(0.0009666475784417966 0 0)
(0.0009063978866093127 0 0)
(0.00085010066186001 0 0)
(0.0007991569924442369 0 0)
(0.0007542809723556755 0 0)
(0.0007176049098958667 0 0)
(0.0006900854441664646 0 0)
(0.0006723773324820445 0 0)
(0.000666336845462458 0 0)
(0.0006681682107178172 0 0)
(0.000686687096941545 0 0)
(0.0007175287493171284 0 0)
(0.0007576742070219523 0 0)
(0.0008079356995062913 0 0)
(0.0008659212036290151 0 0)
(0.0009300717794771958 0 0)
(0.0009992392658919715 0 0)
(0.001072217534504904 0 0)
(0.001148195359632117 0 0)
(0.001226224186714069 0 0)
(0.00130609863125378 0 0)
(0.001380571274066973 0 0)
(0.001452297225876706 0 0)
(0.001527024996752674 0 0)
(0.001598368509358508 0 0)
(0.001666488322854189 0 0)
(0.001729516800161771 0 0)
(0.001786381543420572 0 0)
(0.001836382074440188 0 0)
(0.001878636883681719 0 0)
(0.001911159222181874 0 0)
(0.001935076200397908 0 0)
(0.001943836553700387 0 0)
(0.001946260860678549 0 0)
(0.001937996098401673 0 0)
(0.001917389616693801 0 0)
(0.001886679980801886 0 0)
(0.001847242004591678 0 0)
(0.001801057969069057 0 0)
(0.001749998209789448 0 0)
(0.001694148964957235 0 0)
(0.001635003264717398 0 0)
(0.001573429133398798 0 0)
(0.001511078832109122 0 0)
(0.001446548326785529 0 0)
(0.001375427506213076 0 0)
(0.001314140547933769 0 0)
(0.001254038985319797 0 0)
(0.001198214368319775 0 0)
(0.00114712170633628 0 0)
(0.001101688391290778 0 0)
(0.001063710113136156 0 0)
(0.001034506246390111 0 0)
(0.001014445407727979 0 0)
(0.001006419777385172 0 0)
(0.001005520945648068 0 0)
(0.001020170778327217 0 0)
(0.001048431388603329 0 0)
(0.001086505901507298 0 0)
(0.00113506774055895 0 0)
(0.001192228605261873 0 0)
(0.001255910077007331 0 0)
(0.001325217034466523 0 0)
(0.001398810624650048 0 0)
(0.001475460066029818 0 0)
(0.001555098363977696 0 0)
(0.001635610787946036 0 0)
(0.001718142139399712 0 0)
(0.001785078312302072 0 0)
(0.00186362002970782 0 0)
(0.00193695916131441 0 0)
(0.002008259716484412 0 0)
(0.002074793126755678 0 0)
(0.002135801975382782 0 0)
(0.002189988324445398 0 0)
(0.002237050759204287 0 0)
(0.002274901348925716 0 0)
(0.002304579111139795 0 0)
(0.00232024175426474 0 0)
(0.002327413366379857 0 0)
(0.002325252076062994 0 0)
(0.002311136093400485 0 0)
(0.002286200496059596 0 0)
(0.002251867423862996 0 0)
(0.002209973074702588 0 0)
(0.002162646727794208 0 0)
(0.00211063526367858 0 0)
(0.002054668946143976 0 0)
(0.001996446288572248 0 0)
(0.001935940386214576 0 0)
(0.001878615514902196 0 0)
(0.001803917806861919 0 0)
(0.001744441516192875 0 0)
(0.001684912490939775 0 0)
(0.001629665583599963 0 0)
(0.001578760088236536 0 0)
(0.001533285045174387 0 0)
(0.001494267917627349 0 0)
(0.001463588793073102 0 0)
(0.001441974886951712 0 0)
(0.001431230039057396 0 0)
(0.001429499958598245 0 0)
(0.001438976198295311 0 0)
(0.00146438463090459 0 0)
(0.001501041603675212 0 0)
(0.001547780252019364 0 0)
(0.001603864965266734 0 0)
(0.001667177679845941 0 0)
(0.001736223000114866 0 0)
(0.00181047366998881 0 0)
(0.001888003516059926 0 0)
(0.001968920448681618 0 0)
(0.002051040767475543 0 0)
(0.002137955599981604 0 0)
(0.002206682104463664 0 0)
(0.002284924278593236 0 0)
(0.002361493261425476 0 0)
(0.002435611137347726 0 0)
(0.002505750657904945 0 0)
(0.002570837896369385 0 0)
(0.002629234323652305 0 0)
(0.002680829919098353 0 0)
(0.002724262639797412 0 0)
(0.002758683253074363 0 0)
(0.002782472457465514 0 0)
(0.002792670114341492 0 0)
(0.002796799598520159 0 0)
(0.002790358085879101 0 0)
(0.002771514484650683 0 0)
(0.002742831045663087 0 0)
(0.002705777415183019 0 0)
(0.00266243662048388 0 0)
(0.00261455068455107 0 0)
(0.002562279454199597 0 0)
(0.002507136480600876 0 0)
(0.002449839582197225 0 0)
(0.002394044495465998 0 0)
(0.002327575720679308 0 0)
(0.00226272978420916 0 0)
(0.002205932890981145 0 0)
(0.002150875959842672 0 0)
(0.002100576612468454 0 0)
(0.00205523724687003 0 0)
(0.002015928333326466 0 0)
(0.001984016141163383 0 0)
(0.001961469089451315 0 0)
(0.001947987617463366 0 0)
(0.001946550760484214 0 0)
(0.001950290925338645 0 0)
(0.001972842272043761 0 0)
(0.002009092277159968 0 0)
(0.002053723738504107 0 0)
(0.002108724842071366 0 0)
(0.002171697265792736 0 0)
(0.002240697557252502 0 0)
(0.002315384094890954 0 0)
(0.002394074185132095 0 0)
(0.002476145715624741 0 0)
(0.002560543024386507 0 0)
(0.002647251280501773 0 0)
(0.002728982982201559 0 0)
(0.002799655663248452 0 0)
(0.002881409829225896 0 0)
(0.002957687203604042 0 0)
(0.003031678549663512 0 0)
(0.003100753508949572 0 0)
(0.003163959177310966 0 0)
(0.003220028310537919 0 0)
(0.003269018478132067 0 0)
(0.003308363362962525 0 0)
(0.003339945810367005 0 0)
(0.003354972686406889 0 0)
(0.003364687722787991 0 0)
(0.003365788410750736 0 0)
(0.003353211150243823 0 0)
(0.003330897672017555 0 0)
(0.003299231283075809 0 0)
(0.003260632960547392 0 0)
(0.003216777253167631 0 0)
(0.003168780459262545 0 0)
(0.003117230318440405 0 0)
(0.003063648691911147 0 0)
(0.003008918272063816 0 0)
(0.002954870792266341 0 0)
(0.002882019202080208 0 0)
(0.002829003875839959 0 0)
(0.002774125402442196 0 0)
(0.002724771183574218 0 0)
(0.002679882738016542 0 0)
(0.002641002045962355 0 0)
(0.002608571710150406 0 0)
(0.002585197019187443 0 0)
(0.002570236250142314 0 0)
(0.002567803345383134 0 0)
(0.002570694866817499 0 0)
(0.002589092810770469 0 0)
(0.002622911920430864 0 0)
(0.002666160921495174 0 0)
(0.00271993308040905 0 0)
(0.002782444582414446 0 0)
(0.002851615381794309 0 0)
(0.002926302436243362 0 0)
(0.003006203972738329 0 0)
(0.003089583517154143 0 0)
(0.003176136255101074 0 0)
(0.003263643955755743 0 0)
(0.003356919593904344 0 0)
(0.003422021559787331 0 0)
(0.003507497195663505 0 0)
(0.003586709996349277 0 0)
(0.003664302183043262 0 0)
(0.003737466091943756 0 0)
(0.003805366043041299 0 0)
(0.003866396279345271 0 0)
(0.003920311701076372 0 0)
(0.003965527775406539 0 0)
(0.004002743993386264 0 0)
(0.004026004690986006 0 0)
(0.004039986151596973 0 0)
(0.004046708850556224 0 0)
(0.004042129964769023 0 0)
(0.004026153687517148 0 0)
(0.004000584825416101 0 0)
(0.003967173260984028 0 0)
(0.003927654153132606 0 0)
(0.003884153261762801 0 0)
(0.003836700316393432 0 0)
(0.003786997158030483 0 0)
(0.003734975614467513 0 0)
(0.003688238339329723 0 0)
(0.00361647374998484 0 0)
(0.003561788361501486 0 0)
(0.003509390135199832 0 0)
(0.003460631632842256 0 0)
(0.003416563277506535 0 0)
(0.003378158603866412 0 0)
(0.003345993427186267 0 0)
(0.003321640693097502 0 0)
(0.003306448714419953 0 0)
(0.003301534498070007 0 0)
(0.003305905165214292 0 0)
(0.003318962282108303 0 0)
(0.003349779226127583 0 0)
(0.003393764280338494 0 0)
(0.003445868150438266 0 0)
(0.003508173352901026 0 0)
(0.00357757839295352 0 0)
(0.003652799575042448 0 0)
(0.003733477826764682 0 0)
(0.003818572264170065 0 0)
(0.003907028773633084 0 0)
(0.003997461419890252 0 0)
(0.004092242046003751 0 0)
(0.00417055097859674 0 0)
(0.004248482745592187 0 0)
(0.00433397865818196 0 0)
(0.004414388202477129 0 0)
(0.00449203484349963 0 0)
(0.004564653476057946 0 0)
(0.004631239200177428 0 0)
(0.004690186778452891 0 0)
(0.004741844119842552 0 0)
(0.00478367211578495 0 0)
(0.004816980268258801 0 0)
(0.004832829736695952 0 0)
(0.004845793375808447 0 0)
(0.004851096830896355 0 0)
(0.004841441944249291 0 0)
(0.004822864485210326 0 0)
(0.004795349765687145 0 0)
(0.004761182978519187 0 0)
(0.004722107918456678 0 0)
(0.004679527892794647 0 0)
(0.004634120225308549 0 0)
(0.004586589855920442 0 0)
(0.004539733576152834 0 0)
(0.004486585703050793 0 0)
(0.004419880950161122 0 0)
(0.004373274480400337 0 0)
(0.004324900676313288 0 0)
(0.004282300980654628 0 0)
(0.004244822174696272 0 0)
(0.004213738155403945 0 0)
(0.004189519770243309 0 0)
(0.004174682520869063 0 0)
(0.004168094897372868 0 0)
(0.004174550967399725 0 0)
(0.00418375764034527 0 0)
(0.004211910002838752 0 0)
(0.004256646317172829 0 0)
(0.004307637378466849 0 0)
(0.004369722047146122 0 0)
(0.004439767568148325 0 0)
(0.00451602094071535 0 0)
(0.0045975095292542 0 0)
(0.004684380684046937 0 0)
(0.004775186123774578 0 0)
(0.004868835286815716 0 0)
(0.0049632698055119 0 0)
(0.005061032143627114 0 0)
(0.005127444615073413 0 0)
(0.005220311669764898 0 0)
(0.005303756001139774 0 0)
(0.005385973080645046 0 0)
(0.005463558724109012 0 0)
(0.005535814186726501 0 0)
(0.00560089604209227 0 0)
(0.00565870645742003 0 0)
(0.005706639609747818 0 0)
(0.005747662488826791 0 0)
(0.005771448162270744 0 0)
(0.005789451596528723 0 0)
(0.005801453393969338 0 0)
(0.005799916169690013 0 0)
(0.005788098532940445 0 0)
(0.005767409023607693 0 0)
(0.005739136998755826 0 0)
(0.005705169928064431 0 0)
(0.005667442717952077 0 0)
(0.005627100567042287 0 0)
(0.005584639210980468 0 0)
(0.00553984314834691 0 0)
(0.005502150610285415 0 0)
(0.005427951652231302 0 0)
(0.005385015866909556 0 0)
(0.005338587460646899 0 0)
(0.005297493842550028 0 0)
(0.005261243413136234 0 0)
(0.005231414374011009 0 0)
(0.00520842686131283 0 0)
(0.00519354621208734 0 0)
(0.005187377962875447 0 0)
(0.005192675060935722 0 0)
(0.005204161261379415 0 0)
(0.00522837710954249 0 0)
(0.005270003448856321 0 0)
(0.005322884015529728 0 0)
(0.005383998504075443 0 0)
(0.005454822335169389 0 0)
(0.005532155590076258 0 0)
(0.005614874131250133 0 0)
(0.005702792905086715 0 0)
(0.005795978747478173 0 0)
(0.005892656695440874 0 0)
(0.005989882347947575 0 0)
(0.006095416434577717 0 0)
(0.006167222465191909 0 0)
(0.006257407510443941 0 0)
(0.006346974421562189 0 0)
(0.006433286257433455 0 0)
(0.006515646243258825 0 0)
(0.006593481154971065 0 0)
(0.00666484910690803 0 0)
(0.006728693294678648 0 0)
(0.006783977107251321 0 0)
(0.006830086775826446 0 0)
(0.006864566415177858 0 0)
(0.006885852044500951 0 0)
(0.00690284888915247 0 0)
(0.006912076719501955 0 0)
(0.006906717031257779 0 0)
(0.00689321919659653 0 0)
(0.006871374950993397 0 0)
(0.00684324300854095 0 0)
(0.006810271144542497 0 0)
(0.006775223051497074 0 0)
(0.00673790862302335 0 0)
(0.006698395183197118 0 0)
(0.006661618759833448 0 0)
(0.006607737267211783 0 0)
(0.006551802866835653 0 0)
(0.006512442218098951 0 0)
(0.006472453332018802 0 0)
(0.006437856693403305 0 0)
(0.006409426954177329 0 0)
(0.006387980111615892 0 0)
(0.006374166575885967 0 0)
(0.006369281550085069 0 0)
(0.006372781811361589 0 0)
(0.006389088575433187 0 0)
(0.006406259103493303 0 0)
(0.006445917123185951 0 0)
(0.00650330670817166 0 0)
(0.006563605623567306 0 0)
(0.006635157106014269 0 0)
(0.006714127322290422 0 0)
(0.006798682982406171 0 0)
(0.006888110903233326 0 0)
(0.006983222147158883 0 0)
(0.007082970473426117 0 0)
(0.007184737777157815 0 0)
(0.00728784393096419 0 0)
(0.007387898563063816 0 0)
(0.007459744858288959 0 0)
(0.00755998486906008 0 0)
(0.007649465311790164 0 0)
(0.007737147830368465 0 0)
(0.007820278154747416 0 0)
(0.007898099771910281 0 0)
(0.007969140463394486 0 0)
(0.008031914066436519 0 0)
(0.008083929060191107 0 0)
(0.008129214086886553 0 0)
(0.008154098836321977 0 0)
(0.008177225693217979 0 0)
(0.008196662924891405 0 0)
(0.008198421450498995 0 0)
(0.008192084894092223 0 0)
(0.008177319561374923 0 0)
(0.008155647349347865 0 0)
(0.008128471027424991 0 0)
(0.00809811984590471 0 0)
(0.008066851761122342 0 0)
(0.008033553923694101 0 0)
(0.007997265568608542 0 0)
(0.007968978423891113 0 0)
(0.007895670092790515 0 0)
(0.007866227630795605 0 0)
(0.007827631672339028 0 0)
(0.007795929737835435 0 0)
(0.007768820923880182 0 0)
(0.007749366117694229 0 0)
(0.007737766180352473 0 0)
(0.007734462804191702 0 0)
(0.00773897511803333 0 0)
(0.007755992797211828 0 0)
(0.007775574869260441 0 0)
(0.007812307983357881 0 0)
(0.00786772296167491 0 0)
(0.007930147629869705 0 0)
(0.008001542704608041 0 0)
(0.008081839525801401 0 0)
(0.008168387044052757 0 0)
(0.008259746450548822 0 0)
(0.008355756482049097 0 0)
(0.008458514441307486 0 0)
(0.008564396885038591 0 0)
(0.008668861342990239 0 0)
(0.008786432657234137 0 0)
(0.008849988287356515 0 0)
(0.008955558305647574 0 0)
(0.009050116563189842 0 0)
(0.009143137985360964 0 0)
(0.009230997318049397 0 0)
(0.009314727342615502 0 0)
(0.009392558319395035 0 0)
(0.009462935443618353 0 0)
(0.00952287102934981 0 0)
(0.009573981664297057 0 0)
(0.009610213140517616 0 0)
(0.009637507923859789 0 0)
(0.00966042454582247 0 0)
(0.009673931013001402 0 0)
(0.009673605282038266 0 0)
(0.009665752038123747 0 0)
(0.009650717391357616 0 0)
(0.009629681939117672 0 0)
(0.009603917165501821 0 0)
(0.009578147320206712 0 0)
(0.009550883961534732 0 0)
(0.009520380709057604 0 0)
(0.009496834906915134 0 0)
(0.009439624452044283 0 0)
(0.009400408472605849 0 0)
(0.00936962731246436 0 0)
(0.009340159225361787 0 0)
(0.009315227237159293 0 0)
(0.009297280466681636 0 0)
(0.009287708979600153 0 0)
(0.009287137627460836 0 0)
(0.009294092298844737 0 0)
(0.009310095370217597 0 0)
(0.009336478268914481 0 0)
(0.009366829920991599 0 0)
(0.009419430550845665 0 0)
(0.009489189038830299 0 0)
(0.009560275201804915 0 0)
(0.009642480815823543 0 0)
(0.009731489529589335 0 0)
(0.009825977516656622 0 0)
(0.009924319874374565 0 0)
(0.01002929698306845 0 0)
(0.01013925523140805 0 0)
(0.0102498688241439 0 0)
(0.01036324505193826 0 0)
(0.01046292992766582 0 0)
(0.01054478481195453 0 0)
(0.01065285083549532 0 0)
(0.01074979119438804 0 0)
(0.01084385399418214 0 0)
(0.01093303582384177 0 0)
(0.01101774879338057 0 0)
(0.01109670143987764 0 0)
(0.01116610565802227 0 0)
(0.01122348967036069 0 0)
(0.01127444108501439 0 0)
(0.01130008998086352 0 0)
(0.01132990580356576 0 0)
(0.01135913741718993 0 0)
(0.01136484052754937 0 0)
(0.01136482318099767 0 0)
(0.01135667864582716 0 0)
(0.01134291790945207 0 0)
(0.01132359895421991 0 0)
(0.01130245627336687 0 0)
(0.01128175666301157 0 0)
(0.01125926795164594 0 0)
(0.01123349694238789 0 0)
(0.01121464283632928 0 0)
(0.01114606497038624 0 0)
(0.01113150708862202 0 0)
(0.01110389257792753 0 0)
(0.01108309811798883 0 0)
(0.01106675386155265 0 0)
(0.01105880958170739 0 0)
(0.01106133711675013 0 0)
(0.01107187388419056 0 0)
(0.01108918458676179 0 0)
(0.01111965940617554 0 0)
(0.01114816126746415 0 0)
(0.01119954901440734 0 0)
(0.0112719535762752 0 0)
(0.01134454819568358 0 0)
(0.01142782742845488 0 0)
(0.01151863799977805 0 0)
(0.01161603083445679 0 0)
(0.01171754762740485 0 0)
(0.01182390705705504 0 0)
(0.01193719515910112 0 0)
(0.01205381785081501 0 0)
(0.01216561626218196 0 0)
(0.01229866956197802 0 0)
(0.01235081550911613 0 0)
(0.01247661223255824 0 0)
(0.01257743173667871 0 0)
(0.01267861297558841 0 0)
(0.01277301364265871 0 0)
(0.01286289979135257 0 0)
(0.01294916671563045 0 0)
(0.01302798580157245 0 0)
(0.01309488302968008 0 0)
(0.01315246837395226 0 0)
(0.01319196081555113 0 0)
(0.01322639567229241 0 0)
(0.01325812523239023 0 0)
(0.01327700891333417 0 0)
(0.013282858088452 0 0)
(0.01328154807570692 0 0)
(0.01327406426814511 0 0)
(0.01326162827774252 0 0)
(0.01324497470828948 0 0)
(0.01322992090172444 0 0)
(0.01321405189277279 0 0)
(0.01319382773127013 0 0)
(0.01318590106271719 0 0)
(0.01312481399405425 0 0)
(0.01310690958563488 0 0)
(0.01308730485567059 0 0)
(0.01307088722855831 0 0)
(0.01305767860527826 0 0)
(0.01305074550454729 0 0)
(0.01305478354457438 0 0)
(0.01306941766678075 0 0)
(0.01309106739801577 0 0)
(0.01312086075398141 0 0)
(0.01315876368042981 0 0)
(0.01320386437162029 0 0)
(0.01327046989397643 0 0)
(0.01335335294972218 0 0)
(0.01343574218311781 0 0)
(0.01352875442865108 0 0)
(0.01362799510831987 0 0)
(0.0137330460443979 0 0)
(0.01384174948824501 0 0)
(0.01395794629395947 0 0)
(0.0140775842335922 0 0)
(0.01419720688140129 0 0)
(0.01432099856587815 0 0)
(0.01441962657391216 0 0)
(0.01451323237437806 0 0)
(0.01463009653787283 0 0)
(0.0147356776203513 0 0)
(0.01483680682277007 0 0)
(0.01493170455200687 0 0)
(0.01502255843216352 0 0)
(0.01510989589077968 0 0)
(0.01518778759860017 0 0)
(0.01525152206928625 0 0)
(0.01530962933613749 0 0)
(0.01533743733754355 0 0)
(0.01537375237780761 0 0)
(0.01541472977290271 0 0)
(0.01542455251899561 0 0)
(0.01543104698452118 0 0)
(0.01542918679089732 0 0)
(0.01542295674156821 0 0)
(0.01541212159097913 0 0)
(0.01540240447287552 0 0)
(0.01539091119843078 0 0)
(0.01537992369303498 0 0)
(0.01536554419846562 0 0)
(0.01535722181142959 0 0)
(0.01529419519008257 0 0)
(0.01529710850892706 0 0)
(0.01528264902355838 0 0)
(0.01527497522563936 0 0)
(0.01527069863548902 0 0)
(0.01527412862326641 0 0)
(0.01529068326339234 0 0)
(0.01531720406332924 0 0)
(0.01534924393010831 0 0)
(0.01539473929383276 0 0)
(0.01543209514179726 0 0)
(0.01549735746266188 0 0)
(0.01558839870904042 0 0)
(0.0156712180253775 0 0)
(0.01576596030998975 0 0)
(0.01586701091731171 0 0)
(0.01597429421528969 0 0)
(0.01608591035778968 0 0)
(0.01620537320349676 0 0)
(0.01632829259022993 0 0)
(0.01645422926809639 0 0)
(0.01657327107712725 0 0)
(0.01672104519407405 0 0)
(0.01676109680172304 0 0)
(0.01690843441414525 0 0)
(0.0170163832945927 0 0)
(0.01712609232053481 0 0)
(0.01722738902242656 0 0)
(0.0173227294295182 0 0)
(0.01741481679436643 0 0)
(0.0175013889627311 0 0)
(0.01757701552526435 0 0)
(0.01764188803442244 0 0)
(0.01768628054019307 0 0)
(0.01772626247271695 0 0)
(0.01776779090380028 0 0)
(0.01779337824813788 0 0)
(0.01780545716865022 0 0)
(0.01781073630744307 0 0)
(0.0178101848668312 0 0)
(0.0178047479927779 0 0)
(0.01779891764378189 0 0)
(0.0177950131012386 0 0)
(0.01778745900623717 0 0)
(0.01777795930459077 0 0)
(0.01778387012471069 0 0)
(0.0177213183733474 0 0)
(0.01772523175944064 0 0)
(0.01771971861205512 0 0)
(0.01771702214570343 0 0)
(0.01771664370416855 0 0)
(0.01772196067384487 0 0)
(0.01773758737230871 0 0)
(0.01776434915584957 0 0)
(0.01780274513544661 0 0)
(0.01784799898268357 0 0)
(0.01790235093524165 0 0)
(0.01795632890227629 0 0)
(0.01803568542471275 0 0)
(0.01813593532498016 0 0)
(0.0182265891763975 0 0)
(0.01833017092803625 0 0)
(0.01843969105984803 0 0)
(0.01855482837550321 0 0)
(0.01867320011328421 0 0)
(0.01880398059913613 0 0)
(0.01893186458183176 0 0)
(0.01905961611401552 0 0)
(0.01919066472175268 0 0)
(0.01929243007918931 0 0)
(0.01938859954447892 0 0)
(0.01952294991356439 0 0)
(0.01963590259815918 0 0)
(0.0197433763717549 0 0)
(0.01984558914263321 0 0)
(0.01994576509839325 0 0)
(0.02003661073260399 0 0)
(0.02011585524594551 0 0)
(0.02019677783782623 0 0)
(0.02033915807204839 0 0)
(0.02032271886659799 0 0)
)
;

boundaryField
{
    inlet
    {
        type            calculated;
        value           uniform (-2.546644841693562e-05 0 0);
    }
    outlet
    {
        type            calculated;
        value           uniform (0.02032271886659799 0 0);
    }
    frontAndBack
    {
        type            empty;
    }
}


// ************************************************************************* //
