/*--------------------------------*- C++ -*----------------------------------*\
| =========                 |                                                 |
| \\      /  F ield         | OpenFOAM: The Open Source CFD Toolbox           |
|  \\    /   O peration     | Version:  v2012                                 |
|   \\  /    A nd           | Website:  www.openfoam.com                      |
|    \\/     M anipulation  |                                                 |
\*---------------------------------------------------------------------------*/
FoamFile
{
    version     2.0;
    format      ascii;
    class       volScalarField;
    location    "0.017";
    object      p;
}
// * * * * * * * * * * * * * * * * * * * * * * * * * * * * * * * * * * * * * //

dimensions      [1 -1 -2 0 0 0 0];


internalField   nonuniform List<scalar> 
1000
(
101310.8186726962
101313.298525016
101306.3366312814
101300.7356344575
101294.5651180202
101289.0676311396
101284.3487920425
101280.2883775993
101276.821873408
101274.4660438224
101273.6829220746
101273.7048968997
101274.1656703384
101275.3479829112
101277.5327779757
101280.7673099159
101284.9283052187
101289.8339136181
101295.3292172065
101301.3024852833
101307.6621442826
101314.3133716785
101321.1492839004
101328.05385228
101334.9080837919
101341.5946245872
101348.0074133143
101354.0720635393
101359.7592146992
101365.0536630228
101369.8024421357
101373.4441541714
101375.2900174845
101375.6872746229
101375.6919208199
101375.3745690392
101374.5371101314
101372.9407605211
101370.3922794031
101366.801553118
101362.2125097799
101356.782157993
101350.7211166865
101344.230935031
101337.4699995421
101330.5553639756
101323.5843586857
101316.6541857534
101309.8658544541
101303.3082028935
101297.0333894572
101291.0604452147
101285.4598623134
101280.5677692478
101277.1229416125
101275.5867720625
101275.3091014187
101275.3633769602
101275.7020833305
101276.5043273116
101277.9599232921
101280.2486137459
101283.4941187262
101287.7271818683
101292.8726629217
101298.7679966224
101305.2043264365
101311.972269153
101318.8944289834
101325.8371042167
101332.7056617308
101339.4343916923
101345.9828719745
101352.3351416346
101358.4696331177
101364.2733815753
101369.3729881031
101372.9887585865
101374.5911211903
101374.9244944806
101374.9635976313
101374.7230143174
101374.0909532635
101372.8854459806
101370.9357143038
101368.1023932435
101364.3074287592
101359.5537857776
101353.9318604354
101347.6070616633
101340.7899385937
101333.6985650273
101326.5246496799
101319.411743414
101312.4492479773
101305.6779633563
101299.1049974601
101292.7502449834
101286.7619080664
101281.614390878
101278.1449278645
101276.7004618147
101276.4271683355
101276.4353951223
101276.7035392148
101277.3498628704
101278.5253254414
101280.3834603451
101283.0566505941
101286.6301343059
101291.1224898513
101296.4763511364
101302.5623000246
101309.1967525673
101316.1709109293
101323.28452819
101330.3758303819
101337.3382285482
101344.1223914388
101350.7235107674
101357.1273550195
101363.1981102277
101368.5261051296
101372.3152007618
101374.0060887732
101374.3873927144
101374.4750185132
101374.3041337773
101373.8159687155
101372.8495232103
101371.2569590246
101368.9041902296
101365.6894861989
101361.5605577069
101356.5290912907
101350.6774499745
101344.1528962379
101337.148730249
101329.8747194579
101322.52300155
101315.2409478877
101308.1193043886
101301.1991288478
101294.5218273276
101288.2567343784
101282.8888975475
101279.2504535738
101277.7173081957
101277.3985247218
101277.3532088984
101277.5552336341
101278.0756280935
101279.0522496473
101280.6172067139
101282.8948684993
101285.9815035043
101289.9298248562
101294.7375832457
101300.3416952347
101306.6205099856
101313.406196937
101320.5076321763
101327.7402037167
101334.9526679336
101342.0428296188
101348.9590112329
101355.6579121393
101361.989799547
101367.5523275933
101371.586717683
101373.484578972
101373.9501020141
101374.0768824409
101373.9713580578
101373.6003631171
101372.8203508089
101371.4960474219
101369.5022587623
101366.7337247527
101363.1167865154
101358.6231435392
101353.2803252486
101347.1749473098
101340.4470115412
101333.2739586377
101325.8450034581
101318.3335964713
101310.8781911885
101303.5754248245
101296.5135990604
101289.8966871343
101284.2279640555
101280.3366134839
101278.64303408
101278.2582709494
101278.1724756662
101278.3185569728
101278.7335877352
101279.5473631798
101280.8796819607
101282.8465439238
101285.5460474126
101289.0456810966
101293.3721025161
101298.5038504817
101304.368343993
101310.8452608673
101317.7784843382
101324.996959551
101332.3385176117
101339.6681198391
101346.8883969302
101353.9170039913
101360.579596647
101366.4607252163
101370.8217803235
101373.0008951587
101373.5766632897
101373.7259606476
101373.6795493608
101373.4024065375
101372.7738717045
101371.6668998956
101369.9634792216
101367.5592155534
101364.3708148768
101360.3479612791
101355.4837720951
101349.820638107
101343.4505540089
101336.5083439876
101329.155914252
101321.5612697919
101313.8809746819
101306.249736987
101298.7998928316
101291.7725652791
101285.7013933684
101281.4410751215
101279.4985459641
101279.0314750688
101278.91592752
101279.0092817283
101279.3371863648
101280.0159267116
101281.1562527491
101282.8664226285
101285.243294277
101288.3619504653
101292.2662636479
101296.961831251
101302.4114575152
101308.534358898
101315.2113641791
101322.2980267099
101329.6427859916
101337.1023372161
101344.553008358
101351.8831278694
101358.9008547511
101365.1694577026
101369.9423779725
101372.4947040626
101373.2259856995
101373.3865317219
101373.3941913658
101373.1934051955
101372.6893381022
101371.7635259988
101370.3037071742
101368.2068595331
101365.3848188264
101361.7744606272
101357.3468424085
101352.1130961684
101346.127248996
101339.4847271553
101332.3138622456
101324.7616704808
101316.9813777569
101309.1238596747
101301.3470632379
101293.9107535853
101287.3701932778
101282.6272717062
101280.3150973535
101279.7154617763
101279.5823056298
101279.626078146
101279.8788433226
101280.4408768961
101281.4166345463
101282.9080533644
101285.0093373884
101287.7987937242
101291.3304616981
101295.6279109688
101300.6795701341
101306.4359675129
101312.8108913611
101319.6888611852
101326.9381537816
101334.4226089055
101342.009176005
101349.5675507839
101356.9017627655
101363.574967513
101368.8258209329
101371.859148279
101372.8275628307
101373.0050132883
101373.0599216039
101372.9174842109
101372.5179418798
101371.744634704
101370.4918192789
101368.6582633549
101366.153068842
101362.905188005
101358.8710904674
101354.039713303
101348.436100456
101342.1228779583
101335.1966639588
101327.7787980044
101320.0067845773
101312.0305220942
101304.0177520492
101296.2257224238
101289.1996529531
101283.8749542798
101281.0390537224
101280.2072961705
101280.0635645042
101280.056033351
101280.2435941523
101280.70164819
101281.5290157407
101282.823391722
101284.6776279101
101287.1722564803
101290.367733003
101294.299533117
101298.9743897444
101304.3668648738
101310.4181560276
101317.0398153818
101324.1225939933
101331.5448983118
101339.1764592498
101346.8800250728
101354.4678432125
101361.5285015355
101367.2955424402
101370.9023837395
101372.218766437
101372.4486542914
101372.5312337294
101372.4415116208
101372.1347732522
101371.4985631327
101370.4323103874
101368.8383500042
101366.6253605247
101363.7180545602
101360.0644191017
101355.6395025036
101350.4485633089
101344.5297260935
101337.9534003927
101330.8167197173
101323.2380008305
101315.3573682528
101307.3417245388
101299.4336819556
101292.1363088204
101286.3728569709
101283.0413981568
101281.9391417471
101281.7608388343
101281.7191254266
101281.8552244489
101282.2230922303
101282.9169581949
101284.0273711411
101285.6442301617
101287.8480342174
101290.7022946352
101294.2498024261
101298.5099067966
101303.4750972532
101309.1086681445
101315.3459682211
101322.100077117
101329.2681322796
101336.7323851398
101344.3588318417
101351.9747785328
101359.2289769275
101365.4005475841
101369.5808005337
101371.3702733715
101371.7180939731
101371.8113986721
101371.7693091636
101371.5450231542
101371.0365440272
101370.1495508668
101368.7906172431
101366.8673292316
101364.299460056
101361.0272674651
101357.0136924202
101352.245732373
101346.7373782612
101340.5315470751
101333.6979352875
101326.3299174132
101318.5481021366
101310.5080573909
101302.4301767078
101294.7526907579
101288.3580104486
101284.2914767016
101282.7110363714
101282.4287863113
101282.3667702531
101282.4581769827
101282.7472294699
101283.3272718149
101284.2841210414
101285.7057187557
101287.6739391382
101290.25578822
101293.4999225196
101297.4352443742
101302.0682621614
101307.3801615794
101313.3261187067
101319.838643789
101326.8325676857
101334.2045492561
101341.8280503016
101349.5421576987
101357.0542892928
101363.7085072259
101368.5413172957
101370.9424006193
101371.5137719542
101371.6056576283
101371.5984624126
101371.436019303
101371.0264088417
101370.2794461276
101369.1044345532
101367.4083320755
101365.1070620104
101362.134876411
101358.4462386955
101354.0161301433
101348.8425216385
101342.9492609052
101336.3861396573
101329.2270498775
101321.5738854978
101313.567134025
101305.4070693739
101297.4632157583
101290.5230385383
101285.7163265617
101283.5423595992
101283.0641886613
101282.9910055515
101283.0464517304
101283.2715411269
101283.7540909856
101284.5755842899
101285.8217334172
101287.5765884939
101289.9112247382
101292.8791545328
101296.5163165494
101300.8397356117
101305.8443523175
101311.5009822126
101317.7578614377
101324.5446890006
101331.7724657303
101339.3268140527
101347.0588141259
101354.7272074233
101361.7825255874
101367.259408666
101370.3583693416
101371.3036628924
101371.4070837752
101371.4280723348
101371.3156677662
101370.9912675236
101370.3674288796
101369.3586913817
101367.8724100323
101365.8199151533
101363.1285334648
101359.7452099495
101355.6358419812
101350.7862525662
101345.2051627845
101338.9258757772
101332.0054473413
101324.5280131739
101316.6169537756
101308.4517493218
101300.3378143041
101292.9376191673
101287.3947311836
101284.5194245995
101283.7132135842
101283.6262618557
101283.6454789992
101283.8164179145
101284.2128436707
101284.9125430239
101285.99859245
101287.5562328597
101289.6603841095
101292.3692395271
101295.7247359786
101299.7523727415
101304.4582791814
101309.8264112362
101315.8184460438
101322.3768509741
101329.426214526
101336.8660161632
101344.5592293741
101352.3020519746
101359.6630822265
101365.7435686034
101369.5756315701
101371.040620027
101371.2339377171
101371.2608586174
101371.1839635872
101370.9312636524
101370.4150808745
101369.5560259872
101368.2622857582
101366.4411596026
101364.0138075967
101360.9204446238
101357.1190666207
101352.5853442366
101347.3154042872
101341.3286697718
101334.668218935
101327.4023589274
101319.6362411103
101311.5290984782
101303.3359948942
101295.5906396786
101289.356130726
101285.6916175045
101284.415960267
101284.2500451874
101284.2535309324
101284.3798028261
101284.7047089523
101285.299349081
101286.2420678558
101287.6183026723
101289.5071508756
101291.9719563213
101295.0599541402
101298.8034353301
101303.2178001279
101308.2983557292
101314.0188781625
101320.3335006952
101327.1786282358
101334.4664532043
101342.0737755446
101349.8257926505
101357.3891025193
101363.9959842493
101368.5698628579
101370.678618276
101371.0939490787
101371.1056511674
101371.0578256542
101370.8615820419
101370.4357964586
101369.7056089938
101368.5837312303
101366.9763227001
101364.7985114731
101361.9825962792
101358.4784085584
101354.2529462078
101349.292152188
101343.6036652912
101337.2180764278
101330.1898745107
101322.6071391493
101314.6087128036
101306.4111938058
101298.436805579
101291.5945308724
101287.10136334
101285.2257106727
101284.880256135
101284.8713274294
101284.9613866943
101285.2243768051
101285.7271648557
101286.5423872685
101287.7536903049
101289.4433319591
101291.6793096555
101294.5135331568
101297.9841034413
101302.114445919
101306.9098740545
101312.3551359256
101318.4149005725
101325.0357340003
101332.1427855731
101339.6287549359
101347.3381855174
101355.0051688305
101362.0286875222
101367.3296546909
101370.167222273
101370.9444714283
101370.9791170113
101370.9454576284
101370.7867930565
101370.4359185492
101369.81701202
101368.8482576206
101367.435607196
101365.4892356895
101362.9349502323
101359.7157018881
101355.7904787228
101351.1356398006
101345.7478972251
101339.6465790409
101332.8745425167
101325.5039838867
101317.6535905471
101309.51217246
101301.415238724
101294.0913338653
101288.7788933839
101286.1848327266
101285.5158809888
101285.4809454765
101285.5459465247
101285.7571266074
101286.1824230526
101286.8866349066
101287.9492416622
101289.454533762
101291.4753033058
101294.0683484896
101297.2769859538
101301.1313900251
101305.645554455
101310.814228751
101316.6120750979
101322.9953800967
101329.901216217
101337.2357139432
101344.8590516347
101352.555446199
101359.8733609239
101365.840500258
101369.439273106
101370.7381173898
101370.8891464728
101370.8411268811
101370.7157126622
101370.4223909969
101369.8943692653
101369.0565807459
101367.8175162338
101366.0850360155
101363.779229912
101360.8353569733
101357.2037507306
101352.8517299433
101347.7663723737
101341.9567328449
101335.4547377931
101328.3184457755
101320.6482891746
101312.6092534838
101304.4723388368
101296.8036001579
101290.7391548095
101287.3392036124
101286.2088597991
101286.0857861344
101286.1408238371
101286.3043312467
101286.6627436451
101287.2704395663
101288.2006742986
101289.5376491538
101291.3585268139
101293.7247579087
101296.6840284434
101300.2719696546
101304.5099256028
101309.4016383116
101314.9315158057
101321.0653734124
101327.7504298458
101334.9066426325
101342.4124706575
101350.0846114418
101357.5734569184
101364.0895067802
101368.4858262212
101370.4483112427
101370.8028435395
101370.7690640403
101370.6619516716
101370.4105710785
101369.955190657
101369.2267648351
101368.1410264207
101366.6040513983
101364.5300893702
101361.8479468071
101358.5008781015
101354.4477940923
101349.6662014576
101344.1548450278
101337.9351829734
101331.0533102505
101323.5915311491
101315.6914163754
101307.5832124168
101299.7086352674
101293.0079095903
101288.7287448971
101287.005575526
101286.6974440242
101286.7353476929
101286.8627142053
101287.1672270303
101287.6950060023
101288.5112191198
101289.696721344
101291.3320762604
101293.4841805012
101296.2057125462
101299.5373171132
101303.5063188154
101308.1238014197
101313.3826886037
101319.2575009967
101325.705035741
101332.6598188069
101340.0179691787
101347.6163219821
101355.1768231107
101362.104834473
101367.289677694
101369.9749909715
101370.7078932803
101370.7372457274
101370.633640922
101370.4136199113
101370.0127225756
101369.3720324194
101368.4153583844
101367.0511119906
101365.1905628987
101362.7564975264
101359.6840026694
101355.9227070661
101351.4411657209
101346.2295039562
101340.3002734481
101333.6891423039
101326.4615750528
101318.7354700318
101310.7100569687
101302.7335286004
101295.5380404188
101290.3863065358
101287.954321628
101287.3266199084
101287.3094423312
101287.4182054445
101287.6737455936
101288.136251519
101288.856089218
101289.9079018515
101291.3733222209
101293.3242156106
101295.8191419544
101298.9046868629
101302.6141917237
101306.9648646462
101311.9560356837
101317.5690271416
101323.7683920897
101330.5000591053
101337.6773669352
101345.1613572677
101352.7288473889
101359.9254912294
101365.7979688043
101369.2844149924
101370.5690491663
101370.7131088404
101370.6256357896
101370.4375455867
101370.0768300206
101369.499517573
101368.6444204028
101367.4284861632
101365.7614416253
101363.5598286789
101360.750681137
101357.2743003365
101353.0892669836
101348.1764710641
101342.5405271267
101336.2093460069
101329.2361150344
101321.717023575
101313.8208775737
101305.8291516537
101298.3081332351
101292.3724436681
101289.0942925932
101288.003738708
101287.864706239
101287.9558400958
101288.166454946
101288.5792368026
101289.2261400043
101290.1694156416
101291.4854251252
101293.2485048103
101295.523980796
101298.3675028415
101301.8217211418
101305.9115379337
101310.6420310107
101315.9989780265
101321.950724037
101328.4497406857
101335.424937503
101342.7608072691
101350.2696867428
101357.6005352005
101364.0113155934
101368.3624555449
101370.2738749103
101370.6893359186
101370.659327973
101370.4946450524
101370.1694025301
101369.6386219098
101368.8566744191
101367.7552555695
101366.2523551649
101364.2647191538
101361.71167332
101358.5198030672
101354.6323986195
101350.018116588
101344.6736409294
101338.6220391468
101331.9110896153
101324.6216465498
101316.8938870435
101308.9611916495
101301.261158953
101294.6946077662
101290.4902496246
101288.8199685925
101288.4757033429
101288.4822456804
101288.6555469435
101289.0171595424
101289.6081971279
101290.4724676628
101291.6732220303
101293.2774454942
101295.3496026197
101297.9525810351
101301.1434984887
101304.9635342731
101309.4299587555
101314.5348284864
101320.2477784386
101326.5206191966
101333.2873921386
101340.4480345005
101347.8460675239
101355.2177787431
101361.9922946635
101367.1236737012
101369.7891674876
101370.6018746438
101370.6941207878
101370.5817068645
101370.3135817512
101369.8245085152
101369.089953259
101368.0625087478
101366.6786372445
101364.8657340782
101362.5454450829
101359.6363554054
101356.0625446378
101351.7671712729
101346.7253182815
101340.9503984115
101334.491015426
101327.4259522269
101319.881073839
101312.0574249857
101304.2896373574
101297.2808359057
101292.2259654708
101289.809352109
101289.1444170736
101289.044564431
101289.1371676613
101289.4198221597
101289.944647093
101290.748225508
101291.8751849578
101293.3725390554
101295.2881857951
101297.6766782893
101300.601989244
101304.1281944001
101308.301797179
101313.1367940583
101318.6104519164
101324.6700530821
101331.2441605443
101338.2374027846
101345.5081548723
101352.8435069234
101359.8224270157
101365.560007195
101369.0700699853
101370.3799061766
101370.6168609332
101370.6349395736
101370.4684425249
101370.0761053801
101369.4058234199
101368.4205558591
101367.0854879841
101365.3655016147
101363.213988533
101360.5612282587
101357.3164249113
101353.3859110071
101348.6990288285
101343.2311934879
101337.0188582355
101330.1535515785
101322.7718942001
101315.0671563324
101307.3085867315
101300.0210989602
101294.2641205301
101290.9966401625
101289.8901573792
101289.7147389003
101289.712512689
101289.8782499459
101290.266869975
101290.9411118456
101291.9686948908
101293.4034273893
101295.2704323765
101297.5733058503
101300.3180129132
101303.5371315863
101307.3057099424
101311.7351285495
101316.9180604903
101322.8401083148
101329.3236027021
101336.2083123747
101343.1293235848
101351.0753819757
)
;

boundaryField
{
    inlet
    {
        type            uniformFixedValue;
        uniformValue    sine;
        uniformValueCoeffs
        {
            frequency       constant 3000;
            scale           constant 50;
            level           constant 101325;
        }
        value           uniform 101323.6421297957;
    }
    outlet
    {
        type            pressureOutletNSCBC;
        pInf            101325;
        gamma           1.4;
        etaAc           1;
        fieldInf        1;
        lInf            2.25;
        value           uniform 101354.7980034351;
    }
    frontAndBack
    {
        type            empty;
    }
}


// ************************************************************************* //
