/*--------------------------------*- C++ -*----------------------------------*\
| =========                 |                                                 |
| \\      /  F ield         | OpenFOAM: The Open Source CFD Toolbox           |
|  \\    /   O peration     | Version:  v2012                                 |
|   \\  /    A nd           | Website:  www.openfoam.com                      |
|    \\/     M anipulation  |                                                 |
\*---------------------------------------------------------------------------*/
FoamFile
{
    version     2.0;
    format      ascii;
    class       volScalarField;
    location    "0.017";
    object      pMean;
}
// * * * * * * * * * * * * * * * * * * * * * * * * * * * * * * * * * * * * * //

dimensions      [1 -1 -2 0 0 0 0];


internalField   nonuniform List<scalar> 
1000
(
101325.0467082274
101325.0030717543
101325.011964882
101325.0204636575
101325.0317172858
101325.0453932475
101325.0594832857
101325.0774856063
101325.0963460999
101325.1171469676
101325.1384495669
101325.1595943506
101325.1807948131
101325.201617004
101325.2219035618
101325.2411459354
101325.2589998651
101325.2750888249
101325.2890719039
101325.3008153202
101325.31002005
101325.31667871
101325.3204095809
101325.3214206674
101325.3195200226
101325.3148934505
101325.3075701105
101325.2977268159
101325.2854191124
101325.2709052248
101325.2542782037
101325.235899775
101325.2163333092
101325.1962854808
101325.1763746773
101325.1564332226
101325.1366999451
101325.1173912667
101325.0988461873
101325.0814559364
101325.0656914007
101325.0518658917
101325.0403756571
101325.0314065227
101325.025213356
101325.0216371775
101325.0210462276
101325.0232401372
101325.0282810568
101325.0360763341
101325.0465160498
101325.0594335507
101325.0747187405
101325.0921722693
101325.1113655966
101325.1316055971
101325.1520774464
101325.1728359211
101325.1933560207
101325.2137128142
101325.2336818803
101325.2529883347
101325.2712366801
101325.2881319979
101325.303119257
101325.3159791946
101325.326328712
101325.3340889289
101325.338917839
101325.3410038748
101325.3401216875
101325.336531692
101325.3301798835
101325.3212363952
101325.309691646
101325.2956969302
101325.2794166465
101325.261275696
101325.2420595283
101325.2223293933
101325.2028839987
101325.183370101
101325.163977104
101325.1449737376
101325.1264981741
101325.1089223047
101325.0926256585
101325.0779857012
101325.0653827571
101325.0552067648
101325.047693387
101325.0430230048
101325.041215462
101325.0423260113
101325.046393784
101325.0532566361
101325.0629087961
101325.0752167062
101325.0900192175
101325.1071920235
101325.1261253862
101325.1461191627
101325.1662096048
101325.1866886783
101325.206889735
101325.2269261398
101325.2466957099
101325.2659073533
101325.284295081
101325.3015358826
101325.3172127885
101325.3309699691
101325.3424694447
101325.3513983541
101325.3576812713
101325.360879144
101325.3611815394
101325.3586731858
101325.3532464744
101325.3451502102
101325.334367936
101325.3209813402
101325.3052263058
101325.2874950393
101325.2686311544
101325.2492279445
101325.2300540439
101325.210893137
101325.1917565516
101325.1729906168
101325.1546283719
101325.1370406055
101325.1204415774
101325.1053317192
101325.0919196654
101325.0807554056
101325.0719994038
101325.0661721951
101325.0629417646
101325.0629040299
101325.0658468853
101325.0717493515
101325.0805718558
101325.092243278
101325.1065381387
101325.1233120372
101325.141940394
101325.1616670811
101325.1815925665
101325.2016226876
101325.221729866
101325.2415508685
101325.2611387184
101325.2802978741
101325.2987499218
101325.3161970152
101325.3323527191
101325.3467830862
101325.3591958665
101325.3692180845
101325.3767779159
101325.3811987544
101325.3828695296
101325.3815239035
101325.3772073331
101325.3700269272
101325.3600521303
101325.3473841591
101325.3321843936
101325.3149572316
101325.2964075218
101325.2774491159
101325.258225481
101325.2395177108
101325.2206489081
101325.2020617053
101325.1838527124
101325.1662850963
101325.1495466711
101325.1340962761
101325.1201321524
101325.1081657989
101325.098408605
101325.0914332201
101325.0869208303
101325.0857040545
101325.0873610131
101325.092239474
101325.1000671754
101325.1109719538
101325.1247005203
101325.1410078456
101325.159340926
101325.1788121152
101325.1986778243
101325.2182604348
101325.238355924
101325.2580412544
101325.2774528907
101325.2965610793
101325.3150443367
101325.3326879722
101325.3491495925
101325.3641579807
101325.377290424
101325.3882930089
101325.3968832688
101325.4027065159
101325.4056351467
101325.4055030089
101325.4024394092
101325.3963012714
101325.3872642395
101325.3754290999
101325.3608830223
101325.3442065787
101325.3260100446
101325.3074050805
101325.2883186598
101325.2699135553
101325.2513073807
101325.2328681773
101325.2148026538
101325.1972981902
101325.1805321727
101325.1648116261
101325.150480342
101325.1378707235
101325.1273391937
101325.1192265029
101325.1138998675
101325.1112599831
101325.1117198207
101325.1154438118
101325.1222210269
101325.1322044683
101325.1452285508
101325.1610128929
101325.1789957928
101325.1982668476
101325.2180144282
101325.2374677091
101325.2573746678
101325.2770252228
101325.296312806
101325.3153750253
101325.3339022584
101325.3517148114
101325.3684231803
101325.3839084203
101325.3976472086
101325.4095088253
101325.4189809318
101325.4261937161
101325.43014794
101325.4314005323
101325.4295684716
101325.4246681858
101325.416662558
101325.405759218
101325.3920330931
101325.3759545417
101325.3582080099
101325.3398542516
101325.3211771384
101325.3026707612
101325.2844834206
101325.2662396258
101325.2483209499
101325.2309027809
101325.2141508288
101325.1982966233
101325.1836701478
101325.1705962256
101325.1594126331
101325.1504219943
101325.144199293
101325.1403203037
101325.1397156319
101325.1422297502
101325.147957543
101325.1569057638
101325.1690834175
101325.1842708278
101325.2018163587
101325.2209123955
101325.24048684
101325.2601293902
101325.2794444838
101325.2993231785
101325.3185972656
101325.3376435428
101325.3562054883
101325.3741833292
101325.3911786949
101325.4070119063
101325.4213391072
101325.4339144555
101325.4442843143
101325.4525559927
101325.4576702546
101325.4602838156
101325.4596785084
101325.4561016956
101325.4492608636
101325.4394148111
101325.4266450676
101325.4113051356
101325.3941245186
101325.3760475099
101325.3578875909
101325.3392273792
101325.3215038026
101325.3035337254
101325.2857708232
101325.2684669937
101325.2517985415
101325.2359396446
101325.2211011084
101325.2077277205
101325.1960287403
101325.1864042221
101325.179251673
101325.174621043
101325.1729169529
101325.1742672739
101325.1789494222
101325.1868887631
101325.1981289449
101325.2126016195
101325.2296931445
101325.2485813295
101325.2680985697
101325.2878787143
101325.307028971
101325.3270165958
101325.3464121346
101325.3654780356
101325.3841701829
101325.4023522594
101325.4196925866
101325.4359238704
101325.4508296453
101325.4641029148
101325.475424456
101325.4845218516
101325.4912662884
101325.4949021649
101325.4956805984
101325.4934697634
101325.4880129873
101325.4793729255
101325.4677073521
101325.4533587086
101325.4368913132
101325.41930296
101325.401510774
101325.3832935439
101325.3656740918
101325.3481830972
101325.3306411155
101325.3135863523
101325.2970347934
101325.2813028668
101325.2664289602
101325.2528462407
101325.2408032523
101325.2307071109
101325.2227012354
101325.2175357653
101325.2145495544
101325.2148664861
101325.218324684
101325.2250927444
101325.2350785446
101325.2483777637
101325.2645245214
101325.2826507187
101325.3016279625
101325.3208336939
101325.3397877783
101325.3587135991
101325.3779679932
101325.3965957441
101325.414920665
101325.4327240234
101325.4498877906
101325.4660304356
101325.4809117517
101325.4943801348
101325.5060873883
101325.5156745974
101325.5232767607
101325.5276621223
101325.5296224288
101325.528509991
101325.5243213173
101325.516921355
101325.5064062664
101325.4931482699
101325.477592629
101325.4606716827
101325.4432550863
101325.4258513134
101325.4080050764
101325.3912150583
101325.3741002344
101325.3573327422
101325.3409861153
101325.3254313601
101325.3106586274
101325.2969525651
101325.2846670942
101325.2741447157
101325.2655500114
101325.2595902635
101325.2557190343
101325.2550689356
101325.2573144919
101325.262959536
101325.2718475103
101325.2840572971
101325.2993693108
101325.317011944
101325.3358123447
101325.3548718767
101325.3740415287
101325.3924812336
101325.4119189885
101325.4306392803
101325.4489414415
101325.4668337461
101325.4841333139
101325.5005949841
101325.5158304246
101325.529747107
101325.5420546776
101325.552467878
101325.5607395901
101325.5665698771
101325.5694820214
101325.5695355777
101325.5666042093
101325.5604789647
101325.5510931516
101325.5388146428
101325.5241034072
101325.5077447022
101325.4905776015
101325.4735260173
101325.4558038465
101325.439122138
101325.4223285719
101325.4055999991
101325.3893570688
101325.3737327972
101325.3589736786
101325.345115719
101325.3324965015
101325.3215349546
101325.3124750355
101325.3055556667
101325.3013894188
101325.2994301264
101325.3007069244
101325.3052645866
101325.313100297
101325.3242776312
101325.3386416872
101325.3557067047
101325.374266611
101325.3932409436
101325.4123513743
101325.4310254189
101325.4499041671
101325.4689521915
101325.4872917447
101325.505322402
101325.5227073388
101325.5394691115
101325.5550786143
101325.5693826114
101325.5822114485
101325.5933603055
101325.6022999917
101325.6093749994
101325.6130478116
101325.6143817158
101325.6126279071
101325.6077717705
101325.5996476243
101325.5884057168
101325.5745902646
101325.5589015955
101325.5421420724
101325.5252302361
101325.5081931487
101325.4909318455
101325.4746833049
101325.4581522452
101325.4419948238
101325.4263486685
101325.4115345348
101325.3976294635
101325.3847458445
101325.3733898288
101325.3638582048
101325.3562923183
101325.3514362917
101325.3485033419
101325.3489558731
101325.35236926
101325.3591614194
101325.3693064871
101325.3826570514
101325.3989587092
101325.4171788343
101325.4361084465
101325.4550188236
101325.4740717027
101325.4922953136
101325.5116642173
101325.530133386
101325.5481914592
101325.5657236768
101325.582636858
101325.5986664488
101325.613340957
101325.6266611454
101325.6383872428
101325.6481498863
101325.655864885
101325.6609079343
101325.6632091173
101325.6625498688
101325.658952977
101325.6520806893
101325.6420266786
101325.6290989315
101325.6142207009
101325.5979461406
101325.5811793073
101325.5646826275
101325.5473611404
101325.5313255382
101325.5150853684
101325.4989491035
101325.4833799125
101325.468441009
101325.4545310786
101325.4414661548
101325.4297922715
101325.419753202
101325.4117577504
101325.4059064355
101325.4028142938
101325.4019435845
101325.4043815006
101325.4101262085
101325.4191918814
101325.4315721092
101325.4469179519
101325.4647032399
101325.4833803161
101325.5022589681
101325.5213511604
101325.5397417537
101325.5585678568
101325.5774123896
101325.5955351093
101325.6132495097
101325.6302879798
101325.6466248072
101325.6617851749
101325.6754597125
101325.6877831458
101325.6982883808
101325.7066047233
101325.7130076047
101325.7159489129
101325.71655458
101325.7141350398
101325.708528176
101325.6997474244
101325.6878254588
101325.6737439724
101325.6580445988
101325.6416603426
101325.6252960549
101325.60873248
101325.5920220861
101325.5763797465
101325.560412022
101325.5449078167
101325.5299257084
101325.5158724133
101325.5028576464
101325.4906893512
101325.4805287222
101325.4719149341
101325.4653795868
101325.4617029879
101325.4597934699
101325.461451232
101325.4660617122
101325.47410515
101325.4854394142
101325.4999009687
101325.5168842971
101325.5355452671
101325.5541594118
101325.5731452956
101325.5920312723
101325.6101252327
101325.6293700268
101325.6476389725
101325.66542133
101325.6826604925
101325.6991499878
101325.7148544793
101325.7287833178
101325.7419088236
101325.7528436375
101325.7619864438
101325.7690445732
101325.7733640812
101325.7749021704
101325.7735684084
101325.7692329149
101325.7616758546
101325.7509926916
101325.7375750578
101325.722837535
101325.7065413555
101325.6905184172
101325.6745078231
101325.6577062175
101325.6422667594
101325.6265931412
101325.6110872633
101325.5961738483
101325.5819569957
101325.5688881573
101325.5565598472
101325.5460198153
101325.5369647306
101325.5299538136
101325.5252399974
101325.5232659878
101325.5235264805
101325.5271880009
101325.5342069
101325.544467697
101325.5580298716
101325.5741207052
101325.592479863
101325.6109365708
101325.6298275973
101325.6487922512
101325.6671009014
101325.6857420591
101325.7044535835
101325.7223344529
101325.7397899416
101325.7564623585
101325.7724359476
101325.7870952066
101325.8002339497
101325.812163935
101325.8219169934
101325.8295599735
101325.8353300831
101325.8374096336
101325.8373670064
101325.8342037366
101325.8279126182
101325.818465016
101325.806048177
101325.7918643246
101325.7762963205
101325.7602918812
101325.7446913749
101325.7285795175
101325.7124412365
101325.6973901698
101325.6820397415
101325.6671477174
101325.6528905121
101325.6395627069
101325.6274707889
101325.6159829122
101325.6071671688
101325.5993618938
101325.5939760272
101325.5914711141
101325.5906813716
101325.5935635146
101325.5994237642
101325.6087143728
101325.6212228817
101325.6366138615
101325.6541531424
101325.6728339102
101325.691331009
101325.7104139807
101325.7290155504
101325.747009826
101325.766136722
101325.7841761447
101325.8017000363
101325.8186318104
101325.8347494459
101325.8500736079
101325.8633342732
101325.8762115004
101325.8864742952
101325.8948874355
101325.9013335255
101325.9048531408
101325.9056680305
101325.9035768356
101325.8985886761
101325.8903337778
101325.8791577595
101325.8654377358
101325.8507988001
101325.8350162853
101325.8195323506
101325.8039980518
101325.7878577538
101325.7728736583
101325.7578556291
101325.7429523149
101325.7287450498
101325.7152252501
101325.7030389359
101325.6913958314
101325.6821095577
101325.6740553725
101325.667870679
101325.664408112
101325.6636520117
101325.6650308138
101325.6699919342
101325.6782728211
101325.6897596284
101325.7043373544
101325.7211229894
101325.7395787703
101325.758156227
101325.7767954644
101325.7958304311
101325.813957811
101325.8323698582
101325.8509628633
101325.8686122925
101325.8857888211
101325.9021262424
101325.9177488834
101325.9318218084
101325.9447010785
101325.9559506204
101325.964995438
101325.9720065874
101325.9771944225
101325.9783536598
101325.9776848184
101325.9737815052
101325.966854364
101325.9568295432
101325.9441151724
101325.9298420896
101325.9147212434
101325.8992474935
101325.8843204924
101325.8686799687
101325.8530220802
101325.838667687
101325.8238766007
101325.8096526561
101325.7961034546
101325.7835776592
101325.7722938392
101325.7617823132
101325.7538313803
101325.747369479
101325.7427935124
101325.7416497558
101325.7419846112
101325.7461665662
101325.7532320967
101325.7638275719
101325.7773960346
101325.7936586702
101325.811441875
101325.8300782789
101325.8486934773
101325.86751091
101325.8861834703
101325.9038943443
101325.9229281393
101325.9407834411
101325.9580276224
101325.9746855241
101325.9904333265
101326.0053312093
101326.0181178055
101326.0303738134
101326.0404025494
101326.0475994118
101326.0536141671
101326.056571689
101326.0564973602
101326.0537269527
101326.0480760023
101326.0392465834
101326.0276713463
101326.0139025382
101325.9993014808
101325.9843641202
101325.9691415049
101325.9546017433
101325.9387710838
101325.924185123
101325.9099099434
101325.8956342473
101325.8821277152
101325.8693824274
101325.8580079859
101325.8472297296
101325.8389816779
101325.8320348076
101325.8268325995
101325.8244324828
101325.8252095345
101325.8274489054
101325.8338331087
101325.8433022151
101325.855989161
101325.8714575236
101325.8888449817
101325.9070885402
101325.9258573611
101325.9443281816
101325.9633866196
101325.9814215489
101325.9992957129
101326.0180016865
101326.0354104325
101326.0523037907
101326.06834982
101326.083549035
101326.0971660176
101326.1095378624
101326.1201178965
101326.1288850384
101326.1346982533
101326.139567436
101326.1398604933
101326.1386330473
101326.1338995936
101326.1264384074
101326.1159062201
101326.1031592405
101326.0887625055
101326.0742481851
101326.0595103349
101326.0447692607
101326.0303004773
101326.0144886053
101326.0010733746
101325.9869507168
101325.9732781645
101325.9605348517
101325.9487682916
101325.9383406888
101325.9287851807
101325.9218158435
101325.9167781661
101325.9127470789
101325.9127807322
101325.9150825753
101325.9199640975
101325.9284092674
101325.9401369528
101325.9547365116
101325.971710439
101325.9896256295
101326.0081789933
101326.0269642938
101326.0452209831
101326.0645670284
101326.0817211415
101326.10010254
101326.1182007587
101326.1351597938
101326.1515898289
101326.1670437892
101326.1814018153
101326.1937914872
101326.2054792028
101326.2148744091
101326.2216666507
101326.2264901952
101326.2296313286
101326.2280131665
101326.2249930605
101326.2185363826
101326.2092543519
101326.1973814014
101326.1838659946
101326.1692010989
101326.1549934673
101326.1404920113
101326.1262598316
101326.1118864789
101326.0963771259
101326.0834983769
101326.0699262311
101326.0570163082
101326.0452231945
101326.0344407772
101326.0248914981
101326.0171667833
101326.0113585336
101326.0081334421
101326.0056236286
101326.008058728
101326.0117430774
101326.0195031917
101326.0300058367
101326.0437774947
101326.0599886999
101326.0779418725
101326.0960357649
101326.114766574
101326.1334686024
101326.1516568778
101326.17099164
101326.187217143
101326.2063802163
101326.2238156812
101326.240093412
101326.2561098644
101326.2707782629
101326.2840195367
101326.2955221866
101326.3058809696
101326.3141855813
101326.3190626827
101326.3226779636
101326.3239160976
101326.3206983934
101326.315940862
101326.3076873877
101326.2968500126
101326.2839479144
101326.2701305629
101326.2555191086
101326.2415620651
101326.2274325736
101326.2134467796
101326.1997609136
101326.1841003516
101326.1719087538
101326.1590310572
101326.1470282407
101326.1362899273
101326.1262102893
101326.1180586192
101326.1119500076
101326.1077869328
101326.1062520611
101326.1055897436
101326.1101119618
101326.1154132648
101326.1261095992
101326.1385160422
101326.154030976
101326.17136792
101326.1897319167
101326.208069438
101326.226711646
101326.2453732885
101326.2634179701
101326.2828541393
101326.2982435701
101326.317542035
101326.3345638627
101326.349968797
101326.3662169362
101326.3788532269
101326.3915906527
101326.4021959698
101326.4107653821
101326.4180343508
101326.4209840514
101326.4230980654
101326.4224492577
101326.4219468431
)
;

boundaryField
{
    inlet
    {
        type            calculated;
        value           uniform 101324.9999999998;
    }
    outlet
    {
        type            calculated;
        value           uniform 101326.4147806791;
    }
    frontAndBack
    {
        type            empty;
    }
}


// ************************************************************************* //
