/*--------------------------------*- C++ -*----------------------------------*\
| =========                 |                                                 |
| \\      /  F ield         | OpenFOAM: The Open Source CFD Toolbox           |
|  \\    /   O peration     | Version:  v2012                                 |
|   \\  /    A nd           | Website:  www.openfoam.com                      |
|    \\/     M anipulation  |                                                 |
\*---------------------------------------------------------------------------*/
FoamFile
{
    version     2.0;
    format      ascii;
    class       volScalarField;
    location    "0.017";
    object      rho;
}
// * * * * * * * * * * * * * * * * * * * * * * * * * * * * * * * * * * * * * //

dimensions      [1 -3 0 0 0 0 0];


internalField   nonuniform List<scalar> 
1000
(
1.176301364504092
1.176325132741288
1.176270673196143
1.176224336897374
1.176170023970621
1.176121206374969
1.176080118854851
1.176045278523574
1.176015523223678
1.17599487762057
1.175987504422616
1.175986728920256
1.17598945636019
1.175998664113814
1.176016500274495
1.176043145913269
1.176077569335635
1.176118279718809
1.176163986137737
1.176213745241596
1.176266779149991
1.176322281353216
1.176379338175349
1.176436950832571
1.176494094585581
1.176549769525916
1.17660308663969
1.176653433055606
1.176700576165108
1.17674440428584
1.176783665498043
1.176813717234368
1.176828870639604
1.176832062202139
1.176831995857434
1.176829235451021
1.176822222897761
1.17680896745002
1.176787837544965
1.176758084610518
1.176720071555884
1.176675093499264
1.17662488976102
1.17657112601083
1.176515111301158
1.176457812720609
1.176400034475881
1.176342580947788
1.17628629005916
1.176231900837948
1.176179849438615
1.176130297596551
1.176083833246288
1.176043246339794
1.176014665423656
1.17600191781227
1.175999611706591
1.17600006160568
1.176002874125003
1.176009534723787
1.176021614090874
1.176040601212942
1.176067521739881
1.176102630122424
1.17614530271374
1.176194191123027
1.176247563319738
1.176303683117283
1.176361079807247
1.176418645195064
1.176475595116363
1.176531385155066
1.176585680403589
1.17663834860783
1.176689210913455
1.176737330632954
1.176779611897669
1.176809590542195
1.176822876212306
1.176825640693288
1.176825965320886
1.176823971030738
1.176818730714521
1.176808735844333
1.176792570701533
1.176769079757607
1.176737615715497
1.176698202938751
1.17665159062259
1.17659914989096
1.176542626192203
1.176483827468789
1.176424343176857
1.176365363572098
1.176307629996969
1.176251480839366
1.176196975130233
1.176144277946467
1.176094618404533
1.176051930860623
1.176023158796423
1.176011179806771
1.176008913348642
1.176008981541665
1.176011205228279
1.17601656518214
1.176026313275284
1.176041722695062
1.176063891185445
1.176093525453486
1.176130779335576
1.176175176828876
1.176225644420386
1.176280659472355
1.176338490359798
1.17639747648663
1.176456276395859
1.176514006309042
1.17657025726384
1.176624989478645
1.176678085043999
1.176728418019475
1.176772592025179
1.176804006739743
1.176818025479996
1.176821186757762
1.176821913226415
1.176820496451444
1.176816449189914
1.17680843662274
1.176795233017736
1.176775726618185
1.176749073857432
1.176714841009014
1.176673124701635
1.176624607510111
1.176570510112999
1.176512434967933
1.176452121181688
1.176391161811438
1.176330778838142
1.176271724788702
1.176214340212913
1.176158968573759
1.176107014237139
1.176062499827427
1.176032326556689
1.17601961222778
1.176016968547601
1.176016592728525
1.176018268097377
1.176022583703545
1.17603068278293
1.176043660865158
1.176062549263101
1.176088146198191
1.176120888628795
1.17616075766216
1.176207229889626
1.176259296229324
1.176315564706057
1.17637445028193
1.176434422032667
1.176494225835089
1.176553014350965
1.176610359166389
1.176665901354657
1.176718399585301
1.176764518224457
1.176797966705627
1.176813701433146
1.176817560945352
1.176818612031578
1.176817737137559
1.176814661291939
1.176808194387031
1.176797214870992
1.176780684727145
1.176757731161025
1.176727743316635
1.176690486335407
1.176646188192036
1.176595566728073
1.176539782442544
1.176480306323342
1.17641870709078
1.176356422871428
1.176294601709477
1.176234044987695
1.176175485031709
1.176120613454867
1.176073604048198
1.176041333552744
1.176027288786244
1.176024097935336
1.176023386416659
1.176024597842017
1.176028039653678
1.176034788238584
1.176045837048781
1.176062148006713
1.176084534536076
1.17611355616244
1.176149433748921
1.176191989075589
1.176240619981713
1.176294328426337
1.176351819602616
1.176411674923963
1.176472549591748
1.176533323866865
1.176593190431658
1.176651466603926
1.176706706983709
1.176755467292117
1.176791624191607
1.176809690758276
1.176814464285537
1.176815702051637
1.176815317244724
1.17681301949502
1.176807808445887
1.176798630774927
1.176784508026837
1.176764574611515
1.176738139823129
1.176704786313129
1.176664456779185
1.176617502406999
1.176564685646331
1.176507124089617
1.176446159949847
1.176383186108407
1.176319500690105
1.176256220692611
1.176194443540174
1.176136168883304
1.176085822300464
1.17605049212993
1.17603438288223
1.176030509462676
1.176029551210662
1.176030325367796
1.176033044635287
1.176038673368095
1.176048129983875
1.17606231221453
1.176082023217208
1.176107885522234
1.176140262784775
1.176179201204619
1.176224392076231
1.176275165230199
1.176330532195015
1.176389294968153
1.17645019664334
1.176512048865069
1.176573826158257
1.176634602631611
1.176692787780374
1.176744760851819
1.176784332590006
1.17680549341412
1.176811556276172
1.176812887305117
1.176812950784022
1.176811286084207
1.176807106965018
1.176799431248966
1.176787328164876
1.17676994351644
1.176746546245768
1.176716612842266
1.176679903138725
1.176636509177587
1.176586878620087
1.176531802379245
1.176472344236891
1.17640972297073
1.176345208941537
1.176280053125883
1.176215565248142
1.176153899487716
1.176099660691313
1.176060328529631
1.176041153904414
1.176036181146543
1.176035076872308
1.176035439852449
1.176037535989101
1.176042196873663
1.176050288730676
1.176062656880001
1.176080082485332
1.176103214838133
1.176132501932879
1.17616813903701
1.176210029962127
1.176257764203531
1.176310626592479
1.176367659287291
1.17642776982014
1.176489829011041
1.176552733553026
1.1766154030008
1.176676212555962
1.176731540473546
1.176775074873546
1.176800223652218
1.176808252546282
1.176809723728667
1.176810178939645
1.176808997999623
1.176805685467626
1.176799274135586
1.176788887280608
1.17677368555912
1.176752915267995
1.176725987231699
1.176692540365244
1.176652482719556
1.176606021670259
1.176553676174273
1.176496247039056
1.17643474009246
1.176370295268354
1.176304155362631
1.176237711238602
1.176173096122676
1.176114831499246
1.176070674968667
1.176047157212584
1.176040259501304
1.176039067529877
1.176039005055731
1.176040560458317
1.176044359047064
1.176051220316743
1.176061954415009
1.176077331303811
1.176098018745016
1.176124517964915
1.176157122989995
1.17619588944777
1.1762406061509
1.17629078522247
1.176345692966481
1.176404423237583
1.176465967588999
1.176529245714845
1.176593119500956
1.176656032219837
1.176714572912814
1.17676238723075
1.176792291026134
1.176803204878404
1.176805110811848
1.176805795443352
1.176805051557634
1.176802508440127
1.176797233746968
1.176788393645483
1.176775178377337
1.17675683074604
1.176732726448571
1.176702434098749
1.176665746625549
1.176622707388092
1.17657363221268
1.176519104601559
1.176459929657359
1.176397088174968
1.176331741850372
1.176265274524735
1.176199697983454
1.17613918406607
1.17609138942502
1.176063762252773
1.176054621376945
1.176053142718383
1.176052796778166
1.176053925412884
1.17605697608258
1.176062730215198
1.176071938699162
1.176085347018105
1.176103622672576
1.17612729225019
1.176156710467866
1.176192037604472
1.176233211164938
1.176279926528853
1.176331647335535
1.176387652582036
1.176447089112265
1.176508980396667
1.176572215199411
1.176635361588873
1.176695507351677
1.176746675917307
1.176781333949014
1.176796170150413
1.176799053849578
1.176799827408392
1.176799478438122
1.176797618913524
1.176793403206055
1.176786049305573
1.17677478260335
1.176758836859932
1.176737546841113
1.176710417103823
1.176677140223296
1.176637608182046
1.17659193673041
1.176540481427785
1.176483819870354
1.176422726005646
1.176358199651548
1.176291530589179
1.176224546270221
1.176160880749589
1.17610785185997
1.176074129008171
1.17606102266358
1.176058681992682
1.17605816769092
1.176058925701344
1.176061322762201
1.176066132964192
1.176074067960651
1.176085857009053
1.176102179025917
1.17612358959541
1.17615049209457
1.176183126043993
1.176221545220992
1.176265593383148
1.176314898589057
1.176368900948638
1.176426893995729
1.176488020627046
1.176551231460609
1.176615192184939
1.176677476920922
1.176732647423413
1.176772715896296
1.176792622902484
1.176797360025783
1.176798121823564
1.176798062158317
1.176796715361504
1.176793319353791
1.176787126421223
1.176777384594525
1.176763322437564
1.176744242812552
1.176719600503017
1.17668901781887
1.176652287137872
1.176609391404252
1.1765605280793
1.176506109718012
1.176446748708338
1.176383289653934
1.176316897236548
1.176249232000679
1.176183358155345
1.176125806041493
1.176085945263168
1.176067916961414
1.176063951557789
1.176063344654012
1.176063804451698
1.176065671074124
1.176069672779805
1.176076485284776
1.176086819365596
1.176101371992898
1.176120732508995
1.176145344575755
1.176175506082305
1.176211358033205
1.176252858264128
1.176299764530994
1.176351647345665
1.176407923517223
1.176467854839607
1.176530492725907
1.176594602257492
1.176658183024049
1.176716679419635
1.176762088060918
1.176787781131269
1.176795618388041
1.176796475824854
1.176796649829102
1.176795717895659
1.176793028348601
1.176787856215492
1.176779492944345
1.176767170400292
1.176750153379247
1.176727839264567
1.176699788050638
1.176665716820905
1.176625507819474
1.176579233103543
1.17652716852039
1.176469786852457
1.176407785434161
1.176342187057534
1.176274479783631
1.176207196110121
1.17614582970448
1.176099864279342
1.176076019993776
1.176069334224885
1.176068613144945
1.176068772503609
1.176070190063726
1.176073477550336
1.176079280030757
1.176088286427494
1.176101203594226
1.17611865276778
1.176141116442631
1.176168942265782
1.176202341534597
1.176241364883984
1.17628587904729
1.176335565997326
1.176389948414686
1.176448400745156
1.176510089272702
1.176573877652135
1.176638075977691
1.17669910745143
1.176749520802056
1.176781292030736
1.17679343800659
1.176795040765446
1.17679526395657
1.176794626426767
1.176792531331865
1.176788251751377
1.176781129474068
1.176770403269001
1.17675530452436
1.176735179512072
1.176709532445847
1.176678014917817
1.176640425017164
1.176596730395856
1.176547091826433
1.176491866196958
1.176431619584099
1.176367223597817
1.176299998360802
1.176232058773064
1.176167830619496
1.176116130130202
1.17608574126357
1.176075162491961
1.17607378658722
1.176073815490671
1.176074862634906
1.176077557016913
1.176082488252422
1.17609030602798
1.176101718833327
1.176117382558309
1.176137822422548
1.176163430025401
1.17619447300216
1.17623107888313
1.176273208544727
1.176320644295454
1.176373005551556
1.176429764731205
1.176490193511891
1.17655327015989
1.17661754516779
1.17668025418833
1.176735032189496
1.176772953879434
1.17679043725544
1.176793880688681
1.176793977706835
1.176793581189579
1.176791954163676
1.176788424048602
1.176782370189381
1.176773068876049
1.176759742056466
1.17674168600601
1.176718339323024
1.176689285926376
1.176654252017823
1.176613120830967
1.17656595544566
1.176513009218079
1.17645473364473
1.176391858761269
1.176325535575485
1.176257559960923
1.176191433102182
1.176134693031629
1.176097432537103
1.176081878174803
1.176079013389443
1.176078939344728
1.176079686185869
1.176081867106616
1.176086036623132
1.176092797088114
1.176102842143418
1.176116853898296
1.176135396175238
1.176158899353267
1.176187679263507
1.176221930001505
1.17626169543482
1.176306848866684
1.176357097082616
1.176411996753427
1.17647092698044
1.17653299783961
1.176596920189657
1.176660489221105
1.176718721928723
1.176762672051191
1.176786197958958
1.176792642000725
1.176792929241429
1.176792650175356
1.176791334710877
1.176788425667773
1.176783294417464
1.176775262627619
1.176763550532962
1.176747413355829
1.176726235889243
1.176699545025127
1.176667000574155
1.176628406326509
1.176583734781381
1.176533145920094
1.176476994796189
1.176415879733578
1.176350784587894
1.176283274757459
1.176216132270962
1.176155398703737
1.176111344476261
1.176089832600614
1.176084285130851
1.176083995418786
1.176084534458178
1.176086285726899
1.176089812615247
1.176095652484719
1.176104464427669
1.176116947415345
1.176133705041828
1.17615520823775
1.176181816100909
1.176213778708414
1.176251211923852
1.176294071998272
1.176342148590183
1.176395078975035
1.176452341111317
1.176513156420771
1.176576365367346
1.176640178693517
1.176700852652059
1.176750326227359
1.176780163282095
1.176790931794836
1.176792183952177
1.176791785831361
1.176790746042627
1.176788314160571
1.176783936420104
1.176776990449136
1.176766717539559
1.176752353734084
1.176733236438641
1.176708828788336
1.176678718857645
1.17664263550126
1.176600471354798
1.176552301233541
1.176498389563944
1.176439217440358
1.176375617330948
1.176308957040483
1.176241483598668
1.176177890998237
1.176127600973845
1.176099406178606
1.176090032511367
1.176089011891543
1.176089468308444
1.176090824238278
1.176093796467837
1.176098835944565
1.176106550148635
1.176117637318319
1.176132737301083
1.176152359621027
1.176176899624069
1.176206652654977
1.176241795545275
1.176282359128902
1.176328213889066
1.17637907611882
1.176434507905987
1.176493845310274
1.176556080343836
1.176619693012442
1.176681784593934
1.176735809483718
1.176772259049682
1.176788529729773
1.176791469098697
1.176791189041065
1.176790300991742
1.176788216836242
1.176784441351138
1.17677840208797
1.176769400386971
1.176756657507052
1.176739462446909
1.176717224860155
1.176689474146481
1.17665586946863
1.176616224124245
1.176570527460099
1.176518957115321
1.17646189498801
1.176400023219594
1.176334515427883
1.176267280645585
1.176201981684228
1.176146415630759
1.176110929954265
1.176096640172576
1.176094084914789
1.176094399243821
1.176095455466721
1.176097980718177
1.176102357457327
1.176109126100763
1.176118957141178
1.176132518636652
1.176150365284312
1.176172933844289
1.176200561250891
1.176233473944674
1.176271763654842
1.176315371491023
1.176364085939802
1.176417548514827
1.176475216067319
1.176536227020438
1.17659922831287
1.176661914428692
1.176719355251978
1.176762342594045
1.176784606190737
1.176790682564892
1.176790925924166
1.176790066958653
1.176788242803806
1.176784919030763
1.176779607171464
1.176771675528502
1.176760364731932
1.176744939085432
1.176724758345787
1.176699284213241
1.176668098911696
1.176630941538311
1.176587729989854
1.17653856807031
1.176483751228602
1.17642382197054
1.176359757602348
1.176293209914175
1.176227066100618
1.176167397659777
1.176124676300827
1.176104508574821
1.176099303209264
1.176099160763756
1.176100062713819
1.176102181845808
1.176106017287377
1.176111986707074
1.176120709088305
1.17613286136236
1.176149039439558
1.176169728865263
1.176195315853435
1.176226076753994
1.176262154096624
1.176303542127678
1.17635008574424
1.176401490777422
1.176457308625739
1.176516820481251
1.17657887396325
1.176641618456531
1.17670128691674
1.17674997564616
1.176778881421376
1.176789532124484
1.176790726501283
1.176790001280857
1.176788441860084
1.176785451228252
1.176780664823234
1.176773575340072
1.176763494186939
1.176749672885849
1.176731419434836
1.176708128784182
1.176679305842752
1.176644607028493
1.176603873683217
1.176557143815564
1.176504648564356
1.176446828638001
1.176384481321666
1.176319006093711
1.176252736832161
1.176190369440757
1.176141147349596
1.17611396273604
1.176104919081883
1.176103766125612
1.17610452187911
1.176106268457273
1.176109691548431
1.176115056137259
1.176122878445714
1.17613379169609
1.176148412298844
1.176167281920204
1.176190861953115
1.176219505955634
1.176253420274777
1.176292646831862
1.176337067479065
1.176386419498008
1.176440308544181
1.176498144913207
1.176558970651463
1.176621229607853
1.17668201118029
1.176735163272606
1.176771238265857
1.176787085575705
1.176790530094594
1.176790281308449
1.176788915957833
1.176786219431836
1.176781818818781
1.176775335812973
1.176766204098965
1.176753743714182
1.176737264360726
1.176716097098622
1.176689633137429
1.176657402140671
1.176619144039383
1.17657483110183
1.176524654318457
1.176469009552831
1.176408566928733
1.176344488510796
1.1762787093175
1.176214858005037
1.176160404842251
1.176125539676443
1.176111688551355
1.176108833657572
1.176108887914264
1.176110325058367
1.176113323812465
1.176118225116663
1.176125392250084
1.176135349716781
1.176148652973872
1.176165836554168
1.176187421885835
1.176213882515762
1.176245559783054
1.176282596726833
1.176324927274463
1.176372299408982
1.176424313305943
1.176480421810299
1.176539795017259
1.176601135313431
1.176662256096917
1.176718424275699
1.17676096835668
1.1767830676411
1.176789805665013
1.176790570464244
1.176789638464641
1.176787415491519
1.176783360671442
1.176777270592232
1.176768752196653
1.176757278680039
1.176742248046972
1.176723010607741
1.176698891261818
1.176669260419233
1.176633646624216
1.176591843061777
1.176543960678984
1.176490402183778
1.176431820519022
1.176369259058015
1.1763043846499
1.176239972039072
1.176181851960495
1.176139934058132
1.176119893904633
1.176114379800787
1.176113551754259
1.176114319690421
1.176116663667531
1.176121015887995
1.176127679716332
1.176137025220124
1.17614944224147
1.176165327940062
1.176185134642311
1.176209392758503
1.176238633516806
1.176273242386551
1.176313335238769
1.176358723345228
1.176408969331161
1.176463480610128
1.176521466165863
1.176581751525522
1.176642571264564
1.176700434552258
1.176748004863072
1.17677710643095
1.176787966044909
1.176789930551253
1.176790080372131
1.176788699869292
1.176785446958185
1.176779889680761
1.176771720950029
1.176760652145701
1.176746392123462
1.176728554446388
1.17670656099996
1.176679658849362
1.176647071144618
1.176608211700513
1.176562876224386
1.176511366415115
1.176454440571799
1.176393230910856
1.176329339504184
1.176264998792391
1.176204562154888
1.176156816621901
1.176129716796593
1.17612053965413
1.176119085019964
1.176119070418912
1.176120457129714
1.176123703345428
1.1761293318838
1.176137904153985
1.17614985795227
1.176165385571252
1.176184509509776
1.176207301335757
1.176234072598285
1.176265447726555
1.17630225071103
1.176345042091868
1.176393429050337
1.176445808289858
1.176501639014361
1.176559929886416
1.176629970191921
)
;

boundaryField
{
    inlet
    {
        type            calculated;
        value           uniform 1.176395950917642;
    }
    outlet
    {
        type            calculated;
        value           uniform 1.176662403547889;
    }
    frontAndBack
    {
        type            empty;
    }
}


// ************************************************************************* //
