/*--------------------------------*- C++ -*----------------------------------*\
| =========                 |                                                 |
| \\      /  F ield         | OpenFOAM: The Open Source CFD Toolbox           |
|  \\    /   O peration     | Version:  v2012                                 |
|   \\  /    A nd           | Website:  www.openfoam.com                      |
|    \\/     M anipulation  |                                                 |
\*---------------------------------------------------------------------------*/
FoamFile
{
    version     2.0;
    format      ascii;
    class       volScalarField;
    location    "0.017";
    object      T;
}
// * * * * * * * * * * * * * * * * * * * * * * * * * * * * * * * * * * * * * //

dimensions      [0 0 0 1 0 0 0];


internalField   nonuniform List<scalar> 
1000
(
299.9861521389944
299.9874335811524
299.9807075072678
299.9759390731041
299.9715180646612
299.9676882537175
299.9641925855266
299.9610533238406
299.9583758973097
299.9566643835433
299.9562255700486
299.9564884615602
299.9571575146817
299.9583107155958
299.9602322198605
299.9630157192387
299.9665591451659
299.9707040462615
299.975320765487
299.9803189157226
299.9856256196566
299.9911657021179
299.9968556318979
300.0026065372732
300.0083274254809
300.0139258621857
300.0193146012349
300.0244297783199
300.0292438681415
300.0337404196388
300.0377859461658
300.040902610652
300.0425023811493
300.04286443424
300.0428951007677
300.042659618287
300.0419688811377
300.0406236928863
300.038468041245
300.0354259738402
300.0315348515672
300.0269290452394
300.0217883718212
300.0162846219118
300.0105527932365
300.0046927619151
299.998787581541
299.9929199136081
299.9871751709708
299.9816279789245
299.9763216131134
299.9712712467488
299.9665357577483
299.9623991252402
299.9594863853596
299.9581880532509
299.9579538567671
299.9579998563184
299.9582856593307
299.9589628490851
299.9601929702322
299.9621285504696
299.9648743356914
299.9684563650385
299.9728110249785
299.9778006352252
299.9832483022161
299.9889766832716
299.9948355066655
300.0007114794391
300.0065243903368
300.012218550342
300.017759728416
300.0231344418689
300.0283244975319
300.0332344005844
300.0375483559605
300.0406068918187
300.041962170942
300.0422440367999
300.0422770047814
300.042073405426
300.0415387380532
300.0405190249924
300.0388697267476
300.0364729100446
300.0332624909364
300.0292409031173
300.024484540229
300.0191332668466
300.0133651604056
300.0073646963429
300.0012940755135
299.99527477702
299.9893824759703
299.9836517253402
299.9780885648573
299.9727098556922
299.9676410672356
299.9632838154639
299.9603469096699
299.9591241533502
299.9588928120539
299.9588997843547
299.9591267837935
299.9596739127242
299.9606689587968
299.9622418797026
299.9645047132817
299.9675295717096
299.9713321233385
299.9758637398745
299.9810148038621
299.9866298636672
299.9925321514867
299.9985521668803
300.0045529981117
300.0104444560798
300.0161848163667
300.0217700323547
300.0271880849558
300.0323240966739
300.0368315314461
300.0400369658226
300.0414673671882
300.0417899305045
300.041864059892
300.0417195058713
300.0413065504396
300.040488991698
300.0391417571607
300.0371513960617
300.0344318131553
300.030938721572
300.0266819414854
300.0217310779186
300.0162106473271
300.0102841349503
300.0041289873049
299.9979077655281
299.9917451783316
299.9857180359364
299.9798611089756
299.9742094687427
299.9689064770559
299.9643627650594
299.9612828317925
299.9599850063632
299.9597151535897
299.959676796776
299.9598478196996
299.9602883462674
299.9611150704421
299.9624398149185
299.9643678399493
299.9669806044996
299.9703226827097
299.9743921101602
299.9791354207406
299.9844495767434
299.9901924672934
299.9962022902869
300.0023227834047
300.0084259507229
300.014425323911
300.0202771945595
300.0259449492929
300.0313019372083
300.0360078223449
300.0394207887708
300.0410262869826
300.0414200982267
300.0415273513805
300.0414380888047
300.0411242539118
300.040464408752
300.0393441127454
300.037657442961
300.0353153269839
300.032255410707
300.0284536963543
300.0239334055443
300.0187677433812
300.0130750886828
300.0070055145758
300.0007190829945
299.9943625460883
299.9880530681118
299.981872446407
299.9758954394365
299.9702947285475
299.9654963769305
299.9622023882641
299.9607687644645
299.9604430633826
299.9603704417444
299.9604941074434
299.9608454422623
299.9615343140832
299.9626621277307
299.9643270632347
299.9666121353326
299.9695744344401
299.9732364742886
299.9775800267485
299.9825435890816
299.9880252541486
299.9938928331646
300.0000015167553
300.0062140416968
300.0124161287713
300.0185253948761
300.0244721851592
300.0301090239125
300.035084489074
300.0387738288119
300.0406172620681
300.0411043370303
300.0412306393673
300.0411913838589
300.0409569436812
300.0404252412025
300.0394887990777
300.03804777428
300.0360138330612
300.0333164787053
300.0299130983851
300.0257978093595
300.0210064051928
300.0156166444916
300.0097425307424
300.0035209994747
299.9970941713195
299.9905945130711
299.9841360222567
299.977830713283
299.9718827038836
299.9667437556051
299.9631374722537
299.9614931221221
299.9610977492322
299.9609999425701
299.9610789742291
299.9613565557784
299.9619311180948
299.9628964076418
299.9643440544405
299.9663560283018
299.9689958549629
299.9723006282688
299.9762750314244
299.9808875171777
299.9860696428878
299.9917204814903
299.9977177287348
300.0039330807033
300.0102452437093
300.016549560955
300.0227515511117
300.0286889256216
300.0339922506345
300.0380300482585
300.0401892112798
300.0408078432892
300.0409436612506
300.0409501473406
300.0407803010432
300.0403538913246
300.0395707017686
300.0383357565809
300.0365618872812
300.0341744836497
300.0311201051808
300.0273742147825
300.0229461666925
300.0178815988083
300.0122611758864
300.0061934130903
299.999802652631
299.9932185145661
299.9865686569389
299.9799867509543
299.9736926773019
299.9681564876611
299.9641417280177
299.9621844851605
299.9616768970865
299.961564184352
299.961601243841
299.9618152182244
299.9622909859423
299.9631169660688
299.9643794403184
299.9661581359169
299.9685193134772
299.9715086796895
299.9751461376119
299.9794218350841
299.9842938344587
299.9896891020783
299.9955098403018
300.0016445196532
300.0079778754447
300.0143972971682
300.0207925217813
300.0269977526357
300.0326434460942
300.0370856067174
300.0396516909861
300.0404709263399
300.0406210446133
300.0406674994342
300.0405470113921
300.0402090238165
300.0395548454185
300.0384950169441
300.0369438876114
300.0348245395939
300.0320768361505
300.0286639064507
300.0245763342778
300.0198352407476
300.0144935388811
300.0086329046335
300.0023559416231
299.9957789490072
299.989028737415
299.9822472466601
299.975652206988
299.9697051484742
299.9651979764915
299.9627974160383
299.9620933373494
299.9619716719496
299.9619653016053
299.9621240788353
299.9625118261734
299.9632121929681
299.9643078716736
299.9658774479807
299.9679890705404
299.9706938830795
299.9740218731093
299.9779786879799
299.9825427364547
299.9876641840563
299.9932681079571
299.9992619896094
300.0055428780547
300.012000500319
300.0185186981172
300.0249386111274
300.0309121924604
300.035791101035
300.0388423815024
300.0399559850989
300.0401504629978
300.040220325165
300.0401444298149
300.0398849485137
300.039346746077
300.0384447403227
300.0370963010587
300.0352241565377
300.0327645891712
300.0296735589595
300.0259299071571
300.0215380222786
300.0165300915344
300.0109656158095
300.0049267121835
299.9985134335487
299.9918443053211
299.98506054047
299.9783674626464
299.9721908981559
299.9673124291797
299.9644924262784
299.9635593796516
299.9634084507683
299.9633731446082
299.9634883564072
299.9637997571053
299.9643871085561
299.965327054995
299.9666956848034
299.968561122118
299.9709771024943
299.9739798121619
299.9775855845808
299.9817880093467
299.9865559593052
299.9918346536289
299.997550468369
300.0036162973016
300.009932451958
300.0163855090975
300.0228293343757
300.0289667611198
300.034187977374
300.0377243853902
300.0392382113636
300.0395324549463
300.0396113892758
300.0395757872874
300.0393860553413
300.0389559056034
300.038205543791
300.0370559276987
300.0354288650649
300.0332564649036
300.0304881549553
300.027092540893
300.0230585687808
300.0183980124357
300.0131471131299
300.0073647695694
300.0011299207101
299.9945445631744
299.987740298867
299.9809036240302
299.9744054566862
299.968992772104
299.9655505827146
299.9642127652283
299.96397384582
299.9639213525343
299.9639987309392
299.9642434139412
299.9647344133482
299.9655443686235
299.9667477130251
299.9684137376256
299.9705991400863
299.9733450764414
299.9766759716372
299.9805972859857
299.9850930388208
299.990125231336
299.995636681979
300.0015552523066
300.0077934362424
300.01424411494
300.0207711068666
300.0271268611889
300.0327564785493
300.0368449744494
300.0388762076569
300.0393595647614
300.0394372979146
300.0394312139348
300.0392937977697
300.0389472866223
300.0383153854878
300.0373213630924
300.0358864985441
300.0339396478147
300.0314251628593
300.0283044829836
300.0245563939595
300.0201791205414
300.0151927724667
300.009639406231
300.0035814711951
299.9971051186099
299.9903291748109
299.9834230903508
299.9766996062997
299.9708252950793
299.9667566193325
299.9649164033714
299.9645116399145
299.9644496931285
299.9644966299987
299.9646871677282
299.9650956396465
299.965791016793
299.9668458468363
299.9683312650711
299.970307416869
299.9728195726997
299.9758981180942
299.9795574194432
299.9837931420979
299.9885805262227
299.9938756994554
299.999619103131
300.0057353617289
300.0121276369875
300.0186698826636
300.0251579547805
300.0311270020438
300.03576042761
300.0383820569032
300.0391817363479
300.0392692272724
300.0392869846431
300.0391918976721
300.0389174706042
300.0383897277721
300.0375363688194
300.0362790109629
300.0345426279493
300.0322657173726
300.0294033630839
300.0259266711131
300.0218235935259
300.0171014453886
300.0117883334458
300.0059324595669
299.9996049426982
299.9929101223845
299.9859998363115
299.9791325433039
299.9728689813837
299.9681772322162
299.9657433688938
299.965060926748
299.9649873244006
299.965003592931
299.9651482919678
299.9654838602117
299.9660761399875
299.9669954486895
299.9683139314261
299.9700949906491
299.9723878626609
299.9752280144563
299.9786369900056
299.9826199289942
299.9871631961927
299.9922342960026
299.9977844745335
300.003749851121
300.0100453063175
300.0165548469024
300.0231060060001
300.0293337972906
300.0344779357967
300.0377197737675
300.0389590969321
300.0391226357831
300.0391454109391
300.0390803630776
300.0388665914768
300.0384299218891
300.0377031905942
300.0366087202363
300.0350680772984
300.0330145462847
300.0303975220573
300.0271814311132
300.0233456414065
300.0188868167327
300.0138213224659
300.0081855338334
300.0020371732682
299.9954651473959
299.9886041469408
299.9816699980544
299.9751144232126
299.9698373423302
299.9667354723783
299.9656556586654
299.965515215064
299.9655181664986
299.9656250546647
299.9659000819674
299.966403430324
299.9672014123539
299.9683663409949
299.9699651571691
299.9720514600625
299.9746652052494
299.9778336897281
299.98156990436
299.9858698249018
299.9907111977505
299.9960551422324
300.0018477754689
300.0080147310214
300.0144517068221
300.0210107605365
300.0274097988216
300.0329993529028
300.0368687877847
300.0386527209233
300.0390040731245
300.0390139730142
300.038973515922
300.0388075036895
300.038447306778
300.037829593615
300.036880516032
300.0355206785447
300.0336782660767
300.0312959807965
300.0283313469175
300.0247564001004
300.0205591926489
300.0157461228869
300.0103430018181
300.0043958585263
299.9979791489351
299.9912102987001
299.9842725641723
299.9775232813174
299.9717318752082
299.9679286306718
299.966340946585
299.9660485273813
299.9660409696118
299.9661172034168
299.9663398192061
299.9667654160861
299.9674554752048
299.9684807944571
299.9699109920247
299.9718036088206
299.9742025607189
299.9771400665641
299.9806359140973
299.984694552076
299.9893030159074
299.9944313427843
300.0000342483454
300.0060483276896
300.0123827263502
300.0189058608247
300.0253927258761
300.0313348566971
300.035819449587
300.0382199468344
300.0388774675114
300.0389067760721
300.0388783022472
300.0387440799894
300.0384472553145
300.0379236829359
300.0371041452523
300.0359090729504
300.0342624635184
300.0321015310248
300.029377983397
300.0260570848545
300.0221187842728
300.0175602393077
300.0123977339009
300.006667455549
300.000430417463
299.9937869825063
299.9868968771603
299.9800440239876
299.9738450814561
299.9693484307305
299.9671526557919
299.9665864067719
299.9665568345686
299.9666118564122
299.9667906153044
299.9671506167093
299.9677467078802
299.968646160479
299.9699203146715
299.9716307722034
299.9738255898225
299.9765414048194
299.9798037214593
299.9836243394583
299.9879987623653
299.9929054869024
299.9983074555783
300.0041513517029
300.0103576813162
300.0168080820216
300.0233199457511
300.0295112485463
300.0345594873039
300.0376039655148
300.0387027378738
300.0388305016056
300.0387898788027
300.0386837840347
300.0384356464664
300.0379889597158
300.0372802163693
300.0362319964812
300.034766341843
300.0328156331748
300.0303250752351
300.0272526152079
300.0235705584931
300.0192679159481
300.0143522826995
300.0088505988995
300.0028119139703
299.9963211383017
299.9895178262108
299.9826312860355
299.9761406117893
299.9710075234769
299.9681296243633
299.9671728257264
299.9670686469588
299.9671152343307
299.9672536383759
299.9675570232372
299.9680714158801
299.9688588199268
299.9699905013361
299.9715317633157
299.9735346032911
299.9760393602153
299.9790761609829
299.9826630306222
299.9868030874469
299.9914830793121
299.9966740142785
300.0023311614946
300.0083867245488
300.0147378026861
300.0212292586137
300.0275652854477
300.0330779881751
300.0367972088154
300.0384574034379
300.0387573224652
300.0387287458585
300.0386381330978
300.0384254757894
300.0380402414455
300.0374240168072
300.0365055095571
300.0352052540021
300.0334506930243
300.0311815763173
300.0283498666282
300.0249207610873
300.0208751778779
300.0162119930928
300.0109492919601
300.0051260011624
299.9988116882789
299.9921260849749
299.9852639945246
299.9785992465855
299.9729277032228
299.9693056392626
299.9678470446186
299.9675862212563
299.9676183046942
299.9677261153561
299.9679838744053
299.9684306187041
299.9691215067457
299.9701249729338
299.9715092008897
299.9733308001381
299.9756343384208
299.9784541897194
299.9818134449407
299.9857214401254
299.9901721335535
299.9951439028379
300.0006001237556
300.0064853265461
300.0127115490145
300.0191406834737
300.0255374470211
300.0313987711941
300.0357851229411
300.0380568188328
300.0386768246066
300.0387016547203
300.038614008355
300.0384278790038
300.0380887349824
300.0375467323026
300.0367374116686
300.0355832848716
300.0340092764435
300.0319500467074
300.0293506528609
300.0261684438538
300.0223767690867
300.0179672163009
300.0129503383336
300.0073562410438
300.0012402414517
299.9947020332245
299.9879101584243
299.9811592712757
299.9750690805903
299.9707085048686
299.9686499451662
299.9681186196966
299.9681040785434
299.9681961411522
299.968412445212
299.9688039369599
299.9694132460191
299.9703035495934
299.9715439377892
299.9731952279241
299.9753069687172
299.9779185658717
299.9810582064767
299.9847404137441
299.9889645714196
299.9937148163073
299.9989610896178
300.0046575709243
300.0107308663754
300.0170633433301
300.023466131707
300.0295548297237
300.0345229849342
300.0374724391548
300.0385591917339
300.0386810595301
300.0386070600672
300.0384479426028
300.0381427908144
300.0376544042723
300.0369310165008
300.0359023618932
300.0344920618773
300.0326294970567
300.0302529157942
300.0273117806018
300.0237710072015
300.0196143742847
300.0148457228869
300.0094885976442
300.0035879275177
299.997225032736
299.9905426997227
299.983779099562
299.9774135183898
299.9723894688093
299.9696147011417
299.9686915950264
299.9685739089624
299.9686510488793
299.9688293240779
299.9691787246075
299.9697262960933
299.970524726969
299.9716386465878
299.9731309658854
299.9750569633813
299.9774637200717
299.980387305528
299.98384875858
299.9878523307578
299.9923859321745
299.9974227151283
300.0029223972833
300.0088247598992
300.0150320088416
300.0213853170146
300.0275876651441
300.0330113106529
300.0366923135309
300.0383093097929
300.0386607725837
300.0386353859518
300.0384960690748
300.0382209252065
300.0377719026986
300.037110398015
300.0361786227865
300.0349071906368
300.033225657704
300.0310657553338
300.0283653468858
300.0250764166918
300.0211723977265
300.0166504246712
300.0115299467027
300.0058513172568
299.9996828789519
299.9931431852785
299.9864296915943
299.9799127397423
299.9743548275929
299.9707961274393
299.9693823190356
299.9690909138992
299.9690964509564
299.9692431413509
299.9695492284898
299.9700495112851
299.9707810674215
299.9717974296978
299.9731552883207
299.9749091949966
299.9771123602825
299.9798131029942
299.9830462424038
299.9868263524762
299.9911466595286
299.9959814088928
300.0012897597235
300.0070158361413
300.0130749105967
300.0193345354162
300.0255715627806
300.0313030273663
300.0356441550504
300.0378990876267
300.038586606314
300.0386646421312
300.0385695433564
300.0383427184527
300.037928978914
300.0373075672568
300.0364383740946
300.0352676415692
300.0337339373863
300.0317709593671
300.0293098076824
300.026286219848
300.0226520616656
300.0183861955828
300.0134999035213
300.0080342373853
300.0020557859613
299.9956709876949
299.9890499235756
299.9824757709785
299.9765436601444
299.9722651281907
299.9702196073304
299.9696567727627
299.9695722517257
299.96965063473
299.9698898860342
299.9703341212577
299.9710143029656
299.9719682007426
299.9732356010709
299.9748570352324
299.9768786625412
299.9793546082748
299.9823390757541
299.9858713847355
299.9899633322462
299.9945956226769
299.9997235820003
300.0052866970939
300.0112042082093
300.017356232033
300.023562596051
300.0294670870801
300.0343211257627
300.0372905711677
300.0383986558338
300.0385991215622
300.0386144321791
300.0384736090265
300.0381417347161
300.037574718425
300.0367412145436
300.035611752959
300.0341566025515
300.0323363110389
300.0300918750962
300.0273464644852
300.0240208210417
300.020055151813
300.0154286423483
300.0101721272484
300.0043630543092
299.9981170395827
299.9915976496397
299.9850327353482
299.978866420692
299.9739951398074
299.9712304221084
299.9702942135849
299.9701457164554
299.9701428475267
299.9702799975914
299.9706029466802
299.9711641478974
299.9720209559998
299.9732210489771
299.9747897619031
299.9767319767026
299.9790470690783
299.9817520101302
299.9849097243144
299.9886398016392
299.9930735863342
299.9982684804486
300.0041071482244
300.0102529767973
300.0158783647784
300.0215416467576
)
;

boundaryField
{
    inlet
    {
        type            fixedValue;
        value           uniform 300;
    }
    outlet
    {
        type            temperatureOutletNSCBC;
        pInf            101325;
        gamma           1.4;
        etaAc           1;
        fieldInf        1;
        lInf            2.25;
        value           uniform 300.0242913724434;
    }
    frontAndBack
    {
        type            empty;
    }
}


// ************************************************************************* //
