/*--------------------------------*- C++ -*----------------------------------*\
| =========                 |                                                 |
| \\      /  F ield         | OpenFOAM: The Open Source CFD Toolbox           |
|  \\    /   O peration     | Version:  v2012                                 |
|   \\  /    A nd           | Website:  www.openfoam.com                      |
|    \\/     M anipulation  |                                                 |
\*---------------------------------------------------------------------------*/
FoamFile
{
    version     2.0;
    format      ascii;
    class       volVectorField;
    location    "0.017";
    object      U;
}
// * * * * * * * * * * * * * * * * * * * * * * * * * * * * * * * * * * * * * //

dimensions      [0 1 -1 0 0 0 0];


internalField   nonuniform List<vector> 
1000
(
(-0.005219767991354837 0 0)
(-0.03682358504183182 0 0)
(-0.04465650573891714 0 0)
(-0.05994003603305929 0 0)
(-0.07397067259858585 0 0)
(-0.0868289175591993 0 0)
(-0.0977466111564885 0 0)
(-0.1071253127270531 0 0)
(-0.1151504781437133 0 0)
(-0.120672138766445 0 0)
(-0.1224630482936456 0 0)
(-0.122407421901583 0 0)
(-0.1216220373060876 0 0)
(-0.1191552502719404 0 0)
(-0.1143570631966388 0 0)
(-0.1070634734199874 0 0)
(-0.09753852548868357 0 0)
(-0.08619299541893569 0 0)
(-0.07337899736695035 0 0)
(-0.05935166046114635 0 0)
(-0.04432678584330952 0 0)
(-0.02853886183650768 0 0)
(-0.01226183246973949 0 0)
(0.004200960740344708 0 0)
(0.02053604951470022 0 0)
(0.0364357799971314 0 0)
(0.05162739964756474 0 0)
(0.0659245687200708 0 0)
(0.07925792861717426 0 0)
(0.09161670920601928 0 0)
(0.1026717484253266 0 0)
(0.1110241179254828 0 0)
(0.1150522555563975 0 0)
(0.115813695248554 0 0)
(0.1155370741849262 0 0)
(0.1148193765107604 0 0)
(0.1129733144607951 0 0)
(0.1094164261837303 0 0)
(0.1036444725068044 0 0)
(0.09539965015705448 0 0)
(0.08475596336194195 0 0)
(0.07207012050656424 0 0)
(0.05783745306896163 0 0)
(0.04253935860818649 0 0)
(0.02656011014763063 0 0)
(0.01019052518484266 0 0)
(-0.006321238842142097 0 0)
(-0.0227248046032999 0 0)
(-0.03876180902311448 0 0)
(-0.05421007978105997 0 0)
(-0.06894528602502041 0 0)
(-0.08292683719712846 0 0)
(-0.09600635375587546 0 0)
(-0.1074207930785353 0 0)
(-0.115359515748112 0 0)
(-0.11869601561841 0 0)
(-0.1191868528556992 0 0)
(-0.1190016994183388 0 0)
(-0.1183604883437521 0 0)
(-0.1167654008871821 0 0)
(-0.1137112816989069 0 0)
(-0.108721747274847 0 0)
(-0.1014516552430684 0 0)
(-0.09178691075485573 0 0)
(-0.07987796740902048 0 0)
(-0.06609658013280538 0 0)
(-0.05093693820844642 0 0)
(-0.03490531859630003 0 0)
(-0.01844100165583926 0 0)
(-0.001886084069728551 0 0)
(0.01450636429370025 0 0)
(0.03055177683123081 0 0)
(0.04613077331563908 0 0)
(0.06119054620196642 0 0)
(0.07567163948006286 0 0)
(0.08931140297828058 0 0)
(0.1012254959113011 0 0)
(0.1094923609313382 0 0)
(0.1128976578919626 0 0)
(0.1134431880569699 0 0)
(0.1131119243486164 0 0)
(0.1124804892196687 0 0)
(0.111032264169762 0 0)
(0.1083546778346773 0 0)
(0.1039993751730782 0 0)
(0.09758740643447765 0 0)
(0.08889020214276257 0 0)
(0.07788181905240452 0 0)
(0.0647563319198428 0 0)
(0.04989873877888225 0 0)
(0.03381292988233141 0 0)
(0.01702994005444176 0 0)
(2.418503147304693e-05 0 0)
(-0.01684207781333026 0 0)
(-0.03333701812846451 0 0)
(-0.04935035581887936 0 0)
(-0.06485922406476252 0 0)
(-0.07981356494683838 0 0)
(-0.09386836278037086 0 0)
(-0.1059023380994932 0 0)
(-0.1138549904962079 0 0)
(-0.1169193370116349 0 0)
(-0.1173673733627245 0 0)
(-0.117111464554147 0 0)
(-0.1165497506098715 0 0)
(-0.1152364059651891 0 0)
(-0.1127981986774547 0 0)
(-0.1088247075269718 0 0)
(-0.1029489095039618 0 0)
(-0.09491952612301767 0 0)
(-0.08465166108454465 0 0)
(-0.07225187356768795 0 0)
(-0.05801111093535907 0 0)
(-0.04236338809979975 0 0)
(-0.02581615188053835 0 0)
(-0.008866780145977601 0 0)
(0.008072608085379627 0 0)
(0.02471802954146709 0 0)
(0.04092233796241928 0 0)
(0.05664979942520911 0 0)
(0.07185097251417842 0 0)
(0.08619783932729287 0 0)
(0.09869499098249021 0 0)
(0.1073883498132354 0 0)
(0.111014098508048 0 0)
(0.1116108996529023 0 0)
(0.1113137516601622 0 0)
(0.1107417066309092 0 0)
(0.1095315709290188 0 0)
(0.1073405365919274 0 0)
(0.1037851082377998 0 0)
(0.09850504220263515 0 0)
(0.09121313240532049 0 0)
(0.08174357866028695 0 0)
(0.07009095415513034 0 0)
(0.05642882540549515 0 0)
(0.04109747447925806 0 0)
(0.02455903319131029 0 0)
(0.007325394857262751 0 0)
(-0.01012640115277617 0 0)
(-0.02742343166434249 0 0)
(-0.04432995534303514 0 0)
(-0.0607330265128132 0 0)
(-0.07652333231829415 0 0)
(-0.09129700262940747 0 0)
(-0.1038826591528087 0 0)
(-0.1122263240159229 0 0)
(-0.1155007084263548 0 0)
(-0.1160280298282239 0 0)
(-0.1157459571600212 0 0)
(-0.1152525797748339 0 0)
(-0.1141329304775315 0 0)
(-0.1120888294173995 0 0)
(-0.1087671783698597 0 0)
(-0.1038248134892571 0 0)
(-0.0969836284145863 0 0)
(-0.08807202527639495 0 0)
(-0.07705561499088336 0 0)
(-0.06405477471313213 0 0)
(-0.04934215212938798 0 0)
(-0.03331447729542417 0 0)
(-0.01643754395598728 0 0)
(0.0008270043637890444 0 0)
(0.01808944906548002 0 0)
(0.03507421734780442 0 0)
(0.05162717114820637 0 0)
(0.06761789762616428 0 0)
(0.08266795047755375 0 0)
(0.09578412382707012 0 0)
(0.1051130020641858 0 0)
(0.1092536986108737 0 0)
(0.1099922542634614 0 0)
(0.1097763456480989 0 0)
(0.1092393935572645 0 0)
(0.108199075568091 0 0)
(0.1063477053953444 0 0)
(0.1033495546038905 0 0)
(0.09887852348985719 0 0)
(0.09264138470333531 0 0)
(0.0844171800360385 0 0)
(0.07409737500784314 0 0)
(0.06171464892972771 0 0)
(0.04745290428857355 0 0)
(0.03163516394831269 0 0)
(0.01468569795983229 0 0)
(-0.002932719493287098 0 0)
(-0.02078772612744914 0 0)
(-0.03852758475943013 0 0)
(-0.0559005107686357 0 0)
(-0.07267709671580856 0 0)
(-0.08835659676957136 0 0)
(-0.1017040020255991 0 0)
(-0.1106839044327434 0 0)
(-0.1143588702484529 0 0)
(-0.1149820042842454 0 0)
(-0.1147407674007159 0 0)
(-0.1142694587620937 0 0)
(-0.1132888953484516 0 0)
(-0.1115334448566739 0 0)
(-0.1086916243580003 0 0)
(-0.1044502428371345 0 0)
(-0.09852988070635527 0 0)
(-0.09072194892603783 0 0)
(-0.08091745421474555 0 0)
(-0.06912832738723994 0 0)
(-0.05549830618889084 0 0)
(-0.04029765872112708 0 0)
(-0.02389593380549267 0 0)
(-0.006711775558066996 0 0)
(0.01084579137052212 0 0)
(0.02842376588124324 0 0)
(0.04575446126174117 0 0)
(0.06260740437406337 0 0)
(0.0785333059251415 0 0)
(0.09249228443359925 0 0)
(0.1026764648431403 0 0)
(0.1075268945408289 0 0)
(0.1084976342862324 0 0)
(0.1083763436267545 0 0)
(0.1078617073191245 0 0)
(0.106950076798843 0 0)
(0.1053479676853362 0 0)
(0.1027658258834593 0 0)
(0.09891065120650579 0 0)
(0.09349994978479223 0 0)
(0.08629159386748865 0 0)
(0.07712136226523221 0 0)
(0.0659327150282827 0 0)
(0.05279374995339579 0 0)
(0.03790086477244231 0 0)
(0.0215646033697312 0 0)
(0.004172290097129411 0 0)
(-0.01386390808480942 0 0)
(-0.03215192881381772 0 0)
(-0.05034727592473317 0 0)
(-0.06810992036025647 0 0)
(-0.08483871894752812 0 0)
(-0.09921117572859885 0 0)
(-0.1091324149290522 0 0)
(-0.1134337891947109 0 0)
(-0.1142146513191205 0 0)
(-0.114047479164091 0 0)
(-0.1135938628586888 0 0)
(-0.1127158453258498 0 0)
(-0.1111704212638147 0 0)
(-0.1086870678008997 0 0)
(-0.1049856714946696 0 0)
(-0.0997974014148979 0 0)
(-0.09289831284578466 0 0)
(-0.08413701675179083 0 0)
(-0.07345520191846056 0 0)
(-0.06090256474441551 0 0)
(-0.04664296342059601 0 0)
(-0.03094485214451681 0 0)
(-0.01415081699199299 0 0)
(0.003366429094558285 0 0)
(0.02124190057168082 0 0)
(0.03914762853720797 0 0)
(0.05677883277782457 0 0)
(0.07363326889834587 0 0)
(0.08861104449579554 0 0)
(0.09987990469451834 0 0)
(0.1056877954584135 0 0)
(0.1070235554461381 0 0)
(0.1070129875549069 0 0)
(0.1065262213191592 0 0)
(0.1057289876399459 0 0)
(0.1043207721318684 0 0)
(0.102060100692841 0 0)
(0.09868610510918902 0 0)
(0.09393527249522511 0 0)
(0.08756227093271418 0 0)
(0.07937337758217924 0 0)
(0.06925539516431048 0 0)
(0.05719433620845719 0 0)
(0.04328593011021669 0 0)
(0.02773531871883449 0 0)
(0.01083823865935729 0 0)
(-0.00705377167260058 0 0)
(-0.02556429996240717 0 0)
(-0.04431316885625691 0 0)
(-0.06289773652050426 0 0)
(-0.08066529216385324 0 0)
(-0.09623267446737875 0 0)
(-0.1073894116689797 0 0)
(-0.1126272948362235 0 0)
(-0.1137084204549736 0 0)
(-0.1136347024037941 0 0)
(-0.1132080283951292 0 0)
(-0.1124273813208916 0 0)
(-0.1110555654642028 0 0)
(-0.1088580727667401 0 0)
(-0.1055855919212962 0 0)
(-0.1009875340348134 0 0)
(-0.09484016915637156 0 0)
(-0.08697159014922005 0 0)
(-0.07727953877386481 0 0)
(-0.06574646668596403 0 0)
(-0.05245136698115588 0 0)
(-0.03757156620223507 0 0)
(-0.02136740053056539 0 0)
(-0.004151954891634331 0 0)
(0.01373726105643421 0 0)
(0.03195791923316556 0 0)
(0.05016439489744479 0 0)
(0.06784027857154966 0 0)
(0.08387704129064193 0 0)
(0.0963942612156249 0 0)
(0.1034305597110143 0 0)
(0.1053753433624786 0 0)
(0.1054810044574281 0 0)
(0.105065883035361 0 0)
(0.1043625554028226 0 0)
(0.1031139226695561 0 0)
(0.1011043931509988 0 0)
(0.09810781471495171 0 0)
(0.09388633290207696 0 0)
(0.08820135449602805 0 0)
(0.0808448533623318 0 0)
(0.0716682135202501 0 0)
(0.06060074814220146 0 0)
(0.04766207005971086 0 0)
(0.03296890369922272 0 0)
(0.01672927193898861 0 0)
(-0.000778288684155222 0 0)
(-0.01922440000896204 0 0)
(-0.03823834064437871 0 0)
(-0.05739850454457555 0 0)
(-0.07605654120897681 0 0)
(-0.09285128883922214 0 0)
(-0.1054901767220925 0 0)
(-0.112047802020963 0 0)
(-0.1136769331950756 0 0)
(-0.1137348309670254 0 0)
(-0.1133523390592274 0 0)
(-0.1126795950640417 0 0)
(-0.1114668039104676 0 0)
(-0.1095178538154769 0 0)
(-0.1066102549245757 0 0)
(-0.1025123749975856 0 0)
(-0.09700620889255955 0 0)
(-0.08991125783761753 0 0)
(-0.08110015584011623 0 0)
(-0.07051081648988942 0 0)
(-0.05815868673303969 0 0)
(-0.04414489761732508 0 0)
(-0.02865249883617185 0 0)
(-0.01192803734522366 0 0)
(0.005738542885196692 0 0)
(0.02402276455744228 0 0)
(0.0425690098515709 0 0)
(0.06088456920489333 0 0)
(0.07792538692654023 0 0)
(0.09178154151334871 0 0)
(0.1002879801772322 0 0)
(0.1031525297553831 0 0)
(0.1034300302192026 0 0)
(0.1031228501720026 0 0)
(0.1025098433747318 0 0)
(0.1014201181536069 0 0)
(0.09964350312593098 0 0)
(0.09698043490032257 0 0)
(0.09321972051117322 0 0)
(0.08813878004123224 0 0)
(0.0815318987875996 0 0)
(0.07323651103433788 0 0)
(0.06314924909800831 0 0)
(0.05123802210838677 0 0)
(0.0375525975823691 0 0)
(0.0222275773152915 0 0)
(0.005472371706578088 0 0)
(-0.01244038513049964 0 0)
(-0.03117362248278502 0 0)
(-0.05031509547382537 0 0)
(-0.06925465953532133 0 0)
(-0.08673869313789738 0 0)
(-0.1004969623588795 0 0)
(-0.1082947115078912 0 0)
(-0.1106316981321833 0 0)
(-0.1108323712108046 0 0)
(-0.1105187025332863 0 0)
(-0.1099452262054521 0 0)
(-0.1088812175804417 0 0)
(-0.1071576113837948 0 0)
(-0.1045833077360148 0 0)
(-0.1009501472143355 0 0)
(-0.09605351092633638 0 0)
(-0.089715872738168 0 0)
(-0.08180014219047309 0 0)
(-0.07221808771094158 0 0)
(-0.060940906125108 0 0)
(-0.04801011706577476 0 0)
(-0.03354114997837632 0 0)
(-0.01771412956611397 0 0)
(-0.0007605930686208315 0 0)
(0.01703776520729674 0 0)
(0.03534491748617111 0 0)
(0.05371606840003618 0 0)
(0.07125903694841929 0 0)
(0.08616251060481189 0 0)
(0.09615044422818424 0 0)
(0.100259805456174 0 0)
(0.1008586317778816 0 0)
(0.1006798730538556 0 0)
(0.1001720117430183 0 0)
(0.09925698027021235 0 0)
(0.09771946987350093 0 0)
(0.09538299114326003 0 0)
(0.09206390458729177 0 0)
(0.08756032260149038 0 0)
(0.08167379034170881 0 0)
(0.07423290754025699 0 0)
(0.06510789421034599 0 0)
(0.05422202987976064 0 0)
(0.04156331459572003 0 0)
(0.0271925989465333 0 0)
(0.0112424546173209 0 0)
(-0.006086562665476772 0 0)
(-0.02451570029738162 0 0)
(-0.04366856519499753 0 0)
(-0.06299705592632907 0 0)
(-0.08141540597940101 0 0)
(-0.09674158889699028 0 0)
(-0.106371813302006 0 0)
(-0.1099456621495993 0 0)
(-0.1104285194090213 0 0)
(-0.1102150896589941 0 0)
(-0.1097471040480496 0 0)
(-0.1088393869926198 0 0)
(-0.1073223171942695 0 0)
(-0.1050237462314154 0 0)
(-0.1017539365274201 0 0)
(-0.09731984643962442 0 0)
(-0.09154898449863808 0 0)
(-0.08430090409412801 0 0)
(-0.07547210853385418 0 0)
(-0.06500412087822074 0 0)
(-0.05289451349307189 0 0)
(-0.03920436927900542 0 0)
(-0.02405619963801545 0 0)
(-0.00762632437542973 0 0)
(0.009852348018413067 0 0)
(0.0280762726865505 0 0)
(0.04664046047310492 0 0)
(0.06480213224477713 0 0)
(0.08091484766931589 0 0)
(0.09257751201020331 0 0)
(0.09827207020717559 0 0)
(0.0994494329299998 0 0)
(0.09940114687598961 0 0)
(0.09900163600777256 0 0)
(0.09824242466234706 0 0)
(0.09690273069887942 0 0)
(0.09482102237763726 0 0)
(0.09183325896628797 0 0)
(0.08775376689442507 0 0)
(0.08239290527343815 0 0)
(0.07557979242548432 0 0)
(0.0671743755850171 0 0)
(0.05707572280715148 0 0)
(0.04523290538073898 0 0)
(0.0316561865408232 0 0)
(0.01642205743977645 0 0)
(-0.0003266988622686913 0 0)
(-0.01836825244120059 0 0)
(-0.03737286642832107 0 0)
(-0.0568525134055697 0 0)
(-0.07589873890229 0 0)
(-0.09255770707763476 0 0)
(-0.1040297060582636 0 0)
(-0.1091112534731205 0 0)
(-0.1100837148854236 0 0)
(-0.1099867516729611 0 0)
(-0.1096229070264383 0 0)
(-0.1088694936046816 0 0)
(-0.1075493115431734 0 0)
(-0.1055033882757427 0 0)
(-0.1025583915035446 0 0)
(-0.09853087417435692 0 0)
(-0.09325235611818015 0 0)
(-0.08658222321869759 0 0)
(-0.07841028074386915 0 0)
(-0.06866135858321444 0 0)
(-0.05730443836422956 0 0)
(-0.04436147695003171 0 0)
(-0.02991003403195013 0 0)
(-0.01407918455442667 0 0)
(0.002945970791500232 0 0)
(0.02090307001770537 0 0)
(0.03942949742325461 0 0)
(0.05792483474615964 0 0)
(0.07501662237409309 0 0)
(0.08830254432800769 0 0)
(0.0957696112680059 0 0)
(0.09791961832252219 0 0)
(0.09803623959579179 0 0)
(0.09775852700571712 0 0)
(0.09716297543144417 0 0)
(0.09602736336654208 0 0)
(0.09419711949799954 0 0)
(0.09152181051914968 0 0)
(0.08782858276991042 0 0)
(0.08293820295454835 0 0)
(0.07668556270964115 0 0)
(0.06892755190629481 0 0)
(0.05954821319760607 0 0)
(0.04846951876746468 0 0)
(0.0356641351453699 0 0)
(0.0211637606611041 0 0)
(0.005061964447692194 0 0)
(-0.01247275315300386 0 0)
(-0.03116391552100219 0 0)
(-0.05058772819859158 0 0)
(-0.06999853212228749 0 0)
(-0.08775227744649906 0 0)
(-0.101040132093678 0 0)
(-0.1078723551062902 0 0)
(-0.1096327873192928 0 0)
(-0.1096902485851184 0 0)
(-0.1094400249011293 0 0)
(-0.1088459279133819 0 0)
(-0.1077268728244927 0 0)
(-0.105931284721016 0 0)
(-0.1032967754802768 0 0)
(-0.09964731969225708 0 0)
(-0.0948179486235135 0 0)
(-0.08867015581454785 0 0)
(-0.08109219196132576 0 0)
(-0.07199970177220132 0 0)
(-0.06134286762487322 0 0)
(-0.04911560901291401 0 0)
(-0.03536068343411552 0 0)
(-0.0201684891218713 0 0)
(-0.003681468434306519 0 0)
(0.01388415563521942 0 0)
(0.03221351493997836 0 0)
(0.0508123898032137 0 0)
(0.06860158971834726 0 0)
(0.083350570135502 0 0)
(0.09265388727986601 0 0)
(0.09617814409984986 0 0)
(0.09659261706606626 0 0)
(0.09643206484611691 0 0)
(0.09600365361351379 0 0)
(0.09507494730037552 0 0)
(0.09349410414263891 0 0)
(0.0911197140056319 0 0)
(0.08779052480782398 0 0)
(0.08333441334599087 0 0)
(0.07759084210925636 0 0)
(0.07041785874223552 0 0)
(0.0616936385475081 0 0)
(0.05132428204766169 0 0)
(0.0392561543872054 0 0)
(0.02548634788952924 0 0)
(0.01006818476000643 0 0)
(-0.00687825280504501 0 0)
(-0.02513315773164914 0 0)
(-0.04433328416325745 0 0)
(-0.06386206959095909 0 0)
(-0.08240860550879321 0 0)
(-0.0973747600068582 0 0)
(-0.1061266508741982 0 0)
(-0.1090636599691692 0 0)
(-0.1093786228315818 0 0)
(-0.1092196326564913 0 0)
(-0.1087849883898704 0 0)
(-0.1078656386988223 0 0)
(-0.1063155419369994 0 0)
(-0.103981541324618 0 0)
(-0.1006924205351701 0 0)
(-0.09628433963548588 0 0)
(-0.09061967499663821 0 0)
(-0.08358683387640602 0 0)
(-0.07509715120363855 0 0)
(-0.06508945076765441 0 0)
(-0.0535386251855911 0 0)
(-0.04046198408988201 0 0)
(-0.025920268058692 0 0)
(-0.01001925679972184 0 0)
(0.00707078450437771 0 0)
(0.02508071827033826 0 0)
(0.04359161590499915 0 0)
(0.06178487490414494 0 0)
(0.07778165612388788 0 0)
(0.08891069857034511 0 0)
(0.09405252625867259 0 0)
(0.09505811799961739 0 0)
(0.09502422305118302 0 0)
(0.0947474603556467 0 0)
(0.09402860096004914 0 0)
(0.09269763260340332 0 0)
(0.09061876883073121 0 0)
(0.08763893567472636 0 0)
(0.08358959022689882 0 0)
(0.07831412253329549 0 0)
(0.07167622874230817 0 0)
(0.06355485909478108 0 0)
(0.05384662228643482 0 0)
(0.04247854944799432 0 0)
(0.02942145022569231 0 0)
(0.01469730568843292 0 0)
(-0.001613708538459338 0 0)
(-0.0193444394057084 0 0)
(-0.03819094819443675 0 0)
(-0.05764288007464622 0 0)
(-0.07668464619836256 0 0)
(-0.09308930416555071 0 0)
(-0.1038295456640861 0 0)
(-0.1082513737379907 0 0)
(-0.1090405356282046 0 0)
(-0.1089627796393066 0 0)
(-0.1086784643588762 0 0)
(-0.1079591613219278 0 0)
(-0.106651855677599 0 0)
(-0.1046113216941239 0 0)
(-0.1016702039199126 0 0)
(-0.09766373590874239 0 0)
(-0.09245314371724987 0 0)
(-0.08592705405829755 0 0)
(-0.07799540234224639 0 0)
(-0.06859089613598698 0 0)
(-0.05767619646428264 0 0)
(-0.0452505239766624 0 0)
(-0.03135195257823362 0 0)
(-0.01605733727003543 0 0)
(0.0005015746931989736 0 0)
(0.01810038977199044 0 0)
(0.03638714779178005 0 0)
(0.05473941888972239 0 0)
(0.0716805796030037 0 0)
(0.08451954517871978 0 0)
(0.09143083045055382 0 0)
(0.09339509223229688 0 0)
(0.09354065400808675 0 0)
(0.09338425447834607 0 0)
(0.09287359187227742 0 0)
(0.09179168477509174 0 0)
(0.09000558962012674 0 0)
(0.08736578502191676 0 0)
(0.0837079612625079 0 0)
(0.07887690421448848 0 0)
(0.07273927872158804 0 0)
(0.06517679348384829 0 0)
(0.05608357879153492 0 0)
(0.04537614553086065 0 0)
(0.03300685150949702 0 0)
(0.01897321687783196 0 0)
(0.003323630049448764 0 0)
(-0.01382137809943016 0 0)
(-0.03221751570752592 0 0)
(-0.05143996518239573 0 0)
(-0.0706954124527237 0 0)
(-0.08819124952101345 0 0)
(-0.1008838714202039 0 0)
(-0.1070702835078895 0 0)
(-0.1086286820211795 0 0)
(-0.1086576696249982 0 0)
(-0.1085056265127672 0 0)
(-0.1079703826075272 0 0)
(-0.1068958026002882 0 0)
(-0.1051398382159939 0 0)
(-0.1025391183090457 0 0)
(-0.09892520142045533 0 0)
(-0.09415426459551809 0 0)
(-0.08811298619258211 0 0)
(-0.08071018691173537 0 0)
(-0.07187450779622685 0 0)
(-0.06156029097510816 0 0)
(-0.04975437743057725 0 0)
(-0.03647903898862584 0 0)
(-0.02179169183305849 0 0)
(-0.005794284861380047 0 0)
(0.01133422890634453 0 0)
(0.02930053686348572 0 0)
(0.04760470043567912 0 0)
(0.06513477793887612 0 0)
(0.07951826532044834 0 0)
(0.08828703168493506 0 0)
(0.09153322719829805 0 0)
(0.09194765577210218 0 0)
(0.0919415256071934 0 0)
(0.09161675212972405 0 0)
(0.09077989095939365 0 0)
(0.08928214799463095 0 0)
(0.08697798360544184 0 0)
(0.08370407437299006 0 0)
(0.07930174141968682 0 0)
(0.07363789160347797 0 0)
(0.06659952362649413 0 0)
(0.05808347820623631 0 0)
(0.04800027957673577 0 0)
(0.03628832969964287 0 0)
(0.02292637525945622 0 0)
(0.007939598661388344 0 0)
(-0.008587194386420289 0 0)
(-0.0264654886325239 0 0)
(-0.04534406750465832 0 0)
(-0.06458940246657507 0 0)
(-0.08282677706811273 0 0)
(-0.09730755075814865 0 0)
(-0.1054229504397498 0 0)
(-0.1080632502030138 0 0)
(-0.1083166732693118 0 0)
(-0.1082726648353834 0 0)
(-0.1079047511316286 0 0)
(-0.1070572607913916 0 0)
(-0.1055757171670559 0 0)
(-0.1033040859137338 0 0)
(-0.100071404043102 0 0)
(-0.09572761627235092 0 0)
(-0.09015594852479301 0 0)
(-0.08326322123129405 0 0)
(-0.07497398487565911 0 0)
(-0.06523547616761406 0 0)
(-0.05402474579490114 0 0)
(-0.04135249539316386 0 0)
(-0.02726308469364577 0 0)
(-0.01183657888287009 0 0)
(0.004786730982474003 0 0)
(0.02235843301462602 0 0)
(0.040464196159867 0 0)
(0.05828925129031015 0 0)
(0.07393258856453772 0 0)
(0.08454745634609075 0 0)
(0.08932828576633392 0 0)
(0.09028859182457936 0 0)
(0.09041833952405916 0 0)
(0.09023744049137113 0 0)
(0.08964190092334631 0 0)
(0.08842628536328163 0 0)
(0.08644915858468952 0 0)
(0.08354989590606814 0 0)
(0.07956640264838372 0 0)
(0.07436280298432769 0 0)
(0.06782791030719187 0 0)
(0.05986083095178023 0 0)
(0.05036991319478357 0 0)
(0.0392849649819237 0 0)
(0.02657067256214217 0 0)
(0.01223501844353317 0 0)
(-0.003663695384260956 0 0)
(-0.02098514516305915 0 0)
(-0.03943835670941181 0 0)
(-0.05850298550723715 0 0)
(-0.07714639547767542 0 0)
(-0.09309414610679553 0 0)
(-0.1032550661652969 0 0)
(-0.1072962738518587 0 0)
(-0.1080127810889975 0 0)
(-0.1080393992511975 0 0)
(-0.1078174282178872 0 0)
(-0.1071770547516044 0 0)
(-0.1059491984920491 0 0)
(-0.1039860605914187 0 0)
(-0.101116158884759 0 0)
(-0.09718311232261545 0 0)
(-0.09206504213135255 0 0)
(-0.08566626568685702 0 0)
(-0.07790723568420239 0 0)
(-0.06872740535489534 0 0)
(-0.05809364490023398 0 0)
(-0.04600586637137743 0 0)
(-0.03249779423997243 0 0)
(-0.01763608940499502 0 0)
(-0.001535972752730964 0 0)
(0.01559609101869547 0 0)
(0.03341750327851646 0 0)
(0.05130113515727078 0 0)
(0.06779910081686674 0 0)
(0.08018856558810636 0 0)
(0.08667176416549345 0 0)
(0.08857868885451098 0 0)
(0.08877932394524997 0 0)
(0.08876531268626993 0 0)
(0.08838003869481695 0 0)
(0.08743531419810655 0 0)
(0.08577883112814245 0 0)
(0.08324603292859184 0 0)
(0.07967163470505746 0 0)
(0.07491413638501371 0 0)
(0.06886201543901609 0 0)
(0.06141975646395501 0 0)
(0.05249872174038432 0 0)
(0.04202287519277075 0 0)
(0.02994323519181519 0 0)
(0.01625086807514033 0 0)
(0.0009838877289700158 0 0)
(-0.01575144160943356 0 0)
(-0.03372117310381943 0 0)
(-0.05249799936460798 0 0)
(-0.07128369028485367 0 0)
(-0.08829725892911093 0 0)
(-0.1004664107850745 0 0)
(-0.1061936081435518 0 0)
(-0.1076757344426355 0 0)
(-0.1077208205573188 0 0)
(-0.1076633290832225 0 0)
(-0.1072149104347117 0 0)
(-0.1062350085861963 0 0)
(-0.1045723007673078 0 0)
(-0.1020517250756458 0 0)
(-0.09850980569794006 0 0)
(-0.0938216112912129 0 0)
(-0.0878930467214326 0 0)
(-0.08064493354026503 0 0)
(-0.07201137008305833 0 0)
(-0.06194819596883475 0 0)
(-0.05044095896682413 0 0)
(-0.03750945505191278 0 0)
(-0.02320901354646502 0 0)
(-0.007636522555712618 0 0)
(0.009038323623494996 0 0)
(0.02652010826048903 0 0)
(0.04429572306894685 0 0)
(0.06129631365905571 0 0)
(0.07525965967692232 0 0)
(0.08358568290273513 0 0)
(0.0866669245139081 0 0)
(0.08708540229516984 0 0)
(0.08721811914591322 0 0)
(0.08700479747999224 0 0)
(0.08633037052028589 0 0)
(0.08499183732028139 0 0)
(0.08282461462552314 0 0)
(0.07965213924396747 0 0)
(0.07532470353071964 0 0)
(0.06973298096783975 0 0)
(0.06278963518666364 0 0)
(0.05441246149041524 0 0)
(0.04452502421561342 0 0)
(0.03306834443797346 0 0)
(0.02001539681318944 0 0)
(0.005383816127278084 0 0)
(-0.01074991322250944 0 0)
(-0.02820543876858614 0 0)
(-0.04662146656883401 0 0)
(-0.06534585220819165 0 0)
(-0.08303499797372381 0 0)
(-0.09702891653845133 0 0)
(-0.1047014426737083 0 0)
(-0.1071521771423286 0 0)
(-0.107422480705766 0 0)
(-0.1074482915160839 0 0)
(-0.1071636884922545 0 0)
(-0.1064258768509885 0 0)
(-0.105059973676626 0 0)
(-0.1028882608969791 0 0)
(-0.09973205527328953 0 0)
(-0.09545499472899345 0 0)
(-0.08996522803980132 0 0)
(-0.08319355683429229 0 0)
(-0.07507982964645514 0 0)
(-0.06557543340050682 0 0)
(-0.05465213345444744 0 0)
(-0.04231057905548187 0 0)
(-0.02858629151872547 0 0)
(-0.01355462601595893 0 0)
(0.002644294124268071 0 0)
(0.01975378321579083 0 0)
(0.03734560007597237 0 0)
(0.05460559525342663 0 0)
(0.06974138815659221 0 0)
(0.07997322909498446 0 0)
(0.08443284366992337 0 0)
(0.08544968763295777 0 0)
(0.08555428885945504 0 0)
(0.08549478665489914 0 0)
(0.08505448399250443 0 0)
(0.08403251803936396 0 0)
(0.08224562936758109 0 0)
(0.07949559709633355 0 0)
(0.0756093979687527 0 0)
(0.07046496267021847 0 0)
(0.06398196839854887 0 0)
(0.05609866040033562 0 0)
(0.04675639104242362 0 0)
(0.03589877998381503 0 0)
(0.02348392311217486 0 0)
(0.009503282844039838 0 0)
(-0.006000741808847293 0 0)
(-0.02289870151008838 0 0)
(-0.04089756890980792 0 0)
(-0.05946113196600102 0 0)
(-0.07755332640218425 0 0)
(-0.0929811033280892 0 0)
(-0.1027384860134721 0 0)
(-0.1064905707344496 0 0)
(-0.1072279773765012 0 0)
(-0.1071758040252427 0 0)
(-0.1070409484732314 0 0)
(-0.1065102065954778 0 0)
(-0.1054389738496326 0 0)
(-0.1036345099278027 0 0)
(-0.1008902265086719 0 0)
(-0.09703957354815858 0 0)
(-0.0919755848743383 0 0)
(-0.08563614683561453 0 0)
(-0.07798238294623394 0 0)
(-0.06898464881551039 0 0)
(-0.05861855199405148 0 0)
(-0.0468708677203836 0 0)
(-0.03375193003012081 0 0)
(-0.01930622033835086 0 0)
(-0.003631832219147114 0 0)
(0.01306618278150482 0 0)
(0.03041999201670637 0 0)
(0.04777917300631024 0 0)
(0.06374418745937989 0 0)
(0.07580439474351142 0 0)
(0.08198275921359219 0 0)
(0.08373467672504613 0 0)
(0.08385539866053367 0 0)
(0.08386276322181545 0 0)
(0.08357857069916759 0 0)
(0.08284599305704085 0 0)
(0.08145009143109222 0 0)
(0.07916174269909798 0 0)
(0.07576487663092625 0 0)
(0.07110182193328413 0 0)
(0.06507777249906974 0 0)
(0.05764119749541693 0 0)
(0.04876437852450111 0 0)
(0.03842873568876973 0 0)
(0.02661290317673604 0 0)
(0.01329451033392374 0 0)
(-0.001527086371755707 0 0)
(-0.01778882757085651 0 0)
(-0.03528087061201113 0 0)
(-0.05356626689770145 0 0)
(-0.07183882843840021 0 0)
(-0.08835375457269533 0 0)
(-0.1001881968714346 0 0)
(-0.1056966295279185 0 0)
(-0.1070007272006137 0 0)
(-0.1070154760019228 0 0)
(-0.1068590921691918 0 0)
(-0.1064349000827335 0 0)
(-0.1056013485022436 0 0)
(-0.1041578889686241 0 0)
(-0.10187208988717 0 0)
(-0.09852231870575077 0 0)
(-0.0939459404336008 0 0)
(-0.08805046946966734 0 0)
(-0.08080364135608885 0 0)
(-0.07221502721381452 0 0)
(-0.06230910744924576 0 0)
(-0.05109948424589606 0 0)
(-0.0385852455802962 0 0)
(-0.02477286017568757 0 0)
(-0.009705483308195172 0 0)
(0.006482920300550666 0 0)
(0.02349520822822772 0 0)
(0.04080977940109499 0 0)
(0.0573689954099974 0 0)
(0.07097078338985582 0 0)
(0.07915138360798128 0 0)
(0.08202584398017085 0 0)
(0.08245086384903999 0 0)
(0.08227631549768147 0 0)
(0.08201350914143175 0 0)
(0.08140412851127168 0 0)
(0.08030806716117839 0 0)
(0.07850124459997172 0 0)
(0.07570921558889585 0 0)
(0.07167464333908086 0 0)
(0.06621278842174182 0 0)
(0.05923384634586625 0 0)
(0.05073452624176968 0 0)
(0.04076700571161867 0 0)
(0.02939633794592666 0 0)
(0.01665776252989052 0 0)
(0.002542558083583133 0 0)
(-0.01297126488987419 0 0)
(-0.02981333163552503 0 0)
(-0.04767223841624598 0 0)
(-0.06591243175549645 0 0)
(-0.08318441145905268 0 0)
(-0.0968327341744132 0 0)
(-0.1044440065639401 0 0)
(-0.1068121596190951 0 0)
(-0.1070709321032769 0 0)
(-0.1068516235824503 0 0)
(-0.1064305694949287 0 0)
(-0.1056176922051479 0 0)
(-0.1043201102558415 0 0)
(-0.1023864330952038 0 0)
(-0.09960334053911914 0 0)
(-0.09573169318678736 0 0)
(-0.09054411348204905 0 0)
(-0.08386315269820512 0 0)
(-0.07561064728865027 0 0)
(-0.06585969725089455 0 0)
(-0.05483588008009233 0 0)
(-0.0427972898179614 0 0)
(-0.02979952374082823 0 0)
(-0.01566406090134414 0 0)
(2.966763316920895e-05 0 0)
(0.01619310172928606 0 0)
(0.03540049211944548 0 0)
)
;

boundaryField
{
    inlet
    {
        type            zeroGradient;
    }
    outlet
    {
        type            velocityOutletNSCBCx;
        pInf            101325;
        gamma           1.4;
        etaAc           1;
        fieldInf        (-1 0 0);
        lInf            2.25;
        value           uniform (0.04296752015441473 0 0);
    }
    frontAndBack
    {
        type            empty;
    }
}


// ************************************************************************* //
