/*--------------------------------*- C++ -*----------------------------------*\
| =========                 |                                                 |
| \\      /  F ield         | OpenFOAM: The Open Source CFD Toolbox           |
|  \\    /   O peration     | Version:  v2012                                 |
|   \\  /    A nd           | Website:  www.openfoam.com                      |
|    \\/     M anipulation  |                                                 |
\*---------------------------------------------------------------------------*/
FoamFile
{
    version     2.0;
    format      ascii;
    class       volVectorField;
    location    "0.017";
    object      UMean;
}
// * * * * * * * * * * * * * * * * * * * * * * * * * * * * * * * * * * * * * //

dimensions      [0 1 -1 0 0 0 0];


internalField   nonuniform List<vector> 
1000
(
(-0.0001703684416325623 0 0)
(-0.0001480997491560685 0 0)
(-0.0001361710578152568 0 0)
(-0.0001104991558847524 0 0)
(-8.108527596346221e-05 0 0)
(-5.154247613100866e-05 0 0)
(-1.211866058763153e-05 0 0)
(2.913099097762159e-05 0 0)
(7.83768509682942e-05 0 0)
(0.0001298393127150313 0 0)
(0.0001836117504493264 0 0)
(0.0002367597947288112 0 0)
(0.0002896287900919695 0 0)
(0.0003417587903651375 0 0)
(0.0003921642666607683 0 0)
(0.0004400184415367941 0 0)
(0.000484032795980118 0 0)
(0.0005235418657623376 0 0)
(0.0005575937728413532 0 0)
(0.000585882210641716 0 0)
(0.000607780250454406 0 0)
(0.0006231866555212365 0 0)
(0.0006312695613047849 0 0)
(0.0006322825473352143 0 0)
(0.0006263052090435022 0 0)
(0.0006131607120751147 0 0)
(0.0005933547374459316 0 0)
(0.0005669749002069197 0 0)
(0.0005344879456709347 0 0)
(0.0004962526788612265 0 0)
(0.0004527571091319832 0 0)
(0.0004046224707555632 0 0)
(0.0003534976466200835 0 0)
(0.0003009341956071546 0 0)
(0.0002485822717265045 0 0)
(0.0001962883250748664 0 0)
(0.0001444853984312718 0 0)
(9.385919896682061e-05 0 0)
(4.521273381656964e-05 0 0)
(-3.562657605776356e-07 0 0)
(-4.168571781079531e-05 0 0)
(-7.798870079912145e-05 0 0)
(-0.0001082999979317142 0 0)
(-0.0001322293813753574 0 0)
(-0.0001490657676813393 0 0)
(-0.0001593537179036256 0 0)
(-0.0001621825010650413 0 0)
(-0.0001577450760461644 0 0)
(-0.0001462717389115566 0 0)
(-0.0001277771234218852 0 0)
(-0.0001026168784019167 0 0)
(-7.111690857580471e-05 0 0)
(-3.353962908692368e-05 0 0)
(9.638305864244715e-06 0 0)
(5.729703442935827e-05 0 0)
(0.0001077689175254781 0 0)
(0.0001589914193411295 0 0)
(0.0002107445054862299 0 0)
(0.00026208553028082 0 0)
(0.0003128062471250122 0 0)
(0.000362472478027878 0 0)
(0.0004101415377477115 0 0)
(0.0004550610080577488 0 0)
(0.0004962710419088353 0 0)
(0.0005326497764306268 0 0)
(0.0005634448950846524 0 0)
(0.0005879096355158701 0 0)
(0.0006057616111169255 0 0)
(0.0006162835743744766 0 0)
(0.0006195903271336018 0 0)
(0.0006159204276762473 0 0)
(0.0006050375338894099 0 0)
(0.0005874088134637088 0 0)
(0.0005629891227391719 0 0)
(0.0005321417795086129 0 0)
(0.0004949629045784329 0 0)
(0.0004521371676679544 0 0)
(0.0004043956662425328 0 0)
(0.0003539427360840079 0 0)
(0.000301978863386898 0 0)
(0.0002506009475493787 0 0)
(0.0001989002118044427 0 0)
(0.0001477219546966806 0 0)
(9.739536050809339e-05 0 0)
(4.859034357182744e-05 0 0)
(2.065678978421197e-06 0 0)
(-4.095758343787095e-05 0 0)
(-7.974400643614133e-05 0 0)
(-0.0001130998696329147 0 0)
(-0.0001404222791979329 0 0)
(-0.0001607916193223724 0 0)
(-0.0001741294302147589 0 0)
(-0.000180318936166511 0 0)
(-0.000178851187043909 0 0)
(-0.000170143248704038 0 0)
(-0.0001542906786360217 0 0)
(-0.0001314749394878022 0 0)
(-0.0001019135569868711 0 0)
(-6.598191051318738e-05 0 0)
(-2.39861748612243e-05 0 0)
(2.262502386516296e-05 0 0)
(7.202549947240808e-05 0 0)
(0.0001219769523562165 0 0)
(0.0001728042493588848 0 0)
(0.0002228862436798432 0 0)
(0.0002727342297115691 0 0)
(0.0003216266042230652 0 0)
(0.0003689407684263478 0 0)
(0.0004139523973872133 0 0)
(0.000455843050544946 0 0)
(0.0004936706603918036 0 0)
(0.000526467922953853 0 0)
(0.0005535026302861067 0 0)
(0.0005739286564222755 0 0)
(0.0005877548440384341 0 0)
(0.0005935440371960516 0 0)
(0.0005923912888940892 0 0)
(0.0005838952945926563 0 0)
(0.0005682806671381461 0 0)
(0.0005456826736744398 0 0)
(0.0005164365353590004 0 0)
(0.0004804857365257611 0 0)
(0.0004386859497092146 0 0)
(0.0003917779463248406 0 0)
(0.000341978868732753 0 0)
(0.0002906283178485154 0 0)
(0.0002397500285119277 0 0)
(0.0001883949817964308 0 0)
(0.00013777484109211 0 0)
(8.751954804551389e-05 0 0)
(3.870515351702954e-05 0 0)
(-8.387658507279378e-06 0 0)
(-5.255273473962149e-05 0 0)
(-9.300825708167554e-05 0 0)
(-0.000128754511832703 0 0)
(-0.0001589181888871956 0 0)
(-0.0001827285648653537 0 0)
(-0.0001992739382379368 0 0)
(-0.0002091685273284814 0 0)
(-0.0002111151358339978 0 0)
(-0.0002053964499109163 0 0)
(-0.000192353261814439 0 0)
(-0.0001718927140981768 0 0)
(-0.00014440671370851 0 0)
(-0.0001101469461547509 0 0)
(-6.968309162688512e-05 0 0)
(-2.425130774788469e-05 0 0)
(2.397119667560227e-05 0 0)
(7.311387229437026e-05 0 0)
(0.0001225024952891841 0 0)
(0.0001718746769983707 0 0)
(0.000221040962373903 0 0)
(0.0002691545034199058 0 0)
(0.0003161596090222214 0 0)
(0.000361105072334444 0 0)
(0.0004032733159005318 0 0)
(0.0004420582722332042 0 0)
(0.0004762538125995642 0 0)
(0.000505325195510015 0 0)
(0.0005281215989155458 0 0)
(0.0005448086915253764 0 0)
(0.000553389105834513 0 0)
(0.0005550408213714065 0 0)
(0.0005492407546428146 0 0)
(0.0005359547896280662 0 0)
(0.0005153841037554299 0 0)
(0.0004877791561248357 0 0)
(0.0004533215803185364 0 0)
(0.0004125829005389198 0 0)
(0.0003666746204329793 0 0)
(0.0003174199463202235 0 0)
(0.0002669316816261224 0 0)
(0.0002157055427440862 0 0)
(0.0001652885805920075 0 0)
(0.0001148956397122907 0 0)
(6.476403571430375e-05 0 0)
(1.591153521585941e-05 0 0)
(-3.154200003155548e-05 0 0)
(-7.658420781771848e-05 0 0)
(-0.0001183592433785901 0 0)
(-0.0001559775204872687 0 0)
(-0.00018852298133718 0 0)
(-0.0002152316813901834 0 0)
(-0.0002349809531254709 0 0)
(-0.0002483314507000719 0 0)
(-0.0002538131356645536 0 0)
(-0.0002513794325747829 0 0)
(-0.0002413799974119307 0 0)
(-0.0002236327087964323 0 0)
(-0.0001985097448177456 0 0)
(-0.0001660605512986729 0 0)
(-0.0001272796424888095 0 0)
(-8.306005995639473e-05 0 0)
(-3.596927047044215e-05 0 0)
(1.252246450711979e-05 0 0)
(6.040723666713513e-05 0 0)
(0.0001096142324737451 0 0)
(0.0001577636334492006 0 0)
(0.0002053548737289528 0 0)
(0.0002518940347587191 0 0)
(0.0002967809043907907 0 0)
(0.0003391320883136691 0 0)
(0.0003784893001036854 0 0)
(0.0004138287475989517 0 0)
(0.0004444840355895126 0 0)
(0.0004693946322363744 0 0)
(0.0004883532234779774 0 0)
(0.0005000795874573653 0 0)
(0.0005043286872380678 0 0)
(0.0005013138060855643 0 0)
(0.0004906667827160306 0 0)
(0.000472393406945491 0 0)
(0.0004467769771965567 0 0)
(0.0004140196391482695 0 0)
(0.0003745643999445807 0 0)
(0.0003296794474061062 0 0)
(0.000281066593051371 0 0)
(0.0002311619177985557 0 0)
(0.0001800562194422474 0 0)
(0.0001303424850634717 0 0)
(7.989026644988793e-05 0 0)
(3.008248777244294e-05 0 0)
(-1.895257723142058e-05 0 0)
(-6.657749541782074e-05 0 0)
(-0.0001122534664254872 0 0)
(-0.0001551847217366241 0 0)
(-0.0001942723393723963 0 0)
(-0.0002288750899571739 0 0)
(-0.0002579555098620078 0 0)
(-0.0002809435710747942 0 0)
(-0.0002967071649445233 0 0)
(-0.0003060323402987276 0 0)
(-0.0003070260925902206 0 0)
(-0.0003002417951308961 0 0)
(-0.0002854611357312666 0 0)
(-0.0002629508171399959 0 0)
(-0.0002327245395023698 0 0)
(-0.0001956932448211995 0 0)
(-0.0001529001273614086 0 0)
(-0.0001067868424643299 0 0)
(-5.913116980876816e-05 0 0)
(-1.198882109441486e-05 0 0)
(3.645698643680174e-05 0 0)
(8.373278257231824e-05 0 0)
(0.0001310527886717796 0 0)
(0.0001770012051332215 0 0)
(0.0002218599657028799 0 0)
(0.0002643327646362306 0 0)
(0.0003040705475754329 0 0)
(0.0003403168265089721 0 0)
(0.0003722268198742792 0 0)
(0.0003990225724619442 0 0)
(0.0004198335065952226 0 0)
(0.0004346509328332629 0 0)
(0.0004413105598639284 0 0)
(0.0004410151055126686 0 0)
(0.0004331758413337556 0 0)
(0.0004175016735054058 0 0)
(0.0003941706039940463 0 0)
(0.0003632913649142411 0 0)
(0.0003255266046584218 0 0)
(0.000281714467547448 0 0)
(0.0002339352293539872 0 0)
(0.0001843550879263618 0 0)
(0.0001340400425035082 0 0)
(8.386943222455569e-05 0 0)
(3.397594763645968e-05 0 0)
(-1.546716291532293e-05 0 0)
(-6.461973072633599e-05 0 0)
(-0.0001123662457146462 0 0)
(-0.0001584659462847234 0 0)
(-0.000202291153527672 0 0)
(-0.0002426482749873042 0 0)
(-0.0002789622574700653 0 0)
(-0.0003101070050024764 0 0)
(-0.0003357619619845883 0 0)
(-0.0003541522287929757 0 0)
(-0.000366795742894793 0 0)
(-0.0003711257666162908 0 0)
(-0.0003675269914889333 0 0)
(-0.0003558333556768738 0 0)
(-0.000336176249042272 0 0)
(-0.0003084688047813373 0 0)
(-0.000273372198550525 0 0)
(-0.0002321958107224234 0 0)
(-0.0001870499200650194 0 0)
(-0.0001403632007613435 0 0)
(-9.330214816614185e-05 0 0)
(-4.675594182613212e-05 0 0)
(7.689260713367199e-07 0 0)
(4.750117508721017e-05 0 0)
(9.310152899374706e-05 0 0)
(0.0001377343373203243 0 0)
(0.0001803961461277754 0 0)
(0.0002205181375971985 0 0)
(0.0002573771949222719 0 0)
(0.000290444563095052 0 0)
(0.0003187863488354555 0 0)
(0.0003415121388586701 0 0)
(0.000358673365383786 0 0)
(0.0003679225721365485 0 0)
(0.0003702853196177286 0 0)
(0.0003653286388774927 0 0)
(0.0003523878318462583 0 0)
(0.0003316125363915535 0 0)
(0.0003029871730904192 0 0)
(0.0002671509629593454 0 0)
(0.0002247635521129826 0 0)
(0.00017797673394973 0 0)
(0.0001287876329470866 0 0)
(7.939705353034396e-05 0 0)
(2.857340271802004e-05 0 0)
(-2.012446032094636e-05 0 0)
(-6.964014702592231e-05 0 0)
(-0.00011852527882028 0 0)
(-0.0001664806898000885 0 0)
(-0.0002127370540805482 0 0)
(-0.0002571359574753132 0 0)
(-0.0002986028939292827 0 0)
(-0.0003362457247476979 0 0)
(-0.0003692115513980915 0 0)
(-0.0003969250608282245 0 0)
(-0.0004180781021470584 0 0)
(-0.0004329844920154485 0 0)
(-0.0004407210727852125 0 0)
(-0.0004402015212169483 0 0)
(-0.0004316315468796297 0 0)
(-0.0004147991823284875 0 0)
(-0.0003897635750614607 0 0)
(-0.0003568978611502822 0 0)
(-0.0003173333689534863 0 0)
(-0.0002732848171382458 0 0)
(-0.000227265699733531 0 0)
(-0.0001804765919626111 0 0)
(-0.0001348210617398218 0 0)
(-8.719346713657072e-05 0 0)
(-4.117141369789855e-05 0 0)
(4.480609970713553e-06 0 0)
(4.890240705294888e-05 0 0)
(9.188141103940997e-05 0 0)
(0.0001325204365158941 0 0)
(0.0001700550821251441 0 0)
(0.0002042564012147241 0 0)
(0.0002340485861084469 0 0)
(0.0002588809068453256 0 0)
(0.0002777644279708651 0 0)
(0.0002907053010324704 0 0)
(0.0002953064355411202 0 0)
(0.000293222923874749 0 0)
(0.0002832228467336013 0 0)
(0.0002654323829325958 0 0)
(0.000239439416053543 0 0)
(0.00020591084940433 0 0)
(0.000165521353974543 0 0)
(0.0001200374706072315 0 0)
(7.169948032969752e-05 0 0)
(2.287655194430741e-05 0 0)
(-2.71372152119338e-05 0 0)
(-7.566706096018358e-05 0 0)
(-0.0001248075660028832 0 0)
(-0.0001730528431385175 0 0)
(-0.0002209585174566327 0 0)
(-0.0002672303152705213 0 0)
(-0.0003118192700815688 0 0)
(-0.0003539685357657443 0 0)
(-0.0003927564456839076 0 0)
(-0.0004271706751077606 0 0)
(-0.000456590453536789 0 0)
(-0.0004804152600120078 0 0)
(-0.0004971267474917166 0 0)
(-0.0005082393433578467 0 0)
(-0.0005110766839403175 0 0)
(-0.0005058225830420092 0 0)
(-0.0004923839236088044 0 0)
(-0.0004707526249282548 0 0)
(-0.0004411508854522287 0 0)
(-0.000404414020659766 0 0)
(-0.0003627753209508727 0 0)
(-0.00031862750227204 0 0)
(-0.0002738166078315037 0 0)
(-0.0002291779321147441 0 0)
(-0.0001845665008691133 0 0)
(-0.0001395284437000923 0 0)
(-9.52582250268737e-05 0 0)
(-5.222936571811814e-05 0 0)
(-1.044662558546948e-05 0 0)
(2.946979948161111e-05 0 0)
(6.647992076691227e-05 0 0)
(0.0001002854290825991 0 0)
(0.0001303149530097006 0 0)
(0.0001558405533308796 0 0)
(0.0001756607116095074 0 0)
(0.0001904291573338551 0 0)
(0.0001967659625182362 0 0)
(0.000196771301219616 0 0)
(0.0001893346962347983 0 0)
(0.0001740781931830004 0 0)
(0.0001508032007481049 0 0)
(0.0001197228396796053 0 0)
(8.155234292694336e-05 0 0)
(3.78186162982713e-05 0 0)
(-9.305995113711876e-06 0 0)
(-5.758627505302844e-05 0 0)
(-0.0001059814194276918 0 0)
(-0.0001553768048219226 0 0)
(-0.0002028066255470523 0 0)
(-0.0002506388083696503 0 0)
(-0.0002980628040780249 0 0)
(-0.0003442732318150704 0 0)
(-0.000388763931790205 0 0)
(-0.0004312371565897873 0 0)
(-0.0004709728971269581 0 0)
(-0.0005066409072986056 0 0)
(-0.0005376593498463732 0 0)
(-0.0005635259268587753 0 0)
(-0.0005826620266905437 0 0)
(-0.0005963616562379192 0 0)
(-0.0006025108190532792 0 0)
(-0.0006003696441419046 0 0)
(-0.0005903069454033948 0 0)
(-0.000571746993326099 0 0)
(-0.0005451846193673667 0 0)
(-0.0005109318423659082 0 0)
(-0.0004710037247394988 0 0)
(-0.0004278842891948081 0 0)
(-0.0003839824168924757 0 0)
(-0.0003394698745496879 0 0)
(-0.0002965762544388452 0 0)
(-0.0002512075108170443 0 0)
(-0.0002077699351972931 0 0)
(-0.0001649250141857 0 0)
(-0.0001234550741585453 0 0)
(-8.344673072573638e-05 0 0)
(-4.600607857857046e-05 0 0)
(-1.170724476598636e-05 0 0)
(1.907298452640217e-05 0 0)
(4.5863529319681e-05 0 0)
(6.742550579450026e-05 0 0)
(8.358433881762492e-05 0 0)
(9.320468787332244e-05 0 0)
(9.503920687884814e-05 0 0)
(9.014162396525219e-05 0 0)
(7.743078725861698e-05 0 0)
(5.686227762090203e-05 0 0)
(2.815976400574895e-05 0 0)
(-7.990110380094238e-06 0 0)
(-5.019691059713335e-05 0 0)
(-9.647663157853451e-05 0 0)
(-0.0001445013274967241 0 0)
(-0.0001925107993207218 0 0)
(-0.0002419094360410358 0 0)
(-0.0002890547213637374 0 0)
(-0.0003371182848906103 0 0)
(-0.0003842575615489188 0 0)
(-0.0004307973634185034 0 0)
(-0.0004757432356170323 0 0)
(-0.0005186916928052148 0 0)
(-0.0005593978438881281 0 0)
(-0.0005966289805460735 0 0)
(-0.0006292969499229452 0 0)
(-0.0006569706105306072 0 0)
(-0.0006790585843564772 0 0)
(-0.0006940362489168584 0 0)
(-0.0007037079037120631 0 0)
(-0.0007047683340686866 0 0)
(-0.0006978215549910417 0 0)
(-0.0006823879876584805 0 0)
(-0.0006587324867664298 0 0)
(-0.0006271602847679477 0 0)
(-0.0005891641600760638 0 0)
(-0.0005472443175481092 0 0)
(-0.0005040342475344929 0 0)
(-0.0004603610801723055 0 0)
(-0.0004174104554438192 0 0)
(-0.0003737956832376979 0 0)
(-0.000330437357012833 0 0)
(-0.000287709270777424 0 0)
(-0.000246523301180232 0 0)
(-0.0002066282954825747 0 0)
(-0.0001687844870864119 0 0)
(-0.0001339352141080097 0 0)
(-0.0001026443626636895 0 0)
(-7.487183085655639e-05 0 0)
(-5.172351686981652e-05 0 0)
(-3.428515213411212e-05 0 0)
(-2.185213360924479e-05 0 0)
(-1.820759653958759e-05 0 0)
(-2.081491133074611e-05 0 0)
(-3.083461882158871e-05 0 0)
(-4.887829505957515e-05 0 0)
(-7.488712750683204e-05 0 0)
(-0.0001088795301513954 0 0)
(-0.0001493685037370727 0 0)
(-0.0001946069722444187 0 0)
(-0.0002420960230954969 0 0)
(-0.000290225510987549 0 0)
(-0.0003383968543377395 0 0)
(-0.0003872529247728897 0 0)
(-0.0004341398897599899 0 0)
(-0.0004813255757246186 0 0)
(-0.0005279960337052332 0 0)
(-0.000573379419000093 0 0)
(-0.0006168194659884081 0 0)
(-0.0006581919802957024 0 0)
(-0.0006967785559053362 0 0)
(-0.0007311817854425376 0 0)
(-0.0007604439518385322 0 0)
(-0.0007849320033512958 0 0)
(-0.0008020448257591343 0 0)
(-0.0008145015705332065 0 0)
(-0.0008187135096401815 0 0)
(-0.000814683869132709 0 0)
(-0.0008025074232380008 0 0)
(-0.0007817988252918933 0 0)
(-0.0007531046590604669 0 0)
(-0.0007173382490654532 0 0)
(-0.0006768286206942722 0 0)
(-0.0006343498085719593 0 0)
(-0.000591601194575116 0 0)
(-0.0005485239508467671 0 0)
(-0.0005069851378315303 0 0)
(-0.0004630173138176302 0 0)
(-0.0004210095464242055 0 0)
(-0.0003799775334622258 0 0)
(-0.0003402648425036375 0 0)
(-0.0003023294557838953 0 0)
(-0.0002668445948913204 0 0)
(-0.0002350222328316846 0 0)
(-0.0002065745385582479 0 0)
(-0.0001820018934565694 0 0)
(-0.0001630570472532951 0 0)
(-0.0001491571026188353 0 0)
(-0.000142395084181006 0 0)
(-0.0001432468596817574 0 0)
(-0.0001507963121141643 0 0)
(-0.0001663565175776743 0 0)
(-0.0001897300100234355 0 0)
(-0.0002212518214259832 0 0)
(-0.0002599294119482326 0 0)
(-0.000303773554514187 0 0)
(-0.0003507877418993665 0 0)
(-0.0003987503323038166 0 0)
(-0.0004464013325949322 0 0)
(-0.000495623743598276 0 0)
(-0.0005420133814771536 0 0)
(-0.0005895367600675057 0 0)
(-0.0006359779270652767 0 0)
(-0.0006817490644547671 0 0)
(-0.0007257782503771204 0 0)
(-0.0007676341574010156 0 0)
(-0.0008072493111528512 0 0)
(-0.000843293311402525 0 0)
(-0.0008743021612478704 0 0)
(-0.0009005912222806953 0 0)
(-0.0009207849664471714 0 0)
(-0.0009341843605921259 0 0)
(-0.0009420684531728235 0 0)
(-0.0009412249814999773 0 0)
(-0.0009321782867485578 0 0)
(-0.0009146677445736544 0 0)
(-0.0008887877737012003 0 0)
(-0.0008556888839782497 0 0)
(-0.0008166938697462964 0 0)
(-0.0007755329370644666 0 0)
(-0.0007332156749232431 0 0)
(-0.0006908705117844053 0 0)
(-0.0006493860166192789 0 0)
(-0.0006070881175239854 0 0)
(-0.0005651551321720159 0 0)
(-0.0005241412792481271 0 0)
(-0.0004846975772283041 0 0)
(-0.000446793128669136 0 0)
(-0.0004109251448467097 0 0)
(-0.0003783124611208935 0 0)
(-0.0003495034407034719 0 0)
(-0.0003238710451164268 0 0)
(-0.0003031331847579561 0 0)
(-0.0002883625806062944 0 0)
(-0.0002783576057226747 0 0)
(-0.0002777189107059767 0 0)
(-0.0002829903854273292 0 0)
(-0.0002958952523556546 0 0)
(-0.000316763006927713 0 0)
(-0.0003456042022458607 0 0)
(-0.0003822316805828562 0 0)
(-0.0004245660878442116 0 0)
(-0.0004708981057820887 0 0)
(-0.0005184656965307623 0 0)
(-0.0005662520385106163 0 0)
(-0.0006142532770823838 0 0)
(-0.0006625293147039387 0 0)
(-0.0007088542645539993 0 0)
(-0.0007553669382194445 0 0)
(-0.0008013781733322052 0 0)
(-0.0008458736108443456 0 0)
(-0.0008884130322580153 0 0)
(-0.0009284568436638836 0 0)
(-0.0009663766390455461 0 0)
(-0.0009986963882034797 0 0)
(-0.001026656713471765 0 0)
(-0.001049707601372905 0 0)
(-0.001064847767032125 0 0)
(-0.00107574439465152 0 0)
(-0.001078038340862101 0 0)
(-0.001071930578122754 0 0)
(-0.001057710528589087 0 0)
(-0.001034862459541329 0 0)
(-0.001004385552550482 0 0)
(-0.0009676680694664948 0 0)
(-0.000927132617974207 0 0)
(-0.0008861549548458146 0 0)
(-0.0008444281268830278 0 0)
(-0.0008026779130409394 0 0)
(-0.0007625929586690245 0 0)
(-0.0007199079288214194 0 0)
(-0.0006796059190316858 0 0)
(-0.0006402624634715864 0 0)
(-0.0006024985031521846 0 0)
(-0.0005665642621779994 0 0)
(-0.0005330827230514216 0 0)
(-0.0005040190176820189 0 0)
(-0.000477227850368081 0 0)
(-0.0004552690334188138 0 0)
(-0.0004391648789075276 0 0)
(-0.0004275827168857369 0 0)
(-0.00042380390238693 0 0)
(-0.0004274098706154254 0 0)
(-0.0004378640624018841 0 0)
(-0.0004562432607900338 0 0)
(-0.0004825629209885741 0 0)
(-0.0005166202974744166 0 0)
(-0.0005576897458873342 0 0)
(-0.0006022245035495525 0 0)
(-0.0006505139089737889 0 0)
(-0.0006977551699773448 0 0)
(-0.0007451557353307669 0 0)
(-0.000794027470989181 0 0)
(-0.0008398692557195622 0 0)
(-0.0008867829344199579 0 0)
(-0.0009325963363081893 0 0)
(-0.0009775537348828587 0 0)
(-0.001020760394374896 0 0)
(-0.001061387984291199 0 0)
(-0.001100261428391615 0 0)
(-0.001134489791055434 0 0)
(-0.001163952822526005 0 0)
(-0.001189033957159929 0 0)
(-0.001207394880549826 0 0)
(-0.001219042530238559 0 0)
(-0.001225167524632346 0 0)
(-0.001222274085590001 0 0)
(-0.001211171948555842 0 0)
(-0.001191594861472985 0 0)
(-0.00116380211128049 0 0)
(-0.00112959834485255 0 0)
(-0.001090137806848347 0 0)
(-0.001050424169778797 0 0)
(-0.001009265843404215 0 0)
(-0.0009680256550010424 0 0)
(-0.0009280157998026175 0 0)
(-0.0008870923497260804 0 0)
(-0.0008466546266472899 0 0)
(-0.0008073107544712335 0 0)
(-0.0007697604339146264 0 0)
(-0.0007338067368665457 0 0)
(-0.0007000155013838135 0 0)
(-0.0006696618330511654 0 0)
(-0.0006433153042289686 0 0)
(-0.0006193729368525033 0 0)
(-0.0006019860333499456 0 0)
(-0.0005894712469949588 0 0)
(-0.0005822611672832245 0 0)
(-0.0005845374258312843 0 0)
(-0.0005926692173106642 0 0)
(-0.0006083743424458158 0 0)
(-0.0006321995655772608 0 0)
(-0.0006637256601809313 0 0)
(-0.0007027524577074968 0 0)
(-0.0007463304282275664 0 0)
(-0.0007936346350010692 0 0)
(-0.0008413388175274009 0 0)
(-0.0008885649968163743 0 0)
(-0.0009362103879623896 0 0)
(-0.0009841883382010628 0 0)
(-0.001029698940665106 0 0)
(-0.001075754468461976 0 0)
(-0.001121015248093846 0 0)
(-0.001164726612375467 0 0)
(-0.00120626491668392 0 0)
(-0.001245102199763026 0 0)
(-0.001282212646586917 0 0)
(-0.00131228338508631 0 0)
(-0.001339540608748274 0 0)
(-0.001360540180989678 0 0)
(-0.001374005935584103 0 0)
(-0.001383059924110027 0 0)
(-0.001383387579562338 0 0)
(-0.00137526178717043 0 0)
(-0.001358947850950248 0 0)
(-0.001334258434905302 0 0)
(-0.001302280762729604 0 0)
(-0.001265082757508015 0 0)
(-0.001225305154999469 0 0)
(-0.001185684307346263 0 0)
(-0.001145040837803558 0 0)
(-0.001104661317577226 0 0)
(-0.001066097911877664 0 0)
(-0.001024630914643799 0 0)
(-0.0009861513164840475 0 0)
(-0.0009485563378054631 0 0)
(-0.0009127086004390257 0 0)
(-0.0008788894575426305 0 0)
(-0.0008473812837555006 0 0)
(-0.0008211015629558462 0 0)
(-0.0007958973351175666 0 0)
(-0.0007769255923881836 0 0)
(-0.0007633116365342134 0 0)
(-0.0007545968833676894 0 0)
(-0.0007534249190688839 0 0)
(-0.0007600436089361661 0 0)
(-0.0007732939039375889 0 0)
(-0.0007946052603714989 0 0)
(-0.0008237138357886065 0 0)
(-0.000860236846231125 0 0)
(-0.0009029939265601766 0 0)
(-0.0009484759456700307 0 0)
(-0.000996672775828551 0 0)
(-0.001044156948477047 0 0)
(-0.001091041936637218 0 0)
(-0.001139612039155864 0 0)
(-0.001184903165691332 0 0)
(-0.001231300478127074 0 0)
(-0.001276374314775074 0 0)
(-0.001320665354758346 0 0)
(-0.00136295790138847 0 0)
(-0.001402407186508923 0 0)
(-0.001440486495353745 0 0)
(-0.001472725266207004 0 0)
(-0.001500778594311385 0 0)
(-0.00152505419972751 0 0)
(-0.001541305836794682 0 0)
(-0.00155105185772591 0 0)
(-0.001555396262951002 0 0)
(-0.00155045089097809 0 0)
(-0.001537280444055338 0 0)
(-0.001515831337002556 0 0)
(-0.00148646998391565 0 0)
(-0.001451462805744874 0 0)
(-0.001412468445231884 0 0)
(-0.00137353961192659 0 0)
(-0.0013342818164336 0 0)
(-0.001293905846396287 0 0)
(-0.001255400736641986 0 0)
(-0.001216020755049295 0 0)
(-0.001176997227422446 0 0)
(-0.00113947333555819 0 0)
(-0.001103844319988509 0 0)
(-0.001069968541815256 0 0)
(-0.001038148424929273 0 0)
(-0.001010441150090232 0 0)
(-0.0009857796499345747 0 0)
(-0.0009645750644051136 0 0)
(-0.0009503129144680814 0 0)
(-0.0009400585563749427 0 0)
(-0.0009356513278905146 0 0)
(-0.000940873181630707 0 0)
(-0.0009518480777662625 0 0)
(-0.0009703909099612124 0 0)
(-0.0009970422447095719 0 0)
(-0.001031238857158621 0 0)
(-0.001072088841899402 0 0)
(-0.001116949942148066 0 0)
(-0.00116429715756986 0 0)
(-0.001212325160237703 0 0)
(-0.001258978073285722 0 0)
(-0.001306527515730386 0 0)
(-0.001354174357207227 0 0)
(-0.001398914986852519 0 0)
(-0.001444521616697499 0 0)
(-0.001489129944223345 0 0)
(-0.001532028160209283 0 0)
(-0.00157259324679782 0 0)
(-0.001610315558512001 0 0)
(-0.00164608658040899 0 0)
(-0.001674969978273643 0 0)
(-0.001700450042053917 0 0)
(-0.001720134771434647 0 0)
(-0.001731887094572862 0 0)
(-0.001738654764454137 0 0)
(-0.001737303486657473 0 0)
(-0.001727058611523445 0 0)
(-0.001708916306479756 0 0)
(-0.00168261101288126 0 0)
(-0.00164960123789853 0 0)
(-0.001612456585295194 0 0)
(-0.001573667826536801 0 0)
(-0.001535044436651616 0 0)
(-0.001496151700881054 0 0)
(-0.001456763396624937 0 0)
(-0.001419930585061107 0 0)
(-0.001379623225409152 0 0)
(-0.001343086182887378 0 0)
(-0.001307237868801787 0 0)
(-0.001273492590244182 0 0)
(-0.001241730126181254 0 0)
(-0.001212445150157482 0 0)
(-0.001188393920507506 0 0)
(-0.001165927258761501 0 0)
(-0.001148915370139463 0 0)
(-0.001139232831533615 0 0)
(-0.00113260739891979 0 0)
(-0.001133877100311825 0 0)
(-0.001143658122030914 0 0)
(-0.00115971576508429 0 0)
(-0.001183827786274347 0 0)
(-0.001215665874227444 0 0)
(-0.001254383347137892 0 0)
(-0.001298358198833076 0 0)
(-0.00134468580161696 0 0)
(-0.001392328613075148 0 0)
(-0.001440404983764788 0 0)
(-0.001486410632927978 0 0)
(-0.001534935041049547 0 0)
(-0.001580069251399683 0 0)
(-0.0016255822820379 0 0)
(-0.001670135054727959 0 0)
(-0.001713743756624902 0 0)
(-0.001755149614480766 0 0)
(-0.001793459003835254 0 0)
(-0.001830369339613241 0 0)
(-0.001861111995021153 0 0)
(-0.001887799064735424 0 0)
(-0.001910632669422608 0 0)
(-0.001925219750184109 0 0)
(-0.001932661511778386 0 0)
(-0.001935480984989155 0 0)
(-0.001928600484408682 0 0)
(-0.001913429353193494 0 0)
(-0.001890329282514272 0 0)
(-0.001859925754551356 0 0)
(-0.001824359822818703 0 0)
(-0.00178657931785919 0 0)
(-0.001748041884287933 0 0)
(-0.001710497401582827 0 0)
(-0.001671374562860709 0 0)
(-0.001633930564634822 0 0)
(-0.001596986496364441 0 0)
(-0.001558592695572581 0 0)
(-0.001523216013510753 0 0)
(-0.00148958481066413 0 0)
(-0.001457792306814359 0 0)
(-0.001428173443007017 0 0)
(-0.001402544024094255 0 0)
(-0.001380338814086152 0 0)
(-0.001362000231206469 0 0)
(-0.001349601455285856 0 0)
(-0.001343348509597296 0 0)
(-0.001341056355623172 0 0)
(-0.001348904115205117 0 0)
(-0.00136304483757377 0 0)
(-0.001384186735393483 0 0)
(-0.001413615510711775 0 0)
(-0.001450261778116446 0 0)
(-0.001492492650326184 0 0)
(-0.001538568501700974 0 0)
(-0.00158542314121154 0 0)
(-0.001633206143139224 0 0)
(-0.001680811785715314 0 0)
(-0.001726967348870423 0 0)
(-0.001775842432906021 0 0)
(-0.001818537527585142 0 0)
(-0.001864262550829137 0 0)
(-0.001908001903908541 0 0)
(-0.001950227227682284 0 0)
(-0.001989836944487147 0 0)
(-0.002026208081564843 0 0)
(-0.002060585827560056 0 0)
(-0.002088630376648213 0 0)
(-0.002111598830042083 0 0)
(-0.002131289618069548 0 0)
(-0.002140492804785173 0 0)
(-0.002144185273269246 0 0)
(-0.002141732714785607 0 0)
(-0.002129726545502126 0 0)
(-0.002109789865737192 0 0)
(-0.002082381018881952 0 0)
(-0.002048755453157467 0 0)
(-0.002012238903917832 0 0)
(-0.001974167546975813 0 0)
(-0.001936501959741467 0 0)
(-0.00189982131868468 0 0)
(-0.001860643055460155 0 0)
(-0.001825556106718906 0 0)
(-0.001787595137232291 0 0)
(-0.00175217096306955 0 0)
(-0.001718389417843686 0 0)
(-0.001686844721341634 0 0)
(-0.001657276574670932 0 0)
(-0.001630154709035512 0 0)
(-0.001608066615901822 0 0)
(-0.001588356089137353 0 0)
(-0.001574051190936744 0 0)
(-0.001566684972078223 0 0)
(-0.001563694872632262 0 0)
(-0.001566503773113984 0 0)
(-0.001579916229130215 0 0)
(-0.00159909185938451 0 0)
(-0.001625564464258623 0 0)
(-0.001660000374457996 0 0)
(-0.001700712542365656 0 0)
(-0.0017452724773107 0 0)
(-0.001792676658301559 0 0)
(-0.001839432506534193 0 0)
(-0.001887343793709677 0 0)
(-0.001934500490126443 0 0)
(-0.001980737818442393 0 0)
(-0.002028904719040439 0 0)
(-0.00207091151348352 0 0)
(-0.002115826115260327 0 0)
(-0.002158663175495433 0 0)
(-0.00219914305361915 0 0)
(-0.002236734813174891 0 0)
(-0.002271163490950931 0 0)
(-0.00230189649758987 0 0)
(-0.002327306291270239 0 0)
(-0.002346702422172437 0 0)
(-0.002362535357754137 0 0)
(-0.002366577963194992 0 0)
(-0.002366699298103642 0 0)
(-0.002358759849381218 0 0)
(-0.002341511986991676 0 0)
(-0.002317161095120385 0 0)
(-0.002286227020714487 0 0)
(-0.00225058614429569 0 0)
(-0.002214294031970388 0 0)
(-0.002176203632075447 0 0)
(-0.002139229922988115 0 0)
(-0.002103470546598334 0 0)
(-0.002064928715812491 0 0)
(-0.002032301841691059 0 0)
(-0.001992281287238184 0 0)
(-0.001960945735107709 0 0)
(-0.001928848290550187 0 0)
(-0.001899410909821028 0 0)
(-0.001872577779880976 0 0)
(-0.001848049987124199 0 0)
(-0.001829108472250693 0 0)
(-0.001813370028612551 0 0)
(-0.001802734968095107 0 0)
(-0.001800475769681926 0 0)
(-0.001800978283646426 0 0)
(-0.001809157413817005 0 0)
(-0.001827685698919888 0 0)
(-0.001852187126137338 0 0)
(-0.001883842205048669 0 0)
(-0.001922722859086833 0 0)
(-0.001966311120711836 0 0)
(-0.002012383342976968 0 0)
(-0.00206026948909105 0 0)
(-0.002106814123040504 0 0)
(-0.002154372109653204 0 0)
(-0.002202049153003459 0 0)
(-0.002247105250570427 0 0)
(-0.002295224529612032 0 0)
(-0.002335559622187038 0 0)
(-0.00238083880765987 0 0)
(-0.0024217257446911 0 0)
(-0.002460712475838715 0 0)
(-0.002495307511997588 0 0)
(-0.002527698132412029 0 0)
(-0.00255485195559822 0 0)
(-0.002577348032101926 0 0)
(-0.00259284374537638 0 0)
(-0.002604271487741043 0 0)
(-0.002603279803077148 0 0)
(-0.002599771292910462 0 0)
(-0.002586342982408867 0 0)
(-0.002564068536198096 0 0)
(-0.002535991431824423 0 0)
(-0.002502335575243965 0 0)
(-0.002466263237411069 0 0)
(-0.002430344359904034 0 0)
(-0.002393110788199502 0 0)
(-0.002356227873772714 0 0)
(-0.002321552667102244 0 0)
(-0.002284037382396231 0 0)
(-0.00225290073425764 0 0)
(-0.002210915484217816 0 0)
(-0.002185829400966113 0 0)
(-0.002154955462611756 0 0)
(-0.00212859460187129 0 0)
(-0.002102121125395134 0 0)
(-0.002083213962084792 0 0)
(-0.002065505213738388 0 0)
(-0.002054779112948374 0 0)
(-0.002047725564445474 0 0)
(-0.002050685213173617 0 0)
(-0.00205283489681481 0 0)
(-0.002070092650347432 0 0)
(-0.002089935271367878 0 0)
)
;

boundaryField
{
    inlet
    {
        type            calculated;
        value           uniform (-0.0001703684416325623 0 0);
    }
    outlet
    {
        type            calculated;
        value           uniform (-0.002105121896783452 0 0);
    }
    frontAndBack
    {
        type            empty;
    }
}


// ************************************************************************* //
