/*--------------------------------*- C++ -*----------------------------------*\
| =========                 |                                                 |
| \\      /  F ield         | OpenFOAM: The Open Source CFD Toolbox           |
|  \\    /   O peration     | Version:  v2012                                 |
|   \\  /    A nd           | Website:  www.openfoam.com                      |
|    \\/     M anipulation  |                                                 |
\*---------------------------------------------------------------------------*/
FoamFile
{
    version     2.0;
    format      ascii;
    class       volScalarField;
    location    "0.019";
    object      p;
}
// * * * * * * * * * * * * * * * * * * * * * * * * * * * * * * * * * * * * * //

dimensions      [1 -1 -2 0 0 0 0];


internalField   nonuniform List<scalar> 
1000
(
101303.2864724968
101304.5714879613
101297.458461782
101285.4027590703
101281.6889251982
101272.6574728979
101265.6279371617
101261.123771388
101257.8629666374
101253.8065179647
101252.1872548224
101250.950247422
101251.8847337806
101253.5750475364
101256.3359947945
101262.0240341741
101266.1015885933
101273.2781504497
101282.7185398531
101289.8430553941
101299.4210438552
101310.01537792
101319.8994720999
101330.1322072263
101340.3767626978
101350.5160768865
101359.667690434
101367.7275378953
101375.9996292746
101382.3245719798
101386.7923287105
101389.064765584
101391.9606043836
101392.0447029445
101391.8078369255
101390.4956107476
101387.2759953619
101384.3628372704
101378.9076547338
101372.0707275944
101365.9126984493
101357.0659485298
101348.1510183377
101340.4751565745
101330.1312635032
101320.9347846548
101312.9681677714
101303.1409880947
101294.3255633352
101286.3486741631
101277.906546839
101269.8386283791
101263.7207235043
101257.3590917763
101253.6222563196
101250.3926303569
101248.7294353546
101247.6445623183
101247.655794322
101248.6550917807
101251.2556573355
101253.8811636902
101258.6917905855
101265.1391604934
101271.4545858508
101280.5140364954
101289.4190017363
101298.8374219821
101309.6281737581
101320.1065237305
101330.2468718026
101340.5727934975
101350.1602207141
101358.6771082218
101367.0804514199
101374.6212887217
101379.5028160974
101382.7820235056
101385.8526855828
101386.9075568105
101386.7373859934
101385.576637805
101383.1902937301
101380.8780581842
101375.8420469121
101370.1969743753
101364.978281414
101356.3985622643
101348.5557708053
101339.5548123764
101329.8334571493
101320.4101148957
101310.7466870259
101301.5514564581
101292.0429762601
101283.5695319498
101275.1656083214
101267.4155818482
101260.714488826
101253.7277043334
101249.2559953362
101246.772194876
101243.6245931853
101242.4510125035
101243.0335033705
101242.9854522592
101245.0608317512
101247.9842153732
101251.169036583
101257.0967458974
101262.9879854832
101269.9090280482
101279.1266065285
101287.8028949598
101297.4235059894
101308.2631940248
101318.9301267518
101328.960291167
101338.7671097094
101348.6514225638
101356.768182846
101365.4069814546
101370.4878461024
101375.3462805693
101378.2060213542
101379.836118766
101380.69834948
101379.59526471
101377.6439428899
101375.723546695
101372.0547275348
101366.2957463802
101361.4818506935
101354.565299419
101346.0758105693
101338.5452268679
101329.3789599902
101319.3753783007
101310.251421614
101300.5273164465
101291.0696403431
101281.9488040543
101273.0236001968
101265.7394242611
101258.3104286988
101251.4021229251
101247.2036356722
101243.8934042298
101240.8615267995
101239.7266663589
101238.9046315733
101239.5877200381
101240.5768316353
101243.066214874
101245.8336516048
101250.3901089809
101256.5221732807
101262.6278125951
101270.6795654942
101279.1771516986
101288.11167475
101298.5383854303
101308.8092287412
101319.2158388941
101329.5619215031
101339.4439399376
101349.0988998346
101356.9870452631
101364.8170337797
101368.8859301062
101372.957949577
101374.8858478064
101376.035715668
101375.5073617253
101374.1758628522
101372.2361148363
101368.8354512424
101364.158321088
101359.370950325
101352.8314280973
101345.0394702462
101337.2245954971
101328.2394805106
101318.9067994027
101309.0319523791
101299.4584816297
101290.021957585
101280.0082627909
101271.2057038174
101262.524757308
101254.5944327763
101246.9743668874
101242.49940037
101238.4241983983
101235.5137746712
101234.1482944919
101232.8027455622
101232.9453375557
101234.2677145025
101235.9351674903
101237.950217391
101242.6423961547
101247.7372861859
101252.7786110244
101260.7910688297
101268.3969429493
101276.6865930444
101286.9138833774
101296.4273468875
101306.4328792066
101316.8471506196
101326.7463136967
101335.6596934516
101344.7835969892
101353.3225833718
101358.3851268012
101362.7279249208
101365.5374758382
101367.2040311498
101367.374563238
101366.539465751
101364.4478779441
101362.2287382474
101358.7255013022
101353.0126908394
101348.2571732587
101341.5155509614
101333.2851113889
101325.8358524322
101316.6093441839
101306.7002394296
101298.0052499849
101287.8484494845
101277.99754505
101269.2978731417
101260.0877449438
101251.2947273938
101244.702332002
101237.8008893366
101234.2698428399
101231.0734136766
101229.6424435446
101228.335482209
101228.2238871047
101229.1000079867
101231.1156484197
101232.975101251
101236.3531682399
101241.5600630353
101246.2181165328
101253.2238938668
101260.8091208227
101268.6321026901
101278.0533641447
101287.191073296
101297.4563184231
101307.7398937811
101317.081304904
101326.9205686042
101336.7312047209
101343.669009188
101352.0802455162
101355.8359953571
101359.5463372586
101361.2306788913
101362.0890817448
101361.7298625611
101359.8416291298
101358.3944116676
101354.7338350847
101349.4238224276
101345.6973157174
101338.8954021862
101331.3657512718
101324.1659307268
101315.119751784
101306.6290638053
101297.1402502869
101287.0608484187
101278.5576985982
101268.7185142944
101258.895287111
101252.197032417
101243.1901749711
101235.8224696167
101231.5125369055
101228.9016460929
101226.3701361735
101225.3457588335
101224.9569457753
101225.1398831364
101227.3040853931
101229.1788007173
101231.1155261379
101236.465453244
101241.0432102629
101246.3883298081
101254.4426623736
101261.4559071584
101269.7304235704
101279.7202974291
101289.2347686279
101298.7470560466
101308.770872204
101319.4990001348
101327.1160013688
101336.9753713295
101345.0106709889
101350.5637594066
101354.3900978047
101357.2182450845
101358.4094675462
101358.5121236073
101357.3829512542
101355.4019413871
101352.4063684451
101348.1608995631
101343.7650017925
101337.7712168586
101330.488197009
101323.0411352164
101315.0422700499
101305.8819106609
101296.4067628045
101287.4867701351
101277.8193734858
101267.8280445547
101259.1718762628
101250.3452591511
101241.452498775
101234.3765369829
101227.9934619208
101224.6969052098
101222.0721033851
101220.542280246
101219.9777588037
101220.4064160395
101221.979748082
101223.0443050522
101225.7015621873
101230.1605767318
101233.9015712858
101239.4211313553
101247.1682986273
101253.5137598302
101261.3042909903
101271.2655510948
101279.7468817384
101289.2685026662
101299.3315954152
101308.5997859329
101318.3778579958
101326.8701599707
101335.0872855122
101342.4426338258
101347.0943820195
101349.5173984694
101351.8797295477
101352.2418180186
101351.9431186449
101350.2926417327
101347.6290690263
101344.3944187288
101339.9849664794
101334.5356158825
101328.4690518838
101321.3981656331
101313.7079767093
101305.4078279433
101296.5659951445
101287.8230957972
101278.2617762621
101269.229147625
101259.7876861344
101251.0217582921
101242.7362235003
101235.1807484736
101227.3574775409
101223.4231858155
101220.5953220876
101218.6261029686
101217.9942310245
101217.9874527678
101218.4944500059
101220.9672065342
101223.1514083703
101226.0804917109
101231.7461969197
101236.3121391821
101242.1498055826
101249.9492217889
101257.1401032434
101265.3733220793
101274.6385895388
101283.9940666518
101293.0188995973
101302.5322267625
101311.8891729112
101320.2778458718
101328.6289097585
101336.2359575657
101342.2843932799
101344.7079350842
101348.1781416286
101348.9917474018
101348.6287025364
101347.9720196933
101345.6718610806
101343.8227626266
101339.7198596742
101334.3527344445
101329.769022083
101322.4410250308
101315.084283238
101308.0293368329
101299.3331340125
101290.1406184518
101281.6869446598
101272.511682213
101263.511591862
101254.7526872002
101246.5244794652
101238.8932051518
101231.2054014375
101225.7982584331
101222.776117341
101221.2389673592
101219.5361163692
101219.6202218364
101220.4601728802
101222.0966299519
101223.8214867421
101227.0355724892
101231.4879591286
101235.6672036761
101242.2286006972
101248.9266819369
101255.166422066
101263.9474851915
101272.6753763877
101280.8285518632
101290.3998718552
101300.157085256
101309.1931772044
101318.6014898447
101327.1383677243
101334.85299867
101342.2582379904
101346.5831603978
101349.3983460202
101351.5218327068
101351.98366267
101351.2009496347
101349.5681117344
101347.8893647101
101344.2813513177
101340.2121806326
101335.8841073477
101328.8392296708
101322.1853614682
101315.0404520603
101306.2277097413
101297.5988893632
101289.1350846472
101279.3390194985
101270.3088890344
101261.682827221
101251.9302703296
101245.0404106823
101237.0270666858
101230.0072339317
101226.4666308753
101224.0028543699
101222.2069756037
101221.9106595137
101222.3892941875
101223.3204892173
101225.5091133675
101227.8934754799
101231.3141911507
101236.1275379612
101241.0453251035
101247.2702731601
101254.0920668701
101261.4017456635
101269.7395856794
101278.7635729734
101287.7683619036
101296.7061198219
101306.0194323657
101315.9107099346
101323.4997478467
101332.4599663915
101340.3559716228
101345.8204994372
101349.256155695
101351.8681681868
101353.2390488606
101352.5605135272
101351.1172556773
101349.5672397232
101346.9157840909
101342.1640639966
101337.755701826
101331.734879962
101323.9773048288
101317.4053457668
101309.1273800453
101299.9787382488
101291.2715963487
101282.0016564536
101272.3223030742
101263.4266917603
101254.9505671123
101246.3484937475
101238.2701458476
101231.8421373238
101225.9991091873
101222.4709198843
101221.2684248484
101219.4804169333
101219.7521537015
101220.8076395081
101222.563545649
101224.2548902921
101228.2585100744
101232.1776576784
101236.9690349283
101243.3204786471
101250.1123676942
101256.9302394723
101265.0246958613
101274.0947606226
101282.3127659848
101291.0879650742
101300.7711475555
101309.5445403862
101318.1062825358
101326.6867470214
101333.9153560519
101340.9598068588
101345.021268836
101347.486913947
101349.4742550172
101349.7739304674
101348.9141154403
101347.4246127323
101344.9233512046
101341.1519941208
101337.3017607837
101331.7033046715
101325.2845060471
101318.8615276309
101310.8820232273
101302.6724597334
101293.9762896639
101284.9459936016
101275.969016457
101266.712579682
101258.1357325146
101249.4854705881
101240.9882174687
101234.9277641078
101227.3317114121
101224.7721770357
101221.6843453551
101220.2403351499
101220.1527943227
101221.1279805963
101222.2114448596
101224.6806145786
101227.1951214154
101230.7654138442
101236.3345937529
101241.1914539437
101247.6293356837
101254.7844180316
101262.1070126262
101270.4918648163
101279.1325565594
101288.261195599
101297.1103342803
101306.4959552384
101315.0970522614
101323.415688978
101331.4598217894
101339.2877443134
101343.8649387519
101348.3058678644
101350.6220926159
101351.475217462
101351.0725173089
101349.9447132179
101348.0813455442
101344.9271761422
101340.9266337007
101336.6572227613
101329.8193381186
101323.4923073001
101316.3954309195
101307.6061702966
101299.8757439286
101290.6381606258
101281.2042574484
101272.6052958996
101262.8511753812
101254.4789559343
101246.3133278594
101238.3369718634
101231.1677482967
101226.8881599229
101223.5915023293
101221.377217611
101221.0941563711
101221.3970389078
101222.5143073627
101224.9852430761
101227.3870031542
101230.6072759324
101235.8383161769
101240.2470290211
101246.1560667766
101253.4350357825
101259.722905029
101267.9067201797
101276.6525561112
101284.9503973296
101294.0411756518
101303.4634532277
101312.4905949691
101321.5497868978
101329.6285218681
101337.9219045414
101344.8979537839
101349.5326107838
101353.193198808
101355.1983920094
101355.6988226396
101355.1656495216
101353.7784993066
101351.629127531
101347.8283442511
101342.8961775202
101338.186863682
101331.5079360848
101323.7742378052
101317.1489206802
101308.604120333
101299.3516862604
101291.3006914517
101282.0229659728
101273.1325549271
101264.8518217493
101255.6409531275
101248.7358903564
101241.1899141763
101234.4406764987
101230.6946671718
101227.231423717
101225.9604506073
101224.6889098186
101224.7517001256
101226.0471857828
101227.8992444917
101230.0527073816
101232.9606914432
101237.3193162554
101241.5003105665
101246.5086820085
101253.1581915265
101259.2174734994
101265.8174698052
101273.8062213161
101281.0868401971
101288.6379250099
101296.7016778636
101304.7445217432
101311.288350835
101318.7098095642
101325.2617303362
101330.5045809779
101334.3911836255
101337.4072065337
101339.6123322753
101340.3623771154
101340.1522436286
101339.170410998
101337.2597508926
101334.2150260399
101330.4171968503
101326.0307274122
101320.9787773174
101314.6387665145
101308.3066039382
101301.8815956234
101293.6911620488
101286.4464932452
101278.7665755932
101270.8121721623
101263.5622077022
101255.9306358705
101248.7063402811
101242.598609102
101236.0131408094
101232.9160320556
101229.392434238
101227.9605249027
101226.5647624998
101227.1307378903
101228.1798732809
101230.0614128638
101232.8726657419
101235.8166525695
101240.2554409392
101244.9200645912
101249.797254676
101256.4375176151
101262.3074454547
101268.9656608499
101276.5678259627
101283.9306725355
101291.673839141
101299.3884321232
101306.9477366356
101314.9199267461
101321.3325854181
101328.3431946222
101333.3210112597
101336.8409759938
101340.220855423
101342.0472969575
101341.9700471549
101341.9153208268
101340.3018953947
101337.7292383081
101335.0824115116
101330.468014599
101324.8233909954
101319.8866450352
101312.7330646974
101305.2440596117
101298.6748262063
101290.0599634816
101282.2414726309
101274.8029590288
101266.7455293431
101259.5759879431
101252.4823418663
101245.6008557064
101239.3460185461
101235.3304816038
101231.894469058
101229.0431969707
101228.2929706385
101227.8814765646
101228.7541812638
101230.219022283
101233.4913988472
101235.6794536993
101240.023765649
101245.3040725209
101249.3487598059
101255.9213987222
101261.6704324407
101267.9074272257
101275.395314615
101281.7332808243
101289.3362034692
101297.1029050576
101304.3646918233
101311.9302020361
101319.2330256493
101326.2201602468
101331.3781354859
101336.1937109364
101340.0051338578
101341.9229086637
101342.9952341563
101343.1373899412
101341.9367993715
101339.4500124611
101336.9052211832
101332.6056173229
101326.837970732
101321.9891872328
101315.0893527214
101307.1129226449
101300.5869809719
101292.0793198679
101283.441104972
101275.4878941888
101267.3028419269
101259.5953280785
101251.9888974146
101245.165473814
101239.1280481853
101233.4019292623
101230.1930677585
101227.4930481607
101225.5931611314
101224.6917724826
101224.9039186479
101225.9476900135
101228.1366193813
101230.7802242521
101234.2208458143
101238.888676359
101243.5926090493
101249.3727721441
101255.7771789435
101262.0569408902
101269.0771138941
101275.8073961706
101283.233590559
101290.7197705149
101297.8218228284
101305.2638025641
101312.8018225569
101318.6599052952
101325.3708738049
101329.9225918687
101333.7117919555
101336.0907047451
101338.097676106
101338.6516603999
101337.7101138376
101336.392206713
101333.4652075786
101330.1784655337
101325.8013956063
101320.3066415144
101314.754567829
101307.7330514616
101300.5090248094
101293.5453914435
101285.2408793823
101277.3458873484
101269.6571587618
101261.5871561305
101254.5346696915
101247.4650229765
101241.2893272446
101234.9782255302
101231.5923452246
101228.9246508201
101227.1138944234
101225.8683240585
101225.6455413297
101226.0862948706
101227.8698178755
101229.9513336395
101232.5037951005
101236.864576577
101241.6989705721
101246.852806407
101253.8609012799
101259.9294290031
101266.7610926551
101274.5933331266
101280.9970257632
101288.1043319951
101295.6158872665
101302.1831445706
101309.0735151313
101315.9194471502
101322.6243548829
101327.677790938
101332.5762914833
101335.9265652163
101338.2074431249
101339.8517235617
101340.0555339167
101339.0644947548
101337.0893804412
101333.9903074709
101329.6820833485
101324.9688725516
101319.0098730393
101311.7674472122
101305.2544190443
101297.6472022995
101289.3076942142
101281.7140348635
101273.2636588842
101265.4784672446
101257.8873099805
101250.5194674389
101243.7632998678
101237.8108602063
101232.7313115709
101230.2812823705
101227.2517215149
101226.4910824162
101225.5128560738
101226.230044766
101227.5423936509
101229.3557152256
101232.4269500526
101235.11161744
101239.2090031234
101244.6513444087
101249.6596817614
101256.5676860969
101264.0070265017
101270.673983267
101278.6640688498
101286.2567920728
101293.3567670753
101300.3622765127
101306.794789038
101313.5206334734
101318.8150977632
101325.0195275642
101328.8171081488
101333.6034193708
101336.0424140104
101338.942444986
101340.4834273934
101340.2646918806
101339.0524019133
101336.6594847992
101332.4976037385
101327.883227896
101322.0039902976
101314.8980122108
101307.5109314629
101299.8877954351
101291.2663857195
101282.5065288731
101274.1982905407
101265.4116566877
101257.5019801242
101249.6109938955
101242.1343574626
101235.8630347808
101229.6755042235
101226.0159515989
101223.6273970623
101221.0984625645
101219.8818503093
101220.4090615379
101221.2522623769
101222.9160518078
101225.6383092703
101228.5978401826
101232.0586462413
101237.1524224373
101242.1918498063
101247.8067202814
101254.8556264793
101261.5339010511
101268.4989214983
101276.3638921877
101284.2308101522
101291.6350879758
101299.0651987415
101306.3207947942
101312.1270424688
101317.6903344501
101321.7737883934
101324.0322890768
101326.8979208784
101329.0381197186
101330.5900939149
101331.6337383403
101331.5372626541
101329.438295472
101327.1909422271
101322.5168866591
101316.3046456193
101310.6313975383
101303.360029598
101295.6273928919
101288.4215266719
101280.3737325751
101271.8797663657
101264.0548727562
101256.0608435694
101247.7832556044
101241.3569937712
101234.0797239587
101227.882261525
101223.3258490864
101220.9946062905
101218.5096871344
101216.7729361531
101216.465713759
101217.4272069533
101218.898655802
101220.6316768475
101224.0149518612
101226.9022048085
101231.1300780315
101236.86037618
101241.4701206107
101247.4631515643
101255.950317137
101260.8767862316
101268.8751718269
101279.951595134
)
;

boundaryField
{
    inlet
    {
        type            uniformFixedValue;
        uniformValue    sine;
        uniformValueCoeffs
        {
            frequency       constant 3000;
            scale           constant 50;
            level           constant 101325;
        }
        value           uniform 101312.8819131453;
    }
    outlet
    {
        type            waveTransmissive;
        gamma           1.4;
        fieldInf        101325;
        lInf            2.25;
        value           uniform 101281.866062723;
    }
    frontAndBack
    {
        type            empty;
    }
}


// ************************************************************************* //
