/*--------------------------------*- C++ -*----------------------------------*\
| =========                 |                                                 |
| \\      /  F ield         | OpenFOAM: The Open Source CFD Toolbox           |
|  \\    /   O peration     | Version:  v2012                                 |
|   \\  /    A nd           | Website:  www.openfoam.com                      |
|    \\/     M anipulation  |                                                 |
\*---------------------------------------------------------------------------*/
FoamFile
{
    version     2.0;
    format      ascii;
    class       volScalarField;
    location    "0.019";
    object      pMean;
}
// * * * * * * * * * * * * * * * * * * * * * * * * * * * * * * * * * * * * * //

dimensions      [1 -1 -2 0 0 0 0];


internalField   nonuniform List<scalar> 
1000
(
101325.0731910648
101325.04708744
101325.0118894233
101324.9882016634
101325.0290312925
101325.0184298476
101325.0093102081
101325.0532115446
101325.041450382
101325.0568117062
101325.0714018237
101325.0785434936
101325.0853177924
101325.111734694
101325.0985057246
101325.0954921016
101325.1298506433
101325.1230786907
101325.0956684633
101325.1146839405
101325.1148721768
101325.0946651485
101325.0753926071
101325.0752199111
101325.0640439921
101325.0352491544
101325.0041116563
101324.9970493732
101324.9754230535
101324.9333959703
101324.9170243153
101324.8953749647
101324.8605317067
101324.8265869612
101324.8171728646
101324.782099779
101324.7490585527
101324.730864871
101324.706983506
101324.6852581021
101324.662189317
101324.6423598235
101324.6328716841
101324.6235401137
101324.5937937124
101324.6023284965
101324.6082909409
101324.5802430003
101324.5865471879
101324.6098696172
101324.5932456204
101324.5944466022
101324.6299638744
101324.620060254
101324.6285158678
101324.6529928503
101324.6638347169
101324.6622226648
101324.6833931398
101324.6897505051
101324.6958096539
101324.6997109727
101324.7057942561
101324.7067078031
101324.7160859677
101324.7022551173
101324.6983187308
101324.7038722336
101324.6856179504
101324.6730267687
101324.6614575514
101324.6453848031
101324.6228648746
101324.6002333599
101324.5813825422
101324.5545072494
101324.5275128326
101324.5057457466
101324.4793040075
101324.4496867099
101324.4241229016
101324.4030914604
101324.3722577816
101324.352520096
101324.3231019185
101324.3059981736
101324.2854612201
101324.2602701739
101324.2486123777
101324.2338848486
101324.2211786835
101324.2114857057
101324.2051067345
101324.2052351483
101324.2010604755
101324.2013857066
101324.2078509212
101324.2076972658
101324.2173369417
101324.2334111932
101324.2301454069
101324.2508779589
101324.2667818215
101324.2646052998
101324.2750353889
101324.2984570632
101324.295741246
101324.2872400408
101324.3137005978
101324.3111917111
101324.2985642009
101324.3080793203
101324.3091627388
101324.2844486885
101324.2875054028
101324.2850646202
101324.25524619
101324.2412025973
101324.239372094
101324.1991891297
101324.1717635624
101324.1743531928
101324.1264416325
101324.0959853252
101324.0924544352
101324.0528482333
101324.0160103945
101324.010679619
101323.9760100926
101323.9387376069
101323.9339503384
101323.9016030898
101323.8728708552
101323.8675186709
101323.8451544716
101323.8175994043
101323.8153389011
101323.8096157084
101323.7817106256
101323.7936164251
101323.7935621237
101323.7755285836
101323.7837963302
101323.8050470018
101323.7885741182
101323.8005151131
101323.8275683274
101323.8206176444
101323.8313577961
101323.8606679934
101323.8508536353
101323.860910697
101323.8815351093
101323.8776491915
101323.8695685686
101323.8954683954
101323.8871891197
101323.8742535158
101323.8834106271
101323.8790240646
101323.8584665349
101323.8565623934
101323.8503291673
101323.8250364172
101323.809695021
101323.7921646225
101323.768581952
101323.73950912
101323.7207548949
101323.6954308449
101323.6600666954
101323.6426255321
101323.6165556975
101323.5816905204
101323.5613341207
101323.5400655189
101323.5051349026
101323.4845857824
101323.4706798063
101323.4387585775
101323.4250384125
101323.4039430519
101323.3902815576
101323.3770423361
101323.3689488156
101323.3512564558
101323.3622901555
101323.3523717246
101323.3404082676
101323.3599839251
101323.3575471967
101323.3542915142
101323.3703783111
101323.3851961719
101323.381593405
101323.3977935848
101323.412178983
101323.4111843762
101323.4144786259
101323.4310137749
101323.4243898899
101323.4237985678
101323.4321621015
101323.4299543568
101323.416232657
101323.4152893289
101323.4108766129
101323.3964707943
101323.3785801122
101323.3758861179
101323.3523689354
101323.3243851673
101323.3124355872
101323.2866881993
101323.2505011669
101323.229709787
101323.2112133301
101323.1690375289
101323.1432249402
101323.1279195973
101323.0912259075
101323.058034498
101323.046845594
101323.0126572536
101322.9851540858
101322.9680016189
101322.9507124997
101322.918991767
101322.9098770681
101322.8926424012
101322.8780580045
101322.8678386527
101322.8640564059
101322.8574581468
101322.8500870844
101322.8523533231
101322.8565094459
101322.8467871737
101322.8680340501
101322.8703311134
101322.8689874238
101322.8913012503
101322.8952532232
101322.8903010191
101322.9097552297
101322.9106004768
101322.9038928197
101322.9079885033
101322.9151703298
101322.9044349611
101322.8964825982
101322.8986121471
101322.8830720817
101322.8695735255
101322.8641451964
101322.8457336598
101322.8262760723
101322.8023029214
101322.7905767491
101322.7552857354
101322.721884958
101322.7082900104
101322.6739451965
101322.6322873608
101322.6171977955
101322.5860841442
101322.5478106379
101322.524270845
101322.5005340327
101322.4654139743
101322.4380702314
101322.4170317861
101322.3925838838
101322.3713449385
101322.3461391085
101322.3281871933
101322.3200727142
101322.3010415444
101322.2864229499
101322.2922995426
101322.2765986454
101322.2711128119
101322.2778320075
101322.2755545953
101322.2736222354
101322.2846409964
101322.29410531
101322.2950415336
101322.3065679714
101322.3128173625
101322.3171164352
101322.3190335585
101322.3225678365
101322.3207966019
101322.3160797135
101322.3252739057
101322.3138450853
101322.2993188595
101322.2971070324
101322.292014773
101322.2651311557
101322.2569421153
101322.2515149357
101322.2170810979
101322.1948404802
101322.18215101
101322.1482413313
101322.1114485053
101322.0998200973
101322.0584195678
101322.0304881771
101322.0050415166
101321.9750824162
101321.9399840353
101321.9203871214
101321.8881126637
101321.8553578458
101321.8353088812
101321.8155383873
101321.7845677821
101321.7636094059
101321.7489906326
101321.7265171687
101321.7097747494
101321.7076817993
101321.6939884451
101321.6815943593
101321.679674128
101321.6801452637
101321.6715566296
101321.6755825512
101321.6822408566
101321.6859870493
101321.6875154197
101321.7022493444
101321.7019142459
101321.7068527519
101321.7128043984
101321.7145355092
101321.7101687261
101321.7086537163
101321.7096330148
101321.7039860416
101321.6912979367
101321.6837373028
101321.6753769472
101321.6577052082
101321.6453033989
101321.6297809104
101321.6118344844
101321.5834964957
101321.5642540917
101321.5331635984
101321.5068736164
101321.4785061819
101321.4454353624
101321.4129791396
101321.3849233193
101321.3557290583
101321.3173302631
101321.2963011082
101321.2615763756
101321.231333513
101321.2032234668
101321.1828488772
101321.1480013916
101321.1346981914
101321.1084856362
101321.082777983
101321.074875281
101321.0616896798
101321.0398258671
101321.0396825068
101321.0359520717
101321.0163288967
101321.0286904618
101321.0182291997
101321.019080578
101321.0279603821
101321.0315750752
101321.0331704799
101321.0403152079
101321.0519072709
101321.0477601224
101321.0450033257
101321.0547584797
101321.0501486936
101321.037056959
101321.0455218177
101321.038917778
101321.0181178202
101321.0112749203
101321.0055494801
101320.9821502987
101320.9689486873
101320.9565397621
101320.9269572155
101320.905515135
101320.8819209951
101320.8526382373
101320.8150612365
101320.793378035
101320.7627132612
101320.7192803008
101320.6964019476
101320.6726967156
101320.6242546411
101320.6012055143
101320.5837924389
101320.5328740372
101320.5118391092
101320.5038238468
101320.4625607126
101320.4378495651
101320.4285435499
101320.406602582
101320.3867322794
101320.3783684346
101320.3746502862
101320.3561823949
101320.3601755461
101320.3524041527
101320.3512142475
101320.3454542862
101320.3605376574
101320.3590442292
101320.3608298651
101320.3749518801
101320.3752522117
101320.3773888912
101320.3913130948
101320.3819426807
101320.3761036979
101320.388427762
101320.3796239333
101320.3676740106
101320.3672921374
101320.3530484811
101320.3382007268
101320.3297844029
101320.3132714443
101320.2916067434
101320.2742468457
101320.2564319305
101320.229300234
101320.1944914191
101320.1747269315
101320.1463750793
101320.1047651522
101320.0848926769
101320.0518085415
101320.0151107265
101319.9912693766
101319.9647824829
101319.9266483022
101319.9006328984
101319.8794568132
101319.8450051631
101319.8289165485
101319.8080579707
101319.7779434939
101319.7616305661
101319.7608972328
101319.7295542373
101319.7229548985
101319.7261781456
101319.7183235238
101319.7012178268
101319.7144667515
101319.7134920145
101319.6986017816
101319.7192080317
101319.7292355399
101319.71892304
101319.7345399143
101319.7489420932
101319.739856986
101319.7472763493
101319.7546645736
101319.7386701304
101319.7474215422
101319.7486358927
101319.7287877512
101319.7273370551
101319.7168122556
101319.7001593806
101319.6857755698
101319.6754680168
101319.6488392989
101319.6361085316
101319.6112071012
101319.5844953471
101319.5547345178
101319.5284910159
101319.501356824
101319.4637974438
101319.4386440571
101319.4115520647
101319.3761446934
101319.3472176764
101319.3272784246
101319.2893817216
101319.2546396862
101319.2448349538
101319.2147476519
101319.18340835
101319.173534082
101319.1468994604
101319.1273675335
101319.1203777888
101319.1021470896
101319.0906766152
101319.0954003233
101319.0820852972
101319.076896417
101319.0754213811
101319.0820468395
101319.0748002438
101319.0797602976
101319.0927682612
101319.0932407146
101319.090249124
101319.1106343912
101319.1032126362
101319.1044107532
101319.1034004186
101319.0944433158
101319.0991214028
101319.0960592906
101319.0716249499
101319.0685490926
101319.0603686169
101319.0383444708
101319.0202782241
101319.0091762666
101318.9846447416
101318.962032295
101318.9416040195
101318.9061273093
101318.8764560683
101318.8531881372
101318.8154752799
101318.781116812
101318.7627004839
101318.7163642922
101318.6912540665
101318.6742823189
101318.6273054049
101318.5960110621
101318.5830919658
101318.5494054935
101318.5161762246
101318.5125508271
101318.4799536091
101318.450292608
101318.4541726701
101318.4353917415
101318.4083390297
101318.4199957592
101318.417297072
101318.3916289035
101318.4020919335
101318.4076086065
101318.3924664444
101318.3981850055
101318.4152271681
101318.4109670165
101318.4081581096
101318.4295458545
101318.4314705021
101318.4129596513
101318.4314459002
101318.4282104993
101318.4106206719
101318.4136057352
101318.4152581229
101318.3909288906
101318.3760678259
101318.3774292297
101318.3460129011
101318.3321684371
101318.317371226
101318.2952352951
101318.2650972387
101318.2389651649
101318.2217872708
101318.1745812018
101318.1493818416
101318.1265109587
101318.0846245892
101318.0564177505
101318.0340976794
101317.9987769113
101317.9687441085
101317.9400198539
101317.9124221909
101317.8838395675
101317.8640267383
101317.8387351504
101317.8145798692
101317.7982086981
101317.7788351951
101317.7649242844
101317.7512306727
101317.7495470211
101317.7415884144
101317.7359601647
101317.7303602962
101317.7329467913
101317.7297720834
101317.7291898455
101317.7352509043
101317.744368699
101317.7415350726
101317.747669787
101317.7591377782
101317.7617968182
101317.7472365218
101317.7586377358
101317.7552759893
101317.739113548
101317.7467789411
101317.7340357762
101317.7130096619
101317.7053337053
101317.6908474341
101317.6647849689
101317.6552198846
101317.63401692
101317.6034262592
101317.5835888903
101317.5511468944
101317.5194394425
101317.4896318531
101317.459351168
101317.423351642
101317.3961174476
101317.3616947597
101317.3336271827
101317.3028901755
101317.2732820798
101317.2364354903
101317.2070407037
101317.1878287951
101317.158887971
101317.1307193626
101317.1088388456
101317.0865696679
101317.0663586075
101317.045246335
101317.0441139509
101317.0240625442
101317.0144015117
101317.0144491336
101316.9973516472
101316.9903984892
101316.9942588648
101316.9870845314
101316.9859543349
101316.9885162497
101316.9865923878
101316.9913185367
101316.9908833339
101316.9829105561
101316.9791647727
101316.9801188483
101316.966685949
101316.9574431475
101316.9587388179
101316.9405729506
101316.9191531469
101316.9107819058
101316.8963947925
101316.8696593058
101316.8621236583
101316.8434483485
101316.8071197837
101316.7933369403
101316.7636462855
101316.7291400857
101316.7086972089
101316.6843556087
101316.6439576969
101316.6275839989
101316.6002499358
101316.5683967623
101316.538876745
101316.5186484693
101316.484111391
101316.4581843822
101316.4410253298
101316.4143498898
101316.3834104177
101316.3730920015
101316.34832992
101316.3239090958
101316.3173538515
101316.3060796767
101316.2943132604
101316.284855623
101316.2746787176
101316.2650124983
101316.2612794206
101316.2520353274
101316.2530215042
101316.2537173136
101316.2490116022
101316.2459861411
101316.2535912093
101316.2443033555
101316.2396858856
101316.2403636363
101316.2261140982
101316.2209880474
101316.2241795278
101316.2033701223
101316.1846096102
101316.1821397611
101316.1610069868
101316.1351291941
101316.1314791642
101316.112151741
101316.0851226616
101316.0589071089
101316.0449982228
101316.0026261004
101315.9756949745
101315.9628859974
101315.9254458647
101315.8946863569
101315.8806847377
101315.8453756175
101315.816793571
101315.8001784293
101315.7649753133
101315.7349242889
101315.724495175
101315.6968363799
101315.6627120745
101315.6544766841
101315.6317214706
101315.5973789236
101315.5967204727
101315.5828138728
101315.5641447016
101315.566807426
101315.5510317605
101315.5410426005
101315.5360349049
101315.5330578315
101315.519283594
101315.5286749124
101315.5308966215
101315.5178186053
101315.523078149
101315.5332496049
101315.5111938711
101315.5122618518
101315.5135085604
101315.5057407734
101315.4903643644
101315.4932424377
101315.4768324132
101315.4593283985
101315.4471440873
101315.4342010263
101315.4074341097
101315.4000046805
101315.3846915149
101315.3491514271
101315.3303378964
101315.3098991494
101315.2733238896
101315.2438400188
101315.2279262086
101315.1952303468
101315.1648622686
101315.1497753177
101315.1189961515
101315.0897874009
101315.0626319213
101315.045744973
101315.0118476382
101314.9894181814
101314.9748920976
101314.9465254889
101314.9144225126
101314.9071734361
101314.8848613304
101314.8626469449
101314.8605046935
101314.8501452956
101314.8282099035
101314.8358868821
101314.8192467307
101314.7979177616
101314.8124079486
101314.8012501781
101314.7881384829
101314.8042266564
101314.8010626947
101314.7823698385
101314.7890808124
101314.795688417
101314.765220559
101314.7672743442
101314.7699152326
101314.7464644569
101314.7376895364
101314.7287783168
101314.7071427715
101314.68716217
101314.6746322141
101314.6593917515
101314.6323765783
101314.6134470668
101314.591152692
101314.5679571989
101314.5270922705
101314.5017573936
101314.4816514715
101314.4415971905
101314.4143871181
101314.4000752501
101314.3704377343
101314.3244457367
101314.3166844568
101314.2891030603
101314.2445131755
101314.2299484296
101314.2192247479
101314.1721117317
101314.1558319706
101314.1464985697
101314.1074078822
101314.0898875859
101314.0972381452
101314.0664124724
101314.0575813598
101314.0592795743
101314.0451228028
101314.0245159117
101314.0343065673
101314.0209409585
101314.0150618301
101314.0178969155
101314.0192693975
101314.0138586597
101314.0135574247
101314.0055723935
101313.9936366995
101313.9980091978
101313.983850222
101313.9700917107
101313.9680920469
101313.9591824455
101313.9236686178
101313.9249740887
101313.9042481983
101313.8784139621
101313.8708308547
101313.853583173
101313.8135169448
101313.7991914657
101313.7741332337
101313.7331467496
101313.7132311092
101313.6809925169
101313.6499894653
101313.6263792482
101313.6055480086
101313.5754492874
101313.5466125331
101313.5237312867
101313.4925982655
101313.4726194014
101313.4471414671
101313.4243175795
101313.3984807797
101313.3835413956
101313.3546168999
101313.3341426817
101313.3212902278
101313.3165655046
101313.2992002799
101313.2887480787
101313.2827221766
101313.2690453735
101313.2660076433
101313.2572802277
101313.2562091865
101313.2472406789
101313.2453060517
101313.2517058962
101313.2503543608
101313.2363967999
101313.2327538401
101313.2361204781
101313.215624226
101313.2082490585
101313.2058273888
101313.1878075922
101313.1722397612
101313.1602540726
101313.1408133818
101313.1080223035
101313.118266608
101313.0926581463
101313.0582435085
101313.041902377
101313.017598215
101312.9781592856
101312.9588813181
101312.935487122
101312.8845730396
101312.8675554917
101312.8511753283
101312.8163008435
101312.7869895481
101312.7755946784
101312.7353006928
101312.710531606
101312.701776524
101312.665664667
101312.6369241344
101312.6333525879
101312.6016908659
101312.5691466888
101312.5631546319
101312.5496585309
101312.5334783323
101312.5274586317
101312.516193542
101312.492285675
101312.4903051686
101312.4894438836
101312.4776150798
101312.4631656693
101312.4718712259
101312.453400867
101312.4551454732
101312.4635941073
101312.4337708943
101312.4304149915
101312.4363589868
101312.4083269748
101312.3992800706
101312.3964138009
101312.3635286475
101312.3540089443
101312.3440517248
101312.3065275179
101312.2782822145
101312.2989312133
101312.2482624807
101312.2267741031
101312.1978541265
101312.1745556114
101312.1319898987
101312.1138968432
101312.0830905846
101312.0340006794
101312.0190601
101311.9837164519
101311.9569264329
101311.930221712
101311.8994627456
101311.8700842807
101311.8481393964
101311.8154008356
101311.7955120976
101311.7663866627
101311.7381194122
101311.7195483773
101311.6988302993
101311.6628530921
101311.6795865244
101311.6538854513
101311.6330167681
101311.6249286911
101311.6143138358
101311.598631134
101311.5880067698
101311.5936183355
101311.5797377276
101311.5707048162
101311.5565157721
101311.5716364864
101311.5619726014
101311.5192113061
101311.5421543287
101311.5262749827
101311.4792237473
101311.530512839
101311.4143534067
101311.4630157026
101311.4637719888
101311.3656014407
101311.3134631838
101311.4143356695
)
;

boundaryField
{
    inlet
    {
        type            calculated;
        value           uniform 101325.0018593484;
    }
    outlet
    {
        type            calculated;
        value           uniform 101311.4300579089;
    }
    frontAndBack
    {
        type            empty;
    }
}


// ************************************************************************* //
