/*--------------------------------*- C++ -*----------------------------------*\
| =========                 |                                                 |
| \\      /  F ield         | OpenFOAM: The Open Source CFD Toolbox           |
|  \\    /   O peration     | Version:  v2012                                 |
|   \\  /    A nd           | Website:  www.openfoam.com                      |
|    \\/     M anipulation  |                                                 |
\*---------------------------------------------------------------------------*/
FoamFile
{
    version     2.0;
    format      ascii;
    class       volVectorField;
    location    "0.0005";
    object      U;
}
// * * * * * * * * * * * * * * * * * * * * * * * * * * * * * * * * * * * * * //

dimensions      [0 1 -1 0 0 0 0];


internalField   nonuniform List<vector> 
1000
(
(0.00289944410965942 0 0)
(0.03439816677547261 0 0)
(0.04251642623123283 0 0)
(0.05762699394496115 0 0)
(0.07152843856516614 0 0)
(0.08452795666122544 0 0)
(0.09561261044028929 0 0)
(0.1050649433053048 0 0)
(0.1131912656895781 0 0)
(0.1186392144840548 0 0)
(0.1200688780105417 0 0)
(0.1198866096810679 0 0)
(0.1191229272144189 0 0)
(0.1166425959061505 0 0)
(0.111856217163059 0 0)
(0.1045374526577554 0 0)
(0.09496461546134698 0 0)
(0.08357961414600665 0 0)
(0.070751723992833 0 0)
(0.05672698036585654 0 0)
(0.04169672789965448 0 0)
(0.02587521602961601 0 0)
(0.009532518846784762 0 0)
(-0.007019826821750201 0 0)
(-0.02345683639280637 0 0)
(-0.03945159020885908 0 0)
(-0.05469598871587959 0 0)
(-0.06898343798545946 0 0)
(-0.08230461603719655 0 0)
(-0.09474253515991952 0 0)
(-0.1059108035834083 0 0)
(-0.1141287136496102 0 0)
(-0.1175484890708331 0 0)
(-0.1179081214144885 0 0)
(-0.1178153374618257 0 0)
(-0.117090047482651 0 0)
(-0.115254930874511 0 0)
(-0.1116397355969254 0 0)
(-0.1057642995123664 0 0)
(-0.09740754080299897 0 0)
(-0.08668343526990173 0 0)
(-0.07397300380564331 0 0)
(-0.05977587183215363 0 0)
(-0.04456278597353221 0 0)
(-0.02869809291788572 0 0)
(-0.01244803382998359 0 0)
(0.003956942951154647 0 0)
(0.02026670546491996 0 0)
(0.03621919290689833 0 0)
(0.05161182659108676 0 0)
(0.06636564553968505 0 0)
(0.08048603613677711 0 0)
(0.09382055763475126 0 0)
(0.1054883304433947 0 0)
(0.1133922518302412 0 0)
(0.1162284082681185 0 0)
(0.116467219446721 0 0)
(0.1163053874556382 0 0)
(0.1157281548876808 0 0)
(0.1141730760025684 0 0)
(0.1111466587485232 0 0)
(0.1061427027069353 0 0)
(0.09879690532371792 0 0)
(0.08896615629691935 0 0)
(0.07678488407804164 0 0)
(0.06266948682675622 0 0)
(0.04730567429503033 0 0)
(0.03170971065037557 0 0)
(0.01745569329349005 0 0)
(0.006800848685198754 0 0)
(0.001451287294793233 0 0)
(0.0001176247866394447 0 0)
(2.371301025661344e-06 0 0)
(7.857251226131815e-09 0 0)
(2.080028536366173e-12 0 0)
(-8.703048269314761e-13 0 0)
(-8.441956821235346e-13 0 0)
(-6.701347167371801e-13 0 0)
(-4.612615582736825e-13 0 0)
(-2.436853515408136e-13 0 0)
(-5.221828961588656e-14 0 0)
(6.962438615451418e-14 0 0)
(6.962438615451498e-14 0 0)
(6.092133788520551e-14 0 0)
(3.481219307725918e-14 0 0)
(9.57335309624516e-14 0 0)
(8.7030482693138e-15 0 0)
(-1.653579171169757e-13 0 0)
(-1.30545724039725e-13 0 0)
(-1.914670619249077e-13 0 0)
(-2.262792550021837e-13 0 0)
(-2.784975446180721e-13 0 0)
(-2.17576206732869e-13 0 0)
(-1.827640136555926e-13 0 0)
(-1.566548688476651e-13 0 0)
(-1.044365792317758e-13 0 0)
(-8.70304826931419e-15 0 0)
(-3.481219307725355e-14 0 0)
(2.371134450218483e-27 0 0)
(-8.703048269314653e-14 0 0)
(-1.653579171169773e-13 0 0)
(-1.653579171169781e-13 0 0)
(-1.392487723090306e-13 0 0)
(-7.832743442383694e-14 0 0)
(-2.610914480794111e-14 0 0)
(8.703048269312601e-15 0 0)
(-1.305457240397163e-13 0 0)
(-7.832743442383275e-14 0 0)
(-1.044365792317759e-13 0 0)
(-1.479518205783484e-13 0 0)
(-1.566548688476712e-13 0 0)
(-6.962438615451357e-14 0 0)
(4.351524134657386e-14 0 0)
(8.70304826931401e-14 0 0)
(9.573353096246159e-14 0 0)
(-2.610914480794417e-14 0 0)
(-6.092133788520138e-14 0 0)
(1.740609653863014e-14 0 0)
(9.573353096245838e-14 0 0)
(9.573353096246435e-14 0 0)
(5.221828961588337e-14 0 0)
(1.131396275010963e-13 0 0)
(1.167208808420474e-27 0 0)
(6.962438615452217e-14 0 0)
(1.044365792317737e-13 0 0)
(1.044365792317759e-13 0 0)
(1.479518205783541e-13 0 0)
(-8.703048269314938e-15 0 0)
(-1.044365792317822e-13 0 0)
(-1.740609653862869e-14 0 0)
(6.092133788520027e-14 0 0)
(-6.962438615451811e-14 0 0)
(1.392487723090333e-13 0 0)
(2.088731584635541e-13 0 0)
(3.220127859646319e-13 0 0)
(2.523883998101383e-13 0 0)
(1.04436579231761e-13 0 0)
(7.832743442383656e-14 0 0)
(-5.221828961588603e-14 0 0)
(-1.131396275010933e-13 0 0)
(-2.175762067328656e-13 0 0)
(-9.573353096245754e-14 0 0)
(-1.218426757704093e-13 0 0)
(-9.573353096245475e-14 0 0)
(8.703048269315072e-14 0 0)
(1.21842675770396e-13 0 0)
(1.827640136556094e-13 0 0)
(1.044365792317715e-13 0 0)
(2.001701101942415e-13 0 0)
(2.610914480794433e-14 0 0)
(1.044365792317742e-13 0 0)
(6.962438615451708e-14 0 0)
(1.392487723090198e-13 0 0)
(-1.740609653863075e-14 0 0)
(-6.092133788520187e-14 0 0)
(-6.092133788520594e-14 0 0)
(-1.044365792317738e-13 0 0)
(-2.610914480794463e-14 0 0)
(-9.343467862107813e-28 0 0)
(-6.962438615451561e-14 0 0)
(-8.703048269315231e-14 0 0)
(-8.703048269312964e-15 0 0)
(-8.703048269314251e-15 0 0)
(-6.962438615451346e-14 0 0)
(-4.351524134657527e-14 0 0)
(-2.001701101942355e-13 0 0)
(-1.479518205783476e-13 0 0)
(-1.914670619249269e-13 0 0)
(-1.044365792317642e-13 0 0)
(-1.131396275010914e-13 0 0)
(-2.175762067328537e-13 0 0)
(-3.046066894260469e-13 0 0)
(-3.742310755804866e-13 0 0)
(-3.046066894260355e-13 0 0)
(-2.959036411566783e-13 0 0)
(-2.436853515408191e-13 0 0)
(-1.653579171169734e-13 0 0)
(-1.740609653862887e-13 0 0)
(-1.305457240397091e-13 0 0)
(-1.566548688476702e-13 0 0)
(-1.5665486884766e-13 0 0)
(-1.740609653862832e-13 0 0)
(-5.221828961589072e-14 0 0)
(-2.175762067328578e-13 0 0)
(-2.349823032714883e-13 0 0)
(-3.133097376953458e-13 0 0)
(-2.088731584635279e-13 0 0)
(-2.088731584635718e-13 0 0)
(-1.39248772309017e-13 0 0)
(-2.436853515408301e-13 0 0)
(-8.703048269313918e-14 0 0)
(-8.70304826931471e-14 0 0)
(-2.61091448079437e-14 0 0)
(3.48121930772571e-14 0 0)
(8.703048269314296e-14 0 0)
(-1.740609653863255e-14 0 0)
(8.703048269314012e-14 0 0)
(-3.481219307725798e-14 0 0)
(1.479518205783479e-13 0 0)
(-1.218426757704096e-13 0 0)
(2.610914480794098e-14 0 0)
(2.610914480794439e-14 0 0)
(6.092133788519549e-14 0 0)
(6.092133788520748e-14 0 0)
(4.351524134656871e-14 0 0)
(1.392487723090335e-13 0 0)
(1.479518205783498e-13 0 0)
(2.784975446180613e-13 0 0)
(1.566548688476637e-13 0 0)
(2.088731584635449e-13 0 0)
(2.001701101942474e-13 0 0)
(1.740609653862771e-13 0 0)
(1.653579171169874e-13 0 0)
(2.610914480794218e-13 0 0)
(1.56654868847663e-13 0 0)
(1.04436579231773e-13 0 0)
(9.573353096246069e-14 0 0)
(-1.131396275010946e-13 0 0)
(-7.832743442382972e-14 0 0)
(1.74060965386314e-14 0 0)
(-4.351524134656794e-14 0 0)
(-5.221828961588723e-14 0 0)
(-1.305457240397206e-13 0 0)
(-2.088731584635419e-13 0 0)
(-5.221828961588767e-14 0 0)
(5.005084128822856e-28 0 0)
(1.391374738514593e-27 0 0)
(1.818449484641763e-27 0 0)
(-5.221828961588853e-14 0 0)
(-5.221828961588397e-14 0 0)
(-6.092133788520528e-14 0 0)
(-7.832743442382708e-14 0 0)
(-8.703048269315815e-15 0 0)
(1.740609653862872e-14 0 0)
(2.610914480794413e-14 0 0)
(-8.703048269317e-15 0 0)
(-8.703048269313864e-14 0 0)
(-8.703048269315444e-14 0 0)
(-1.740609653862845e-14 0 0)
(5.221828961588911e-14 0 0)
(5.221828961588534e-14 0 0)
(6.962438615451371e-14 0 0)
(-5.22182896158912e-14 0 0)
(6.962438615451587e-14 0 0)
(1.7406096538629e-13 0 0)
(1.305457240397195e-13 0 0)
(6.962438615452079e-14 0 0)
(1.044365792317655e-13 0 0)
(1.47951820578344e-13 0 0)
(1.479518205783554e-13 0 0)
(2.0017011019424e-13 0 0)
(1.914670619249188e-13 0 0)
(2.349823032714769e-13 0 0)
(1.827640136556154e-13 0 0)
(1.740609653862878e-13 0 0)
(1.044365792317755e-13 0 0)
(1.131396275010861e-13 0 0)
(1.827640136556086e-13 0 0)
(1.218426757704067e-13 0 0)
(1.740609653862693e-14 0 0)
(9.573353096246119e-14 0 0)
(1.392487723090269e-13 0 0)
(6.092133788520509e-14 0 0)
(-7.832743442382826e-14 0 0)
(1.740609653862849e-14 0 0)
(6.092133788520299e-14 0 0)
(1.914670619249194e-13 0 0)
(7.832743442383627e-14 0 0)
(1.740609653862762e-13 0 0)
(1.218426757704117e-13 0 0)
(1.305457240397169e-13 0 0)
(9.971518959353939e-28 0 0)
(-1.044365792317698e-13 0 0)
(-1.305457240397225e-13 0 0)
(-1.218426757704072e-13 0 0)
(-1.740609653862844e-14 0 0)
(9.573353096246004e-14 0 0)
(3.133097376953246e-13 0 0)
(4.525585100043821e-13 0 0)
(4.264493651963853e-13 0 0)
(3.307158342339567e-13 0 0)
(1.827640136556162e-13 0 0)
(5.221828961589025e-14 0 0)
(2.589502985568409e-28 0 0)
(-3.481219307725905e-14 0 0)
(1.131396275010858e-13 0 0)
(1.740609653863014e-14 0 0)
(-7.832743442382747e-14 0 0)
(-9.573353096246962e-14 0 0)
(-1.479518205783418e-13 0 0)
(-1.131396275010932e-13 0 0)
(-2.610914480794284e-14 0 0)
(-6.962438615451822e-14 0 0)
(9.573353096245652e-14 0 0)
(3.481219307725913e-14 0 0)
(1.740609653862587e-14 0 0)
(1.740609653863246e-14 0 0)
(8.703048269313699e-14 0 0)
(-9.573353096246613e-14 0 0)
(-6.962438615451556e-14 0 0)
(8.703048269314283e-15 0 0)
(1.740609653862927e-14 0 0)
(-8.703048269315342e-14 0 0)
(-9.573353096245319e-14 0 0)
(-6.092133788520615e-14 0 0)
(3.481219307725665e-14 0 0)
(1.044365792317851e-13 0 0)
(-1.740609653862804e-14 0 0)
(-2.610914480794288e-14 0 0)
(8.703048269314565e-14 0 0)
(7.832743442383593e-14 0 0)
(1.392487723090224e-13 0 0)
(2.001701101942499e-13 0 0)
(2.349823032714768e-13 0 0)
(2.872005928873928e-13 0 0)
(2.349823032714916e-13 0 0)
(2.349823032714914e-13 0 0)
(1.740609653862865e-13 0 0)
(1.914670619249368e-13 0 0)
(2.262792550021556e-13 0 0)
(2.262792550021978e-13 0 0)
(1.479518205783349e-13 0 0)
(1.566548688476724e-13 0 0)
(1.653579171169623e-13 0 0)
(1.82764013655616e-13 0 0)
(3.133097376953123e-13 0 0)
(1.653579171169865e-13 0 0)
(1.740609653862766e-13 0 0)
(6.962438615451741e-14 0 0)
(-8.703048269316766e-15 0 0)
(-8.703048269316047e-15 0 0)
(6.092133788520068e-14 0 0)
(9.573353096246175e-14 0 0)
(3.481219307725506e-14 0 0)
(2.610914480794255e-14 0 0)
(1.740609653862859e-14 0 0)
(9.573353096245891e-14 0 0)
(1.305457240397154e-13 0 0)
(1.044365792317791e-13 0 0)
(7.832743442382693e-14 0 0)
(7.832743442383553e-14 0 0)
(5.221828961588504e-14 0 0)
(-3.48121930772603e-14 0 0)
(-8.703048269316121e-15 0 0)
(-6.092133788520302e-14 0 0)
(3.481219307725757e-14 0 0)
(1.218426757704046e-13 0 0)
(8.703048269316088e-15 0 0)
(-4.351524134657014e-14 0 0)
(8.703048269315525e-15 0 0)
(8.703048269314884e-14 0 0)
(7.832743442382934e-14 0 0)
(5.221828961588681e-14 0 0)
(-8.703048269313997e-14 0 0)
(-3.481219307725908e-14 0 0)
(-6.962438615451659e-14 0 0)
(8.703048269315927e-15 0 0)
(-3.481219307725731e-14 0 0)
(-1.131396275010903e-13 0 0)
(-1.044365792317801e-13 0 0)
(-1.479518205783457e-13 0 0)
(-7.832743442382646e-14 0 0)
(-1.131396275010932e-13 0 0)
(-1.827640136556067e-13 0 0)
(-2.436853515408047e-13 0 0)
(-2.001701101942355e-13 0 0)
(-5.221828961588865e-14 0 0)
(1.740609653863018e-14 0 0)
(-5.221828961588649e-14 0 0)
(-7.832743442382523e-14 0 0)
(-1.305457240397262e-13 0 0)
(-1.305457240397185e-13 0 0)
(-1.740609653862784e-13 0 0)
(-3.046066894260107e-13 0 0)
(-2.001701101942451e-13 0 0)
(-2.523883998101333e-13 0 0)
(-1.04436579231774e-13 0 0)
(6.962438615451156e-14 0 0)
(3.481219307725746e-14 0 0)
(1.827640136556134e-13 0 0)
(1.131396275010791e-13 0 0)
(1.392487723090315e-13 0 0)
(6.092133788520359e-14 0 0)
(-2.610914480794177e-14 0 0)
(-1.566548688476637e-13 0 0)
(-2.001701101942299e-13 0 0)
(-8.703048269312729e-15 0 0)
(-5.221828961588646e-14 0 0)
(8.70304826931702e-15 0 0)
(-4.351524134657191e-14 0 0)
(2.95667131934332e-28 0 0)
(-5.221828961588694e-14 0 0)
(-1.044365792317779e-13 0 0)
(-6.092133788519789e-14 0 0)
(-4.351524134657302e-14 0 0)
(-3.481219307726103e-14 0 0)
(-8.703048269313941e-14 0 0)
(-1.13139627501091e-13 0 0)
(-8.703048269314562e-14 0 0)
(-6.092133788520532e-14 0 0)
(-1.740609653863039e-14 0 0)
(-4.351524134657e-14 0 0)
(-1.479518205783486e-13 0 0)
(-1.740609653862975e-13 0 0)
(-1.39248772309022e-13 0 0)
(-1.218426757704109e-13 0 0)
(8.703048269314886e-15 0 0)
(5.22182896158879e-14 0 0)
(1.218426757703987e-13 0 0)
(2.436853515408135e-13 0 0)
(2.784975446180638e-13 0 0)
(2.610914480794416e-13 0 0)
(2.523883998100997e-13 0 0)
(2.784975446180989e-13 0 0)
(2.523883998101028e-13 0 0)
(2.349823032714907e-13 0 0)
(2.784975446180636e-13 0 0)
(4.090432686578034e-13 0 0)
(4.873707030815988e-13 0 0)
(4.264493651964139e-13 0 0)
(3.394188825032571e-13 0 0)
(2.175762067328762e-13 0 0)
(2.262792550021716e-13 0 0)
(1.653579171169745e-13 0 0)
(6.962438615451664e-14 0 0)
(-3.481219307725995e-14 0 0)
(-1.305457240397143e-13 0 0)
(-1.74060965386292e-13 0 0)
(-1.392487723090299e-13 0 0)
(-9.372454835827387e-28 0 0)
(6.962438615451185e-14 0 0)
(1.914670619249222e-13 0 0)
(2.2627925500218e-13 0 0)
(8.703048269314554e-14 0 0)
(7.832743442383072e-14 0 0)
(9.573353096245797e-14 0 0)
(1.566548688476567e-13 0 0)
(5.22182896158921e-14 0 0)
(7.832743442382803e-14 0 0)
(8.70304826931493e-15 0 0)
(2.610914480794396e-14 0 0)
(-1.131396275010872e-13 0 0)
(-1.04436579231774e-13 0 0)
(-6.962438615451517e-14 0 0)
(-8.703048269313976e-14 0 0)
(-8.703048269315063e-14 0 0)
(-8.70304826931401e-14 0 0)
(-1.740609653862761e-14 0 0)
(1.740609653862964e-14 0 0)
(8.703048269315095e-14 0 0)
(8.703048269314838e-14 0 0)
(6.092133788520453e-14 0 0)
(3.481219307725836e-14 0 0)
(-3.481219307725957e-14 0 0)
(-2.610914480794181e-14 0 0)
(-4.351524134657075e-14 0 0)
(1.740609653862909e-14 0 0)
(-8.703048269314707e-14 0 0)
(-1.044365792317741e-13 0 0)
(-2.872005928873742e-13 0 0)
(-2.001701101942264e-13 0 0)
(-1.914670619249355e-13 0 0)
(-2.697944963487448e-13 0 0)
(-3.22012785964638e-13 0 0)
(-2.784975446180646e-13 0 0)
(-2.001701101942389e-13 0 0)
(-3.046066894260063e-13 0 0)
(-4.003402203884659e-13 0 0)
(-4.003402203885015e-13 0 0)
(-3.046066894260144e-13 0 0)
(-1.914670619249058e-13 0 0)
(-1.392487723090349e-13 0 0)
(-2.610914480794157e-14 0 0)
(9.573353096245555e-14 0 0)
(1.479518205783529e-13 0 0)
(1.044365792317793e-13 0 0)
(-1.740609653863e-14 0 0)
(-1.740609653862951e-13 0 0)
(-2.523883998101055e-13 0 0)
(-1.47951820578349e-13 0 0)
(-1.131396275010911e-13 0 0)
(-1.566548688476521e-13 0 0)
(-7.832743442383428e-14 0 0)
(-2.001701101942413e-13 0 0)
(-1.392487723090319e-13 0 0)
(-2.262792550021831e-13 0 0)
(-2.610914480794185e-13 0 0)
(-3.04606689426016e-13 0 0)
(-2.61091448079442e-13 0 0)
(-2.784975446180489e-13 0 0)
(-2.262792550021834e-13 0 0)
(-1.827640136556097e-13 0 0)
(-2.262792550021817e-13 0 0)
(-2.872005928873859e-13 0 0)
(-3.220127859646173e-13 0 0)
(-2.349823032714962e-13 0 0)
(-1.914670619249227e-13 0 0)
(-6.962438615451026e-14 0 0)
(1.56654868847668e-13 0 0)
(2.784975446180732e-13 0 0)
(3.481219307725905e-13 0 0)
(3.481219307725899e-13 0 0)
(3.220127859646177e-13 0 0)
(3.655280273112199e-13 0 0)
(2.872005928873841e-13 0 0)
(3.046066894259906e-13 0 0)
(2.7849754461807e-13 0 0)
(2.088731584635537e-13 0 0)
(1.305457240397198e-13 0 0)
(1.218426757704052e-13 0 0)
(3.481219307725549e-14 0 0)
(-6.092133788520315e-14 0 0)
(-1.218426757704074e-13 0 0)
(-1.21842675770397e-13 0 0)
(4.351524134657359e-14 0 0)
(1.653579171169804e-13 0 0)
(7.832743442383251e-14 0 0)
(5.221828961588948e-14 0 0)
(8.703048269312224e-15 0 0)
(-6.962438615451795e-14 0 0)
(-1.827640136556102e-13 0 0)
(-1.566548688476533e-13 0 0)
(-1.740609653862971e-13 0 0)
(-2.784975446180745e-13 0 0)
(-2.523883998101301e-13 0 0)
(-1.131396275010952e-13 0 0)
(2.610914480794041e-14 0 0)
(1.827640136556102e-13 0 0)
(1.827640136556084e-13 0 0)
(1.131396275010793e-13 0 0)
(2.349823032714968e-13 0 0)
(2.959036411567014e-13 0 0)
(2.784975446180722e-13 0 0)
(2.959036411567007e-13 0 0)
(3.133097376953043e-13 0 0)
(4.177463169271082e-13 0 0)
(3.742310755805359e-13 0 0)
(3.220127859646204e-13 0 0)
(3.481219307725913e-13 0 0)
(4.177463169271073e-13 0 0)
(4.699646065430107e-13 0 0)
(4.351524134657325e-13 0 0)
(4.003402203884367e-13 0 0)
(2.523883998101331e-13 0 0)
(5.221828961588945e-14 0 0)
(6.092133788519758e-14 0 0)
(-8.703048269314618e-15 0 0)
(-1.740609653863176e-14 0 0)
(1.740609653862872e-14 0 0)
(-6.96243861545216e-14 0 0)
(-1.827640136555956e-13 0 0)
(-1.82764013655616e-13 0 0)
(-1.827640136556039e-13 0 0)
(-6.092133788519956e-14 0 0)
(-1.740609653862958e-14 0 0)
(1.305457240397238e-13 0 0)
(2.349823032714894e-13 0 0)
(2.43685351540819e-13 0 0)
(1.392487723090216e-13 0 0)
(-1.833909203958652e-27 0 0)
(2.610914480794345e-14 0 0)
(-1.044365792317714e-13 0 0)
(-1.218426757704256e-13 0 0)
(-1.827640136556008e-13 0 0)
(-4.351524134657605e-14 0 0)
(-6.09213378852054e-14 0 0)
(-8.703048269314045e-15 0 0)
(1.392487723090383e-13 0 0)
(2.523883998101203e-13 0 0)
(3.220127859646526e-13 0 0)
(3.220127859646373e-13 0 0)
(3.829341238498248e-13 0 0)
(2.959036411566938e-13 0 0)
(2.523883998101353e-13 0 0)
(2.349823032714736e-13 0 0)
(2.784975446180784e-13 0 0)
(2.436853515408065e-13 0 0)
(2.784975446180766e-13 0 0)
(3.394188825032695e-13 0 0)
(2.523883998100976e-13 0 0)
(1.827640136556136e-13 0 0)
(8.703048269312817e-15 0 0)
(6.962438615451278e-14 0 0)
(7.832743442382903e-14 0 0)
(-1.740609653863e-14 0 0)
(-6.962438615451656e-14 0 0)
(-8.703048269315093e-14 0 0)
(-7.832743442382729e-14 0 0)
(8.7030482693144e-15 0 0)
(1.305457240397208e-13 0 0)
(2.436853515407939e-13 0 0)
(3.307158342339548e-13 0 0)
(2.523883998101365e-13 0 0)
(1.740609653862907e-13 0 0)
(8.703048269314934e-14 0 0)
(8.70304826931398e-14 0 0)
(7.83274344238325e-14 0 0)
(-3.481219307725933e-14 0 0)
(-1.566548688476518e-13 0 0)
(-1.131396275010958e-13 0 0)
(-6.092133788520422e-14 0 0)
(-6.802276499404194e-28 0 0)
(-1.740609653863133e-14 0 0)
(-2.610914480794183e-14 0 0)
(1.740609653862981e-14 0 0)
(6.092133788520256e-14 0 0)
(1.479518205783324e-13 0 0)
(2.523883998101351e-13 0 0)
(3.220127859646378e-13 0 0)
(2.088731584635596e-13 0 0)
(1.044365792317747e-13 0 0)
(8.703048269313822e-15 0 0)
(-8.703048269315002e-15 0 0)
(5.221828961588988e-14 0 0)
(1.392487723090254e-13 0 0)
(2.262792550021914e-13 0 0)
(1.914670619249196e-13 0 0)
(1.914670619249315e-13 0 0)
(1.653579171169773e-13 0 0)
(6.962438615450966e-14 0 0)
(2.610914480794456e-14 0 0)
(6.09213378852027e-14 0 0)
(-1.566548688476537e-13 0 0)
(-2.088731584635505e-13 0 0)
(-1.566548688476675e-13 0 0)
(-1.392487723090375e-13 0 0)
(-1.392487723090303e-13 0 0)
(-2.26279255002159e-13 0 0)
(-2.088731584635472e-13 0 0)
(-2.523883998101371e-13 0 0)
(-1.566548688476499e-13 0 0)
(-7.832743442382751e-14 0 0)
(-1.044365792317786e-13 0 0)
(-2.610914480794329e-14 0 0)
(-7.832743442383218e-14 0 0)
(-1.566548688476509e-13 0 0)
(-3.133097376953264e-13 0 0)
(-2.00170110194239e-13 0 0)
(-3.046066894259944e-13 0 0)
(-3.046066894260052e-13 0 0)
(-3.481219307726003e-13 0 0)
(-2.262792550021761e-13 0 0)
(-1.82764013655611e-13 0 0)
(-2.34982303271476e-13 0 0)
(-1.653579171169789e-13 0 0)
(-1.392487723090382e-13 0 0)
(-1.392487723090169e-13 0 0)
(-3.046066894260227e-13 0 0)
(-2.69794496348751e-13 0 0)
(-2.175762067328731e-13 0 0)
(-2.001701101942463e-13 0 0)
(-2.0017011019421e-13 0 0)
(-3.220127859646519e-13 0 0)
(-2.349823032714936e-13 0 0)
(-5.221828961588438e-14 0 0)
(6.092133788520331e-14 0 0)
(4.35152413465713e-14 0 0)
(7.83274344238345e-14 0 0)
(1.305457240397172e-13 0 0)
(6.962438615451442e-14 0 0)
(-3.768306583476799e-28 0 0)
(6.962438615451891e-14 0 0)
(2.08873158463537e-13 0 0)
(1.131396275010971e-13 0 0)
(1.827640136556054e-13 0 0)
(1.740609653862992e-13 0 0)
(7.832743442383154e-14 0 0)
(-5.22182896158829e-14 0 0)
(-8.703048269315091e-14 0 0)
(-1.479518205783501e-13 0 0)
(-1.653579171169647e-13 0 0)
(-9.573353096246016e-14 0 0)
(-2.088731584635606e-13 0 0)
(-6.092133788520021e-14 0 0)
(-9.573353096246287e-14 0 0)
(-1.305457240397104e-13 0 0)
(-9.573353096245862e-14 0 0)
(-1.044365792317791e-13 0 0)
(-1.218426757703969e-13 0 0)
(-7.832743442383259e-14 0 0)
(-1.566548688476647e-13 0 0)
(-1.392487723090339e-13 0 0)
(-3.481219307725713e-14 0 0)
(-1.392487723090228e-13 0 0)
(-2.436853515408171e-13 0 0)
(-2.697944963487511e-13 0 0)
(-2.262792550021688e-13 0 0)
(-2.872005928874217e-13 0 0)
(-2.959036411566816e-13 0 0)
(-4.090432686577863e-13 0 0)
(-3.568249790419063e-13 0 0)
(-3.394188825032468e-13 0 0)
(-2.610914480794486e-13 0 0)
(-2.610914480794397e-13 0 0)
(-1.653579171169786e-13 0 0)
(1.740609653862992e-14 0 0)
(6.962438615451501e-14 0 0)
(3.481219307725987e-14 0 0)
(-2.610914480794205e-14 0 0)
(-1.65357917116968e-13 0 0)
(-2.697944963487627e-13 0 0)
(-2.959036411566973e-13 0 0)
(-2.349823032714982e-13 0 0)
(-3.046066894260171e-13 0 0)
(-1.566548688476457e-13 0 0)
(-8.703048269315074e-14 0 0)
(-1.740609653862871e-14 0 0)
(-3.481219307725596e-14 0 0)
(-1.566548688476638e-13 0 0)
(-1.131396275010919e-13 0 0)
(-1.044365792317766e-13 0 0)
(-7.83274344238325e-14 0 0)
(-1.044365792317688e-13 0 0)
(-1.044365792317754e-13 0 0)
(-7.83274344238368e-14 0 0)
(-7.832743442382434e-14 0 0)
(-1.392487723090358e-13 0 0)
(-5.221828961588624e-14 0 0)
(-7.832743442383183e-14 0 0)
(-6.962438615451804e-14 0 0)
(-1.740609653862685e-14 0 0)
(3.481219307726125e-14 0 0)
(-3.481219307725696e-14 0 0)
(-3.481219307725689e-14 0 0)
(-1.740609653862871e-14 0 0)
(-3.481219307725925e-14 0 0)
(9.573353096246316e-14 0 0)
(9.57335309624597e-14 0 0)
(8.703048269314307e-14 0 0)
(3.481219307725649e-14 0 0)
(6.962438615452023e-14 0 0)
(7.832743442382616e-14 0 0)
(7.832743442383312e-14 0 0)
(-8.703048269314626e-14 0 0)
(-6.092133788520214e-14 0 0)
(8.70304826931525e-15 0 0)
(3.481219307725347e-14 0 0)
(1.740609653862965e-14 0 0)
(-7.832743442383045e-14 0 0)
(3.481219307725755e-14 0 0)
(8.70304826931386e-15 0 0)
(-5.221828961588615e-14 0 0)
(-2.610914480794395e-14 0 0)
(3.481219307725898e-14 0 0)
(2.610914480794238e-14 0 0)
(-2.610914480794113e-14 0 0)
(8.703048269313288e-15 0 0)
(1.740609653862646e-14 0 0)
(9.573353096246058e-14 0 0)
(6.962438615451816e-14 0 0)
(1.218426757704081e-13 0 0)
(1.653579171169792e-13 0 0)
(1.218426757703912e-13 0 0)
(1.740609653862945e-14 0 0)
(-7.832743442383005e-14 0 0)
(-7.832743442382855e-14 0 0)
(-1.392487723090396e-13 0 0)
(-7.832743442383274e-14 0 0)
(-1.305457240397208e-13 0 0)
(-2.610914480794647e-14 0 0)
(3.481219307725677e-14 0 0)
(5.22182896158844e-14 0 0)
(-1.740609653863188e-14 0 0)
(-2.610914480794222e-14 0 0)
(-7.832743442383201e-14 0 0)
(-1.131396275010909e-13 0 0)
(-1.044365792317777e-13 0 0)
(-1.218426757704117e-13 0 0)
(-2.697944963487216e-13 0 0)
(-1.740609653863099e-13 0 0)
(-5.221828961588285e-14 0 0)
(-6.96243861545158e-14 0 0)
(2.610914480794517e-14 0 0)
(4.351524134657287e-14 0 0)
(-5.221828961588799e-14 0 0)
(-3.481219307725724e-14 0 0)
(-4.351524134657038e-14 0 0)
(-1.392487723090253e-13 0 0)
(-1.653579171169927e-13 0 0)
(-9.573353096244883e-14 0 0)
(-4.351524134657222e-14 0 0)
(-6.962438615451794e-14 0 0)
(-8.703048269315451e-15 0 0)
(-1.131396275010903e-13 0 0)
(8.703048269313265e-15 0 0)
(8.703048269315639e-14 0 0)
(1.74060965386284e-13 0 0)
(8.703048269314311e-14 0 0)
(7.832743442383334e-14 0 0)
(-8.773390712300174e-28 0 0)
(8.703048269314559e-14 0 0)
(2.088731584635522e-13 0 0)
(7.832743442382914e-14 0 0)
(7.832743442382434e-14 0 0)
(8.70304826931538e-14 0 0)
(-8.703048269314106e-15 0 0)
(-7.832743442383517e-14 0 0)
(-1.740609653862936e-14 0 0)
(4.351524134657038e-14 0 0)
(-6.009965884416768e-28 0 0)
(3.481219307725775e-14 0 0)
(-2.610914480794491e-14 0 0)
(-7.729859658412473e-28 0 0)
(-8.703048269314989e-14 0 0)
(-1.566548688476627e-13 0 0)
(-1.65357917116975e-13 0 0)
(-2.088731584635568e-13 0 0)
(-7.832743442383453e-14 0 0)
(-4.351524134657287e-14 0 0)
(1.392487723090087e-13 0 0)
(1.740609653862983e-13 0 0)
(1.740609653862933e-13 0 0)
(1.044365792317951e-13 0 0)
(1.305457240397172e-13 0 0)
(9.573353096246609e-14 0 0)
(6.96243861545048e-14 0 0)
(1.392487723090343e-13 0 0)
(1.827640136556102e-13 0 0)
(2.349823032715049e-13 0 0)
(2.001701101942369e-13 0 0)
(2.175762067328621e-13 0 0)
(1.56654868847666e-13 0 0)
(2.001701101942031e-13 0 0)
(1.740609653862962e-13 0 0)
(2.262792550021898e-13 0 0)
(1.479518205783565e-13 0 0)
(-2.610914480794355e-14 0 0)
(6.962438615451641e-14 0 0)
(7.942430799020631e-28 0 0)
(1.13139627501091e-13 0 0)
(4.351524134657177e-14 0 0)
(3.481219307725413e-14 0 0)
(-8.703048269314961e-14 0 0)
(-1.914670619249183e-13 0 0)
(-1.566548688476658e-13 0 0)
(-2.262792550021876e-13 0 0)
(-1.131396275010912e-13 0 0)
(-8.703048269314735e-14 0 0)
(-1.305457240396949e-13 0 0)
(-5.221828961589101e-14 0 0)
(-2.61091448079442e-14 0 0)
(6.092133788520572e-14 0 0)
(8.703048269312331e-15 0 0)
(8.703048269315203e-15 0 0)
(-1.305457240397219e-13 0 0)
(-5.221828961588816e-14 0 0)
(-4.35152413465776e-14 0 0)
(-7.832743442381971e-14 0 0)
(-1.131396275010923e-13 0 0)
(-6.092133788520333e-14 0 0)
(-9.573353096246774e-14 0 0)
(-1.566548688476637e-13 0 0)
(-1.044365792317768e-13 0 0)
(-5.221828961588952e-14 0 0)
(6.962438615450651e-14 0 0)
(2.175762067328679e-13 0 0)
(2.697944963487578e-13 0 0)
(3.133097376953317e-13 0 0)
(2.349823032714961e-13 0 0)
(2.262792550021828e-13 0 0)
(1.566548688476676e-13 0 0)
(1.479518205783559e-13 0 0)
(1.392487723090347e-13 0 0)
(1.305457240396955e-13 0 0)
(1.044365792317808e-13 0 0)
(1.044365792317738e-13 0 0)
(9.573353096246016e-14 0 0)
(1.740609653862926e-13 0 0)
(2.872005928873779e-13 0 0)
(9.573353096246368e-14 0 0)
(1.827640136555801e-13 0 0)
(2.349823032714999e-13 0 0)
(1.305457240397197e-13 0 0)
(-8.703048269313931e-15 0 0)
(-6.962438615451704e-14 0 0)
(-9.573353096245878e-14 0 0)
(-6.962438615452103e-14 0 0)
(1.740609653862887e-14 0 0)
(4.351524134657346e-14 0 0)
(1.479518205783254e-13 0 0)
(1.218426757704046e-13 0 0)
(1.044365792317737e-13 0 0)
(5.22182896158881e-14 0 0)
(8.703048269315949e-15 0 0)
(9.573353096246421e-14 0 0)
(2.610914480794436e-14 0 0)
(8.703048269313382e-14 0 0)
(1.131396275010933e-13 0 0)
(1.218426757704057e-13 0 0)
(5.221828961588897e-14 0 0)
(8.703048269315586e-15 0 0)
(-8.703048269314551e-14 0 0)
(-1.827640136556121e-13 0 0)
(-7.83274344238317e-14 0 0)
(-8.703048269314884e-14 0 0)
(6.962438615450499e-14 0 0)
(1.131396275010931e-13 0 0)
(1.044365792317777e-13 0 0)
(9.573353096246215e-14 0 0)
(1.392487723090365e-13 0 0)
(1.218426757704069e-13 0 0)
(2.610914480794581e-14 0 0)
(7.832743442382356e-14 0 0)
(-1.740609653862935e-13 0 0)
(-2.001701101942399e-13 0 0)
(-2.088731584635536e-13 0 0)
(-2.001701101942199e-13 0 0)
(-2.175762067328686e-13 0 0)
(-1.4795182057835e-13 0 0)
(-8.703048269314943e-14 0 0)
(-6.962438615450818e-14 0 0)
(-8.703048269314367e-15 0 0)
(-2.610914480794365e-14 0 0)
(3.481219307725951e-14 0 0)
(4.351524134656845e-14 0 0)
(-8.703048269315679e-15 0 0)
(-4.351524134657561e-14 0 0)
(-6.09213378852023e-14 0 0)
(-4.351524134657358e-14 0 0)
(-7.832743442382971e-14 0 0)
(1.827640136556112e-13 0 0)
(3.04606689426018e-13 0 0)
(4.438554617350145e-13 0 0)
(5.047767996202552e-13 0 0)
(6.179164271213482e-13 0 0)
(5.569950892361443e-13 0 0)
(2.436853515408088e-13 0 0)
(1.305457240397063e-13 0 0)
(-2.610914480794422e-14 0 0)
(8.703048269315047e-14 0 0)
(-1.043531053885823e-28 0 0)
(-5.221828961588603e-14 0 0)
(-1.392487723090322e-13 0 0)
(-2.001701101942392e-13 0 0)
(-1.392487723090375e-13 0 0)
(-1.479518205783372e-13 0 0)
(-1.21842675770406e-13 0 0)
(-2.523883998101265e-13 0 0)
(-1.566548688476648e-13 0 0)
(-2.523883998101023e-13 0 0)
(-2.262792550021817e-13 0 0)
(-1.827640136556077e-13 0 0)
(-1.305457240397265e-13 0 0)
(-1.653579171169649e-13 0 0)
(-2.349823032714901e-13 0 0)
(-2.175762067328747e-13 0 0)
(-3.742310755805233e-13 0 0)
(-2.959036411566744e-13 0 0)
(-2.697944963487549e-13 0 0)
(-3.655280273112208e-13 0 0)
(-3.046066894260163e-13 0 0)
(-1.479518205783491e-13 0 0)
(2.610914480794361e-14 0 0)
(1.392487723090331e-13 0 0)
(1.653579171169861e-13 0 0)
(1.044365792317744e-13 0 0)
(1.479518205783377e-13 0 0)
(7.832743442383353e-14 0 0)
(8.703048269314274e-15 0 0)
(5.221828961588844e-14 0 0)
(8.703048269313906e-14 0 0)
(-1.740609653863072e-14 0 0)
(2.610914480794387e-14 0 0)
(1.044365792317755e-13 0 0)
(3.481219307725624e-14 0 0)
(1.131396275010906e-13 0 0)
(1.044365792317764e-13 0 0)
(1.218426757704061e-13 0 0)
(6.962438615451416e-14 0 0)
(7.333704350919814e-28 0 0)
(8.703048269314897e-15 0 0)
(-6.09213378852029e-14 0 0)
(-8.703048269314501e-15 0 0)
(-5.221828961588663e-14 0 0)
(-9.573353096246236e-14 0 0)
(-5.22182896158885e-14 0 0)
(-1.740609653862911e-14 0 0)
(-3.48121930772565e-14 0 0)
(-5.221828961588863e-14 0 0)
(6.09213378852043e-14 0 0)
(2.610914480794351e-14 0 0)
(1.044365792317671e-13 0 0)
(1.305457240397245e-13 0 0)
(1.131396275010911e-13 0 0)
(2.610914480794279e-14 0 0)
(1.305457240397045e-13 0 0)
(1.305457240397245e-13 0 0)
(9.573353096246167e-14 0 0)
(1.827640136556077e-13 0 0)
(1.479518205783399e-13 0 0)
(3.046066894260081e-13 0 0)
(3.742310755805346e-13 0 0)
(3.220127859646564e-13 0 0)
(2.784975446180449e-13 0 0)
(3.307158342339501e-13 0 0)
(3.916371721191629e-13 0 0)
(2.436853515408055e-13 0 0)
(2.610914480794334e-13 0 0)
(2.436853515408116e-13 0 0)
(1.740609653862872e-13 0 0)
)
;

boundaryField
{
    inlet
    {
        type            zeroGradient;
    }
    outlet
    {
        type            velocityOutletNSCBCx;
        pInf            101325;
        gamma           1.4;
        etaAc           1;
        fieldInf        (-1 0 0);
        lInf            2.25;
        value           uniform (1.986754705041772e-13 0 0);
    }
    frontAndBack
    {
        type            empty;
    }
}


// ************************************************************************* //
