/*--------------------------------*- C++ -*----------------------------------*\
| =========                 |                                                 |
| \\      /  F ield         | OpenFOAM: The Open Source CFD Toolbox           |
|  \\    /   O peration     | Version:  v2012                                 |
|   \\  /    A nd           | Website:  www.openfoam.com                      |
|    \\/     M anipulation  |                                                 |
\*---------------------------------------------------------------------------*/
FoamFile
{
    version     2.0;
    format      ascii;
    class       volVectorField;
    location    "0.0005";
    object      UMean;
}
// * * * * * * * * * * * * * * * * * * * * * * * * * * * * * * * * * * * * * //

dimensions      [0 1 -1 0 0 0 0];


internalField   nonuniform List<vector> 
1000
(
(0.02634248583028756 0 0)
(0.0253334759304348 0 0)
(0.02518718186342043 0 0)
(0.02441161774083957 0 0)
(0.02355727048380139 0 0)
(0.02243698016497511 0 0)
(0.02116603756469267 0 0)
(0.01973007766814286 0 0)
(0.0181731608612986 0 0)
(0.01650243027465204 0 0)
(0.01478516514926325 0 0)
(0.01305438862296317 0 0)
(0.01133516121667525 0 0)
(0.009635300103837525 0 0)
(0.007986214758014847 0 0)
(0.006419656702238913 0 0)
(0.004972319861398267 0 0)
(0.00367167484356312 0 0)
(0.002543796573737499 0 0)
(0.00160620627607729 0 0)
(0.0008771398695931766 0 0)
(0.0003681547188458776 0 0)
(9.057698324991593e-05 0 0)
(4.89283429085217e-05 0 0)
(0.0002455463725451303 0 0)
(0.0006758113734968965 0 0)
(0.001332276438031301 0 0)
(0.002201942019321283 0 0)
(0.003272308995718463 0 0)
(0.004529391096956746 0 0)
(0.005960357609395456 0 0)
(0.007538117863032535 0 0)
(0.009208325033349297 0 0)
(0.01090560476068797 0 0)
(0.01260361635369819 0 0)
(0.01429446198538983 0 0)
(0.01597070162616138 0 0)
(0.01760721976375415 0 0)
(0.01918105518447207 0 0)
(0.02065316880474631 0 0)
(0.02199381147201078 0 0)
(0.02316607780265047 0 0)
(0.02414957542045239 0 0)
(0.02492058134973609 0 0)
(0.02547158338751167 0 0)
(0.02578946715549855 0 0)
(0.02587506691123269 0 0)
(0.02572259114182811 0 0)
(0.02533993405645802 0 0)
(0.02472839046411191 0 0)
(0.02390150879263889 0 0)
(0.02286368847445791 0 0)
(0.0216288831171924 0 0)
(0.02020674267579882 0 0)
(0.01863671985965315 0 0)
(0.01698071445778603 0 0)
(0.01530612303462403 0 0)
(0.01362989273716739 0 0)
(0.01195956995854079 0 0)
(0.01030324755791809 0 0)
(0.008678017039796955 0 0)
(0.007107919131649833 0 0)
(0.005623504354578457 0 0)
(0.004259274761304143 0 0)
(0.003050179162242254 0 0)
(0.002027625654086617 0 0)
(0.001215597756960721 0 0)
(0.0006266260783349554 0 0)
(0.000255906909451539 0 0)
(7.189813062367668e-05 0 0)
(1.104188737932919e-05 0 0)
(6.669881651724693e-07 0 0)
(1.064993980161785e-08 0 0)
(2.978125431794235e-11 0 0)
(-3.817302439739866e-14 0 0)
(-3.995376338045713e-14 0 0)
(-3.072401766544912e-14 0 0)
(-2.395219336367455e-14 0 0)
(-1.597648918603375e-14 0 0)
(-1.936240133691973e-14 0 0)
(-1.176290962048621e-14 0 0)
(-1.101048469806633e-14 0 0)
(-9.355149868744624e-15 0 0)
(-2.304928345677347e-14 0 0)
(-6.169884363836852e-15 0 0)
(8.552563284829744e-15 0 0)
(-1.878554222973233e-14 0 0)
(-2.044087705905277e-14 0 0)
(-3.383404067811509e-14 0 0)
(-2.362614256395899e-14 0 0)
(-1.188831377422242e-14 0 0)
(-9.957089806679963e-15 0 0)
(-1.504849844838237e-15 0 0)
(-1.529930675585225e-15 0 0)
(3.135103843413028e-15 0 0)
(1.201371792795885e-14 0 0)
(5.22684512773829e-14 0 0)
(-6.187440945359299e-14 0 0)
(1.660350995471683e-14 0 0)
(2.187048441164959e-14 0 0)
(3.910101513504763e-14 0 0)
(2.161967610417648e-14 0 0)
(3.037288603498504e-14 0 0)
(5.896503308691613e-14 0 0)
(1.790771315357277e-14 0 0)
(5.999334714755082e-14 0 0)
(-6.591242320391449e-14 0 0)
(-1.750641986161936e-14 0 0)
(-1.931223967542505e-14 0 0)
(-6.094641871595739e-15 0 0)
(-1.359381026504026e-14 0 0)
(-2.307436428751874e-14 0 0)
(2.508083074678828e-17 0 0)
(8.627805777071932e-15 0 0)
(7.584443217984945e-14 0 0)
(-1.316743614233511e-14 0 0)
(-1.835916810702639e-14 0 0)
(7.09787510148789e-15 0 0)
(3.621671959910678e-14 0 0)
(2.164475693492514e-14 0 0)
(-7.449006731947902e-15 0 0)
(4.073126913362485e-14 0 0)
(-8.191399322069316e-14 0 0)
(-2.849182372893876e-14 0 0)
(-3.293113077120986e-14 0 0)
(-3.087450264993143e-14 0 0)
(-8.25159331586304e-15 0 0)
(2.247242434958354e-14 0 0)
(2.03907153975588e-14 0 0)
(-1.492309429464522e-14 0 0)
(1.208896042020004e-14 0 0)
(-9.861782649839803e-14 0 0)
(-2.879279369790583e-14 0 0)
(-2.54821240392621e-14 0 0)
(1.033330226788886e-14 0 0)
(1.379445691101521e-15 0 0)
(-2.63348722846666e-14 0 0)
(-4.685099183596642e-14 0 0)
(-2.427824416338946e-14 0 0)
(5.236877460037251e-14 0 0)
(-7.850300023905398e-15 0 0)
(4.757833592763551e-14 0 0)
(4.554678863710774e-14 0 0)
(5.899011391765981e-14 0 0)
(6.508475578925811e-14 0 0)
(3.458646560053087e-14 0 0)
(7.872872771578976e-14 0 0)
(-2.781464129875878e-14 0 0)
(6.867131458612124e-14 0 0)
(-1.013265562191124e-14 0 0)
(2.294896013378315e-14 0 0)
(-5.2368774600372e-14 0 0)
(-3.772156944394254e-14 0 0)
(-7.642129128703693e-14 0 0)
(-2.324993010275126e-14 0 0)
(-5.690840496563645e-14 0 0)
(-9.844226068316742e-14 0 0)
(-5.299579536905507e-14 0 0)
(-4.306378639312204e-14 0 0)
(-5.031214647909165e-14 0 0)
(-2.663584225363943e-14 0 0)
(-4.592300109830892e-14 0 0)
(-3.784697359768304e-14 0 0)
(2.984618858928948e-15 0 0)
(7.265916667494381e-14 0 0)
(-5.981778133232055e-14 0 0)
(-1.542471090959176e-14 0 0)
(-3.807270107440866e-14 0 0)
(-2.839150040594609e-14 0 0)
(4.890761995725097e-15 0 0)
(1.249025371215645e-14 0 0)
(4.715196180493753e-15 0 0)
(4.690115349744947e-15 0 0)
(2.911884449762251e-14 0 0)
(-1.40001197231445e-13 0 0)
(-8.680475521642498e-14 0 0)
(-9.242286130381576e-14 0 0)
(-8.667935106268262e-14 0 0)
(-6.074577206996814e-14 0 0)
(-5.447556438314855e-14 0 0)
(-2.307436428752065e-14 0 0)
(-1.569809196473714e-13 0 0)
(-5.169159217019785e-14 0 0)
(-1.110077568875665e-13 0 0)
(-1.409542687998544e-14 0 0)
(-6.413168422086194e-14 0 0)
(-7.875380854652847e-15 0 0)
(-1.083491888283689e-14 0 0)
(4.499501036065853e-14 0 0)
(-8.670443189343832e-14 0 0)
(5.618106087395873e-15 0 0)
(9.831685652943938e-15 0 0)
(1.718036906190343e-14 0 0)
(3.611639627611362e-15 0 0)
(3.145136175711885e-14 0 0)
(3.586558796864766e-14 0 0)
(1.140174565772391e-13 0 0)
(-3.737043781348208e-14 0 0)
(7.900461685400886e-14 0 0)
(-8.562595617129945e-14 0 0)
(3.937690427326656e-15 0 0)
(-4.343999885433273e-14 0 0)
(-1.484785180240267e-14 0 0)
(8.251593315863942e-15 0 0)
(2.861722788267281e-14 0 0)
(3.268032246373774e-14 0 0)
(2.447889080936965e-14 0 0)
(9.879339231363032e-14 0 0)
(-3.212854418729664e-14 0 0)
(3.436073812380608e-14 0 0)
(5.056295478656869e-14 0 0)
(7.925542516147121e-15 0 0)
(-2.628471062317684e-14 0 0)
(-2.136886779670243e-14 0 0)
(-2.224669687285878e-14 0 0)
(-1.128637383628635e-14 0 0)
(3.135103843413044e-14 0 0)
(-5.319644201503452e-14 0 0)
(-2.17199994271644e-14 0 0)
(-1.610189333976866e-14 0 0)
(-8.552563284829646e-15 0 0)
(-2.056628121278405e-15 0 0)
(-1.710512656966128e-14 0 0)
(-1.003233229892104e-14 0 0)
(2.533163905478321e-15 0 0)
(3.546429467668797e-14 0 0)
(8.050946669885687e-15 0 0)
(-4.163417904051544e-15 0 0)
(1.497325595614094e-14 0 0)
(4.105731993333396e-14 0 0)
(5.655727333517327e-14 0 0)
(6.859607209387247e-14 0 0)
(3.350798987839928e-14 0 0)
(1.148702048226428e-14 0 0)
(1.755658152311232e-14 0 0)
(-1.063427223685852e-14 0 0)
(-2.16698377656696e-14 0 0)
(1.276614285037847e-14 0 0)
(1.652826746247275e-14 0 0)
(3.922641928878439e-14 0 0)
(6.603782735765023e-14 0 0)
(1.648061388405316e-13 0 0)
(1.996434127485499e-14 0 0)
(8.306771143506948e-14 0 0)
(8.991477822908476e-14 0 0)
(8.213972069742171e-14 0 0)
(6.478378582029016e-14 0 0)
(4.454355540720842e-14 0 0)
(4.507025285290519e-14 0 0)
(3.661801289106698e-14 0 0)
(5.251925958485648e-14 0 0)
(-1.311727448083994e-14 0 0)
(6.771824301771795e-15 0 0)
(-2.766415631427774e-14 0 0)
(-2.104281699698765e-14 0 0)
(-1.963829047513884e-14 0 0)
(2.212129271912199e-14 0 0)
(4.088175411810698e-14 0 0)
(2.799020711399252e-14 0 0)
(3.230411000252663e-14 0 0)
(2.327501093349887e-14 0 0)
(2.001450293634796e-14 0 0)
(6.445773502057495e-15 0 0)
(2.495542659356573e-14 0 0)
(5.432507939866206e-14 0 0)
(3.674341704480082e-14 0 0)
(7.559362387237408e-14 0 0)
(-7.263408584419606e-14 0 0)
(-3.729519532123808e-14 0 0)
(-2.64351956076604e-14 0 0)
(-1.557519589407563e-14 0 0)
(-2.134378696595602e-14 0 0)
(-1.692956075442915e-14 0 0)
(-2.156951444268028e-15 0 0)
(-6.395611840562369e-15 0 0)
(3.882512599682641e-14 0 0)
(-2.595865982345899e-14 0 0)
(-2.039071539755776e-14 0 0)
(-2.894327868238982e-14 0 0)
(-6.671500978781718e-15 0 0)
(2.661076142289077e-14 0 0)
(1.34684061113039e-14 0 0)
(-8.301754977357377e-15 0 0)
(-1.492309429464503e-14 0 0)
(-2.703713554559477e-14 0 0)
(-3.165200840309643e-14 0 0)
(-5.161634967795327e-14 0 0)
(-3.398452566259506e-14 0 0)
(2.738826717605874e-14 0 0)
(4.883237746499871e-14 0 0)
(3.626688126060291e-14 0 0)
(1.109826760568186e-13 0 0)
(-3.278064578672699e-14 0 0)
(6.069561040847473e-14 0 0)
(1.91617546909409e-14 0 0)
(3.192789754131439e-14 0 0)
(-5.354757364550036e-14 0 0)
(-2.518115407029189e-14 0 0)
(-8.071011334482912e-14 0 0)
(-5.472637269061644e-14 0 0)
(-1.34182444498088e-14 0 0)
(-2.159459527342685e-14 0 0)
(-1.68793990929375e-14 0 0)
(-1.818360229179402e-14 0 0)
(-1.397002272624964e-14 0 0)
(1.339316361905916e-14 0 0)
(4.060586497988933e-14 0 0)
(6.375547175964516e-14 0 0)
(2.949505695883033e-14 0 0)
(8.753209930809071e-14 0 0)
(-2.189556524239788e-14 0 0)
(2.994651191227904e-14 0 0)
(3.34578282169062e-14 0 0)
(5.372313946072153e-14 0 0)
(6.192457111509629e-14 0 0)
(5.7083970780864e-14 0 0)
(5.159126884720415e-14 0 0)
(5.823768899523845e-14 0 0)
(7.840267691607984e-14 0 0)
(9.829177569867529e-14 0 0)
(8.519958204859987e-14 0 0)
(8.851025170722962e-14 0 0)
(1.235732530919762e-13 0 0)
(8.652886607819172e-14 0 0)
(5.475145352136787e-14 0 0)
(1.070449856294898e-13 0 0)
(7.975704177642975e-15 0 0)
(7.351191492034215e-14 0 0)
(3.553953716893069e-14 0 0)
(2.385187004068418e-14 0 0)
(5.302087619980151e-14 0 0)
(8.785815010780502e-14 0 0)
(8.660410857044464e-14 0 0)
(7.6346048794791e-14 0 0)
(8.161302325173076e-14 0 0)
(4.45184745764641e-14 0 0)
(8.073519417557336e-14 0 0)
(1.048629533544774e-13 0 0)
(8.993985905983693e-14 0 0)
(8.429667214168527e-14 0 0)
(4.301362473162878e-14 0 0)
(7.990752676090843e-14 0 0)
(-2.001450293634899e-14 0 0)
(3.829842855113482e-14 0 0)
(4.429274709974024e-14 0 0)
(4.346507968507699e-14 0 0)
(1.213912208169529e-14 0 0)
(-2.605898314645014e-14 0 0)
(-2.059136204353581e-14 0 0)
(-5.231861293887633e-14 0 0)
(-7.647145294853401e-14 0 0)
(-8.178858906695934e-14 0 0)
(-7.950623346895577e-15 0 0)
(-1.291161166871141e-13 0 0)
(-8.424651048019794e-14 0 0)
(-1.079980571978934e-13 0 0)
(-1.036089118171075e-13 0 0)
(-7.351191492035038e-14 0 0)
(-8.151269992874154e-15 0 0)
(-2.583325566972625e-15 0 0)
(-2.335025342573984e-14 0 0)
(4.873205414200962e-14 0 0)
(-7.674734208674813e-15 0 0)
(2.159459527342975e-14 0 0)
(4.875713497276042e-14 0 0)
(3.942706593476233e-14 0 0)
(-5.016166149422205e-17 0 0)
(-2.625962979242837e-14 0 0)
(-2.92693294821037e-14 0 0)
(6.270207686822739e-16 0 0)
(-1.524914509436215e-14 0 0)
(-3.669325538330626e-14 0 0)
(-5.969237717858591e-15 0 0)
(3.69942253522728e-14 0 0)
(1.672891410845199e-14 0 0)
(5.467621102911421e-15 0 0)
(-1.50484984484698e-16 0 0)
(7.388812738155245e-14 0 0)
(-4.00540867034456e-14 0 0)
(-1.35938102650405e-14 0 0)
(-3.222886751028496e-14 0 0)
(-4.715196180494328e-15 0 0)
(-1.68543182621904e-14 0 0)
(-3.059861351171136e-15 0 0)
(-3.385912150886655e-15 0 0)
(-1.437131601820482e-14 0 0)
(2.959538028181964e-14 0 0)
(-1.883570389122526e-14 0 0)
(-1.060919140610815e-14 0 0)
(-4.507025285290456e-14 0 0)
(-7.306045996689937e-14 0 0)
(-5.056295478656448e-14 0 0)
(-2.856706622118029e-14 0 0)
(-1.261565786589287e-14 0 0)
(-8.778290761556665e-15 0 0)
(1.459704349493149e-14 0 0)
(-1.908651219869717e-14 0 0)
(3.912609596579392e-15 0 0)
(-2.222161604211173e-14 0 0)
(-2.264799016481675e-14 0 0)
(-4.323935220835431e-14 0 0)
(-1.720544989264923e-14 0 0)
(4.858156915752743e-14 0 0)
(-3.275556495598078e-14 0 0)
(-3.084942181918078e-15 0 0)
(8.878614084545785e-15 0 0)
(2.342549591798374e-14 0 0)
(-2.415284000965388e-14 0 0)
(2.189556524239586e-14 0 0)
(6.057020625474155e-14 0 0)
(8.439699546467824e-14 0 0)
(8.183875072845537e-14 0 0)
(9.264858878053363e-14 0 0)
(1.349850310820072e-13 0 0)
(1.071453089524755e-13 0 0)
(1.605925592749885e-13 0 0)
(1.179300661738242e-13 0 0)
(9.633547090040015e-14 0 0)
(1.208143617097602e-13 0 0)
(1.17453530389626e-13 0 0)
(1.485537605162778e-13 0 0)
(1.287649850566669e-13 0 0)
(1.408288646461095e-13 0 0)
(9.651103671562502e-14 0 0)
(4.775390174286639e-14 0 0)
(2.901852117463194e-14 0 0)
(3.890036848906642e-14 0 0)
(-2.884295535940515e-15 0 0)
(-4.607348608279678e-14 0 0)
(-3.473695058502005e-14 0 0)
(-6.194965194584266e-15 0 0)
(4.236152313219663e-14 0 0)
(6.819477880191973e-14 0 0)
(3.920133845803615e-14 0 0)
(-1.708004573891425e-14 0 0)
(-1.592632752453774e-14 0 0)
(6.596258486540716e-14 0 0)
(-4.128304741006682e-14 0 0)
(6.021907462427529e-14 0 0)
(-2.871755120566222e-14 0 0)
(2.934457197434643e-14 0 0)
(-7.273440916711894e-16 0 0)
(3.405976815483963e-14 0 0)
(-9.530715683974977e-15 0 0)
(-5.374822029146933e-14 0 0)
(-6.726678806427428e-14 0 0)
(-6.774332384846533e-14 0 0)
(-7.283473249017095e-14 0 0)
(-9.136946641242431e-14 0 0)
(-8.382013635749406e-14 0 0)
(-5.733477908833609e-14 0 0)
(-7.072794270739656e-14 0 0)
(-9.984678720501261e-14 0 0)
(-9.839209902168171e-14 0 0)
(-8.412110632645459e-14 0 0)
(-1.231468789692582e-13 0 0)
(-4.695131515895321e-14 0 0)
(-9.904420062110759e-14 0 0)
(-1.103054936266428e-13 0 0)
(-1.25303830413528e-13 0 0)
(-8.437191463392781e-14 0 0)
(-7.095367018412874e-14 0 0)
(-5.093916724777316e-14 0 0)
(-5.184207715467759e-14 0 0)
(-4.948447906443082e-14 0 0)
(-8.003293091464931e-14 0 0)
(-9.407819613313697e-14 0 0)
(-1.128888191936153e-13 0 0)
(-1.199866942951126e-13 0 0)
(-1.073710364292117e-13 0 0)
(-8.630313860146816e-14 0 0)
(-6.661468646484186e-14 0 0)
(-8.953856576787822e-14 0 0)
(-8.482336958737701e-14 0 0)
(-7.408877402753779e-14 0 0)
(-5.906535640990295e-14 0 0)
(-5.648203084293035e-14 0 0)
(-3.543921384594159e-14 0 0)
(-2.75136713297911e-14 0 0)
(-3.049829018872279e-14 0 0)
(-6.15734394846333e-14 0 0)
(-5.387362444520591e-14 0 0)
(-1.730577321564066e-14 0 0)
(-2.821593459071778e-14 0 0)
(-4.424258543824516e-14 0 0)
(-1.871029973748962e-14 0 0)
(-8.025865839136871e-15 0 0)
(9.781523991448482e-15 0 0)
(-1.208896042020116e-14 0 0)
(-9.555796514722778e-15 0 0)
(1.203879875870605e-14 0 0)
(4.765357841987833e-15 0 0)
(-1.615205500126384e-14 0 0)
(1.627745915500088e-14 0 0)
(-1.078475722133459e-15 0 0)
(3.335750489392042e-15 0 0)
(3.686882119854024e-15 0 0)
(7.248360085970583e-15 0 0)
(3.536397135369624e-15 0 0)
(-4.559695029859991e-14 0 0)
(-3.920133845803714e-14 0 0)
(-4.032997584166587e-14 0 0)
(-1.953796715214867e-14 0 0)
(-1.394494189550152e-14 0 0)
(-2.114314031997835e-14 0 0)
(-1.29166278348611e-14 0 0)
(-1.316743614233494e-14 0 0)
(1.279122368112528e-14 0 0)
(4.582267777532592e-14 0 0)
(6.295288517573505e-14 0 0)
(5.061311644805691e-14 0 0)
(3.270540329448587e-14 0 0)
(1.093524220582561e-14 0 0)
(6.094641871594903e-15 0 0)
(-9.029099069022065e-16 0 0)
(1.86099764145006e-14 0 0)
(4.690115349746344e-15 0 0)
(-4.213579565546634e-15 0 0)
(1.647810580097795e-14 0 0)
(4.619889023653586e-14 0 0)
(5.191731964692211e-15 0 0)
(-1.121113134404406e-14 0 0)
(6.295288517573299e-15 0 0)
(3.092466431142668e-14 0 0)
(3.885020682757483e-14 0 0)
(2.668600391513176e-14 0 0)
(3.546429467668548e-14 0 0)
(3.724503365974773e-14 0 0)
(3.200314003356077e-14 0 0)
(4.735260845090702e-14 0 0)
(4.374096882329946e-14 0 0)
(4.068110747212825e-14 0 0)
(3.478711224651141e-14 0 0)
(2.698697388409977e-14 0 0)
(2.618438730018392e-14 0 0)
(3.589066879939311e-14 0 0)
(3.995376338045657e-14 0 0)
(3.037288603498356e-14 0 0)
(5.608073755097351e-14 0 0)
(7.53177347341556e-14 0 0)
(6.463330083580604e-14 0 0)
(4.040521833390657e-14 0 0)
(2.859214705192428e-14 0 0)
(4.910826660322394e-14 0 0)
(2.46293757938539e-14 0 0)
(6.892212289358656e-14 0 0)
(1.03659073478608e-13 0 0)
(7.358715741259346e-14 0 0)
(5.149094552421549e-14 0 0)
(5.424983690642068e-14 0 0)
(4.549662697560567e-14 0 0)
(6.187440945360247e-14 0 0)
(3.468678892352226e-14 0 0)
(5.96171346863396e-14 0 0)
(5.322152284577949e-14 0 0)
(4.045537999540378e-14 0 0)
(4.093191577960033e-14 0 0)
(8.527482454083857e-15 0 0)
(-1.231468789692497e-14 0 0)
(-2.116822115072537e-14 0 0)
(8.552563284830288e-15 0 0)
(2.989635025078544e-14 0 0)
(9.768983576076453e-14 0 0)
(5.886470976392057e-14 0 0)
(9.864290732914806e-14 0 0)
(1.067440156605279e-13 0 0)
(1.0616715655333e-13 0 0)
(1.041857709243056e-13 0 0)
(7.617048297956237e-14 0 0)
(5.921584139438783e-14 0 0)
(5.751034490356819e-14 0 0)
(9.909436228259492e-14 0 0)
(7.619556381030981e-14 0 0)
(8.926267662965976e-14 0 0)
(7.210738839849363e-14 0 0)
(5.921584139438802e-14 0 0)
(7.554346221087995e-14 0 0)
(7.742452451693117e-14 0 0)
(1.166760246364597e-13 0 0)
(1.051639233234366e-13 0 0)
(1.380699732639163e-13 0 0)
(1.213159783247135e-13 0 0)
(1.152965789453515e-13 0 0)
(8.908711081442453e-14 0 0)
(5.256942124635149e-14 0 0)
(5.633154585844519e-14 0 0)
(3.822318605889354e-14 0 0)
(4.938415574143874e-14 0 0)
(-2.400235502517023e-14 0 0)
(-4.389145380778057e-15 0 0)
(-1.74562582001226e-14 0 0)
(-4.587283943681968e-14 0 0)
(-6.418184588235478e-14 0 0)
(-2.337533425648772e-14 0 0)
(-2.972078443555701e-14 0 0)
(-2.182032275015316e-14 0 0)
(2.766415631427717e-14 0 0)
(-3.140120009562481e-14 0 0)
(3.167708923384287e-14 0 0)
(4.489468703767631e-14 0 0)
(3.987852088821514e-14 0 0)
(4.499501036066351e-14 0 0)
(2.259782850332173e-14 0 0)
(4.843108417303867e-14 0 0)
(4.74027701124053e-15 0 0)
(4.231136147070286e-14 0 0)
(8.173842740545742e-14 0 0)
(5.698364745787775e-14 0 0)
(1.447163934119406e-14 0 0)
(2.204605022688097e-14 0 0)
(3.335750489391412e-14 0 0)
(2.849182372893649e-14 0 0)
(4.770374008137436e-14 0 0)
(-3.034780520422931e-15 0 0)
(4.800471005033785e-14 0 0)
(1.191339460497115e-14 0 0)
(1.156226297450781e-14 0 0)
(-4.01293291956818e-15 0 0)
(-5.610581838171909e-14 0 0)
(-2.091741284325012e-14 0 0)
(-4.053062248764504e-14 0 0)
(-2.896835951313623e-14 0 0)
(-1.354866476969292e-13 0 0)
(-5.414951358342987e-14 0 0)
(-6.465838166655229e-14 0 0)
(-9.761459326851269e-14 0 0)
(-1.560278480789793e-13 0 0)
(-1.510116819295072e-13 0 0)
(-1.250028604445632e-13 0 0)
(-1.487293263315227e-13 0 0)
(-1.30345077393731e-13 0 0)
(-9.289939708801426e-14 0 0)
(-8.239052900489792e-14 0 0)
(-5.550387844378407e-14 0 0)
(-3.641736624508686e-14 0 0)
(-3.621671959910476e-14 0 0)
(-3.649260873732694e-14 0 0)
(6.019399379365383e-16 0 0)
(-7.298521747465127e-14 0 0)
(-3.481219307725725e-14 0 0)
(-6.894720372434225e-14 0 0)
(-1.1777958118934e-13 0 0)
(-1.387220748633443e-13 0 0)
(-1.028063252331926e-13 0 0)
(-4.637445605176634e-14 0 0)
(-4.278789725490387e-14 0 0)
(8.276674146608461e-15 0 0)
(-1.214163016477055e-13 0 0)
(-5.196748130841493e-14 0 0)
(-4.296346307013415e-14 0 0)
(-3.651768956807728e-14 0 0)
(-2.869247037491258e-14 0 0)
(-1.218928374319064e-14 0 0)
(-3.368355569362982e-14 0 0)
(-5.274498706157869e-14 0 0)
(-4.429274709974067e-14 0 0)
(7.474087562696131e-15 0 0)
(-2.269815182631145e-14 0 0)
(-5.670775831965426e-14 0 0)
(-1.637778247798896e-14 0 0)
(2.317468761050967e-14 0 0)
(1.825884478403828e-14 0 0)
(5.625630336619977e-14 0 0)
(1.138669715927746e-14 0 0)
(2.583325566972349e-14 0 0)
(-1.439639684895305e-14 0 0)
(-1.833408727627886e-14 0 0)
(-3.917625762728561e-14 0 0)
(-5.929108388663045e-14 0 0)
(-2.864230871342188e-14 0 0)
(-7.749976700916072e-15 0 0)
(5.68833241348855e-14 0 0)
(-8.607741112475256e-14 0 0)
(-2.382678920993908e-14 0 0)
(-2.97458652663042e-14 0 0)
(-2.533163905477592e-14 0 0)
(-3.962771258074058e-14 0 0)
(-6.041972127025871e-14 0 0)
(-6.287764268348802e-14 0 0)
(-6.944882033928549e-14 0 0)
(-3.042304769647968e-14 0 0)
(-1.838424893777389e-14 0 0)
(-2.610914480794422e-14 0 0)
(-1.750641986161715e-14 0 0)
(-3.009699689677162e-15 0 0)
(-4.579759694457791e-14 0 0)
(-6.849574877088532e-14 0 0)
(-7.79763027933801e-14 0 0)
(-7.699815039422091e-14 0 0)
(-9.824161403719077e-14 0 0)
(-1.042860942472937e-13 0 0)
(-7.857824273129946e-14 0 0)
(-8.43468338031878e-14 0 0)
(-1.06292560707076e-13 0 0)
(-7.945607180746097e-14 0 0)
(-6.09714995466961e-14 0 0)
(-5.613089921246472e-14 0 0)
(-4.913334743397072e-14 0 0)
(-4.569727362158731e-14 0 0)
(-7.454022898098413e-14 0 0)
(-7.624572547180751e-14 0 0)
(-1.00398565481459e-13 0 0)
(-7.311062162839255e-14 0 0)
(-5.934124554812256e-14 0 0)
(-4.354032217731583e-14 0 0)
(-6.500951329701652e-14 0 0)
(-7.559362387237427e-14 0 0)
(-5.016166149461021e-15 0 0)
(-1.068192581527707e-13 0 0)
(-4.296346307013305e-14 0 0)
(-3.365847486288279e-14 0 0)
(-2.713745886858383e-14 0 0)
(-1.685431826218779e-14 0 0)
(-2.488018410132649e-14 0 0)
(-2.909376366687514e-14 0 0)
(-3.260507997149305e-14 0 0)
(-4.012932919568693e-14 0 0)
(-2.194572690389159e-14 0 0)
(1.203879875870704e-15 0 0)
(1.738101570788215e-14 0 0)
(2.934457197434361e-14 0 0)
(3.867464101234541e-14 0 0)
(2.977094609705025e-14 0 0)
(4.491976786841977e-14 0 0)
(1.911159302944627e-14 0 0)
(4.765357841987992e-14 0 0)
(4.69763959897016e-14 0 0)
(5.703380911936922e-14 0 0)
(4.948447906442972e-14 0 0)
(7.68225845789905e-14 0 0)
(1.04411498401032e-13 0 0)
(5.547879761303219e-14 0 0)
(7.321094495138274e-14 0 0)
(-3.155168508010936e-14 0 0)
(1.381953774176412e-14 0 0)
(1.467228598717289e-14 0 0)
(1.078475722133922e-14 0 0)
(-2.034055373606529e-14 0 0)
(-4.16843407020195e-14 0 0)
(-2.034055373606301e-14 0 0)
(-1.321759780382893e-14 0 0)
(-5.843833564121172e-15 0 0)
(-1.083491888283506e-14 0 0)
(-2.538180071627185e-14 0 0)
(-3.240443332551433e-14 0 0)
(-2.575801317748028e-14 0 0)
(-4.113256242558021e-15 0 0)
(-1.444655851044566e-14 0 0)
(2.457921413235782e-14 0 0)
(-2.844166206744402e-14 0 0)
(-6.746743471025134e-15 0 0)
(1.236484955842105e-14 0 0)
(1.284138534261794e-14 0 0)
(1.730577321564071e-15 0 0)
(-1.675399493919903e-14 0 0)
(6.59625848654025e-15 0 0)
(-2.440364831712808e-14 0 0)
(3.288096910971625e-14 0 0)
(-7.280965165942414e-14 0 0)
(-6.521015994299505e-15 0 0)
(-9.806604822195186e-15 0 0)
(2.75136713297911e-14 0 0)
(2.086725118175954e-14 0 0)
(3.661801289106059e-14 0 0)
(2.069168536652635e-14 0 0)
(2.66609230843842e-14 0 0)
(3.285588827896298e-15 0 0)
(-7.022632609245861e-15 0 0)
(-5.113981389374762e-14 0 0)
(-5.261958290784999e-14 0 0)
(-1.000725146817394e-14 0 0)
(1.151210131301226e-14 0 0)
(2.131870613520756e-15 0 0)
(6.872147624761053e-15 0 0)
(-6.340434012918797e-14 0 0)
(-3.975311673447745e-14 0 0)
(-1.748133903087056e-14 0 0)
(3.210346335654007e-15 0 0)
(-1.136161632853014e-14 0 0)
(2.708729720708696e-15 0 0)
(1.254041537365212e-14 0 0)
(6.997551778497842e-15 0 0)
(3.729519532124294e-14 0 0)
(-9.254826545755304e-14 0 0)
(-1.244009205066114e-14 0 0)
(-1.504849844838268e-15 0 0)
(1.163750546674882e-14 0 0)
(3.002175440452265e-14 0 0)
(3.847399436636487e-14 0 0)
(1.750641986161912e-14 0 0)
(-4.890761995724206e-15 0 0)
(5.720937493460089e-14 0 0)
(-6.711630307978611e-14 0 0)
(3.195297837206269e-14 0 0)
(7.205722673701144e-14 0 0)
(3.185265504907315e-14 0 0)
(-2.846674289819188e-14 0 0)
(-1.78073898305908e-15 0 0)
(6.892212289359028e-14 0 0)
(-6.094641871596085e-15 0 0)
(9.289939708801556e-14 0 0)
(5.392378610669887e-15 0 0)
(6.591242320390558e-14 0 0)
(5.043755063283014e-14 0 0)
(3.676849787554827e-14 0 0)
(4.707671931268965e-14 0 0)
(2.437856748638069e-14 0 0)
(6.887196123209986e-14 0 0)
(-5.866406311794557e-14 0 0)
(1.544979174033699e-14 0 0)
(2.68364888996212e-15 0 0)
(-1.050886808312025e-14 0 0)
(2.257274767262165e-16 0 0)
(1.264073869664156e-14 0 0)
(3.067385600395533e-14 0 0)
(3.034780520423357e-14 0 0)
(1.289154700411479e-14 0 0)
(2.141902945819882e-14 0 0)
(7.514216891892759e-14 0 0)
(-4.178466402500811e-14 0 0)
(8.703048269315111e-15 0 0)
(-5.743510241132193e-15 0 0)
(-2.31245259490102e-14 0 0)
(-7.474087562695921e-15 0 0)
(-5.016166149393522e-17 0 0)
(-1.941256299841393e-14 0 0)
(-2.701205471484608e-14 0 0)
(3.689390202928435e-14 0 0)
(-9.498110604004361e-14 0 0)
(-2.05913620435371e-14 0 0)
(-2.508083074729172e-16 0 0)
(-1.951288632139969e-14 0 0)
(-6.152327782314045e-14 0 0)
(-6.842050627864516e-14 0 0)
(-7.122955932234813e-15 0 0)
(-6.551112991196112e-14 0 0)
(-2.896835951313762e-14 0 0)
(-2.134378696595695e-14 0 0)
(-5.141570303197292e-15 0 0)
(-1.577584254005589e-14 0 0)
(-2.327501093349899e-14 0 0)
(8.853533253798422e-15 0 0)
(1.45719626641832e-14 0 0)
(5.572960592051011e-14 0 0)
(-7.037681107693796e-14 0 0)
(2.432840582488334e-15 0 0)
(3.486235473875232e-15 0 0)
(1.241501121991343e-14 0 0)
(2.906868283612594e-14 0 0)
(6.40564417286151e-14 0 0)
(4.98606915256439e-14 0 0)
(3.566494132266691e-14 0 0)
(8.492369291037126e-14 0 0)
(-3.895053015056446e-14 0 0)
(-1.855981475299842e-15 0 0)
(3.711962950600531e-15 0 0)
(9.380230699491607e-15 0 0)
(1.946272465990847e-14 0 0)
(1.010757479116374e-14 0 0)
(6.488410914327651e-14 0 0)
(4.955972155667463e-14 0 0)
(6.814461714042962e-14 0 0)
(6.438249252833207e-14 0 0)
(7.579427051834073e-14 0 0)
(7.489136061145584e-14 0 0)
(8.677967438567207e-14 0 0)
(9.257334628830299e-14 0 0)
(7.090350852263005e-14 0 0)
(1.041356092628059e-13 0 0)
(-2.119330198147272e-14 0 0)
(2.23721010265921e-14 0 0)
(2.003958376709629e-14 0 0)
(2.656059976139494e-14 0 0)
(4.915842826471492e-15 0 0)
(-1.931223967542756e-15 0 0)
(1.755658152311298e-15 0 0)
(2.934457197434778e-15 0 0)
(6.691565643380787e-14 0 0)
(-3.315685824793688e-14 0 0)
(1.018281728340437e-14 0 0)
(2.104281699698859e-14 0 0)
(4.84812458345393e-14 0 0)
(2.074184702802121e-14 0 0)
(-2.874263203641061e-14 0 0)
(-4.3389837192836e-15 0 0)
(-5.648203084292995e-14 0 0)
(-1.359381026503708e-14 0 0)
(-6.671500978783262e-15 0 0)
(1.532438758660309e-14 0 0)
(1.557519589407644e-14 0 0)
(2.021514958232835e-14 0 0)
(1.547487257108708e-14 0 0)
(6.84706679401406e-15 0 0)
(4.025473334942264e-14 0 0)
(-9.703773416132301e-14 0 0)
(-3.463662726202181e-14 0 0)
(-6.7617919694735e-14 0 0)
(-4.426766626899314e-14 0 0)
(-3.4235333970071e-14 0 0)
(-7.117939766085022e-14 0 0)
(-6.801921298669089e-14 0 0)
(-3.917625762729139e-14 0 0)
(2.257274767258786e-16 0 0)
(-1.16826509620945e-13 0 0)
(-5.680808164264488e-14 0 0)
(-3.852415602785957e-14 0 0)
(-2.500558825506018e-14 0 0)
(-2.809053043698093e-14 0 0)
(2.38267892099431e-15 0 0)
(5.058803561731547e-14 0 0)
(-1.499833678688604e-14 0 0)
(1.304203198859922e-14 0 0)
(-3.862447935084456e-15 0 0)
(4.991085318714188e-15 0 0)
(-8.703048269313245e-15 0 0)
(7.975704177642584e-15 0 0)
(3.037288603498655e-14 0 0)
(-2.608406397719778e-15 0 0)
(6.684041394156281e-14 0 0)
(-6.478378582028535e-14 0 0)
(-1.020789811415277e-14 0 0)
(-6.847066794013593e-15 0 0)
(1.299187032710315e-14 0 0)
(6.37053100981588e-15 0 0)
(1.652826746247436e-14 0 0)
(2.91439253283688e-14 0 0)
(2.475477994759034e-14 0 0)
(8.846009004573649e-14 0 0)
(-2.402743585591697e-14 0 0)
(3.772156944394802e-14 0 0)
(1.085999971358326e-14 0 0)
(1.567551921706513e-14 0 0)
(3.024748188124907e-14 0 0)
(3.887528765832616e-15 0 0)
(5.294563370756052e-14 0 0)
(-5.871422477943469e-14 0 0)
(8.527482454081905e-16 0 0)
(-4.228628063995585e-14 0 0)
(-2.365122339470908e-14 0 0)
(-1.501840145148477e-13 0 0)
(-1.044365792317773e-13 0 0)
(-9.861782649840272e-14 0 0)
(-7.694798873273406e-14 0 0)
(-5.911551807139255e-14 0 0)
(-5.046263146357624e-14 0 0)
(3.160184674159957e-15 0 0)
(-1.120360709482066e-13 0 0)
(-3.869972184308812e-14 0 0)
(-1.198863709721207e-14 0 0)
(-1.896110804496267e-14 0 0)
(-2.061644287428474e-14 0 0)
(-1.948780549065594e-14 0 0)
(2.758891382203125e-15 0 0)
(-1.881062306048098e-15 0 0)
(4.5571869467854e-14 0 0)
(-7.158069095280525e-14 0 0)
(2.753875216053823e-14 0 0)
(4.120780491782283e-14 0 0)
(2.440364831712722e-14 0 0)
(2.299912179527841e-14 0 0)
(1.5826004201548e-14 0 0)
(3.599099212238227e-14 0 0)
(3.814794356665049e-14 0 0)
(9.021574819805492e-14 0 0)
(-2.382678920993718e-14 0 0)
(2.623454896168081e-14 0 0)
(1.898618887570961e-14 0 0)
(7.925542516148483e-15 0 0)
(2.345057674872881e-14 0 0)
(2.164475693492368e-14 0 0)
(8.000785008390239e-14 0 0)
(-2.625962979242754e-14 0 0)
(2.490526493207251e-14 0 0)
(1.404526521849491e-15 0 0)
(1.647810580097947e-14 0 0)
(1.208896042020112e-14 0 0)
(6.546096825046648e-15 0 0)
(1.80581981380575e-14 0 0)
(-7.950623346896101e-15 0 0)
(5.457588770613604e-14 0 0)
(-5.407427109118747e-14 0 0)
(2.871755120566087e-14 0 0)
(4.406701962301537e-14 0 0)
(5.02118231561038e-14 0 0)
(6.300304683722732e-14 0 0)
(5.515274681331582e-14 0 0)
(3.471186975427011e-14 0 0)
(3.571510298416114e-14 0 0)
(1.05841105753625e-13 0 0)
(7.348683408959083e-15 0 0)
(7.42141781812725e-14 0 0)
(7.599491716433298e-14 0 0)
(9.656119837712627e-14 0 0)
(1.276614285037693e-13 0 0)
(1.499833678688779e-13 0 0)
(2.254265067567747e-13 0 0)
(1.220433224163818e-13 0 0)
(1.789266465512668e-13 0 0)
(2.123092322759346e-13 0 0)
(2.436351898793102e-13 0 0)
)
;

boundaryField
{
    inlet
    {
        type            calculated;
        value           uniform (0.02634248583028756 0 0);
    }
    outlet
    {
        type            calculated;
        value           uniform (2.314403584004509e-13 0 0);
    }
    frontAndBack
    {
        type            empty;
    }
}


// ************************************************************************* //
