/*--------------------------------*- C++ -*----------------------------------*\
| =========                 |                                                 |
| \\      /  F ield         | OpenFOAM: The Open Source CFD Toolbox           |
|  \\    /   O peration     | Version:  v2012                                 |
|   \\  /    A nd           | Website:  www.openfoam.com                      |
|    \\/     M anipulation  |                                                 |
\*---------------------------------------------------------------------------*/
FoamFile
{
    version     2.0;
    format      ascii;
    class       volScalarField;
    location    "0.011";
    object      T;
}
// * * * * * * * * * * * * * * * * * * * * * * * * * * * * * * * * * * * * * //

dimensions      [0 0 0 1 0 0 0];


internalField   nonuniform List<scalar> 
1000
(
299.9814067038135
299.9849189590909
299.9801113233753
299.9718271699542
299.970292210079
299.9662786974384
299.9628079513755
299.9628823414974
299.9585534301738
299.9583742070721
299.9587866540432
299.9590201033448
299.9601689217247
299.9616267797999
299.9631256568857
299.9673273209143
299.9701396266029
299.9747222395528
299.9800798527121
299.9843118875963
299.9899900607151
299.9954049559329
300.0009842429913
300.0067143504467
300.0120653036549
300.0176159234596
300.0225347760718
300.0271092139639
300.0314709227796
300.0349840122655
300.0394862877559
300.0405557316832
300.04048586695
300.0404399742749
300.0404101992936
300.0389827447133
300.0385065192827
300.0370459737121
300.0333605738831
300.0316204864394
300.0269650527263
300.0219151295901
300.0175777006746
300.0111853580721
300.0058783492871
300.0001909504446
299.9943100768207
299.9890008770938
299.9834962725485
299.978349312195
299.9735195234923
299.9690542376707
299.964684816768
299.9602482916482
299.959844607249
299.959936630871
299.9599491131048
299.9603663725912
299.9614035708397
299.9616358303235
299.9639169169151
299.9663060794158
299.9676922244778
299.9728468454472
299.9764414366721
299.9807391045653
299.9873394152559
299.9921606046811
299.9984334576614
300.0044396493178
300.009844831351
300.0156132461516
300.0206070390799
300.025565698049
300.0301136557936
300.0352480512909
300.0395053714655
300.0396372177365
300.0396214720475
300.039652122145
300.0389084234648
300.0388317483935
300.0376032516301
300.0358600626794
300.0349208967979
300.0313694334222
300.0285636604419
300.0251860571744
300.019605720214
300.015360503311
300.0093542020995
300.003264489469
299.9975573849682
299.9911514547489
299.9855197968718
299.9799345304501
299.9746266712037
299.9701339917812
299.9641028762504
299.9609170940146
299.9608045314226
299.9606815036203
299.961084862437
299.9612050195075
299.9617070040022
299.9629982146138
299.9636752722929
299.9659459147919
299.9683075749684
299.970676811112
299.9751217515739
299.9787308167423
299.9837354158665
299.9894055345317
299.9946645600886
300.0011143762139
300.007002496153
300.0129962205513
300.0189227594337
300.0242750440885
300.0292507670717
300.0351803412813
300.0388472527587
300.0389659052554
300.0388494254674
300.0388452054817
300.0385243688976
300.0377613249753
300.0375848353923
300.0358238834395
300.0341077798051
300.0327877363405
300.0289008544044
300.026236958463
300.0223473488811
300.0170469305524
300.0126456296238
300.0065745556664
300.0007001878115
299.9946791032302
299.9882099532642
299.9823729523038
299.9762868198546
299.9709830979834
299.9640471937949
299.9613392118372
299.9612931893654
299.9614144653723
299.9614543704475
299.9617937919126
299.9624451297655
299.9628272439328
299.9643673574496
299.9657298962219
299.9676604693735
299.9706322303786
299.9733421049811
299.9775244426703
299.981669195581
299.9866051850408
299.9923056379431
299.9976681728468
300.0040998686695
300.0100742422514
300.0160742963084
300.0223844888673
300.0275634792003
300.0347356313497
300.0383521863971
300.0383845779666
300.0384387256805
300.0381830350924
300.0380808398314
300.0375932327381
300.0364814542016
300.036233474477
300.0342899768717
300.0321698454379
300.0306339579154
300.026638418229
300.0236636453272
300.0197665957954
300.014158543113
300.0097593621198
300.0037430582423
299.9974650767528
299.9916095706843
299.9849395152762
299.9786129817857
299.9728173973272
299.9647826424996
299.9617836613194
299.9617805931859
299.9618299217189
299.961827569421
299.9623966396504
299.9625777572975
299.9631453392629
299.9647510127483
299.9654232966998
299.9675547464016
299.9702195000171
299.9723698398083
299.9764373002529
299.9801691615762
299.9844784538876
299.9898995195955
299.995033508388
300.0010000141629
300.0071578017937
300.0132943622489
300.0197442859343
300.0255537116224
300.0333012834758
300.0378080704898
300.0378979920561
300.0379908685467
300.0377895388792
300.0375637238544
300.0373822336423
300.0363192422734
300.0357678931719
300.0345125935958
300.0322604530908
300.030996230126
300.0277748153563
300.0244241709224
300.0214180141859
300.016168729894
300.0117132255181
300.0064640881014
300.0001243901704
299.9943820510062
299.987768481467
299.9810771994849
299.9751023554504
299.9664727234952
299.9624265408162
299.9623278683833
299.962228043995
299.9625228905435
299.9626290956679
299.9629376049733
299.9639367021277
299.9643463395363
299.9658845631083
299.9677463783018
299.9690703424744
299.9724495301908
299.975214500732
299.9784048773347
299.9834172582689
299.9874162871664
299.9927251155373
299.9986479255528
300.0041569258106
300.0107350801829
300.0170391837207
300.023200877803
300.030581399289
300.037075917684
300.0374605139348
300.0375009956335
300.0373273441989
300.0372637036565
300.0368190436666
300.0361552188061
300.0356515540246
300.0341692480766
300.0328033142023
300.0311464428841
300.0281610965146
300.0258593476397
300.0220850267181
300.0179874631431
300.0138862128684
300.0081670745262
300.0030163641351
299.9969745367396
299.990283369857
299.9840687830395
299.9773798977932
299.9695016763462
299.9631643891412
299.9627700402065
299.9627398183641
299.9629304101657
299.9630292837662
299.9631662752506
299.964213081833
299.9645428592182
299.9656767801122
299.9676943693275
299.9687984333078
299.9717028924224
299.9744945019006
299.9774266874818
299.9818732093023
299.9857269733262
299.9908865783393
299.9962598550021
300.0016719348424
300.0082292097655
300.0142676202678
300.020785077213
300.0273111104285
300.0356279807024
300.0370195299177
300.0370888590981
300.0370510688838
300.0368309873325
300.0364817314828
300.0361632855573
300.03513695818
300.0343396862125
300.0329785702867
300.0309922972684
300.029145785181
300.0261966725724
300.023156393353
300.0195231444787
300.0150684450773
300.0104868245272
300.0050851847126
299.999323192046
299.9931500753551
299.986650649484
299.9799706763033
299.973165159568
299.9645372552722
299.9632030001615
299.9632082263633
299.9632781312869
299.9634536249432
299.9635179641766
299.9644521103227
299.9648284430752
299.9657398992628
299.9676713568107
299.9686024075392
299.9711334247621
299.9739493156951
299.9763572160504
299.9805921603372
299.9843774822057
299.988857662547
299.9942841687123
299.99943852214
300.0055778217227
300.0117078184284
300.0181813952543
300.0244038049893
300.0329283054919
300.0364716407872
300.0364717811306
300.0365042051926
300.0363928286145
300.0359102344696
300.0359193101142
300.0350772476988
300.0339539472374
300.0333057375202
300.031120172438
300.0294211225616
300.0272501672119
300.0236413275675
300.0208878949149
300.0166174143401
300.0119547883626
300.0073689189042
300.0014585927805
299.9956958148096
299.9894437277505
299.9825593062524
299.9764480653727
299.9673406389891
299.9636430665673
299.9636280867468
299.9635509750114
299.9638124487337
299.9639203369912
299.9643368192548
299.965105274619
299.9658599127215
299.9671240806165
299.9686228871566
299.970862820371
299.9728277416285
299.9759152346187
299.979611264952
299.9827847393869
299.9877999055826
299.992427042925
299.9973798960893
300.0035824229298
300.0092318051655
300.0155899807153
300.0218758593676
300.0294220632763
300.0355388486705
300.0359610494829
300.0359585585122
300.035820346319
300.0358585774306
300.0352467609669
300.0349438521804
300.03440087873
300.0327815942772
300.0320014092098
300.0297852329005
300.0272527188141
300.0250574717102
300.021189463256
300.0178000008053
300.0137329028466
300.0086411464335
300.0038154334122
299.9979667431898
299.99190268868
299.9855828062388
299.9791044818981
299.9715612281939
299.9645830613229
299.9640853753036
299.963895644645
299.9640660528206
299.964008248616
299.9645267681934
299.9652302143652
299.9656667327013
299.9672058789756
299.9688705735384
299.9702195030783
299.9732257855
299.9756882435489
299.9784882540012
299.9826176700403
299.9861288434029
299.9906058013744
299.9956693887181
300.0004691692251
300.0064612868591
300.0123437259326
300.01841026494
300.0247594477549
300.0326590382218
300.0353014170902
300.0355403840516
300.0355047959105
300.0355219647459
300.0353724450045
300.0349411244628
300.0343012853472
300.0335696351819
300.0325046252849
300.0308005677194
300.0291291347135
300.0269659039657
300.0237590367107
300.020514999634
300.0167167104822
300.0120227201558
300.006815797183
300.0012719081166
299.9944344656021
299.987918474312
299.9807412619446
299.9736029135358
299.9647383645429
299.9616562840501
299.9596171304141
299.9588060115858
299.9585600773191
299.9584864632931
299.9582558556283
299.958261679412
299.958716895327
299.9596061555884
299.96047793049
299.9620378344692
299.964409837616
299.9667934323886
299.9700550588828
299.9739840026015
299.9786138696651
299.9836229002353
299.9893762692815
299.9960753871164
300.0027594352389
300.0100912973875
300.0182739897457
300.0257976316568
300.0325325546144
300.0364150939465
300.0390448102361
300.0401998332349
300.0411502235946
300.0418450081834
300.0422479689056
300.0423090110348
300.0419170071866
300.0410580188815
300.0398006651161
300.03794330956
300.0351321881517
300.0319349360624
300.0279486741599
300.022856979191
300.0177608284249
300.0115924019921
300.0048177106402
299.9981771024656
299.9904110598932
299.98278930681
299.9761829057081
299.9680817047865
299.9651183416133
299.9626079862393
299.9613105786828
299.9608199998925
299.9609144340132
299.9609205827963
299.9612489737752
299.9619593895963
299.9626423270317
299.9638709942901
299.9656319166487
299.9675987662606
299.9703556834737
299.9740594985868
299.9778519947029
299.9826590349854
299.9884129407696
299.993896319026
300.0002995988918
300.0078733241941
300.0141072277623
300.0214590888776
300.0295539374493
300.0344870966838
300.0376682916169
300.0404527598101
300.0418338039302
300.0423212654081
300.0426735657036
300.0426308134284
300.0422209555734
300.0410872490378
300.0396176405461
300.0380984320662
300.0358416663178
300.0327182349914
300.029350108628
300.0252224310645
300.0196494414413
300.0141710727245
300.0080360380172
300.0009809700723
299.9940716600553
299.9871082134778
299.9793597794384
299.973019456014
299.9667507497359
299.9636896244573
299.9619499036666
299.9605513035198
299.9602709092095
299.9608007150577
299.9612312223719
299.962066943929
299.9633036308857
299.9643416870416
299.9660565110691
299.9682320703001
299.9700938944641
299.973368344087
299.977269811166
299.981177329398
299.9861514593277
299.9921922546391
299.998229627797
300.0048943079091
300.0115720376568
300.0185343055115
300.0250854648887
300.0321527716202
300.036243265678
300.0394605913228
300.0416996601747
300.0428729032955
300.0430661200103
300.0434246340891
300.0428272076875
300.0415198639163
300.0402832244322
300.0385158085053
300.0359129768917
300.0333420443182
300.0302860965739
300.0260805137589
300.021338964009
300.0162410749272
300.0102884628092
300.0040407831627
299.997098828046
299.9900745494402
299.9833054187437
299.9767257847323
299.9693611808509
299.9659223580441
299.9627236231769
299.9610884354736
299.9603146447329
299.9601954715338
299.9607643616925
299.9616579134062
299.962930268743
299.9643495445944
299.966187202129
299.9682707900238
299.9705595385136
299.9734275010399
299.9767443354129
299.9807590580712
299.9851871072383
299.990244464305
299.9961086336386
300.0024468658343
300.0091104469233
300.0157318309035
300.0221550717212
300.0290957709868
300.0346733356951
300.0381668113042
300.0413445602553
300.042741320758
300.0436375101332
300.0442221721346
300.0437743463076
300.042917598588
300.041425047419
300.039727104209
300.0369529631022
300.0343863967251
300.0313515278914
300.0274819225678
300.023022358112
300.0182454379389
300.0129943143899
300.0066082909443
300.0004676723994
299.9937377382095
299.9865141824027
299.979905050741
299.9737770595802
299.9673500598507
299.9641917046451
299.962012303467
299.9604816698163
299.9598981851584
299.9602597067804
299.9609493139779
299.9620081094478
299.9635946120735
299.965386615107
299.9676528097086
299.9704431257019
299.9729366258535
299.9760583847341
299.9799607157819
299.983771247162
299.9885851263949
299.9938730111962
299.9995957117825
300.0061410041257
300.0123394796167
300.0189921663
300.0254375904159
300.0323306599182
300.0362827391492
300.0397217598218
300.0419015718037
300.0432608520573
300.0436167705967
300.0438199933492
300.0433517216294
300.0419397945979
300.0402727253357
300.038324399407
300.035183534437
300.0319990089523
300.0287041498538
300.0244000405352
300.0201658580857
300.0148341650266
300.0092977751224
300.0035583002848
299.9970159183654
299.9906112430871
299.9842289802475
299.9776636684953
299.9705603811265
299.9669418010361
299.9638782420126
299.9619214903682
299.9608212328762
299.9603419450902
299.9609933396773
299.9616467775458
299.9630106125273
299.9650919390034
299.9669260204161
299.9697000360865
299.9727193461604
299.9755927915131
299.9794113686288
299.9833656255544
299.9875421968354
299.9922924177836
299.997671226289
300.0034854784416
300.0095636190059
300.0160092772737
300.0222628355394
300.0285207306216
300.0344945914462
300.038300175459
300.0409210131616
300.0427314670295
300.043665681197
300.0440843594687
300.0438740502696
300.0431000347901
300.0411724858922
300.0393399457484
300.0367087898227
300.0330881390341
300.029784103558
300.0256896904314
300.020876068296
300.0159617573721
300.0107543602157
300.0048387215692
299.9987826729472
299.9925015754472
299.9860980487627
299.9798182969732
299.9738078459211
299.9677952826523
299.964711386088
299.962396521204
299.9606598477649
299.9600669972999
299.9602834208251
299.9609413855298
299.9616719646137
299.9634448937586
299.9657112455324
299.9680141571184
299.9714011232154
299.9745484756259
299.9779944464733
299.9820818533122
299.9861467239704
299.990726777042
299.9955831431535
300.0008438487061
300.006692464208
300.0125151821579
300.018575141877
300.0246970927175
300.031436755317
300.0352360942974
300.039139494331
300.0412908398013
300.0427470722843
300.0434132020591
300.0437316621596
300.0431173283616
300.0418715543748
300.0401371950277
300.0377025459662
300.0344254419999
300.0309293429323
300.0271983646677
300.0226618547181
300.0179068809796
300.0124907977685
300.0068499102561
300.0011446790314
299.9949089582813
299.9885789702734
299.9824142178302
299.975908863708
299.970461540425
299.9651407694341
299.9629552905827
299.9608944246901
299.9593580876619
299.9592335586703
299.9596127427218
299.9604210887962
299.9616187632254
299.9637062136294
299.9658743700725
299.9687446986621
299.9723613985004
299.9756127864295
299.9797574325173
299.9843590901469
299.9884934447694
299.9934597760035
299.9988103848356
300.0036128083138
300.0091050887823
300.0154583841656
300.0203342761127
300.0263261271922
300.0323135274439
300.0358356385283
300.0386904880422
300.0410056686878
300.0420471985195
300.0429529047719
300.0427159769562
300.0414380980995
300.0404910975888
300.0381754433819
300.0348407840359
300.0317572929683
300.0277050528909
300.0232011122591
300.0184556233077
300.0129936389019
300.0076651410185
300.0020142224365
299.9955581050901
299.989901729189
299.9836681712205
299.9774563128559
299.9719577677188
299.9659034059621
299.963058925681
299.9608744368235
299.9585240290314
299.9581022749022
299.9583052972597
299.9591464457529
299.9596343636495
299.9613392662098
299.9637008479301
299.9660365244957
299.9692989085373
299.9725274097946
299.9766130195094
299.9807881495351
299.9852896191854
299.9904413645713
299.9951312854944
300.0008662516042
300.0060802108987
300.0111452702162
300.0171465828219
300.0228513895072
300.0278639100916
300.0328438395888
300.0360619407946
300.0387818848871
300.0406805360699
300.0420397237143
300.04230430017
300.0418970713437
300.0410403093318
300.0386544628333
300.0367891320734
300.033210723461
300.0290240858749
300.0249986118238
300.0202900559095
300.0149578005964
300.0092351855548
300.0037991276265
299.9979670971239
299.9918090916322
299.9861289226633
299.9798950713804
299.9738317998314
299.9692442605376
299.9637095461047
299.9618040414011
299.959550094596
299.9581677593227
299.9580331873723
299.9586022198637
299.9595800715296
299.9606535147037
299.962918478402
299.9652941562958
299.9679642987415
299.9717712783258
299.9751822908915
299.9791565561416
299.9839448846137
299.9883223905282
299.9933763666727
299.9986843243192
300.0041664879005
300.0098419726951
300.0148590376922
300.0201368087116
300.0253868543232
300.0302217999948
300.0334823263055
300.0364961354764
300.0377507324943
300.0400038770961
300.0408048983393
300.0404520457288
300.0407324950929
300.0391898729748
300.0368063954735
300.0346211415679
300.0304958460447
300.0258414966488
300.0218111508207
300.0164542035388
300.0103564911082
300.0051301121019
299.9989707213341
299.9928784148274
299.9872844074408
299.9807286335285
299.9752400799167
299.969889869031
299.9646257814554
299.9612820527933
299.9585643173398
299.9575778640513
299.9562445339374
299.9562008383788
299.957176100922
299.9585821541034
299.9599449883177
299.9621364841118
299.965178647105
299.9679566543662
299.9715926885373
299.9757475086155
299.9799196491894
299.9846191888182
299.9895257002141
299.9945639227442
299.9997217379303
300.005395129197
300.0107535360698
300.016083714723
300.0218731113509
300.0264126220943
300.0312269150264
300.0334513838851
300.0359187819882
300.0373025865027
300.0383737009949
300.0384391080268
300.0385912088728
300.0384033477251
300.0370331146729
300.0350081761443
300.0321042693658
300.0278204984139
300.0237701876947
300.0181800565084
300.0124975162557
300.0064756787928
299.9998345932711
299.9939612242389
299.9879066581192
299.9815476640343
299.9764663387818
299.9707027036395
299.9656076798934
299.9611010619981
299.9587430333085
299.956610957097
299.9545423837209
299.9546196871023
299.9549135343911
299.9560582684593
299.9571727179943
299.9590952858385
299.9619133409334
299.9640712053769
299.9670541363544
299.971203156589
299.9747673248722
299.9795727550237
299.9873676885408
299.991382690317
300.0017120447252
300.0070271679361
)
;

boundaryField
{
    inlet
    {
        type            fixedValue;
        value           uniform 300;
    }
    outlet
    {
        type            inletOutlet;
        inletValue      uniform 300;
        value           uniform 300.0104078398247;
    }
    frontAndBack
    {
        type            empty;
    }
}


// ************************************************************************* //
