/*--------------------------------*- C++ -*----------------------------------*\
| =========                 |                                                 |
| \\      /  F ield         | OpenFOAM: The Open Source CFD Toolbox           |
|  \\    /   O peration     | Version:  v2012                                 |
|   \\  /    A nd           | Website:  www.openfoam.com                      |
|    \\/     M anipulation  |                                                 |
\*---------------------------------------------------------------------------*/
FoamFile
{
    version     2.0;
    format      ascii;
    class       volVectorField;
    location    "0.011";
    object      UMean;
}
// * * * * * * * * * * * * * * * * * * * * * * * * * * * * * * * * * * * * * //

dimensions      [0 1 -1 0 0 0 0];


internalField   nonuniform List<vector> 
1000
(
(-2.84742529680873e-05 0 0)
(1.458047990238414e-05 0 0)
(2.567773189199959e-05 0 0)
(7.082591170826497e-05 0 0)
(0.000105917272968655 0 0)
(0.0001532109447008955 0 0)
(0.0002039588672401558 0 0)
(0.0002973616866987217 0 0)
(0.0003331551721304238 0 0)
(0.0004211560550319859 0 0)
(0.00051153549736514 0 0)
(0.0005707502272290524 0 0)
(0.0006457031354217038 0 0)
(0.0007627093750679287 0 0)
(0.0007969063209641036 0 0)
(0.0008515266225382338 0 0)
(0.0009768321869787686 0 0)
(0.001014913620328739 0 0)
(0.001029591297383802 0 0)
(0.001097666639439259 0 0)
(0.001153878290833157 0 0)
(0.001160354786119434 0 0)
(0.001131027414475998 0 0)
(0.001187159027482911 0 0)
(0.00118757725451914 0 0)
(0.001138334878733502 0 0)
(0.001072974825809034 0 0)
(0.001099948999157382 0 0)
(0.00105968183755259 0 0)
(0.0009237678072983675 0 0)
(0.0009005096709062278 0 0)
(0.0008788892077474728 0 0)
(0.0007379569162795278 0 0)
(0.0006362479518148112 0 0)
(0.0006526609002455394 0 0)
(0.0005327237786075102 0 0)
(0.0004072990230721409 0 0)
(0.0003917296422729684 0 0)
(0.0003394820974907148 0 0)
(0.0002177877420512585 0 0)
(0.0001645180811753554 0 0)
(0.0001499284212102113 0 0)
(7.929013138318358e-05 0 0)
(3.217390727945104e-05 0 0)
(1.589021267119826e-05 0 0)
(1.166452058682183e-05 0 0)
(3.502999636591448e-09 0 0)
(-1.192267575747433e-05 0 0)
(2.710805689602847e-05 0 0)
(5.72542124175841e-05 0 0)
(7.077190057624047e-05 0 0)
(0.0001333154784531282 0 0)
(0.0002024632190272552 0 0)
(0.0002259046830867984 0 0)
(0.000327274861180068 0 0)
(0.0004181955817506612 0 0)
(0.0004581017486479066 0 0)
(0.0005454738804647303 0 0)
(0.0006484855557117531 0 0)
(0.0006835210166984368 0 0)
(0.00076653270426163 0 0)
(0.0008627698864926452 0 0)
(0.0008962799793208631 0 0)
(0.0009533411220988523 0 0)
(0.001051139015282789 0 0)
(0.001075161288703961 0 0)
(0.001086948357927619 0 0)
(0.001152415480174353 0 0)
(0.001182620249730363 0 0)
(0.001149740950136688 0 0)
(0.001157562006677926 0 0)
(0.001166661524293272 0 0)
(0.001125062165956601 0 0)
(0.001077403756619204 0 0)
(0.001054937992328143 0 0)
(0.0009961460375266956 0 0)
(0.0009199551302649619 0 0)
(0.0008599776876290134 0 0)
(0.0007890252388867165 0 0)
(0.000698093835287943 0 0)
(0.0006271524259128388 0 0)
(0.000570999966847908 0 0)
(0.0004778249795222444 0 0)
(0.0004050554989582932 0 0)
(0.0003514068889619883 0 0)
(0.0002767996391273858 0 0)
(0.0002062013568640068 0 0)
(0.0001625705939674315 0 0)
(0.0001056079265008991 0 0)
(6.16671983879391e-05 0 0)
(4.484072228250892e-05 0 0)
(1.53454835603107e-07 0 0)
(-4.905306860670107e-06 0 0)
(1.285348351560721e-05 0 0)
(1.101410033591466e-05 0 0)
(2.159448832913923e-05 0 0)
(7.767650327895807e-05 0 0)
(0.0001166325438095991 0 0)
(0.0001584695066140228 0 0)
(0.0002330493894595004 0 0)
(0.0003018895798907094 0 0)
(0.0003723942498630617 0 0)
(0.0004585301850144779 0 0)
(0.0005242629182582267 0 0)
(0.0005896312093685161 0 0)
(0.0006825105885906316 0 0)
(0.0007444489845608591 0 0)
(0.000799708613539733 0 0)
(0.0008875660123355253 0 0)
(0.0009430377756519892 0 0)
(0.0009860253040270143 0 0)
(0.001055663185797267 0 0)
(0.001101077644783523 0 0)
(0.001102024046982812 0 0)
(0.001154731296124887 0 0)
(0.001182235820643632 0 0)
(0.001143968280348512 0 0)
(0.001159111372930452 0 0)
(0.001160387802592951 0 0)
(0.001088293485068152 0 0)
(0.001053854384245321 0 0)
(0.001040489525651326 0 0)
(0.0009381715817164899 0 0)
(0.0008621858241419687 0 0)
(0.0008322007113067432 0 0)
(0.0007268221471230338 0 0)
(0.0006326031553587478 0 0)
(0.0006067112958988028 0 0)
(0.0005198517517712702 0 0)
(0.0004115248624228271 0 0)
(0.0003914745781612914 0 0)
(0.0003183525947430292 0 0)
(0.0002158059126482305 0 0)
(0.0001938230362953473 0 0)
(0.0001539757463240543 0 0)
(6.583882480697584e-05 0 0)
(5.0783650870136e-05 0 0)
(5.109281484701866e-05 0 0)
(-1.337607178193799e-05 0 0)
(-5.141390946216286e-06 0 0)
(3.180816478386837e-05 0 0)
(1.529967869670812e-05 0 0)
(3.421030831358892e-05 0 0)
(0.0001202499970061693 0 0)
(0.000140545113986425 0 0)
(0.0001890854900976242 0 0)
(0.0003035063483490252 0 0)
(0.0003432956558774514 0 0)
(0.0004196049579004111 0 0)
(0.0005166433051768518 0 0)
(0.0005679378645569381 0 0)
(0.000629385585244835 0 0)
(0.0007390942204805367 0 0)
(0.0007799732264197563 0 0)
(0.0008273802306930728 0 0)
(0.0009408639285635899 0 0)
(0.0009679804999854017 0 0)
(0.001002670744761108 0 0)
(0.001086356301492303 0 0)
(0.001114708591381763 0 0)
(0.001109552356901887 0 0)
(0.001168795168155805 0 0)
(0.001180714069659103 0 0)
(0.001131102451776211 0 0)
(0.001155131642920249 0 0)
(0.001140782628933415 0 0)
(0.001060549193552746 0 0)
(0.001027525623810079 0 0)
(0.001006294601716881 0 0)
(0.0008849298079966033 0 0)
(0.0008178924728323748 0 0)
(0.0007839707231429391 0 0)
(0.000672498813977471 0 0)
(0.0006008648351242502 0 0)
(0.0005589448177661211 0 0)
(0.0004684777425434187 0 0)
(0.0003803449285376978 0 0)
(0.0003656325673106215 0 0)
(0.0002681677078133812 0 0)
(0.0001932339198780205 0 0)
(0.0001836032844726717 0 0)
(0.0001140858906180445 0 0)
(5.576325404022657e-05 0 0)
(5.726420793850702e-05 0 0)
(2.579602086618771e-05 0 0)
(-1.234862445634515e-05 0 0)
(2.539227516636788e-05 0 0)
(2.468857740077542e-05 0 0)
(2.329032937274364e-05 0 0)
(9.202098027858755e-05 0 0)
(0.0001363195368016219 0 0)
(0.0001691616991342103 0 0)
(0.0002626511358920826 0 0)
(0.0003430592741335497 0 0)
(0.0003947151750049666 0 0)
(0.0004733058425035964 0 0)
(0.0005584567208590539 0 0)
(0.0006135554210301512 0 0)
(0.0006825142579927578 0 0)
(0.000769657343729445 0 0)
(0.0008183107048344278 0 0)
(0.0008806607060855801 0 0)
(0.000950054479665586 0 0)
(0.001001757897240065 0 0)
(0.001045190857953904 0 0)
(0.001080983222434636 0 0)
(0.001123693240418136 0 0)
(0.001144248001554229 0 0)
(0.00115631215189391 0 0)
(0.001150414475296022 0 0)
(0.00116062462621086 0 0)
(0.001129909206134537 0 0)
(0.001089460319127583 0 0)
(0.001057172125729374 0 0)
(0.001007372411374438 0 0)
(0.0009118240569802266 0 0)
(0.0008579947215752368 0 0)
(0.0007901673260662001 0 0)
(0.0006995333418826397 0 0)
(0.0006410937665156987 0 0)
(0.0005815643035433953 0 0)
(0.000488037997564558 0 0)
(0.0004267573109329447 0 0)
(0.000380170350708018 0 0)
(0.0002971582539969767 0 0)
(0.0002314375356315058 0 0)
(0.0002002474477970154 0 0)
(0.0001386240547490951 0 0)
(8.791600609687629e-05 0 0)
(6.775953346344192e-05 0 0)
(3.851534373226151e-05 0 0)
(8.747078007440017e-06 0 0)
(2.413647991715012e-05 0 0)
(2.213900263414307e-05 0 0)
(3.141981719799121e-05 0 0)
(7.108616422181605e-05 0 0)
(0.0001181183304616352 0 0)
(0.0001619546144431772 0 0)
(0.00023971537263556 0 0)
(0.0003160993411357768 0 0)
(0.0003800599763596757 0 0)
(0.0004520140578579703 0 0)
(0.0005267443279282101 0 0)
(0.0005967650749594338 0 0)
(0.000657798537439008 0 0)
(0.0007355903967228402 0 0)
(0.0007972088559001754 0 0)
(0.0008560565999914388 0 0)
(0.0009234313779912193 0 0)
(0.0009721835184900208 0 0)
(0.001022529959663327 0 0)
(0.001066609800900101 0 0)
(0.001106030891193976 0 0)
(0.001124405096486376 0 0)
(0.001148766080008256 0 0)
(0.001153074520613634 0 0)
(0.00115329433547519 0 0)
(0.001132814560535409 0 0)
(0.001109227981919067 0 0)
(0.001069452567582935 0 0)
(0.001016095177952218 0 0)
(0.000950108107271594 0 0)
(0.0008773987719969602 0 0)
(0.0008080736819341027 0 0)
(0.000735051640683181 0 0)
(0.0006633715598967638 0 0)
(0.0006013716842020214 0 0)
(0.0005245354143107961 0 0)
(0.000457762477094256 0 0)
(0.0003955358489622819 0 0)
(0.0003377087232344096 0 0)
(0.0002589293090853402 0 0)
(0.0002176854311737911 0 0)
(0.0001704473487658222 0 0)
(0.00011491781828173 0 0)
(7.757118944798216e-05 0 0)
(5.867637007344665e-05 0 0)
(3.458759302511534e-05 0 0)
(1.349785564842325e-05 0 0)
(3.062651064734569e-05 0 0)
(3.920347252865905e-05 0 0)
(5.922872783458298e-05 0 0)
(0.0001019092131407041 0 0)
(0.0001511282298721892 0 0)
(0.000221486491188468 0 0)
(0.0002863733406734504 0 0)
(0.0003669402608010666 0 0)
(0.0004224806469255556 0 0)
(0.0005100170841253878 0 0)
(0.0005659352474073726 0 0)
(0.0006408262764765772 0 0)
(0.0007077633791076028 0 0)
(0.0007724998871578981 0 0)
(0.0008315798857744686 0 0)
(0.0008967527110520616 0 0)
(0.0009550997077081276 0 0)
(0.0009938377701670959 0 0)
(0.001055978847654392 0 0)
(0.001077320935710114 0 0)
(0.001117040080628468 0 0)
(0.001134971990020984 0 0)
(0.001144431034212758 0 0)
(0.001147056271612953 0 0)
(0.001137840320918305 0 0)
(0.00111827616510625 0 0)
(0.001068864409853523 0 0)
(0.001043031102554717 0 0)
(0.0009688631687793036 0 0)
(0.0008979082200030696 0 0)
(0.0008281063788469998 0 0)
(0.000764878270478568 0 0)
(0.000687377775948001 0 0)
(0.0006209356990201419 0 0)
(0.0005531035064619303 0 0)
(0.0004833128394862881 0 0)
(0.0004228288055754215 0 0)
(0.0003530559731689907 0 0)
(0.0002972436227341213 0 0)
(0.0002403414582713949 0 0)
(0.0001878421570929637 0 0)
(0.0001365738035089051 0 0)
(0.0001073773500305455 0 0)
(6.929460642695614e-05 0 0)
(3.851311021601877e-05 0 0)
(3.936994009351503e-05 0 0)
(2.957208426081322e-05 0 0)
(3.494721803570228e-05 0 0)
(5.859711870474321e-05 0 0)
(9.919629363195902e-05 0 0)
(0.0001242486155281631 0 0)
(0.0002020493787117748 0 0)
(0.0002752662718237643 0 0)
(0.0003333768377042767 0 0)
(0.0004066537694283079 0 0)
(0.0004821535764672251 0 0)
(0.000541474220351 0 0)
(0.0006132846254638129 0 0)
(0.0006907996737986373 0 0)
(0.0007430825213226821 0 0)
(0.0008026570510782139 0 0)
(0.0008799237450242632 0 0)
(0.0009290354794722092 0 0)
(0.0009702626051028792 0 0)
(0.001026208139502793 0 0)
(0.001070083613070869 0 0)
(0.001091551377678564 0 0)
(0.001125273346883344 0 0)
(0.001136466763848918 0 0)
(0.00113990125849106 0 0)
(0.001137518455678933 0 0)
(0.001127087066822413 0 0)
(0.001083755303774324 0 0)
(0.001043637701695112 0 0)
(0.0009997204470835578 0 0)
(0.0009216509589658783 0 0)
(0.0008544361134539373 0 0)
(0.0007867901049334831 0 0)
(0.000716785056655802 0 0)
(0.0006441181236197204 0 0)
(0.0005833522130461088 0 0)
(0.0005161325093173372 0 0)
(0.0004441181424391965 0 0)
(0.0003846640750642388 0 0)
(0.0003248521740811394 0 0)
(0.0002696709551123642 0 0)
(0.0002098692915910537 0 0)
(0.0001681232423116483 0 0)
(0.0001250712537842618 0 0)
(9.094873582545966e-05 0 0)
(6.160390018578813e-05 0 0)
(4.721591632364085e-05 0 0)
(4.434708844274312e-05 0 0)
(3.297981701152053e-05 0 0)
(6.255206761064148e-05 0 0)
(8.701172823216546e-05 0 0)
(0.0001256019131994056 0 0)
(0.0001709351478084801 0 0)
(0.0002606524305216165 0 0)
(0.0003140353139677161 0 0)
(0.0003858030615087416 0 0)
(0.0004574875639368455 0 0)
(0.0005221905597284191 0 0)
(0.0005937224808878752 0 0)
(0.0006586633573692856 0 0)
(0.000723527250079783 0 0)
(0.0007817522143646701 0 0)
(0.0008560122277918585 0 0)
(0.000900643521954198 0 0)
(0.0009519667767089611 0 0)
(0.00101063080084357 0 0)
(0.00105104231264258 0 0)
(0.001074296858617665 0 0)
(0.001107284972332431 0 0)
(0.001137301268667427 0 0)
(0.001126404072167289 0 0)
(0.001134380388575161 0 0)
(0.001124281453584731 0 0)
(0.001095187003007716 0 0)
(0.001052540660251326 0 0)
(0.001018110475181736 0 0)
(0.0009408541174826828 0 0)
(0.0008715417971576287 0 0)
(0.0008163213896719868 0 0)
(0.0007383427280076387 0 0)
(0.0006695109923061178 0 0)
(0.0006098581962405236 0 0)
(0.000540128038602388 0 0)
(0.0004670988084008046 0 0)
(0.0004162426017586174 0 0)
(0.0003514633067706871 0 0)
(0.0002823743731539349 0 0)
(0.0002444217692875873 0 0)
(0.0001941178400052379 0 0)
(0.0001403208340956881 0 0)
(0.0001078254973427723 0 0)
(8.75959814663501e-05 0 0)
(5.847734582479654e-05 0 0)
(4.609903039851161e-05 0 0)
(5.233033855437732e-05 0 0)
(5.75468535197777e-05 0 0)
(8.354440289741111e-05 0 0)
(0.0001212404000047878 0 0)
(0.0001584221383987813 0 0)
(0.0002250948400023585 0 0)
(0.0003061541634123978 0 0)
(0.0003645432878051897 0 0)
(0.0004286106748574714 0 0)
(0.0005095793847254356 0 0)
(0.0005684717489091604 0 0)
(0.0006330569986754813 0 0)
(0.0007030565228913262 0 0)
(0.0007655827162466244 0 0)
(0.000816577377805042 0 0)
(0.0008855878456582475 0 0)
(0.0009350778510286477 0 0)
(0.0009735925603662632 0 0)
(0.001024361856513399 0 0)
(0.001063851623744151 0 0)
(0.00108810908974011 0 0)
(0.001107758524456627 0 0)
(0.001127711015596248 0 0)
(0.001127511582576195 0 0)
(0.001119807104584919 0 0)
(0.001099826447456967 0 0)
(0.001071348199583366 0 0)
(0.001031699710931258 0 0)
(0.0009733008366690268 0 0)
(0.0009040779673526323 0 0)
(0.0008399005169778029 0 0)
(0.0007728929019203163 0 0)
(0.0006984428003929798 0 0)
(0.000636408404636471 0 0)
(0.0005710206923892266 0 0)
(0.0005019606739776663 0 0)
(0.0004334379974400317 0 0)
(0.0003831681128339862 0 0)
(0.0003125768578504349 0 0)
(0.0002536935200411834 0 0)
(0.0002087926282822853 0 0)
(0.000158527155761995 0 0)
(0.0001116120680104357 0 0)
(8.023374313204512e-05 0 0)
(6.3298153266541e-05 0 0)
(2.982048884362045e-05 0 0)
(4.033345668598954e-05 0 0)
(4.101628639904879e-05 0 0)
(6.021415207390251e-05 0 0)
(0.0001016188471490417 0 0)
(0.0001443010664323654 0 0)
(0.0002005278317817558 0 0)
(0.0002861946481014459 0 0)
(0.0003637348660232232 0 0)
(0.0004310370328191526 0 0)
(0.0005244481377344859 0 0)
(0.0006001149000889578 0 0)
(0.0006828633034078596 0 0)
(0.0007678265237222201 0 0)
(0.0008457035810495438 0 0)
(0.0009150546382224896 0 0)
(0.001004603078287936 0 0)
(0.001073876682954108 0 0)
(0.001140187776499015 0 0)
(0.001210032447046862 0 0)
(0.001270575523155842 0 0)
(0.001316171114915745 0 0)
(0.00136285141785314 0 0)
(0.001398275073818659 0 0)
(0.001412815078970118 0 0)
(0.001420527689053884 0 0)
(0.001429467914475619 0 0)
(0.001398422910324244 0 0)
(0.001363194644215515 0 0)
(0.001321133485860429 0 0)
(0.001263276460520055 0 0)
(0.001176436466610544 0 0)
(0.00110525586966341 0 0)
(0.001031582173318692 0 0)
(0.0009385228103098637 0 0)
(0.0008608206761833968 0 0)
(0.0007758684647540336 0 0)
(0.0006944403761500113 0 0)
(0.0006062105884355208 0 0)
(0.0005373013388134916 0 0)
(0.0004528627472745568 0 0)
(0.0003772554237183197 0 0)
(0.0003165564406997654 0 0)
(0.0002530499880125341 0 0)
(0.0001900569379481623 0 0)
(0.0001578752230743828 0 0)
(0.0001195211664857841 0 0)
(8.744446500071426e-05 0 0)
(8.50041361233071e-05 0 0)
(9.408458692409044e-05 0 0)
(9.6425022311378e-05 0 0)
(0.0001309965722211064 0 0)
(0.0001849298844111868 0 0)
(0.000238242229229162 0 0)
(0.0003021408312348855 0 0)
(0.0003849834592067281 0 0)
(0.0004574069125798133 0 0)
(0.0005327560847507139 0 0)
(0.0006235678361849799 0 0)
(0.000681821461964919 0 0)
(0.0007596146847522415 0 0)
(0.0008556497356701849 0 0)
(0.0009081279247644704 0 0)
(0.0009752802234627902 0 0)
(0.001061510523067997 0 0)
(0.001119756202672286 0 0)
(0.001163705012190429 0 0)
(0.001230750204149682 0 0)
(0.001279953186138821 0 0)
(0.001297184888783951 0 0)
(0.001334387146179793 0 0)
(0.001342856298709978 0 0)
(0.001341122444149427 0 0)
(0.001336266694855034 0 0)
(0.001302180531959112 0 0)
(0.001262045005835209 0 0)
(0.001210345444571622 0 0)
(0.001131521987327763 0 0)
(0.001068615260969336 0 0)
(0.0009893175193200301 0 0)
(0.0008840308988190137 0 0)
(0.0008234362205425324 0 0)
(0.0007341586442957865 0 0)
(0.0006367154208059183 0 0)
(0.0005702225683083483 0 0)
(0.000475911906080544 0 0)
(0.0004098727452521128 0 0)
(0.0003341308125780121 0 0)
(0.0002622147550753637 0 0)
(0.000197658935905668 0 0)
(0.0001469011936796819 0 0)
(9.378761028423534e-05 0 0)
(5.542413980146758e-05 0 0)
(2.5301320252359e-05 0 0)
(9.157270755495126e-06 0 0)
(1.039487759277456e-05 0 0)
(1.584469034529838e-05 0 0)
(4.740225996570606e-05 0 0)
(7.188347901275529e-05 0 0)
(0.000132660214796206 0 0)
(0.000200994944541815 0 0)
(0.0002558996166345887 0 0)
(0.0003434693143094559 0 0)
(0.0004201640335152139 0 0)
(0.0004997668749754967 0 0)
(0.000573596983581273 0 0)
(0.0006505714734170174 0 0)
(0.0007277463097939349 0 0)
(0.0007990003534019769 0 0)
(0.0008649314801082239 0 0)
(0.0009344056179341074 0 0)
(0.0009987214639862081 0 0)
(0.00105629961787531 0 0)
(0.001109432725475548 0 0)
(0.001152555787170623 0 0)
(0.001198776724181902 0 0)
(0.001221781260328935 0 0)
(0.001232340547781513 0 0)
(0.001240995348923587 0 0)
(0.001242018003260109 0 0)
(0.001212262047039098 0 0)
(0.001170127882446758 0 0)
(0.001136303334560671 0 0)
(0.001072555199801838 0 0)
(0.000985207325960423 0 0)
(0.0009197227206465225 0 0)
(0.0008428694551832702 0 0)
(0.000743331385035168 0 0)
(0.0006608129133553054 0 0)
(0.0005917886456080359 0 0)
(0.0004804448784957522 0 0)
(0.0004019819981520607 0 0)
(0.0003536969528297295 0 0)
(0.0002496603998622614 0 0)
(0.0001806236278849927 0 0)
(0.0001422223369886943 0 0)
(6.09956009181229e-05 0 0)
(1.128296378176635e-05 0 0)
(-1.142537137174982e-05 0 0)
(-5.94234471120729e-05 0 0)
(-8.734784224322646e-05 0 0)
(-7.891652126442472e-05 0 0)
(-7.658458600050292e-05 0 0)
(-7.451114904730662e-05 0 0)
(-3.102462968760161e-05 0 0)
(1.363945682771613e-05 0 0)
(6.294467186984893e-05 0 0)
(0.0001339500854025128 0 0)
(0.0002120175661221199 0 0)
(0.000279524038469604 0 0)
(0.0003639792093550041 0 0)
(0.0004428227316834968 0 0)
(0.0005219708876154696 0 0)
(0.000588205057408009 0 0)
(0.0006689111882087831 0 0)
(0.0007406053643969502 0 0)
(0.0007967917970426305 0 0)
(0.0008671625131342327 0 0)
(0.0009315429333578564 0 0)
(0.0009666066138023832 0 0)
(0.001029121318962405 0 0)
(0.001067669395206322 0 0)
(0.001084966010917364 0 0)
(0.001107761327569105 0 0)
(0.001129856296249333 0 0)
(0.001112437338332961 0 0)
(0.001099970096410746 0 0)
(0.001078631710575212 0 0)
(0.00102730112160637 0 0)
(0.0009725274235592177 0 0)
(0.0009034205885228824 0 0)
(0.0008329374672215985 0 0)
(0.0007477347719200166 0 0)
(0.0006647408597622207 0 0)
(0.0005722116013962185 0 0)
(0.0004931522449843362 0 0)
(0.0003966583233611227 0 0)
(0.0003188752801596924 0 0)
(0.0002343704979873683 0 0)
(0.0001538587446233574 0 0)
(8.920674959385915e-05 0 0)
(3.069179433827184e-05 0 0)
(-4.63633354399579e-05 0 0)
(-9.285655677741084e-05 0 0)
(-0.0001229871375214099 0 0)
(-0.0001775637740064742 0 0)
(-0.0002022181282621946 0 0)
(-0.000197505326458286 0 0)
(-0.0002241631161694138 0 0)
(-0.0002016197669775752 0 0)
(-0.0001697558006793115 0 0)
(-0.0001434867083898123 0 0)
(-0.0001001880147958889 0 0)
(-1.990953234402376e-05 0 0)
(4.285879515917387e-05 0 0)
(0.0001043742222256322 0 0)
(0.0002077560316071402 0 0)
(0.0002781162144248428 0 0)
(0.0003405410909110612 0 0)
(0.0004378169298921559 0 0)
(0.0005114474053166982 0 0)
(0.0005639172201045541 0 0)
(0.00064715142037426 0 0)
(0.0007096272698896407 0 0)
(0.0007612921358739445 0 0)
(0.0008242015268616962 0 0)
(0.0008683721830852326 0 0)
(0.000903974509006148 0 0)
(0.0009431262156913552 0 0)
(0.0009671797535614215 0 0)
(0.0009719759220991663 0 0)
(0.0009791432637276027 0 0)
(0.0009750383306539308 0 0)
(0.0009369637569024592 0 0)
(0.0009105438640246362 0 0)
(0.0008741889957278345 0 0)
(0.0007815993786138042 0 0)
(0.0007235401589852325 0 0)
(0.0006667137453228228 0 0)
(0.0005499595950313071 0 0)
(0.000479853887998165 0 0)
(0.0004007470873966285 0 0)
(0.0002937913857941412 0 0)
(0.0002234474536834112 0 0)
(0.0001362587418086358 0 0)
(4.350658640918012e-05 0 0)
(-1.096825161816358e-05 0 0)
(-7.626178231296748e-05 0 0)
(-0.0001533505707391147 0 0)
(-0.000200213106220741 0 0)
(-0.0002403167659923822 0 0)
(-0.0002864295635011235 0 0)
(-0.0003204447219029747 0 0)
(-0.0003288947091249931 0 0)
(-0.0003393614824817798 0 0)
(-0.0003505775169421547 0 0)
(-0.0003106048082879338 0 0)
(-0.0002913984502345824 0 0)
(-0.0002605879704774956 0 0)
(-0.0001896838466671834 0 0)
(-0.0001303519366633201 0 0)
(-6.432920682081598e-05 0 0)
(1.968532195305911e-05 0 0)
(9.626830340781281e-05 0 0)
(0.0001746928290059723 0 0)
(0.0002486546792395899 0 0)
(0.0003261278938510953 0 0)
(0.0003910021326378202 0 0)
(0.0004656774711400128 0 0)
(0.0005370900759458926 0 0)
(0.0005834456536605304 0 0)
(0.0006528999089998701 0 0)
(0.0006938518745683141 0 0)
(0.0007353239648590688 0 0)
(0.0007655151837822232 0 0)
(0.0008034955322746781 0 0)
(0.0007975252332220294 0 0)
(0.0008179920442693948 0 0)
(0.0008241475453442 0 0)
(0.0007789210352295859 0 0)
(0.000768576022920396 0 0)
(0.0007244447594460571 0 0)
(0.0006601939840190467 0 0)
(0.0005956409464077463 0 0)
(0.0005328210264449531 0 0)
(0.0004360624659003493 0 0)
(0.0003519524989666866 0 0)
(0.0002773124184778025 0 0)
(0.0001826070029102832 0 0)
(9.014434195666761e-05 0 0)
(3.176882302305013e-06 0 0)
(-5.77611715174498e-05 0 0)
(-0.0001660056012596847 0 0)
(-0.0002124313202784417 0 0)
(-0.0002727216583529309 0 0)
(-0.0003445803944903571 0 0)
(-0.000385046637078287 0 0)
(-0.0004241792984422209 0 0)
(-0.000453927954230562 0 0)
(-0.0004790581382763943 0 0)
(-0.0004914565869514596 0 0)
(-0.0004848053299376847 0 0)
(-0.0004684717826797447 0 0)
(-0.0004560875414009376 0 0)
(-0.0004096413135323748 0 0)
(-0.000351699188689182 0 0)
(-0.0003172988219652645 0 0)
(-0.0002256547589328177 0 0)
(-0.0001487827903890221 0 0)
(-8.383840733232226e-05 0 0)
(-6.595694619913021e-06 0 0)
(9.523944500096688e-05 0 0)
(0.0001495171128899119 0 0)
(0.0002207927769618204 0 0)
(0.0003060506297015209 0 0)
(0.0003713282236459092 0 0)
(0.0004291874389333025 0 0)
(0.0004864950227083583 0 0)
(0.0005457944179397475 0 0)
(0.0005895542029536594 0 0)
(0.000603909092559277 0 0)
(0.0006561756170825278 0 0)
(0.0006712703289335658 0 0)
(0.0006661543212963517 0 0)
(0.0006704789912515967 0 0)
(0.0006899342389750582 0 0)
(0.000616274010659317 0 0)
(0.0006082808066317258 0 0)
(0.0005724989377803727 0 0)
(0.0004810774046247332 0 0)
(0.0004276276611504552 0 0)
(0.0003621839443428628 0 0)
(0.0002592981678628089 0 0)
(0.0001787083291482558 0 0)
(0.0001046139286934763 0 0)
(1.259851935513772e-05 0 0)
(-7.860937718992338e-05 0 0)
(-0.0001695189782414631 0 0)
(-0.0002322236575657274 0 0)
(-0.000312260243473235 0 0)
(-0.0003832900589475433 0 0)
(-0.0004275473349662431 0 0)
(-0.00048227541203093 0 0)
(-0.0005366163574607253 0 0)
(-0.000557884399473804 0 0)
(-0.0005872048938353459 0 0)
(-0.0006089357199136331 0 0)
(-0.0005946854152077555 0 0)
(-0.0005982548421060674 0 0)
(-0.0005798668542393007 0 0)
(-0.0005305071902331211 0 0)
(-0.0004937463187710406 0 0)
(-0.0004525078396165656 0 0)
(-0.0003732601917287542 0 0)
(-0.000293285975809737 0 0)
(-0.0002334120095196744 0 0)
(-0.0001340603413320148 0 0)
(-6.356415457202334e-05 0 0)
(1.505586391637883e-05 0 0)
(0.0001037962565183471 0 0)
(0.0001641418202700603 0 0)
(0.0002349619063582732 0 0)
(0.0003192070665789638 0 0)
(0.0003691928978293286 0 0)
(0.0004205225101167177 0 0)
(0.0004881575557542694 0 0)
(0.0005104538186296722 0 0)
(0.0005426574905194394 0 0)
(0.0005778396147687135 0 0)
(0.0005646509249227245 0 0)
(0.0005973175574098347 0 0)
(0.0005768070776952946 0 0)
(0.0005586732394469303 0 0)
(0.0005374511163460133 0 0)
(0.0005070713291898162 0 0)
(0.0004294180627946565 0 0)
(0.0003871250971245219 0 0)
(0.000317415242310722 0 0)
(0.0002251611083837761 0 0)
(0.0001571693847875323 0 0)
(7.050996318735665e-05 0 0)
(-2.633060981693814e-05 0 0)
(-9.834272634367646e-05 0 0)
(-0.0001866144472779324 0 0)
(-0.0002728654390739875 0 0)
(-0.0003398507048916742 0 0)
(-0.0004133865797441765 0 0)
(-0.0004653659905764531 0 0)
(-0.0005152937539093434 0 0)
(-0.0005630215277050017 0 0)
(-0.0005931642271772953 0 0)
(-0.0006234262489845792 0 0)
(-0.000638651725722372 0 0)
(-0.0006432217054907305 0 0)
(-0.0006218445325138881 0 0)
(-0.0006219499231352883 0 0)
(-0.0005880581870758535 0 0)
(-0.000525420359210144 0 0)
(-0.0004967450762930114 0 0)
(-0.0004364952320854116 0 0)
(-0.0003357975765451202 0 0)
(-0.0002785558840838177 0 0)
(-0.0002039499003102547 0 0)
(-9.357723513337623e-05 0 0)
(-2.910583029780687e-05 0 0)
(4.600191389368066e-05 0 0)
(0.0001340708708369032 0 0)
(0.000221802850150681 0 0)
(0.0002529582512580262 0 0)
(0.0003628280188275606 0 0)
(0.0004049268966380858 0 0)
(0.0004647057681157328 0 0)
(0.0004994360095080037 0 0)
(0.0005682135410796101 0 0)
(0.0005654281193315729 0 0)
(0.0005853498646535412 0 0)
(0.0006096403712199858 0 0)
(0.0006077603278374806 0 0)
(0.0005823159790309457 0 0)
(0.0005760889411939515 0 0)
(0.0005448185737547033 0 0)
(0.0004877519161303195 0 0)
(0.0004387887506790628 0 0)
(0.0003882901738108213 0 0)
(0.0002897237543017298 0 0)
(0.0002284228070835473 0 0)
(0.000158513045403269 0 0)
(5.813417248776356e-05 0 0)
(-4.131817539126561e-05 0 0)
(-9.211978698986945e-05 0 0)
(-0.0001938204187304664 0 0)
(-0.0002903226527014403 0 0)
(-0.0003213386611502801 0 0)
(-0.0004019408814216293 0 0)
(-0.000477807382794907 0 0)
(-0.0004872699752360043 0 0)
(-0.0005278528852891969 0 0)
(-0.0005864288425329113 0 0)
(-0.00057848424009901 0 0)
(-0.0005922479820424609 0 0)
(-0.0005989044621070665 0 0)
(-0.0005789851391903438 0 0)
(-0.0005286212811948076 0 0)
(-0.0005284209869265705 0 0)
(-0.0004587077238327135 0 0)
(-0.0003937672389273157 0 0)
(-0.000346635446179238 0 0)
(-0.0002569194757242953 0 0)
(-0.0001746668673195846 0 0)
(-9.93965270549161e-05 0 0)
(-7.553878906154562e-06 0 0)
(6.291769485090051e-05 0 0)
(0.0001488496132140502 0 0)
(0.000222756341261718 0 0)
(0.0002884682200171877 0 0)
(0.0003693886264982296 0 0)
(0.0004288460434179843 0 0)
(0.0004789574292539837 0 0)
(0.0005375367328312853 0 0)
(0.0005832433924378316 0 0)
(0.0006019718144117009 0 0)
(0.0006454173772569616 0 0)
(0.0006257598918469592 0 0)
(0.0006470476246686605 0 0)
(0.000642927033746528 0 0)
(0.0006150614394079401 0 0)
(0.0005909424623525455 0 0)
(0.0005628838718108887 0 0)
(0.0004964760868072801 0 0)
(0.0004539960202654296 0 0)
(0.000381384146865608 0 0)
(0.0003066188171828333 0 0)
(0.0002372759351921585 0 0)
(0.0001624932176078813 0 0)
(6.440632548651417e-05 0 0)
(-1.535008078145972e-05 0 0)
(-9.242967464765846e-05 0 0)
(-0.000175369912216159 0 0)
(-0.0002580474663566284 0 0)
(-0.0002991408091441576 0 0)
(-0.0003701876611008408 0 0)
(-0.0004353323088963884 0 0)
(-0.0004451908471717569 0 0)
(-0.000468388929619765 0 0)
(-0.0005266144323037455 0 0)
(-0.0005125084652216518 0 0)
(-0.0004987822568915988 0 0)
(-0.0005094757779356789 0 0)
(-0.0004724963296640117 0 0)
(-0.0004170211061069802 0 0)
(-0.0004186277221407037 0 0)
(-0.0003258680395589109 0 0)
(-0.0002532089873447112 0 0)
(-0.0002047050876689563 0 0)
(-0.0001159270342012467 0 0)
(-6.983343430296406e-06 0 0)
(4.100207333903966e-05 0 0)
(0.0001561273093748331 0 0)
(0.0002357873985872286 0 0)
(0.0002955202327116729 0 0)
(0.0003745900214497181 0 0)
(0.0004883924324187959 0 0)
(0.0005117157169350213 0 0)
(0.0006017487493661607 0 0)
(0.000657550671508444 0 0)
(0.0006840689651606497 0 0)
(0.0007571122843962436 0 0)
(0.0007726646990042664 0 0)
(0.0007914638233676718 0 0)
(0.0007905230136395724 0 0)
(0.0008023674439861165 0 0)
(0.0007951185920593008 0 0)
(0.0007655844807946228 0 0)
(0.0007343907461378564 0 0)
(0.0007102203441504015 0 0)
(0.0006294817525853566 0 0)
(0.0005855507607951437 0 0)
(0.0005392967000521525 0 0)
(0.0004426889983433684 0 0)
(0.0003633792870015518 0 0)
(0.0003156952641415608 0 0)
(0.0002262888886602975 0 0)
(0.0001136872862858387 0 0)
(7.630682939964877e-05 0 0)
(-3.739157639764409e-05 0 0)
(-8.174185465250494e-05 0 0)
(-0.0001290336875129688 0 0)
(-0.000218947672211711 0 0)
(-0.000248997967158189 0 0)
(-0.0002475603163169031 0 0)
(-0.0003139922177529754 0 0)
(-0.0003078631268055811 0 0)
(-0.0002839890137685974 0 0)
(-0.0003063185250443224 0 0)
(-0.0002724096649309857 0 0)
(-0.0002205549291070215 0 0)
(-0.0001858738462063077 0 0)
(-0.0001472342557909521 0 0)
(-5.820758003635781e-05 0 0)
(4.790259328152878e-06 0 0)
(8.671226508567278e-05 0 0)
(0.000196492932421935 0 0)
(0.0002382124294515818 0 0)
(0.0003485540895013383 0 0)
(0.0004968841388241157 0 0)
(0.0004664145249230437 0 0)
(0.0005961499981906225 0 0)
(0.0007339518747083289 0 0)
(0.0006970627622818253 0 0)
(0.0008661791302992938 0 0)
(0.0009064899226396084 0 0)
(0.0008868129150050205 0 0)
(0.00102955839899156 0 0)
(0.001063109969487564 0 0)
(0.0009801640341255695 0 0)
(0.001102449518688178 0 0)
(0.001109639583135674 0 0)
)
;

boundaryField
{
    inlet
    {
        type            calculated;
        value           uniform (-2.84742529680873e-05 0 0);
    }
    outlet
    {
        type            calculated;
        value           uniform (0.001109639583135674 0 0);
    }
    frontAndBack
    {
        type            empty;
    }
}


// ************************************************************************* //
