/*--------------------------------*- C++ -*----------------------------------*\
| =========                 |                                                 |
| \\      /  F ield         | OpenFOAM: The Open Source CFD Toolbox           |
|  \\    /   O peration     | Version:  v2012                                 |
|   \\  /    A nd           | Website:  www.openfoam.com                      |
|    \\/     M anipulation  |                                                 |
\*---------------------------------------------------------------------------*/
FoamFile
{
    version     2.0;
    format      ascii;
    class       volScalarField;
    location    "0.0015";
    object      pMean;
}
// * * * * * * * * * * * * * * * * * * * * * * * * * * * * * * * * * * * * * //

dimensions      [1 -1 -2 0 0 0 0];


internalField   nonuniform List<scalar> 
1000
(
101328.3451813079
101328.4945693681
101328.4085908626
101328.3355179458
101328.2067769571
101328.0592106048
101327.8831490363
101327.6895056549
101327.476121472
101327.2497949187
101327.0146495954
101326.7799200763
101326.5451200059
101326.3140003994
101326.0890696475
101325.8759923077
101325.678577057
101325.5016954547
101325.3478323113
101325.2203725878
101325.1208584478
101325.051731163
101325.0137685805
101325.0082579672
101325.0348797178
101325.0935865126
101325.1828498323
101325.3014251439
101325.4470284767
101325.6182770935
101325.81301075
101326.0279884579
101326.2553121484
101326.4864382152
101326.7174668902
101326.9480063122
101327.1758398259
101327.3990631159
101327.6129540617
101327.8137679336
101327.9959237884
101328.155913194
101328.2894596254
101328.3948112444
101328.4694716545
101328.5131264591
101328.5244192865
101328.5039886623
101328.4514900192
101328.3685343609
101328.255571903
101328.1145374256
101327.9459931449
101327.7526341176
101327.5385467976
101327.3133286809
101327.0849265035
101326.856836362
101326.6292494143
101326.4036478596
101326.1821979855
101325.968162972
101325.7655957391
101325.5790954756
101325.4132556143
101325.2722572354
101325.159434508
101325.0771733236
101325.0268806064
101325.0091729144
101325.0240275674
101325.0709950209
101325.1493318699
101325.258172968
101325.3966346461
101325.5636439481
101325.7568644921
101325.9703892357
101326.1942006374
101326.4201774683
101326.6460383783
101326.8714097884
101327.094805853
101327.3146649437
101327.5276448555
101327.7305309839
101327.9186057747
101328.0878430129
101328.2334825335
101328.3522534878
101328.4408655168
101328.4979160329
101328.5220816971
101328.5136885446
101328.4727450095
101328.4003889083
101328.2969420188
101328.1634912688
101328.000554011
101327.8108839364
101327.6001031143
101327.3787392775
101327.1547791053
101326.9310237604
101326.7076845077
101326.4858591101
101326.2672365048
101326.0543566612
101325.8505292348
101325.6597067054
101325.4862302031
101325.3344937288
101325.2085608827
101325.11182467
101325.0467521323
101325.0147920502
101325.0164557291
101325.0515558269
101325.1195083566
101325.2196048369
101325.3511295021
101325.5129908778
101325.7024078661
101325.9125126256
101326.1326021543
101326.35467899
101326.5766804695
101326.798275311
101327.0183180099
101327.2355006123
101327.4471527327
101327.6505321389
101327.841627393
101328.0166668315
101328.1710835268
101328.3011563498
101328.4030441559
101328.4743361134
101328.5129212241
101328.5182483493
101328.4899116428
101328.4286242882
101328.3346782086
101328.2090442011
101328.0524579164
101327.8678566931
101327.6613633094
101327.4437827857
101327.2234353248
101327.0031964393
101326.7832698319
101326.5645207131
101326.348321266
101326.1367538531
101325.9326132969
101325.7393148964
101325.5607847585
101325.4011988576
101325.2647329463
101325.1552147935
101325.0758601227
101325.0290211713
101325.016141947
101325.0378080744
101325.0939939366
101325.1842736881
101325.30798071
101325.4638267559
101325.6486065503
101325.8549011847
101326.071568015
101326.2903705117
101326.5091474934
101326.7275968255
101326.9448059206
101327.1596610241
101327.3699496242
101327.573287982
101327.7662134718
101327.9452718508
101328.1062402515
101328.2453448894
101328.3585769202
101328.4429249162
101328.4956229939
101328.515219523
101328.5005979845
101328.4517677403
101328.3686894236
101328.2520987941
101328.1028451443
101327.923986117
101327.7219925948
101327.5079950615
101327.2908954538
101327.0738152798
101326.8569651459
101326.6410648572
101326.4272609925
101326.2173500682
101326.0137587399
101325.8195221669
101325.6381867857
101325.4736388715
101325.3298474086
101325.2105064398
101325.1185283082
101325.0552471744
101325.0191004184
101325.0040696824
101325.0004021478
101325.0000126955
101325.000000085
101325.0000000003
101325.0000000002
101325.0000000002
101325.0000000003
101325.0000000003
101325.0000000002
101325.0000000002
101325.0000000002
101325.0000000002
101325.0000000003
101325.0000000003
101325.0000000003
101325.0000000002
101325.0000000002
101325.0000000003
101325.0000000003
101325.0000000003
101325.0000000003
101325.0000000002
101325.0000000003
101325.0000000003
101325.0000000003
101325.0000000003
101325.0000000003
101325.0000000002
101325.0000000003
101325.0000000002
101325.0000000003
101325.0000000003
101325.0000000003
101325.0000000003
101325.0000000002
101325.0000000002
101325.0000000002
101325.0000000002
101325.0000000002
101325.0000000002
101325.0000000002
101325.0000000002
101325.0000000002
101325.0000000002
101325.0000000002
101325.0000000002
101325.0000000002
101325.0000000002
101325.0000000002
101325.0000000002
101325.0000000002
101325.0000000002
101325.0000000002
101325.0000000002
101325.0000000002
101325.0000000002
101325.0000000003
101325.0000000003
101325.0000000003
101325.0000000003
101325.0000000002
101325.0000000002
101325.0000000002
101325.0000000002
101325.0000000002
101325.0000000002
101325.0000000002
101325.0000000002
101325.0000000002
101325.0000000002
101325.0000000002
101325.0000000002
101325.0000000002
101325.0000000003
101325.0000000002
101325.0000000003
101325.0000000002
101325.0000000003
101325.0000000002
101325.0000000002
101325.0000000002
101325.0000000003
101325.0000000002
101325.0000000002
101325.0000000002
101325.0000000002
101325.0000000003
101325.0000000003
101325.0000000002
101325.0000000002
101325.0000000002
101325.0000000002
101325.0000000002
101325.0000000002
101325.0000000002
101325.0000000002
101325.0000000002
101325.0000000002
101325.0000000002
101325.0000000002
101325.0000000003
101325.0000000002
101325.0000000002
101325.0000000002
101325.0000000002
101325.0000000003
101325.0000000003
101325.0000000003
101325.0000000003
101325.0000000003
101325.0000000003
101325.0000000003
101325.0000000003
101325.0000000003
101325.0000000003
101325.0000000003
101325.0000000003
101325.0000000003
101325.0000000003
101325.0000000003
101325.0000000003
101325.0000000003
101325.0000000003
101325.0000000002
101325.0000000003
101325.0000000003
101325.0000000003
101325.0000000003
101325.0000000003
101325.0000000003
101325.0000000003
101325.0000000003
101325.0000000002
101325.0000000002
101325.0000000002
101325.0000000003
101325.0000000003
101325.0000000003
101325.0000000003
101325.0000000003
101325.0000000003
101325.0000000003
101325.0000000003
101325.0000000003
101325.0000000003
101325.0000000003
101325.0000000003
101325.0000000003
101325.0000000003
101325.0000000003
101325.0000000003
101325.0000000003
101325.0000000003
101325.0000000003
101325.0000000003
101325.0000000003
101325.0000000003
101325.0000000003
101325.0000000002
101325.0000000003
101325.0000000003
101325.0000000003
101325.0000000003
101325.0000000003
101325.0000000003
101325.0000000003
101325.0000000003
101325.0000000003
101325.0000000003
101325.0000000003
101325.0000000003
101325.0000000003
101325.0000000003
101325.0000000003
101325.0000000003
101325.0000000003
101325.0000000003
101325.0000000003
101325.0000000003
101325.0000000003
101325.0000000003
101325.0000000003
101325.0000000003
101325.0000000003
101325.0000000003
101325.0000000003
101325.0000000003
101325.0000000003
101325.0000000003
101325.0000000003
101325.0000000003
101325.0000000003
101325.0000000003
101325.0000000003
101325.0000000003
101325.0000000003
101325.0000000003
101325.0000000003
101325.0000000003
101325.0000000003
101325.0000000003
101325.0000000003
101325.0000000003
101325.0000000003
101325.0000000003
101325.0000000003
101325.0000000003
101325.0000000003
101325.0000000003
101325.0000000003
101325.0000000003
101325.0000000003
101325.0000000003
101325.0000000003
101325.0000000003
101325.0000000003
101325.0000000003
101325.0000000003
101325.0000000003
101325.0000000003
101325.0000000003
101325.0000000003
101325.0000000003
101325.0000000003
101325.0000000003
101325.0000000003
101325.0000000003
101325.0000000003
101325.0000000003
101325.0000000003
101325.0000000003
101325.0000000003
101325.0000000003
101325.0000000003
101325.0000000003
101325.0000000003
101325.0000000003
101325.0000000003
101325.0000000003
101325.0000000004
101325.0000000003
101325.0000000003
101325.0000000003
101325.0000000003
101325.0000000003
101325.0000000003
101325.0000000003
101325.0000000003
101325.0000000003
101325.0000000003
101325.0000000003
101325.0000000003
101325.0000000003
101325.0000000003
101325.0000000003
101325.0000000003
101325.0000000003
101325.0000000003
101325.0000000003
101325.0000000003
101325.0000000003
101325.0000000003
101325.0000000003
101325.0000000003
101325.0000000003
101325.0000000003
101325.0000000003
101325.0000000003
101325.0000000003
101325.0000000003
101325.0000000003
101325.0000000003
101325.0000000003
101325.0000000003
101325.0000000003
101325.0000000003
101325.0000000003
101325.0000000003
101325.0000000003
101325.0000000003
101325.0000000003
101325.0000000003
101325.0000000003
101325.0000000003
101325.0000000003
101325.0000000003
101325.0000000003
101325.0000000003
101325.0000000003
101325.0000000003
101325.0000000003
101325.0000000003
101325.0000000003
101325.0000000003
101325.0000000003
101325.0000000003
101325.0000000003
101325.0000000003
101325.0000000003
101325.0000000003
101325.0000000003
101325.0000000003
101325.0000000003
101325.0000000003
101325.0000000003
101325.0000000003
101325.0000000003
101325.0000000003
101325.0000000003
101325.0000000003
101325.0000000003
101325.0000000003
101325.0000000003
101325.0000000003
101325.0000000003
101325.0000000003
101325.0000000003
101325.0000000003
101325.0000000003
101325.0000000003
101325.0000000003
101325.0000000003
101325.0000000003
101325.0000000003
101325.0000000003
101325.0000000003
101325.0000000003
101325.0000000003
101325.0000000003
101325.0000000003
101325.0000000003
101325.0000000003
101325.0000000003
101325.0000000003
101325.0000000003
101325.0000000003
101325.0000000003
101325.0000000003
101325.0000000003
101325.0000000003
101325.0000000003
101325.0000000003
101325.0000000003
101325.0000000003
101325.0000000003
101325.0000000003
101325.0000000003
101325.0000000003
101325.0000000003
101325.0000000003
101325.0000000003
101325.0000000003
101325.0000000003
101325.0000000003
101325.0000000003
101325.0000000003
101325.0000000003
101325.0000000003
101325.0000000003
101325.0000000003
101325.0000000003
101325.0000000003
101325.0000000003
101325.0000000003
101325.0000000003
101325.0000000002
101325.0000000003
101325.0000000003
101325.0000000003
101325.0000000003
101325.0000000003
101325.0000000003
101325.0000000003
101325.0000000003
101325.0000000003
101325.0000000003
101325.0000000003
101325.0000000003
101325.0000000003
101325.0000000003
101325.0000000003
101325.0000000003
101325.0000000003
101325.0000000003
101325.0000000003
101325.0000000003
101325.0000000003
101325.0000000003
101325.0000000003
101325.0000000003
101325.0000000002
101325.0000000003
101325.0000000003
101325.0000000003
101325.0000000003
101325.0000000003
101325.0000000003
101325.0000000003
101325.0000000003
101325.0000000002
101325.0000000003
101325.0000000002
101325.0000000003
101325.0000000002
101325.0000000002
101325.0000000003
101325.0000000003
101325.0000000003
101325.0000000003
101325.0000000003
101325.0000000003
101325.0000000003
101325.0000000003
101325.0000000002
101325.0000000003
101325.0000000002
101325.0000000003
101325.0000000003
101325.0000000003
101325.0000000003
101325.0000000003
101325.0000000003
101325.0000000003
101325.0000000003
101325.0000000003
101325.0000000003
101325.0000000003
101325.0000000003
101325.0000000003
101325.0000000002
101325.0000000003
101325.0000000002
101325.0000000002
101325.0000000002
101325.0000000002
101325.0000000002
101325.0000000003
101325.0000000003
101325.0000000002
101325.0000000002
101325.0000000003
101325.0000000003
101325.0000000003
101325.0000000003
101325.0000000003
101325.0000000003
101325.0000000002
101325.0000000002
101325.0000000002
101325.0000000002
101325.0000000002
101325.0000000002
101325.0000000003
101325.0000000003
101325.0000000003
101325.0000000002
101325.0000000002
101325.0000000002
101325.0000000002
101325.0000000002
101325.0000000002
101325.0000000003
101325.0000000002
101325.0000000002
101325.0000000002
101325.0000000002
101325.0000000003
101325.0000000002
101325.0000000002
101325.0000000002
101325.0000000002
101325.0000000002
101325.0000000002
101325.0000000002
101325.0000000002
101325.0000000002
101325.0000000002
101325.0000000002
101325.0000000002
101325.0000000002
101325.0000000002
101325.0000000003
101325.0000000002
101325.0000000003
101325.0000000003
101325.0000000002
101325.0000000003
101325.0000000003
101325.0000000003
101325.0000000003
101325.0000000003
101325.0000000003
101325.0000000003
101325.0000000002
101325.0000000002
101325.0000000002
101325.0000000002
101325.0000000002
101325.0000000002
101325.0000000002
101325.0000000002
101325.0000000002
101325.0000000002
101325.0000000003
101325.0000000003
101325.0000000003
101325.0000000003
101325.0000000003
101325.0000000002
101325.0000000002
101325.0000000002
101325.0000000002
101325.0000000002
101325.0000000002
101325.0000000002
101325.0000000002
101325.0000000002
101325.0000000002
101325.0000000002
101325.0000000002
101325.0000000002
101325.0000000003
101325.0000000003
101325.0000000003
101325.0000000002
101325.0000000002
101325.0000000002
101325.0000000002
101325.0000000002
101325.0000000002
101325.0000000002
101325.0000000002
101325.0000000002
101325.0000000002
101325.0000000002
101325.0000000002
101325.0000000002
101325.0000000002
101325.0000000002
101325.0000000002
101325.0000000002
101325.0000000002
101325.0000000002
101325.0000000002
101325.0000000002
101325.0000000002
101325.0000000002
101325.0000000002
101325.0000000002
101325.0000000002
101325.0000000002
101325.0000000002
101325.0000000003
101325.0000000003
101325.0000000003
101325.0000000003
101325.0000000003
101325.0000000003
101325.0000000003
101325.0000000002
101325.0000000002
101325.0000000003
101325.0000000002
101325.0000000003
101325.0000000002
101325.0000000002
101325.0000000003
101325.0000000003
101325.0000000003
101325.0000000003
101325.0000000003
101325.0000000003
101325.0000000003
101325.0000000003
101325.0000000003
101325.0000000003
101325.0000000002
101325.0000000002
101325.0000000002
101325.0000000002
101325.0000000002
101325.0000000002
101325.0000000002
101325.0000000002
101325.0000000002
101325.0000000002
101325.0000000002
101325.0000000002
101325.0000000002
101325.0000000002
101325.0000000002
101325.0000000002
101325.0000000002
101325.0000000002
101325.0000000002
101325.0000000002
101325.0000000002
101325.0000000002
101325.0000000002
101325.0000000002
101325.0000000002
101325.0000000002
101325.0000000002
101325.0000000003
101325.0000000003
101325.0000000003
101325.0000000003
101325.0000000003
101325.0000000003
101325.0000000003
101325.0000000003
101325.0000000003
101325.0000000003
101325.0000000003
101325.0000000003
101325.0000000003
101325.0000000003
101325.0000000003
101325.0000000003
101325.0000000003
101325.0000000003
101325.0000000003
101325.0000000003
101325.0000000002
101325.0000000003
101325.0000000002
101325.0000000002
101325.0000000003
101325.0000000003
101325.0000000003
101325.0000000002
101325.0000000003
101325.0000000003
101325.0000000003
101325.0000000003
101325.0000000003
101325.0000000003
101325.0000000003
101325.0000000003
101325.0000000003
101325.0000000003
101325.0000000003
101325.0000000003
101325.0000000003
101325.0000000003
101325.0000000003
101325.0000000003
101325.0000000003
101325.0000000003
101325.0000000003
101325.0000000003
101325.0000000003
101325.0000000003
101325.0000000003
101325.0000000003
101325.0000000003
101325.0000000003
101325.0000000003
101325.0000000003
101325.0000000003
101325.0000000003
101325.0000000003
101325.0000000003
101325.0000000003
101325.0000000003
101325.0000000003
101325.0000000003
101325.0000000004
101325.0000000004
101325.0000000003
101325.0000000003
101325.0000000003
101325.0000000003
101325.0000000003
101325.0000000003
101325.0000000003
101325.0000000003
101325.0000000003
101325.0000000003
101325.0000000003
101325.0000000003
101325.0000000004
101325.0000000004
101325.0000000004
101325.0000000004
101325.0000000003
101325.0000000004
101325.0000000003
101325.0000000003
101325.0000000003
101325.0000000003
101325.0000000003
101325.0000000003
101325.0000000003
101325.0000000003
101325.0000000003
101325.0000000004
101325.0000000004
101325.0000000003
101325.0000000004
101325.0000000004
101325.0000000003
101325.0000000003
101325.0000000003
101325.0000000003
101325.0000000003
101325.0000000003
101325.0000000004
101325.0000000004
101325.0000000004
101325.0000000003
101325.0000000003
101325.0000000003
101325.0000000004
101325.0000000004
101325.0000000004
101325.0000000004
101325.0000000004
101325.0000000004
101325.0000000004
101325.0000000004
101325.0000000003
101325.0000000003
101325.0000000003
101325.0000000004
101325.0000000004
101325.0000000004
101325.0000000004
101325.0000000004
101325.0000000004
101325.0000000004
101325.0000000004
101325.0000000004
101325.0000000004
101325.0000000003
101325.0000000003
101325.0000000003
101325.0000000003
101325.0000000004
101325.0000000004
101325.0000000003
101325.0000000003
101325.0000000003
101325.0000000003
101325.0000000003
101325.0000000003
101325.0000000003
101325.0000000003
101325.0000000003
101325.0000000003
101325.0000000003
101325.0000000004
101325.0000000004
101325.0000000004
101325.0000000003
101325.0000000003
101325.0000000003
101325.0000000004
101325.0000000003
101325.0000000003
101325.0000000003
101325.0000000003
101325.0000000003
101325.0000000003
101325.0000000003
101325.0000000003
101325.0000000003
101325.0000000003
101325.0000000003
101325.0000000003
101325.0000000003
101325.0000000003
101325.0000000003
101325.0000000003
101325.0000000003
101325.0000000003
101325.0000000003
101325.0000000003
101325.0000000003
101325.0000000003
101325.0000000003
101325.0000000002
101325.0000000002
101325.0000000002
101325.0000000002
101325.0000000002
101325.0000000002
101325.0000000002
101325.0000000001
101325.0000000001
)
;

boundaryField
{
    inlet
    {
        type            calculated;
        value           uniform 101328.5365590856;
    }
    outlet
    {
        type            calculated;
        value           uniform 101325.0000000001;
    }
    frontAndBack
    {
        type            empty;
    }
}


// ************************************************************************* //
