/*--------------------------------*- C++ -*----------------------------------*\
| =========                 |                                                 |
| \\      /  F ield         | OpenFOAM: The Open Source CFD Toolbox           |
|  \\    /   O peration     | Version:  v2012                                 |
|   \\  /    A nd           | Website:  www.openfoam.com                      |
|    \\/     M anipulation  |                                                 |
\*---------------------------------------------------------------------------*/
FoamFile
{
    version     2.0;
    format      ascii;
    class       volScalarField;
    location    "0.0015";
    object      rho;
}
// * * * * * * * * * * * * * * * * * * * * * * * * * * * * * * * * * * * * * //

dimensions      [1 -3 0 0 0 0 0];


internalField   nonuniform List<scalar> 
1000
(
1.176532951488172
1.176509284089838
1.176561898578874
1.176603960306134
1.1766533900804
1.176698442009986
1.176736498683701
1.176768318802225
1.176795214740914
1.176813170881915
1.176817934486161
1.176817978372629
1.176815150377062
1.176807008310601
1.176790758792252
1.176765923305185
1.176733470705024
1.176694899257272
1.176651430976258
1.176603890568879
1.176552954070807
1.176499367833814
1.176444016665882
1.176387923311775
1.176332226585989
1.176278089406629
1.176226506873704
1.176178071988912
1.17613285058204
1.176090741348026
1.176053065340023
1.176025250047715
1.176013491096373
1.176012175206787
1.176012810280432
1.176015059323125
1.176021343002503
1.176033579498345
1.176053477193912
1.176081779651161
1.176118108143336
1.17616115863423
1.176209231303689
1.176260752126793
1.176314506768773
1.176369572235033
1.17642513646673
1.176480376403658
1.176534453549046
1.176586650177105
1.176636605617639
1.176684349631138
1.176729507560291
1.176769123877866
1.176795920833026
1.176805420210891
1.176806157532093
1.176805852795398
1.176803774569976
1.176798614774917
1.176788489392278
1.176771791676842
1.17674734545232
1.176714731895112
1.176674402868325
1.176627580290454
1.176575950059778
1.176521269481293
1.176465062895257
1.17640851727592
1.176352525487444
1.176297717961521
1.176244413532377
1.176192631003769
1.176142442003681
1.176095030579853
1.176054740925153
1.176029548925237
1.176021737457966
1.176021228505001
1.17602175483233
1.176023575896911
1.176028305895099
1.176037395469954
1.176052361344984
1.176074410827566
1.17610422854936
1.176141794118568
1.176186349769256
1.17623653347866
1.176290631966848
1.17634688189429
1.176403750255841
1.176460125208412
1.176515372274073
1.176569276016247
1.176621898055435
1.176673200292003
1.176721950916606
1.17676357160337
1.176789765376288
1.176798028849775
1.176798574403717
1.176798321799589
1.176796728628453
1.176792760796577
1.176784956691244
1.176771928784504
1.176752429112987
1.176725568621591
1.176690988614509
1.176648984033192
1.176600515176917
1.176547070099816
1.17649040645278
1.176432255399795
1.17637405573947
1.17631675221502
1.17626071826734
1.176205930760074
1.176152576153486
1.176102364993284
1.176060605726603
1.176035668042676
1.176028423426902
1.176027983556419
1.176028386722576
1.176029838499691
1.176033617428455
1.17604092397061
1.176053065966105
1.17607121627282
1.176096270783495
1.176128686166228
1.176168368583613
1.176214637087289
1.176266277676092
1.176321706079155
1.176379234711469
1.176437374237031
1.176495060016425
1.176551730233693
1.176607214353118
1.176661277605087
1.176712423435354
1.176755771355566
1.176782970484017
1.176791753539621
1.176792445291539
1.176792269983742
1.176791048015526
1.176787930431928
1.176781680648196
1.176771085210564
1.176754966910557
1.176732342649297
1.176702558098392
1.17666542135014
1.176621290911615
1.176571073375283
1.176516116503953
1.176458016399984
1.176398362037138
1.176338457486151
1.176279131939268
1.17622082072486
1.176164131220959
1.176111169699781
1.176067576346025
1.176041725449748
1.176034129082413
1.176033621119046
1.176033925401528
1.176035075259054
1.17603814395326
1.176044159529426
1.176054273809004
1.176069580722253
1.176091015150715
1.176119224413768
1.176154460308079
1.176196503997185
1.176244641573746
1.176297722395667
1.176354321512394
1.176412974450128
1.17647240887913
1.176531699719067
1.176590260436896
1.176647463434675
1.176701488476941
1.176747250747118
1.176776280080486
1.176786050795668
1.176786949398737
1.176786833353951
1.176785883753589
1.176783351408423
1.176778149155215
1.17676918986027
1.176755376736283
1.176735731640052
1.176709515974578
1.176676373828348
1.176636493037823
1.176590815057244
1.176541405881385
1.176492206624215
1.176450019011315
1.176423127879896
1.176413263817208
1.176411779821426
1.17641171669046
1.17641171617276
1.176411716172197
1.176411716172197
1.176411716172197
1.176411716172198
1.176411716172198
1.176411716172198
1.176411716172198
1.176411716172198
1.176411716172199
1.176411716172199
1.176411716172199
1.176411716172199
1.176411716172198
1.176411716172198
1.176411716172198
1.176411716172198
1.176411716172197
1.176411716172197
1.176411716172197
1.176411716172197
1.176411716172197
1.176411716172198
1.176411716172197
1.176411716172197
1.176411716172198
1.176411716172198
1.176411716172199
1.176411716172199
1.176411716172199
1.176411716172198
1.176411716172198
1.176411716172198
1.176411716172199
1.176411716172199
1.176411716172198
1.176411716172198
1.176411716172198
1.176411716172198
1.176411716172198
1.176411716172198
1.176411716172198
1.176411716172198
1.176411716172198
1.176411716172198
1.176411716172197
1.176411716172198
1.176411716172198
1.176411716172198
1.176411716172198
1.176411716172198
1.176411716172199
1.176411716172198
1.176411716172198
1.176411716172198
1.176411716172198
1.176411716172198
1.176411716172198
1.176411716172198
1.176411716172197
1.176411716172197
1.176411716172198
1.176411716172198
1.176411716172198
1.176411716172198
1.176411716172198
1.176411716172199
1.176411716172198
1.176411716172199
1.176411716172199
1.176411716172198
1.176411716172198
1.176411716172198
1.176411716172197
1.176411716172197
1.176411716172197
1.176411716172197
1.176411716172197
1.176411716172197
1.176411716172198
1.176411716172198
1.176411716172198
1.176411716172199
1.176411716172198
1.176411716172198
1.176411716172198
1.176411716172198
1.176411716172198
1.176411716172198
1.176411716172198
1.176411716172198
1.176411716172198
1.176411716172198
1.176411716172198
1.176411716172198
1.176411716172198
1.176411716172198
1.176411716172198
1.176411716172198
1.176411716172199
1.176411716172199
1.176411716172199
1.176411716172199
1.176411716172199
1.176411716172198
1.176411716172198
1.176411716172198
1.176411716172198
1.176411716172198
1.176411716172198
1.176411716172198
1.176411716172198
1.176411716172198
1.176411716172198
1.176411716172198
1.176411716172198
1.176411716172198
1.176411716172198
1.176411716172198
1.176411716172198
1.176411716172199
1.176411716172199
1.176411716172199
1.176411716172199
1.1764117161722
1.1764117161722
1.176411716172201
1.176411716172201
1.176411716172201
1.176411716172201
1.1764117161722
1.1764117161722
1.1764117161722
1.1764117161722
1.1764117161722
1.176411716172199
1.176411716172199
1.176411716172199
1.176411716172199
1.176411716172199
1.176411716172199
1.176411716172199
1.176411716172199
1.176411716172199
1.176411716172199
1.176411716172199
1.176411716172199
1.176411716172199
1.176411716172199
1.176411716172199
1.176411716172199
1.176411716172199
1.176411716172198
1.176411716172198
1.176411716172198
1.176411716172198
1.176411716172199
1.176411716172198
1.176411716172198
1.176411716172198
1.176411716172198
1.176411716172198
1.176411716172198
1.176411716172199
1.176411716172199
1.176411716172199
1.176411716172199
1.176411716172199
1.176411716172199
1.176411716172198
1.176411716172199
1.176411716172199
1.176411716172199
1.176411716172199
1.1764117161722
1.1764117161722
1.1764117161722
1.1764117161722
1.1764117161722
1.1764117161722
1.1764117161722
1.1764117161722
1.1764117161722
1.1764117161722
1.176411716172199
1.176411716172199
1.176411716172199
1.1764117161722
1.176411716172199
1.176411716172199
1.176411716172199
1.176411716172199
1.176411716172199
1.176411716172199
1.176411716172199
1.176411716172199
1.176411716172199
1.176411716172199
1.176411716172199
1.176411716172199
1.176411716172199
1.176411716172199
1.176411716172199
1.176411716172199
1.176411716172199
1.176411716172199
1.176411716172199
1.176411716172199
1.176411716172199
1.176411716172199
1.176411716172199
1.176411716172199
1.176411716172199
1.176411716172199
1.176411716172199
1.176411716172199
1.176411716172199
1.1764117161722
1.176411716172199
1.176411716172199
1.176411716172199
1.176411716172199
1.176411716172199
1.1764117161722
1.1764117161722
1.1764117161722
1.1764117161722
1.1764117161722
1.1764117161722
1.176411716172199
1.176411716172199
1.1764117161722
1.1764117161722
1.1764117161722
1.1764117161722
1.1764117161722
1.176411716172199
1.176411716172199
1.176411716172199
1.176411716172199
1.176411716172199
1.176411716172199
1.176411716172199
1.176411716172199
1.1764117161722
1.1764117161722
1.1764117161722
1.1764117161722
1.1764117161722
1.1764117161722
1.1764117161722
1.1764117161722
1.176411716172199
1.176411716172199
1.176411716172199
1.176411716172199
1.176411716172199
1.176411716172199
1.176411716172199
1.176411716172199
1.176411716172199
1.176411716172199
1.176411716172199
1.176411716172198
1.176411716172198
1.176411716172197
1.176411716172198
1.176411716172198
1.176411716172198
1.176411716172198
1.176411716172198
1.176411716172198
1.176411716172198
1.176411716172197
1.176411716172197
1.176411716172197
1.176411716172197
1.176411716172197
1.176411716172197
1.176411716172197
1.176411716172197
1.176411716172197
1.176411716172198
1.176411716172198
1.176411716172198
1.176411716172198
1.176411716172198
1.176411716172198
1.176411716172198
1.176411716172199
1.176411716172199
1.176411716172199
1.176411716172199
1.176411716172199
1.176411716172199
1.176411716172199
1.176411716172199
1.1764117161722
1.176411716172199
1.176411716172199
1.176411716172199
1.176411716172199
1.176411716172199
1.176411716172199
1.176411716172199
1.176411716172199
1.176411716172199
1.176411716172199
1.176411716172199
1.176411716172199
1.176411716172199
1.176411716172199
1.176411716172199
1.1764117161722
1.1764117161722
1.1764117161722
1.1764117161722
1.1764117161722
1.1764117161722
1.1764117161722
1.176411716172199
1.176411716172199
1.176411716172199
1.1764117161722
1.1764117161722
1.1764117161722
1.1764117161722
1.1764117161722
1.1764117161722
1.1764117161722
1.1764117161722
1.1764117161722
1.176411716172199
1.176411716172199
1.176411716172199
1.176411716172199
1.176411716172199
1.1764117161722
1.1764117161722
1.176411716172199
1.176411716172199
1.176411716172199
1.176411716172199
1.176411716172199
1.176411716172199
1.176411716172199
1.176411716172199
1.176411716172199
1.1764117161722
1.1764117161722
1.1764117161722
1.1764117161722
1.1764117161722
1.1764117161722
1.1764117161722
1.176411716172199
1.176411716172199
1.176411716172199
1.176411716172199
1.176411716172199
1.176411716172199
1.176411716172199
1.176411716172199
1.1764117161722
1.176411716172199
1.176411716172199
1.176411716172199
1.176411716172199
1.1764117161722
1.1764117161722
1.1764117161722
1.1764117161722
1.176411716172199
1.1764117161722
1.1764117161722
1.1764117161722
1.1764117161722
1.1764117161722
1.176411716172199
1.176411716172199
1.176411716172199
1.176411716172199
1.176411716172199
1.176411716172199
1.176411716172199
1.176411716172199
1.176411716172199
1.176411716172199
1.1764117161722
1.1764117161722
1.1764117161722
1.1764117161722
1.176411716172199
1.176411716172199
1.176411716172199
1.176411716172199
1.176411716172199
1.176411716172199
1.176411716172199
1.176411716172199
1.176411716172199
1.176411716172199
1.176411716172199
1.176411716172199
1.176411716172199
1.176411716172199
1.176411716172199
1.176411716172199
1.176411716172199
1.176411716172199
1.176411716172199
1.176411716172199
1.176411716172199
1.176411716172199
1.176411716172198
1.176411716172197
1.176411716172198
1.176411716172199
1.176411716172199
1.176411716172199
1.176411716172199
1.176411716172199
1.176411716172199
1.1764117161722
1.1764117161722
1.176411716172199
1.176411716172199
1.176411716172199
1.176411716172199
1.176411716172199
1.176411716172199
1.176411716172199
1.176411716172199
1.176411716172199
1.176411716172199
1.176411716172199
1.176411716172199
1.176411716172199
1.176411716172199
1.176411716172198
1.176411716172198
1.176411716172198
1.176411716172198
1.176411716172198
1.176411716172198
1.176411716172198
1.176411716172199
1.176411716172199
1.176411716172198
1.176411716172198
1.176411716172198
1.176411716172197
1.176411716172197
1.176411716172197
1.176411716172197
1.176411716172197
1.176411716172197
1.176411716172197
1.176411716172197
1.176411716172196
1.176411716172196
1.176411716172197
1.176411716172197
1.176411716172197
1.176411716172197
1.176411716172197
1.176411716172198
1.176411716172198
1.176411716172198
1.176411716172198
1.176411716172198
1.176411716172198
1.176411716172198
1.176411716172198
1.176411716172198
1.176411716172198
1.176411716172198
1.176411716172198
1.176411716172199
1.176411716172199
1.176411716172199
1.176411716172199
1.1764117161722
1.1764117161722
1.176411716172199
1.176411716172199
1.176411716172199
1.176411716172198
1.176411716172199
1.176411716172198
1.176411716172198
1.176411716172198
1.176411716172198
1.176411716172198
1.176411716172199
1.176411716172198
1.176411716172199
1.176411716172199
1.1764117161722
1.1764117161722
1.1764117161722
1.1764117161722
1.1764117161722
1.176411716172199
1.176411716172198
1.176411716172198
1.176411716172198
1.176411716172198
1.176411716172198
1.176411716172198
1.176411716172198
1.176411716172197
1.176411716172197
1.176411716172197
1.176411716172197
1.176411716172198
1.176411716172198
1.176411716172197
1.176411716172197
1.176411716172197
1.176411716172197
1.176411716172197
1.176411716172197
1.176411716172197
1.176411716172197
1.176411716172198
1.176411716172198
1.176411716172198
1.176411716172198
1.176411716172198
1.176411716172199
1.176411716172199
1.176411716172199
1.176411716172198
1.176411716172198
1.176411716172198
1.176411716172198
1.176411716172198
1.176411716172198
1.176411716172198
1.176411716172198
1.176411716172199
1.176411716172198
1.176411716172198
1.176411716172198
1.176411716172199
1.176411716172199
1.176411716172199
1.1764117161722
1.176411716172199
1.176411716172199
1.176411716172199
1.1764117161722
1.1764117161722
1.176411716172199
1.1764117161722
1.1764117161722
1.1764117161722
1.176411716172199
1.176411716172199
1.176411716172199
1.176411716172199
1.176411716172198
1.176411716172198
1.176411716172198
1.176411716172198
1.176411716172198
1.176411716172197
1.176411716172197
1.176411716172197
1.176411716172197
1.176411716172197
1.176411716172197
1.176411716172197
1.176411716172197
1.176411716172197
1.176411716172197
1.176411716172197
1.176411716172197
1.176411716172198
1.176411716172198
1.176411716172198
1.176411716172198
1.176411716172198
1.176411716172198
1.176411716172199
1.176411716172198
1.176411716172198
1.176411716172198
1.176411716172198
1.176411716172198
1.176411716172199
1.176411716172199
1.176411716172199
1.176411716172199
1.176411716172198
1.176411716172199
1.176411716172199
1.176411716172199
1.176411716172199
1.176411716172199
1.176411716172199
1.176411716172199
1.176411716172199
1.176411716172198
1.176411716172199
1.176411716172198
1.176411716172198
1.176411716172198
1.176411716172199
1.176411716172199
1.176411716172199
1.176411716172199
1.176411716172198
1.176411716172198
1.176411716172199
1.176411716172198
1.176411716172198
1.176411716172198
1.176411716172198
1.176411716172198
1.176411716172198
1.176411716172198
1.176411716172198
1.176411716172198
1.176411716172199
1.176411716172199
1.176411716172199
1.176411716172198
1.176411716172198
1.176411716172199
1.176411716172199
1.1764117161722
1.1764117161722
1.176411716172199
1.176411716172199
1.1764117161722
1.1764117161722
1.1764117161722
1.1764117161722
1.1764117161722
1.1764117161722
1.1764117161722
1.1764117161722
1.176411716172199
1.176411716172199
1.176411716172199
1.176411716172199
1.176411716172199
1.176411716172199
1.1764117161722
1.176411716172199
1.176411716172199
1.176411716172199
1.176411716172199
1.176411716172199
1.176411716172199
1.176411716172199
1.176411716172199
1.176411716172199
1.176411716172199
1.1764117161722
1.1764117161722
1.1764117161722
1.1764117161722
1.1764117161722
1.1764117161722
1.176411716172201
1.176411716172201
1.176411716172202
1.176411716172201
1.176411716172201
1.176411716172201
1.176411716172201
1.176411716172201
1.176411716172201
1.176411716172201
1.176411716172201
1.176411716172201
1.176411716172201
1.176411716172202
1.176411716172201
1.176411716172201
1.176411716172201
1.176411716172201
1.176411716172201
1.176411716172201
1.176411716172201
1.176411716172201
1.176411716172201
1.176411716172201
1.176411716172201
1.176411716172201
1.176411716172201
1.176411716172201
1.176411716172201
1.176411716172201
1.176411716172201
1.176411716172201
1.176411716172201
1.176411716172201
1.176411716172201
1.176411716172201
1.176411716172201
1.176411716172201
1.176411716172201
1.176411716172201
1.1764117161722
1.1764117161722
1.176411716172201
1.176411716172201
1.176411716172201
1.176411716172201
1.176411716172201
1.176411716172202
1.176411716172201
1.176411716172202
1.176411716172202
1.176411716172202
1.176411716172201
1.176411716172201
1.176411716172201
1.176411716172201
1.1764117161722
1.176411716172199
1.176411716172199
1.176411716172199
1.176411716172199
1.176411716172198
1.176411716172199
1.176411716172199
1.176411716172198
1.176411716172199
1.176411716172199
1.176411716172198
1.176411716172198
1.176411716172198
1.176411716172198
1.176411716172198
1.176411716172198
1.176411716172198
1.176411716172198
1.176411716172198
1.176411716172198
1.176411716172198
1.176411716172198
1.176411716172198
1.176411716172198
1.176411716172198
1.176411716172198
1.176411716172198
1.176411716172198
1.176411716172198
1.176411716172198
1.176411716172198
1.176411716172197
1.176411716172197
1.176411716172196
1.176411716172195
1.176411716172194
1.176411716172194
1.176411716172193
1.176411716172193
1.176411716172192
1.176411716172193
1.176411716172192
1.176411716172192
1.176411716172191
1.176411716172189
1.176411716172188
1.176411716172187
1.176411716172185
1.176411716172185
1.176411716172185
1.176411716172185
1.176411716172184
1.176411716172183
1.176411716172181
1.17641171617218
1.17641171617218
1.176411716172179
1.176411716172178
1.176411716172176
1.176411716172175
1.176411716172175
1.176411716172174
1.176411716172172
)
;

boundaryField
{
    inlet
    {
        type            calculated;
        value           uniform 1.176427481426743;
    }
    outlet
    {
        type            calculated;
        value           uniform 1.176411716172161;
    }
    frontAndBack
    {
        type            empty;
    }
}


// ************************************************************************* //
