/*--------------------------------*- C++ -*----------------------------------*\
| =========                 |                                                 |
| \\      /  F ield         | OpenFOAM: The Open Source CFD Toolbox           |
|  \\    /   O peration     | Version:  v2012                                 |
|   \\  /    A nd           | Website:  www.openfoam.com                      |
|    \\/     M anipulation  |                                                 |
\*---------------------------------------------------------------------------*/
FoamFile
{
    version     2.0;
    format      ascii;
    class       volScalarField;
    location    "0.0015";
    object      T;
}
// * * * * * * * * * * * * * * * * * * * * * * * * * * * * * * * * * * * * * //

dimensions      [0 0 0 1 0 0 0];


internalField   nonuniform List<scalar> 
1000
(
300.0106448626486
300.008937072924
300.0153724652291
300.0202535742671
300.0249455914729
300.029059991084
300.032836363285
300.0362370406443
300.0391601386899
300.0410779083299
300.0415762118132
300.0415417399943
300.0411808848986
300.0403088407646
300.0386527085366
300.0361320614922
300.0328272464928
300.0288932087433
300.0244595824793
300.0196115741313
300.0144168191404
300.0089500197701
300.0033010140937
299.9975747411946
299.9918884335706
299.9863616243987
299.9810962590994
299.9761528003613
299.9715376472751
299.9672401159909
299.9633948470556
299.9605558103357
299.9593554981524
299.9592210825621
299.9592857351977
299.9595151099094
299.9601564526649
299.9614055241231
299.963436624819
299.9663256027339
299.9700337551019
299.974427929825
299.9793345885523
299.9845930496593
299.9900793570457
299.9956992980955
300.001369988401
300.0070074274492
300.0125260477629
300.0178526157008
300.0229503412284
300.027822278016
300.032430211788
300.0364725852482
300.0392068427868
300.0401761115687
300.0402513443611
300.0402202515157
300.0400082002914
300.0394817183752
300.0384485653472
300.0367447858698
300.0342503477356
300.0309224846733
300.0268072644082
300.0220293288963
300.016760672416
300.0111805897351
300.0054446185052
299.9996738830943
299.9939595051065
299.9883658322673
299.982925416354
299.9776401889745
299.9725174728277
299.9676781370908
299.963565630619
299.9609941452301
299.9601967780443
299.9601448261654
299.9601985520845
299.960384439577
299.9608672584033
299.9617950812282
299.9633227205653
299.9655733965064
299.9686169662448
299.9724513123288
299.9769990462436
299.9821211049497
299.9876425837695
299.9933834849934
299.9991873372445
300.0049406678773
300.0105787324813
300.0160795558972
300.0214494372062
300.0266844983637
300.0316590546616
300.0359059622866
300.038578679527
300.0394218453357
300.0394775110483
300.0394517366125
300.0392891764124
300.0388843151932
300.0380880137902
300.0367586881836
300.0347689878924
300.0320281744774
300.0284996153436
300.0242133657992
300.0192673720737
300.0138134396473
300.0080308986145
300.0020963942879
299.9961567539556
299.9903083984653
299.9845894504644
299.9789975591668
299.9735517660516
299.9684266795587
299.9641641769055
299.961618657183
299.9608791542198
299.9608342538891
299.9608754074732
299.9610235987206
299.9614093349651
299.9621551520384
299.963394542911
299.9652472160791
299.9678046002313
299.9711132807209
299.9751636425291
299.9798861390705
299.9851568179519
299.9908139447118
299.99668525621
300.0026187404803
300.0085057441423
300.0142889387884
300.0199509306457
300.0254677724681
300.0306867655661
300.0351099361227
300.0378852460306
300.0387814303876
300.0388520135672
300.0388341258988
300.0387094411327
300.0383913348318
300.037753629182
300.0366725037613
300.0350278313888
300.0327192835827
300.0296800692535
300.0258905723962
300.0213873343207
300.0162628225377
300.0106545292679
300.004725301802
299.998637277028
299.9925235336594
299.9864686989755
299.9805172100583
299.9747310692945
299.9693252789578
299.9648755822405
299.9622368544356
299.9614614481798
299.9614095972398
299.9614406569941
299.9615580291497
299.9618712669675
299.9624853071203
299.9635177182724
299.9650801553017
299.967268031439
299.9701473987071
299.973743927969
299.9780352446595
299.9829484396341
299.9883660307751
299.9941425486566
300.0001285045232
300.0061940351986
300.0122447294953
300.0182207348616
300.0240580147347
300.0295708409914
300.034240391719
300.0372024609018
300.0381994246119
300.0382911141127
300.0382792732466
300.0381823794067
300.0379239878574
300.0373931673117
300.0364789874652
300.0350695291196
300.0330649730686
300.0303899347404
300.0270080693181
300.0229385085954
300.0182772826863
300.0132351827655
300.0082143761987
300.0039090059877
300.0011646333114
300.000157946639
300.0000064957792
300.0000000528909
300.0000000000566
299.9999999999991
299.9999999999991
299.9999999999993
299.9999999999993
299.9999999999994
299.9999999999994
299.9999999999994
299.9999999999994
299.9999999999994
299.9999999999993
299.9999999999993
299.9999999999993
299.9999999999994
299.9999999999994
299.9999999999994
299.9999999999993
299.9999999999993
299.9999999999993
299.9999999999993
299.9999999999993
299.9999999999994
299.9999999999994
299.9999999999994
299.9999999999993
299.9999999999994
299.9999999999994
299.9999999999994
299.9999999999994
299.9999999999994
299.9999999999995
299.9999999999995
299.9999999999994
299.9999999999994
299.9999999999994
299.9999999999995
299.9999999999994
299.9999999999994
299.9999999999995
299.9999999999994
299.9999999999994
299.9999999999994
299.9999999999994
299.9999999999994
299.9999999999994
299.9999999999993
299.9999999999994
299.9999999999994
299.9999999999994
299.9999999999993
299.9999999999993
299.9999999999993
299.9999999999992
299.9999999999993
299.9999999999994
299.9999999999994
299.9999999999994
299.9999999999994
299.9999999999994
299.9999999999993
299.9999999999993
299.9999999999993
299.9999999999992
299.9999999999992
299.9999999999993
299.9999999999993
299.9999999999993
299.9999999999992
299.9999999999992
299.9999999999993
299.9999999999994
299.9999999999994
299.9999999999994
299.9999999999993
299.9999999999993
299.9999999999993
299.9999999999994
299.9999999999993
299.9999999999991
299.999999999999
299.9999999999991
299.9999999999991
299.9999999999991
299.999999999999
299.9999999999989
299.999999999999
299.9999999999992
299.9999999999993
299.9999999999993
299.9999999999994
299.9999999999994
299.9999999999993
299.9999999999994
299.9999999999994
299.9999999999993
299.9999999999993
299.9999999999993
299.9999999999993
299.9999999999991
299.9999999999993
299.9999999999992
299.9999999999992
299.9999999999993
299.9999999999993
299.9999999999993
299.9999999999993
299.9999999999994
299.9999999999993
299.9999999999992
299.9999999999992
299.9999999999993
299.9999999999993
299.9999999999993
299.9999999999993
299.9999999999994
299.9999999999994
299.9999999999994
299.9999999999994
299.9999999999994
299.9999999999994
299.9999999999994
299.9999999999994
299.9999999999995
299.9999999999995
299.9999999999996
299.9999999999997
299.9999999999997
299.9999999999997
299.9999999999997
299.9999999999996
299.9999999999996
299.9999999999997
299.9999999999997
299.9999999999997
299.9999999999997
299.9999999999997
299.9999999999997
299.9999999999997
299.9999999999996
299.9999999999996
299.9999999999997
299.9999999999997
299.9999999999997
299.9999999999997
299.9999999999995
299.9999999999995
299.9999999999995
299.9999999999995
299.9999999999995
299.9999999999995
299.9999999999995
299.9999999999994
299.9999999999994
299.9999999999994
299.9999999999994
299.9999999999994
299.9999999999994
299.9999999999995
299.9999999999995
299.9999999999996
299.9999999999997
299.9999999999996
299.9999999999996
299.9999999999995
299.9999999999996
299.9999999999995
299.9999999999994
299.9999999999995
299.9999999999995
299.9999999999995
299.9999999999995
299.9999999999995
299.9999999999994
299.9999999999994
299.9999999999995
299.9999999999995
299.9999999999996
299.9999999999996
299.9999999999997
299.9999999999996
299.9999999999995
299.9999999999996
299.9999999999995
299.9999999999995
299.9999999999995
299.9999999999995
299.9999999999995
299.9999999999996
299.9999999999995
299.9999999999996
299.9999999999995
299.9999999999995
299.9999999999995
299.9999999999995
299.9999999999995
299.9999999999994
299.9999999999994
299.9999999999994
299.9999999999995
299.9999999999995
299.9999999999995
299.9999999999995
299.9999999999995
299.9999999999995
299.9999999999995
299.9999999999995
299.9999999999995
299.9999999999996
299.9999999999996
299.9999999999995
299.9999999999996
299.9999999999996
299.9999999999997
299.9999999999997
299.9999999999996
299.9999999999996
299.9999999999995
299.9999999999995
299.9999999999995
299.9999999999995
299.9999999999995
299.9999999999995
299.9999999999993
299.9999999999993
299.9999999999994
299.9999999999994
299.9999999999994
299.9999999999994
299.9999999999994
299.9999999999994
299.9999999999994
299.9999999999995
299.9999999999994
299.9999999999995
299.9999999999994
299.9999999999994
299.9999999999994
299.9999999999993
299.9999999999993
299.9999999999993
299.9999999999993
299.9999999999994
299.9999999999995
299.9999999999995
299.9999999999995
299.9999999999994
299.9999999999994
299.9999999999994
299.9999999999994
299.9999999999995
299.9999999999994
299.9999999999995
299.9999999999995
299.9999999999994
299.9999999999993
299.9999999999993
299.9999999999994
299.9999999999994
299.9999999999994
299.9999999999993
299.9999999999993
299.9999999999992
299.9999999999993
299.9999999999993
299.9999999999993
299.9999999999994
299.9999999999993
299.9999999999994
299.9999999999993
299.9999999999994
299.9999999999994
299.9999999999994
299.9999999999994
299.9999999999993
299.9999999999993
299.9999999999993
299.9999999999993
299.9999999999993
299.9999999999993
299.9999999999993
299.9999999999993
299.9999999999993
299.9999999999994
299.9999999999994
299.9999999999994
299.9999999999994
299.9999999999995
299.9999999999994
299.9999999999995
299.9999999999994
299.9999999999995
299.9999999999994
299.9999999999995
299.9999999999994
299.9999999999994
299.9999999999995
299.9999999999995
299.9999999999995
299.9999999999995
299.9999999999995
299.9999999999995
299.9999999999995
299.9999999999995
299.9999999999995
299.9999999999995
299.9999999999995
299.9999999999995
299.9999999999995
299.9999999999995
299.9999999999994
299.9999999999995
299.9999999999995
299.9999999999995
299.9999999999994
299.9999999999993
299.9999999999993
299.9999999999993
299.9999999999993
299.9999999999993
299.9999999999993
299.9999999999993
299.9999999999993
299.9999999999993
299.9999999999993
299.9999999999993
299.9999999999993
299.9999999999994
299.9999999999995
299.9999999999995
299.9999999999996
299.9999999999996
299.9999999999996
299.9999999999995
299.9999999999996
299.9999999999995
299.9999999999996
299.9999999999997
299.9999999999996
299.9999999999997
299.9999999999997
299.9999999999997
299.9999999999996
299.9999999999995
299.9999999999995
299.9999999999995
299.9999999999995
299.9999999999995
299.9999999999995
299.9999999999994
299.9999999999994
299.9999999999996
299.9999999999996
299.9999999999995
299.9999999999996
299.9999999999996
299.9999999999995
299.9999999999995
299.9999999999995
299.9999999999996
299.9999999999995
299.9999999999995
299.9999999999995
299.9999999999995
299.9999999999994
299.9999999999995
299.9999999999995
299.9999999999995
299.9999999999995
299.9999999999995
299.9999999999996
299.9999999999996
299.9999999999996
299.9999999999995
299.9999999999995
299.9999999999997
299.9999999999996
299.9999999999996
299.9999999999995
299.9999999999995
299.9999999999995
299.9999999999995
299.9999999999995
299.9999999999995
299.9999999999996
299.9999999999996
299.9999999999995
299.9999999999995
299.9999999999995
299.9999999999994
299.9999999999994
299.9999999999994
299.9999999999995
299.9999999999995
299.9999999999995
299.9999999999995
299.9999999999995
299.9999999999994
299.9999999999995
299.9999999999994
299.9999999999995
299.9999999999995
299.9999999999994
299.9999999999994
299.9999999999995
299.9999999999995
299.9999999999995
299.9999999999995
299.9999999999995
299.9999999999995
299.9999999999997
299.9999999999996
299.9999999999996
299.9999999999994
299.9999999999994
299.9999999999994
299.9999999999993
299.9999999999994
299.9999999999995
299.9999999999995
299.9999999999994
299.9999999999995
299.9999999999995
299.9999999999995
299.9999999999996
299.9999999999996
299.9999999999995
299.9999999999995
299.9999999999995
299.9999999999995
299.9999999999994
299.9999999999993
299.9999999999993
299.9999999999993
299.9999999999993
299.9999999999992
299.9999999999991
299.9999999999991
299.9999999999991
299.9999999999991
299.9999999999991
299.9999999999991
299.9999999999992
299.9999999999993
299.9999999999993
299.9999999999993
299.9999999999993
299.9999999999993
299.9999999999994
299.9999999999995
299.9999999999994
299.9999999999994
299.9999999999993
299.9999999999993
299.9999999999994
299.9999999999993
299.9999999999993
299.9999999999993
299.9999999999993
299.9999999999994
299.9999999999995
299.9999999999995
299.9999999999994
299.9999999999994
299.9999999999993
299.9999999999993
299.9999999999992
299.9999999999991
299.9999999999991
299.9999999999991
299.9999999999992
299.9999999999991
299.9999999999993
299.9999999999993
299.9999999999993
299.9999999999993
299.9999999999994
299.9999999999994
299.9999999999994
299.9999999999994
299.9999999999994
299.9999999999995
299.9999999999994
299.9999999999994
299.9999999999995
299.9999999999995
299.9999999999995
299.9999999999994
299.9999999999994
299.9999999999995
299.9999999999994
299.9999999999994
299.9999999999994
299.9999999999994
299.9999999999993
299.9999999999993
299.9999999999991
299.999999999999
299.9999999999991
299.9999999999991
299.9999999999993
299.9999999999994
299.9999999999993
299.9999999999994
299.9999999999994
299.9999999999994
299.9999999999994
299.9999999999994
299.9999999999994
299.9999999999994
299.9999999999994
299.9999999999994
299.9999999999993
299.9999999999993
299.9999999999993
299.9999999999992
299.9999999999992
299.9999999999991
299.9999999999993
299.9999999999993
299.9999999999993
299.9999999999993
299.9999999999993
299.9999999999993
299.9999999999993
299.9999999999993
299.9999999999993
299.9999999999993
299.9999999999992
299.9999999999993
299.9999999999994
299.9999999999994
299.9999999999994
299.9999999999993
299.9999999999993
299.9999999999993
299.9999999999994
299.9999999999994
299.9999999999994
299.9999999999994
299.9999999999993
299.9999999999993
299.9999999999993
299.9999999999994
299.9999999999994
299.9999999999994
299.9999999999995
299.9999999999994
299.9999999999995
299.9999999999996
299.9999999999995
299.9999999999995
299.9999999999994
299.9999999999994
299.9999999999994
299.9999999999995
299.9999999999995
299.9999999999994
299.9999999999995
299.9999999999994
299.9999999999994
299.9999999999994
299.9999999999994
299.9999999999994
299.9999999999994
299.9999999999994
299.9999999999993
299.9999999999994
299.9999999999993
299.9999999999993
299.9999999999993
299.9999999999993
299.9999999999993
299.9999999999993
299.9999999999993
299.9999999999993
299.9999999999993
299.9999999999993
299.9999999999992
299.9999999999992
299.9999999999991
299.9999999999991
299.9999999999992
299.9999999999993
299.9999999999994
299.9999999999994
299.9999999999994
299.9999999999994
299.9999999999994
299.9999999999994
299.9999999999994
299.9999999999994
299.9999999999994
299.9999999999994
299.9999999999994
299.9999999999994
299.9999999999994
299.9999999999993
299.9999999999993
299.9999999999991
299.9999999999992
299.9999999999993
299.9999999999993
299.9999999999993
299.9999999999993
299.9999999999994
299.9999999999994
299.9999999999994
299.9999999999994
299.9999999999993
299.9999999999992
299.9999999999991
299.9999999999992
299.9999999999991
299.9999999999992
299.9999999999991
299.9999999999992
299.9999999999991
299.9999999999991
299.999999999999
299.999999999999
299.9999999999991
299.999999999999
299.9999999999991
299.999999999999
299.999999999999
299.9999999999992
299.9999999999993
299.9999999999993
299.9999999999994
299.9999999999995
299.9999999999995
299.9999999999995
299.9999999999994
299.9999999999994
299.9999999999994
299.9999999999995
299.9999999999994
299.9999999999994
299.9999999999993
299.9999999999993
299.9999999999993
299.9999999999993
299.9999999999992
299.9999999999991
299.9999999999992
299.9999999999993
299.9999999999994
299.9999999999995
299.9999999999993
299.9999999999993
299.9999999999993
299.9999999999994
299.9999999999994
299.9999999999994
299.9999999999993
299.9999999999993
299.9999999999994
299.9999999999994
299.9999999999995
299.9999999999995
299.9999999999995
299.9999999999994
299.9999999999995
299.9999999999995
299.9999999999995
299.9999999999995
299.9999999999994
299.9999999999994
299.9999999999993
299.9999999999993
299.9999999999992
299.9999999999992
299.9999999999992
299.9999999999993
299.9999999999993
299.9999999999994
299.9999999999994
299.9999999999994
299.9999999999994
299.9999999999995
299.9999999999995
299.9999999999995
299.9999999999994
299.9999999999994
299.9999999999994
299.9999999999995
299.9999999999995
299.9999999999994
299.9999999999994
299.9999999999994
299.9999999999994
299.9999999999993
299.9999999999993
299.9999999999994
299.9999999999993
299.9999999999993
299.9999999999994
299.9999999999996
299.9999999999996
299.9999999999997
299.9999999999996
299.9999999999996
299.9999999999996
299.9999999999997
299.9999999999997
299.9999999999996
299.9999999999996
299.9999999999996
299.9999999999996
299.9999999999995
299.9999999999994
299.9999999999993
299.9999999999993
299.9999999999993
299.9999999999993
299.9999999999992
299.9999999999993
299.9999999999993
299.9999999999993
299.9999999999992
299.9999999999991
299.9999999999991
299.9999999999991
299.9999999999991
299.999999999999
299.9999999999991
299.9999999999992
299.9999999999992
299.9999999999991
299.9999999999993
299.9999999999994
299.9999999999993
299.9999999999994
299.9999999999993
299.9999999999993
299.9999999999994
299.9999999999994
299.9999999999994
299.9999999999994
299.9999999999993
299.9999999999993
299.9999999999994
299.9999999999993
299.9999999999992
299.9999999999993
299.9999999999993
299.9999999999991
299.999999999999
299.999999999999
299.999999999999
299.999999999999
299.9999999999991
299.999999999999
299.999999999999
299.999999999999
299.9999999999991
299.9999999999992
299.9999999999992
299.9999999999991
299.999999999999
299.9999999999989
299.9999999999989
299.9999999999989
299.9999999999988
299.9999999999986
299.9999999999985
299.9999999999984
299.9999999999985
299.9999999999984
299.9999999999984
299.9999999999982
299.9999999999982
299.9999999999982
299.999999999998
299.9999999999977
299.9999999999977
299.9999999999977
299.9999999999976
299.9999999999976
299.9999999999976
299.9999999999974
299.9999999999973
299.9999999999972
299.999999999997
299.9999999999968
299.9999999999965
299.9999999999964
)
;

boundaryField
{
    inlet
    {
        type            fixedValue;
        value           uniform 300;
    }
    outlet
    {
        type            temperatureOutletNSCBC;
        pInf            101325;
        gamma           1.4;
        etaAc           1;
        fieldInf        1;
        lInf            2.25;
        value           uniform 299.9999999999995;
    }
    frontAndBack
    {
        type            empty;
    }
}


// ************************************************************************* //
