/*--------------------------------*- C++ -*----------------------------------*\
| =========                 |                                                 |
| \\      /  F ield         | OpenFOAM: The Open Source CFD Toolbox           |
|  \\    /   O peration     | Version:  v2012                                 |
|   \\  /    A nd           | Website:  www.openfoam.com                      |
|    \\/     M anipulation  |                                                 |
\*---------------------------------------------------------------------------*/
FoamFile
{
    version     2.0;
    format      ascii;
    class       volVectorField;
    location    "0.0015";
    object      U;
}
// * * * * * * * * * * * * * * * * * * * * * * * * * * * * * * * * * * * * * //

dimensions      [0 1 -1 0 0 0 0];


internalField   nonuniform List<vector> 
1000
(
(0.002900050251670254 0 0)
(0.03440309279286653 0 0)
(0.04252628568347855 0 0)
(0.05763005561170293 0 0)
(0.07151887300596106 0 0)
(0.08451311796487369 0 0)
(0.09560917839941843 0 0)
(0.105075842948677 0 0)
(0.1131941115483599 0 0)
(0.1186337066597709 0 0)
(0.120063567242726 0 0)
(0.1198911948933563 0 0)
(0.1191206420516293 0 0)
(0.1166424952093593 0 0)
(0.111856435745435 0 0)
(0.1045388594263581 0 0)
(0.09496648941066627 0 0)
(0.08358126001981783 0 0)
(0.07075321219284941 0 0)
(0.05672842687140737 0 0)
(0.04169771881579878 0 0)
(0.02587538185062325 0 0)
(0.009532415247187896 0 0)
(-0.007018943078985607 0 0)
(-0.02345436308778788 0 0)
(-0.03944841744398277 0 0)
(-0.05469370604703121 0 0)
(-0.06898303359632579 0 0)
(-0.08230616593451145 0 0)
(-0.09474530548163451 0 0)
(-0.1059134005989255 0 0)
(-0.1141304437621031 0 0)
(-0.1175502504057534 0 0)
(-0.117910131989702 0 0)
(-0.1178189600340958 0 0)
(-0.1170918436129464 0 0)
(-0.1152561599170625 0 0)
(-0.111639760512857 0 0)
(-0.1057633747415214 0 0)
(-0.09740607912730267 0 0)
(-0.08668195323599984 0 0)
(-0.07397197019833929 0 0)
(-0.0597755415814633 0 0)
(-0.04456294187215071 0 0)
(-0.02869781478451117 0 0)
(-0.01244578754456092 0 0)
(0.003962686554505682 0 0)
(0.02027654873218157 0 0)
(0.03623219430390967 0 0)
(0.05162557128836385 0 0)
(0.06637676521698641 0 0)
(0.08049079749059043 0 0)
(0.09381580494729527 0 0)
(0.1054742348632737 0 0)
(0.1133764114686468 0 0)
(0.1162187713309437 0 0)
(0.1164606358200139 0 0)
(0.116299880806193 0 0)
(0.1157311920872319 0 0)
(0.1141948167848904 0 0)
(0.1112086971287939 0 0)
(0.106281592685191 0 0)
(0.09906736332823282 0 0)
(0.08944025380111156 0 0)
(0.07753658143694399 0 0)
(0.06371934741088764 0 0)
(0.04848201003108415 0 0)
(0.03233857343040917 0 0)
(0.01574370800667276 0 0)
(-0.0009441206661246898 0 0)
(-0.01746633366809186 0 0)
(-0.03365063157368391 0 0)
(-0.04939935931150485 0 0)
(-0.06468455173706789 0 0)
(-0.07948357388917085 0 0)
(-0.09348049994948711 0 0)
(-0.1054034251894188 0 0)
(-0.1128538567623065 0 0)
(-0.115130471578623 0 0)
(-0.1152529378521874 0 0)
(-0.1151562779264456 0 0)
(-0.1145852091962035 0 0)
(-0.1131982654997029 0 0)
(-0.1105129630683169 0 0)
(-0.1060932453988633 0 0)
(-0.09958228710569607 0 0)
(-0.09077961128866184 0 0)
(-0.07968879147022644 0 0)
(-0.06653178332396821 0 0)
(-0.05171429326611276 0 0)
(-0.03574570023491678 0 0)
(-0.01914237528403398 0 0)
(-0.002350865900234079 0 0)
(0.01429568356896492 0 0)
(0.03059947200812263 0 0)
(0.04650146847837221 0 0)
(0.06203745124800117 0 0)
(0.07719423308288967 0 0)
(0.09158096516874741 0 0)
(0.1038426696039847 0 0)
(0.1115680843178513 0 0)
(0.1140322979223974 0 0)
(0.1142097439250103 0 0)
(0.114089442126396 0 0)
(0.1136475293680659 0 0)
(0.1124680244448575 0 0)
(0.1101660749638975 0 0)
(0.106321778882857 0 0)
(0.1005673421043074 0 0)
(0.0926387303762725 0 0)
(0.08243211712423532 0 0)
(0.07003635185819888 0 0)
(0.05573185358482536 0 0)
(0.03995431539913597 0 0)
(0.02322592315556635 0 0)
(0.006063378628897938 0 0)
(-0.01111241898789971 0 0)
(-0.02803234572932055 0 0)
(-0.0445831737174438 0 0)
(-0.06075573248651085 0 0)
(-0.07649484855186131 0 0)
(-0.0913196785956799 0 0)
(-0.1036688289537004 0 0)
(-0.1110396346556404 0 0)
(-0.1131571925534402 0 0)
(-0.1132688202525896 0 0)
(-0.1131907512131695 0 0)
(-0.1127383579566635 0 0)
(-0.1116295752326086 0 0)
(-0.1094711323315149 0 0)
(-0.1058853434442793 0 0)
(-0.1005258319332587 0 0)
(-0.09312928503248562 0 0)
(-0.08355878874348832 0 0)
(-0.07184078694394026 0 0)
(-0.05817946507860129 0 0)
(-0.04293589701327163 0 0)
(-0.02657401945694092 0 0)
(-0.009587652447418741 0 0)
(0.007578678068699018 0 0)
(0.0246027099103269 0 0)
(0.04132373589513504 0 0)
(0.0577051263448885 0 0)
(0.07367362916914078 0 0)
(0.08876566208903817 0 0)
(0.1015415730267311 0 0)
(0.1095675249234253 0 0)
(0.1121799296905506 0 0)
(0.1123956705584863 0 0)
(0.1123062387498596 0 0)
(0.1119702250637356 0 0)
(0.1110424965710887 0 0)
(0.109199213945869 0 0)
(0.106072617826967 0 0)
(0.101316030827508 0 0)
(0.09463797331848096 0 0)
(0.08584693352369842 0 0)
(0.07488761006931313 0 0)
(0.06186337858514236 0 0)
(0.04703919314371213 0 0)
(0.03081566700687048 0 0)
(0.0136680148655498 0 0)
(-0.003938310549211412 0 0)
(-0.0216255896726919 0 0)
(-0.03914562667801346 0 0)
(-0.05635791752426653 0 0)
(-0.07308498977466338 0 0)
(-0.08872349567319038 0 0)
(-0.1016098723471541 0 0)
(-0.1092460292599705 0 0)
(-0.1114721081195665 0 0)
(-0.111610479169859 0 0)
(-0.1115519322934176 0 0)
(-0.1111931747439132 0 0)
(-0.1102929567187032 0 0)
(-0.1085157518740444 0 0)
(-0.1055288730392121 0 0)
(-0.1010090946385851 0 0)
(-0.09468113055771413 0 0)
(-0.08635222023315732 0 0)
(-0.07594736348683945 0 0)
(-0.06353372341623441 0 0)
(-0.04932369258027113 0 0)
(-0.03365378644014389 0 0)
(-0.01694201954934273 0 0)
(0.0003747295331490263 0 0)
(0.01791550896172688 0 0)
(0.03541263495568538 0 0)
(0.05270260956108649 0 0)
(0.06959456529490979 0 0)
(0.08553503102973856 0 0)
(0.09902789375833441 0 0)
(0.1075975956801045 0 0)
(0.1104969221746951 0 0)
(0.1107681578084262 0 0)
(0.1107047908384191 0 0)
(0.1104449614827738 0 0)
(0.1096912135223368 0 0)
(0.1081572382847101 0 0)
(0.1055129005857843 0 0)
(0.1014362928884957 0 0)
(0.09563840735351294 0 0)
(0.08790122530029949 0 0)
(0.07811959201988453 0 0)
(0.06634880865983736 0 0)
(0.05286659216992473 0 0)
(0.03828260298531085 0 0)
(0.02376007337150748 0 0)
(0.01130682448691451 0 0)
(0.003368713211380627 0 0)
(0.0004568627773530962 0 0)
(1.878916239555902e-05 0 0)
(1.529903632760114e-07 0 0)
(1.659932396405674e-10 0 0)
(-3.307158342339745e-13 0 0)
(-4.873707030816363e-13 0 0)
(-2.523883998101459e-13 0 0)
(-1.131396275011051e-13 0 0)
(6.96243861545111e-14 0 0)
(1.827640136556122e-13 0 0)
(2.262792550021754e-13 0 0)
(2.784975446180838e-13 0 0)
(2.697944963487742e-13 0 0)
(2.175762067328639e-13 0 0)
(2.262792550021917e-13 0 0)
(2.262792550021801e-13 0 0)
(1.392487723090391e-13 0 0)
(1.305457240397097e-13 0 0)
(7.832743442380696e-14 0 0)
(1.392487723090064e-13 0 0)
(1.653579171169718e-13 0 0)
(1.218426757703832e-13 0 0)
(1.044365792317635e-13 0 0)
(2.523883998101179e-13 0 0)
(3.307158342339626e-13 0 0)
(2.959036411567058e-13 0 0)
(2.349823032714724e-13 0 0)
(2.349823032715098e-13 0 0)
(2.26279255002164e-13 0 0)
(3.394188825032813e-13 0 0)
(2.78497544618057e-13 0 0)
(2.523883998101018e-13 0 0)
(6.092133788519429e-14 0 0)
(1.653579171169711e-13 0 0)
(3.133097376953393e-13 0 0)
(2.784975446180805e-13 0 0)
(2.08873158463573e-13 0 0)
(2.436853515407954e-13 0 0)
(3.394188825032688e-13 0 0)
(4.090432686578225e-13 0 0)
(3.742310755805485e-13 0 0)
(2.523883998101246e-13 0 0)
(2.262792550021673e-13 0 0)
(1.392487723090425e-13 0 0)
(1.566548688476641e-13 0 0)
(2.349823032715021e-13 0 0)
(2.175762067328587e-13 0 0)
(2.349823032715103e-13 0 0)
(2.436853515408312e-13 0 0)
(2.872005928873837e-13 0 0)
(2.349823032715087e-13 0 0)
(1.218426757704087e-13 0 0)
(5.221828961588615e-14 0 0)
(-1.044365792317882e-13 0 0)
(-2.610914480796986e-14 0 0)
(-2.61091448079735e-14 0 0)
(-5.22182896159255e-14 0 0)
(-1.566548688476917e-13 0 0)
(-1.044365792317942e-13 0 0)
(-6.96243861545398e-14 0 0)
(-8.703048269321974e-15 0 0)
(8.703048269306364e-15 0 0)
(9.573353096245424e-14 0 0)
(1.218426757703982e-13 0 0)
(8.70304826931414e-14 0 0)
(2.349823032714945e-13 0 0)
(2.784975446180838e-13 0 0)
(4.264493651964393e-13 0 0)
(4.699646065430418e-13 0 0)
(4.699646065429974e-13 0 0)
(5.831042340441299e-13 0 0)
(6.701347167373059e-13 0 0)
(6.527286201986618e-13 0 0)
(6.614316684679082e-13 0 0)
(6.78837765006591e-13 0 0)
(6.701347167372267e-13 0 0)
(4.699646065430248e-13 0 0)
(4.612615582736613e-13 0 0)
(3.133097376953721e-13 0 0)
(1.566548688476616e-13 0 0)
(-2.610914480794103e-14 0 0)
(-6.092133788520442e-14 0 0)
(-3.568249790419277e-13 0 0)
(-3.30715834233979e-13 0 0)
(-3.74231075580581e-13 0 0)
(-1.914670619249322e-13 0 0)
(-2.349823032715299e-13 0 0)
(-2.175762067328584e-13 0 0)
(-3.046066894260365e-13 0 0)
(-3.655280273112254e-13 0 0)
(-3.394188825033014e-13 0 0)
(-3.916371721191441e-13 0 0)
(-3.133097376953835e-13 0 0)
(-2.523883998101324e-13 0 0)
(-2.872005928874208e-13 0 0)
(-3.568249790418799e-13 0 0)
(-3.655280273112628e-13 0 0)
(-4.264493651964249e-13 0 0)
(-4.786676548123254e-13 0 0)
(-3.133097376953417e-13 0 0)
(-2.784975446181112e-13 0 0)
(-6.092133788520511e-14 0 0)
(1.740609653863201e-14 0 0)
(3.481219307726992e-14 0 0)
(-3.481219307724856e-14 0 0)
(-1.566548688476663e-13 0 0)
(-2.436853515408184e-13 0 0)
(-3.307158342339567e-13 0 0)
(-4.438554617351069e-13 0 0)
(-3.481219307725781e-13 0 0)
(-3.307158342339938e-13 0 0)
(-3.568249790418844e-13 0 0)
(-2.523883998101468e-13 0 0)
(-1.566548688476588e-13 0 0)
(-1.044365792317979e-13 0 0)
(-2.610914480795887e-14 0 0)
(-3.481219307727461e-14 0 0)
(9.573353096244286e-14 0 0)
(1.044365792317704e-13 0 0)
(8.703048269313027e-14 0 0)
(1.479518205783513e-13 0 0)
(2.0887315846356e-13 0 0)
(2.697944963487701e-13 0 0)
(2.175762067328658e-13 0 0)
(1.044365792317789e-13 0 0)
(8.703048269308026e-15 0 0)
(-5.221828961589658e-14 0 0)
(-1.566548688476651e-13 0 0)
(-1.740609653863052e-13 0 0)
(-1.827640136556062e-13 0 0)
(-2.959036411567228e-13 0 0)
(-2.262792550021824e-13 0 0)
(-3.481219307726149e-13 0 0)
(-2.697944963487805e-13 0 0)
(-1.914670619249377e-13 0 0)
(-1.218426757704008e-13 0 0)
(-1.914670619249259e-13 0 0)
(-2.610914480794614e-13 0 0)
(-3.742310755805274e-13 0 0)
(-3.742310755805485e-13 0 0)
(-2.872005928874148e-13 0 0)
(-2.784975446180885e-13 0 0)
(-2.610914480794526e-13 0 0)
(-4.699646065429709e-13 0 0)
(-4.438554617350726e-13 0 0)
(-4.612615582736889e-13 0 0)
(-4.438554617350277e-13 0 0)
(-3.394188825032757e-13 0 0)
(-3.48121930772599e-13 0 0)
(-3.829341238498728e-13 0 0)
(-3.829341238498432e-13 0 0)
(-3.568249790418877e-13 0 0)
(-4.351524134657541e-13 0 0)
(-3.91637172119169e-13 0 0)
(-3.307158342339584e-13 0 0)
(-1.131396275010801e-13 0 0)
(1.791588222328888e-26 0 0)
(9.573353096248357e-14 0 0)
(1.044365792317995e-13 0 0)
(-1.740609653860059e-14 0 0)
(-1.218426757703944e-13 0 0)
(-1.653579171169574e-13 0 0)
(-2.262792550021491e-13 0 0)
(-2.349823032714848e-13 0 0)
(-3.829341238498538e-13 0 0)
(-3.481219307725936e-13 0 0)
(-3.481219307725796e-13 0 0)
(-2.262792550021697e-13 0 0)
(-5.221828961588573e-14 0 0)
(3.481219307726347e-14 0 0)
(-9.573353096245836e-14 0 0)
(-1.305457240397114e-13 0 0)
(-6.092133788519165e-14 0 0)
(2.488048577552213e-26 0 0)
(4.351524134659877e-14 0 0)
(1.740609653864967e-14 0 0)
(1.393307203429259e-26 0 0)
(-1.914670619249256e-13 0 0)
(-2.001701101942072e-13 0 0)
(-1.653579171169553e-13 0 0)
(-1.392487723090222e-13 0 0)
(-1.653579171169628e-13 0 0)
(-1.740609653862884e-13 0 0)
(-1.392487723090227e-13 0 0)
(-2.001701101942485e-13 0 0)
(-2.262792550022032e-13 0 0)
(-2.436853515407932e-13 0 0)
(-1.827640136556057e-13 0 0)
(-2.610914480794361e-13 0 0)
(-4.003402203884937e-13 0 0)
(-5.744011857748038e-13 0 0)
(-6.701347167371947e-13 0 0)
(-5.918072823134102e-13 0 0)
(-6.701347167372733e-13 0 0)
(-5.308859444281632e-13 0 0)
(-4.786676548123336e-13 0 0)
(-5.047767996203065e-13 0 0)
(-5.831042340441042e-13 0 0)
(-5.831042340440849e-13 0 0)
(-7.310560546224765e-13 0 0)
(-7.832743442383337e-13 0 0)
(-5.831042340440986e-13 0 0)
(-5.134798478895225e-13 0 0)
(-4.003402203885173e-13 0 0)
(-3.916371721191245e-13 0 0)
(-3.481219307725802e-13 0 0)
(-3.046066894260066e-13 0 0)
(-1.827640136555984e-13 0 0)
(-8.703048269312213e-14 0 0)
(-8.703048269313643e-14 0 0)
(-1.47951820578353e-13 0 0)
(-2.436853515408328e-13 0 0)
(-2.784975446180821e-13 0 0)
(-3.394188825032726e-13 0 0)
(-3.220127859646466e-13 0 0)
(-2.088731584635529e-13 0 0)
(-1.305457240397029e-13 0 0)
(-4.351524134655725e-14 0 0)
(-5.221828961587053e-14 0 0)
(-7.832743442383193e-14 0 0)
(-6.092133788520344e-14 0 0)
(-2.610914480793904e-14 0 0)
(-8.703048269302843e-15 0 0)
(-8.703048269314004e-14 0 0)
(-1.131396275010881e-13 0 0)
(-2.610914480794352e-13 0 0)
(-2.610914480794331e-13 0 0)
(-4.612615582737179e-13 0 0)
(-4.699646065429809e-13 0 0)
(-5.482920409668011e-13 0 0)
(-5.308859444281978e-13 0 0)
(-5.831042340440735e-13 0 0)
(-5.134798478895582e-13 0 0)
(-4.438554617350351e-13 0 0)
(-2.872005928873496e-13 0 0)
(-3.046066894260199e-13 0 0)
(-2.523883998100998e-13 0 0)
(-2.001701101942138e-13 0 0)
(-1.914670619248822e-13 0 0)
(-2.262792550021689e-13 0 0)
(-2.436853515407972e-13 0 0)
(-3.046066894260145e-13 0 0)
(-2.697944963487497e-13 0 0)
(-2.262792550022021e-13 0 0)
(-1.827640136556058e-13 0 0)
(-2.088731584635492e-13 0 0)
(-1.653579171169891e-13 0 0)
(-2.872005928874013e-13 0 0)
(-1.827640136556089e-13 0 0)
(-2.610914480794349e-13 0 0)
(-2.523883998101239e-13 0 0)
(-1.9146706192494e-13 0 0)
(-7.832743442383379e-14 0 0)
(-4.351524134656779e-14 0 0)
(-6.96243861545088e-14 0 0)
(-5.221828961588351e-14 0 0)
(-8.703048269300281e-15 0 0)
(7.83274344238392e-14 0 0)
(1.218426757704296e-13 0 0)
(9.573353096248112e-14 0 0)
(7.832743442385652e-14 0 0)
(1.044365792318053e-13 0 0)
(1.131396275011167e-13 0 0)
(1.6535791711699e-13 0 0)
(1.653579171170143e-13 0 0)
(2.349823032715373e-13 0 0)
(3.655280273112581e-13 0 0)
(4.351524134657772e-13 0 0)
(3.568249790419098e-13 0 0)
(9.573353096248587e-14 0 0)
(-2.610914480792916e-14 0 0)
(-9.573353096244252e-14 0 0)
(-1.740609653862062e-14 0 0)
(4.351524134658442e-14 0 0)
(-5.221828961587753e-14 0 0)
(-3.481219307725455e-14 0 0)
(2.610914480794606e-14 0 0)
(-3.481219307726377e-14 0 0)
(-8.703048269317061e-14 0 0)
(-1.218426757704259e-13 0 0)
(-8.703048269329776e-15 0 0)
(7.832743442382883e-14 0 0)
(3.481219307724925e-14 0 0)
(3.481219307723351e-14 0 0)
(6.092133788518302e-14 0 0)
(3.481219307724698e-14 0 0)
(3.48121930772412e-14 0 0)
(-9.573353096248444e-14 0 0)
(-2.697944963487914e-13 0 0)
(-2.872005928874229e-13 0 0)
(-1.914670619249503e-13 0 0)
(-4.351524134660527e-14 0 0)
(2.610914480790833e-14 0 0)
(1.827640136555919e-13 0 0)
(2.175762067328709e-13 0 0)
(1.479518205783478e-13 0 0)
(1.392487723090357e-13 0 0)
(8.703048269314417e-14 0 0)
(1.392487723090365e-13 0 0)
(2.17576206732868e-13 0 0)
(2.6979449634874e-13 0 0)
(3.133097376953436e-13 0 0)
(2.69794496348754e-13 0 0)
(2.175762067328293e-13 0 0)
(1.479518205783307e-13 0 0)
(2.001701101942195e-13 0 0)
(2.610914480794194e-13 0 0)
(2.262792550021507e-13 0 0)
(2.001701101941855e-13 0 0)
(2.088731584635318e-13 0 0)
(3.046066894259987e-13 0 0)
(3.742310755804863e-13 0 0)
(4.873707030816172e-13 0 0)
(5.221828961588844e-13 0 0)
(5.744011857747795e-13 0 0)
(6.266194753906766e-13 0 0)
(6.875408132758393e-13 0 0)
(7.484621511611125e-13 0 0)
(7.397591028917797e-13 0 0)
(7.310560546223897e-13 0 0)
(6.266194753906734e-13 0 0)
(5.831042340440979e-13 0 0)
(6.527286201986191e-13 0 0)
(6.179164271213589e-13 0 0)
(6.8754081327583e-13 0 0)
(6.614316684679364e-13 0 0)
(5.656981375054679e-13 0 0)
(4.090432686577623e-13 0 0)
(3.82934123849851e-13 0 0)
(2.959036411566847e-13 0 0)
(2.523883998101282e-13 0 0)
(2.175762067328564e-13 0 0)
(1.914670619248961e-13 0 0)
(2.17576206732867e-13 0 0)
(2.088731584635512e-13 0 0)
(2.959036411566582e-13 0 0)
(2.610914480794191e-13 0 0)
(2.959036411566933e-13 0 0)
(2.436853515407928e-13 0 0)
(2.436853515407847e-13 0 0)
(2.349823032714452e-13 0 0)
(2.08873158463539e-13 0 0)
(2.872005928873761e-13 0 0)
(2.69794496348731e-13 0 0)
(3.133097376953276e-13 0 0)
(2.872005928873958e-13 0 0)
(3.655280273112291e-13 0 0)
(4.351524134657633e-13 0 0)
(3.916371721191328e-13 0 0)
(3.742310755805315e-13 0 0)
(4.090432686577887e-13 0 0)
(3.046066894259951e-13 0 0)
(3.046066894260463e-13 0 0)
(1.566548688476465e-13 0 0)
(2.001701101942309e-13 0 0)
(2.610914480794426e-13 0 0)
(3.220127859646204e-13 0 0)
(3.046066894260258e-13 0 0)
(3.655280273112135e-13 0 0)
(3.133097376953365e-13 0 0)
(2.436853515407962e-13 0 0)
(3.133097376953089e-13 0 0)
(2.349823032714814e-13 0 0)
(2.436853515408083e-13 0 0)
(2.610914480794043e-13 0 0)
(2.175762067328625e-13 0 0)
(6.962438615450259e-14 0 0)
(-1.131396275011095e-13 0 0)
(-1.74060965386371e-14 0 0)
(5.221828961588192e-14 0 0)
(1.044365792317695e-13 0 0)
(1.218426757703952e-13 0 0)
(1.914670619249152e-13 0 0)
(3.046066894260171e-13 0 0)
(3.307158342339661e-13 0 0)
(3.742310755805167e-13 0 0)
(2.697944963487665e-13 0 0)
(1.479518205783421e-13 0 0)
(5.221828961588425e-14 0 0)
(1.827640136556053e-13 0 0)
(2.349823032714843e-13 0 0)
(3.829341238498535e-13 0 0)
(4.960737513509714e-13 0 0)
(5.221828961588886e-13 0 0)
(5.744011857748038e-13 0 0)
(5.482920409668022e-13 0 0)
(5.221828961589227e-13 0 0)
(4.438554617350661e-13 0 0)
(5.831042340440548e-13 0 0)
(6.179164271213912e-13 0 0)
(6.353225236600244e-13 0 0)
(5.221828961588951e-13 0 0)
(3.916371721191836e-13 0 0)
(2.610914480794178e-13 0 0)
(1.566548688476701e-13 0 0)
(1.914670619249249e-13 0 0)
(1.740609653862736e-13 0 0)
(2.872005928874051e-13 0 0)
(3.568249790419087e-13 0 0)
(1.392487723090369e-13 0 0)
(3.481219307724618e-14 0 0)
(-1.566548688476691e-13 0 0)
(-1.044365792317912e-13 0 0)
(-1.653579171169947e-13 0 0)
(-2.262792550021909e-13 0 0)
(-1.827640136556375e-13 0 0)
(-1.044365792317911e-13 0 0)
(3.481219307725534e-14 0 0)
(1.218426757704067e-13 0 0)
(2.610914480794158e-13 0 0)
(2.784975446180814e-13 0 0)
(2.784975446180652e-13 0 0)
(1.131396275010749e-13 0 0)
(2.175762067328554e-13 0 0)
(2.349823032715006e-13 0 0)
(2.784975446180854e-13 0 0)
(2.697944963487612e-13 0 0)
(2.523883998101155e-13 0 0)
(3.046066894260177e-13 0 0)
(4.264493651964516e-13 0 0)
(3.916371721191442e-13 0 0)
(5.569950892361532e-13 0 0)
(4.525585100043973e-13 0 0)
(3.307158342339701e-13 0 0)
(2.436853515408277e-13 0 0)
(4.351524134657383e-14 0 0)
(6.962438615452644e-14 0 0)
(8.703048269316162e-14 0 0)
(1.566548688476798e-13 0 0)
(2.088731584635659e-13 0 0)
(1.740609653863145e-13 0 0)
(1.044365792317888e-13 0 0)
(3.481219307726017e-14 0 0)
(1.305457240396935e-13 0 0)
(2.872005928873832e-13 0 0)
(3.655280273112341e-13 0 0)
(3.829341238498095e-13 0 0)
(3.30715834233988e-13 0 0)
(3.655280273112314e-13 0 0)
(2.610914480794624e-13 0 0)
(1.914670619249464e-13 0 0)
(1.47951820578339e-13 0 0)
(1.653579171170002e-13 0 0)
(3.481219307726383e-14 0 0)
(-4.351524134657186e-14 0 0)
(8.703048269321714e-15 0 0)
(7.832743442384246e-14 0 0)
(6.092133788521751e-14 0 0)
(2.610914480794892e-14 0 0)
(-9.241047221634498e-27 0 0)
(4.35152413465758e-14 0 0)
(1.04436579231795e-13 0 0)
(2.872005928873748e-13 0 0)
(3.046066894260402e-13 0 0)
(4.090432686577969e-13 0 0)
(2.784975446180906e-13 0 0)
(1.74060965386292e-13 0 0)
(-5.356792743280956e-27 0 0)
(1.218426757704077e-13 0 0)
(2.523883998101384e-13 0 0)
(3.481219307725784e-13 0 0)
(4.351524134657484e-13 0 0)
(1.827640136556363e-13 0 0)
(1.827640136556198e-13 0 0)
(8.703048269321471e-15 0 0)
(-1.827640136556028e-13 0 0)
(-2.872005928873938e-13 0 0)
(-2.959036411567197e-13 0 0)
(-2.610914480794391e-13 0 0)
(-3.742310755805557e-13 0 0)
(-3.568249790419225e-13 0 0)
(-3.39418882503282e-13 0 0)
(-3.133097376953402e-13 0 0)
(-2.175762067328507e-13 0 0)
(-1.47951820578357e-13 0 0)
(-8.703048269314735e-14 0 0)
(-1.392487723090313e-13 0 0)
(-1.74060965386321e-13 0 0)
(-1.74060965386283e-13 0 0)
(-6.092133788519782e-14 0 0)
(7.832743442385302e-14 0 0)
(1.479518205783675e-13 0 0)
(1.740609653863135e-13 0 0)
(1.479518205783576e-13 0 0)
(8.703048269327138e-15 0 0)
(-1.218426757703964e-13 0 0)
(-2.959036411566931e-13 0 0)
(-4.003402203885032e-13 0 0)
(-3.742310755805411e-13 0 0)
(-4.0904326865779e-13 0 0)
(-3.481219307726236e-13 0 0)
(-2.436853515408237e-13 0 0)
(-2.610914480794534e-13 0 0)
(-2.262792550021844e-13 0 0)
(-9.573353096244177e-14 0 0)
(-1.740609653862054e-14 0 0)
(-1.740609653861915e-14 0 0)
(-2.610914480793716e-14 0 0)
(-1.740609653862902e-13 0 0)
(-1.479518205783512e-13 0 0)
(-1.653579171169767e-13 0 0)
(-1.827640136555929e-13 0 0)
(-1.479518205783224e-13 0 0)
(-1.827640136556018e-13 0 0)
(-2.784975446180897e-13 0 0)
(-2.959036411566801e-13 0 0)
(-2.61091448079437e-13 0 0)
(-2.872005928873883e-13 0 0)
(-1.74060965386298e-13 0 0)
(-6.962438615452005e-14 0 0)
(-9.573353096245671e-14 0 0)
(-1.305457240397266e-13 0 0)
(-1.131396275010828e-13 0 0)
(-7.832743442381203e-14 0 0)
(-4.351524134655346e-14 0 0)
(1.740609653864414e-14 0 0)
(4.351524134658799e-14 0 0)
(1.653579171169951e-13 0 0)
(1.392487723090421e-13 0 0)
(1.479518205783522e-13 0 0)
(1.8276401365563e-13 0 0)
(2.262792550021853e-13 0 0)
(4.264493651964491e-13 0 0)
(2.523883998101381e-13 0 0)
(2.262792550021901e-13 0 0)
(1.827640136556233e-13 0 0)
(1.827640136555975e-13 0 0)
(2.00170110194257e-13 0 0)
(1.914670619249267e-13 0 0)
(2.784975446180686e-13 0 0)
(1.914670619249361e-13 0 0)
(6.962438615452108e-14 0 0)
(4.351524134657972e-14 0 0)
(7.83274344238363e-14 0 0)
(1.740609653862928e-13 0 0)
(1.044365792317784e-13 0 0)
(8.703048269315159e-14 0 0)
(1.566548688476428e-13 0 0)
(1.827640136555957e-13 0 0)
(-8.703048269315473e-15 0 0)
(-2.610914480794913e-14 0 0)
(-6.962438615453586e-14 0 0)
(-1.044365792317843e-13 0 0)
(-1.131396275011159e-13 0 0)
(-1.044365792317867e-13 0 0)
(-1.218426757704135e-13 0 0)
(-1.566548688476816e-13 0 0)
(-1.30545724039741e-13 0 0)
(-2.436853515408279e-13 0 0)
(-2.697944963487783e-13 0 0)
(-4.177463169271237e-13 0 0)
(-5.569950892361439e-13 0 0)
(-6.875408132759644e-13 0 0)
(-6.96243861545131e-13 0 0)
(-6.353225236600072e-13 0 0)
(-5.9180728231343e-13 0 0)
(-6.005103305827492e-13 0 0)
(-5.221828961589353e-13 0 0)
(-4.612615582736472e-13 0 0)
(-4.612615582737498e-13 0 0)
(-3.568249790418955e-13 0 0)
(-3.829341238498498e-13 0 0)
(-4.003402203884824e-13 0 0)
(-2.959036411566958e-13 0 0)
(-3.394188825032863e-13 0 0)
(-1.82764013655602e-13 0 0)
(-2.001701101942179e-13 0 0)
(-2.78497544618042e-13 0 0)
(-1.653579171169771e-13 0 0)
(-1.392487723089984e-13 0 0)
(1.044365792318125e-13 0 0)
(3.307158342340135e-13 0 0)
(4.612615582737453e-13 0 0)
(3.916371721192083e-13 0 0)
(3.82934123849829e-13 0 0)
(3.046066894260874e-13 0 0)
(2.872005928874158e-13 0 0)
(2.436853515408649e-13 0 0)
(1.653579171170277e-13 0 0)
(5.221828961592695e-14 0 0)
(-6.092133788517224e-14 0 0)
(-4.351524134654242e-14 0 0)
(-3.133097376953031e-13 0 0)
(-2.872005928873404e-13 0 0)
(-3.655280273112411e-13 0 0)
(-3.481219307725502e-13 0 0)
(-3.220127859646556e-13 0 0)
(-3.916371721191733e-13 0 0)
(-4.003402203884762e-13 0 0)
(-5.39588992697537e-13 0 0)
(-5.221828961589063e-13 0 0)
(-6.005103305827364e-13 0 0)
(-5.831042340440186e-13 0 0)
(-6.266194753907005e-13 0 0)
(-6.092133788520566e-13 0 0)
(-6.788377650065561e-13 0 0)
(-7.049469098145238e-13 0 0)
(-6.440255719293213e-13 0 0)
(-7.397591028917758e-13 0 0)
(-7.484621511609536e-13 0 0)
(-7.919773925076799e-13 0 0)
(-8.964139717394368e-13 0 0)
(-8.964139717396107e-13 0 0)
(-9.138200682780473e-13 0 0)
(-7.39759102891799e-13 0 0)
(-6.527286201984907e-13 0 0)
(-6.788377650065415e-13 0 0)
(-5.395889926975139e-13 0 0)
(-3.046066894260182e-13 0 0)
(-2.697944963487325e-13 0 0)
(-2.697944963487372e-13 0 0)
(-1.740609653862779e-13 0 0)
(-9.573353096242411e-14 0 0)
(-1.914670619249153e-13 0 0)
(-2.784975446180784e-13 0 0)
(-2.436853515408225e-13 0 0)
(-1.914670619249309e-13 0 0)
(-1.566548688476799e-13 0 0)
(-2.262792550021922e-13 0 0)
(-1.392487723090384e-13 0 0)
(-6.962438615451411e-14 0 0)
(-6.962438615449759e-14 0 0)
(-2.262792550021934e-13 0 0)
(-3.133097376953339e-13 0 0)
(-3.568249790419202e-13 0 0)
(-4.177463169271339e-13 0 0)
(-4.351524134657603e-13 0 0)
(-4.438554617350783e-13 0 0)
(-4.612615582736055e-13 0 0)
(-3.916371721191847e-13 0 0)
(-3.916371721191535e-13 0 0)
(-4.003402203884823e-13 0 0)
(-2.872005928873859e-13 0 0)
(-1.131396275010908e-13 0 0)
(-2.088731584635528e-13 0 0)
(-1.566548688476603e-13 0 0)
(-2.610914480794571e-13 0 0)
(-3.829341238497857e-13 0 0)
(-4.177463169271264e-13 0 0)
(-4.960737513509568e-13 0 0)
(-4.960737513509914e-13 0 0)
(-5.221828961588998e-13 0 0)
(-5.482920409668379e-13 0 0)
(-6.440255719293178e-13 0 0)
(-5.918072823133315e-13 0 0)
(-6.266194753906889e-13 0 0)
(-5.395889926975304e-13 0 0)
(-4.52558510004378e-13 0 0)
(-5.13479847889585e-13 0 0)
(-5.221828961588964e-13 0 0)
(-6.70134716737257e-13 0 0)
(-5.656981375054857e-13 0 0)
(-5.221828961588859e-13 0 0)
(-4.786676548122151e-13 0 0)
(-3.568249790419053e-13 0 0)
(-3.133097376953171e-13 0 0)
(-3.742310755805429e-13 0 0)
(-2.872005928873881e-13 0 0)
(-1.914670619249196e-13 0 0)
(-3.133097376953386e-13 0 0)
(-3.220127859646003e-13 0 0)
(-2.088731584635496e-13 0 0)
(-1.131396275010808e-13 0 0)
(-1.653579171169813e-13 0 0)
(-2.959036411567007e-13 0 0)
(-3.394188825032744e-13 0 0)
(-3.568249790419227e-13 0 0)
(-3.220127859646372e-13 0 0)
(-4.264493651964308e-13 0 0)
(-4.525585100043029e-13 0 0)
(-5.482920409668452e-13 0 0)
(-4.612615582736897e-13 0 0)
(-5.308859444282117e-13 0 0)
(-6.614316684679403e-13 0 0)
(-6.266194753906897e-13 0 0)
(-7.397591028917858e-13 0 0)
(-8.703048269313702e-13 0 0)
(-9.921475027019222e-13 0 0)
(-9.834444544325879e-13 0 0)
(-9.834444544326008e-13 0 0)
(-9.312261648167377e-13 0 0)
(-8.441956821235479e-13 0 0)
(-8.354926338542457e-13 0 0)
(-7.658682476997048e-13 0 0)
(-8.093834890463025e-13 0 0)
(-7.049469098143839e-13 0 0)
(-8.441956821235616e-13 0 0)
(-9.22523116547387e-13 0 0)
(-8.703048269314931e-13 0 0)
(-6.614316684679271e-13 0 0)
(-6.179164271213466e-13 0 0)
(-6.875408132758856e-13 0 0)
(-6.527286201985376e-13 0 0)
(-7.223530063531328e-13 0 0)
(-6.266194753906695e-13 0 0)
(-6.701347167372499e-13 0 0)
(-7.223530063530726e-13 0 0)
(-6.701347167372447e-13 0 0)
(-6.353225236599886e-13 0 0)
(-5.744011857748027e-13 0 0)
(-5.831042340440212e-13 0 0)
(-5.831042340441039e-13 0 0)
(-6.092133788520178e-13 0 0)
(-5.918072823134228e-13 0 0)
(-5.22182896158824e-13 0 0)
(-4.612615582736845e-13 0 0)
(-4.960737513509619e-13 0 0)
(-4.525585100043446e-13 0 0)
(-4.612615582736494e-13 0 0)
(-5.744011857747469e-13 0 0)
(-4.003402203884618e-13 0 0)
(-3.133097376953088e-13 0 0)
(-2.175762067328187e-13 0 0)
(-1.740609653858663e-14 0 0)
(2.610914480798163e-14 0 0)
(2.610914480797618e-14 0 0)
(-8.703048269291136e-15 0 0)
(4.351524134659379e-14 0 0)
(-6.092133788518126e-14 0 0)
(8.70304826934712e-15 0 0)
(-1.740609653859219e-14 0 0)
(8.703048269351798e-15 0 0)
(8.703048269351446e-15 0 0)
(-9.573353096242913e-14 0 0)
(-1.131396275010585e-13 0 0)
(-1.566548688476139e-13 0 0)
(4.185525758540185e-26 0 0)
(-1.218426757703742e-13 0 0)
(-1.392487723090199e-13 0 0)
(-8.703048269311975e-14 0 0)
(7.83274344238536e-14 0 0)
(8.703048269316966e-14 0 0)
(1.740609653864174e-14 0 0)
(6.962438615453378e-14 0 0)
(1.044365792318043e-13 0 0)
(1.566548688476981e-13 0 0)
(7.832743442385513e-14 0 0)
(5.221828961591124e-14 0 0)
(-6.962438615450558e-14 0 0)
(-1.914670619249349e-13 0 0)
(-1.218426757704174e-13 0 0)
(2.610914480794483e-14 0 0)
(1.305457240397119e-13 0 0)
(2.088731584635558e-13 0 0)
(3.046066894260408e-13 0 0)
(2.87200592887396e-13 0 0)
(2.784975446180654e-13 0 0)
(3.481219307726228e-13 0 0)
(4.090432686577994e-13 0 0)
(4.003402203884913e-13 0 0)
(4.960737513509115e-13 0 0)
(5.395889926975272e-13 0 0)
(6.35322523659987e-13 0 0)
(7.310560546224472e-13 0 0)
(6.962438615451257e-13 0 0)
(8.354926338542176e-13 0 0)
(8.703048269314761e-13 0 0)
(7.397591028917443e-13 0 0)
(8.006804407769064e-13 0 0)
(7.919773925076184e-13 0 0)
(1.07917798539504e-12 0 0)
(1.24453590251204e-12 0 0)
(1.644876122900443e-12 0 0)
(1.914670619249257e-12 0 0)
(2.149652922520824e-12 0 0)
(2.323713887907126e-12 0 0)
(2.50647790156275e-12 0 0)
(2.776272397911271e-12 0 0)
(2.976442508105777e-12 0 0)
(3.333267487147794e-12 0 0)
(3.489922355995275e-12 0 0)
(3.829341238498336e-12 0 0)
(3.90766867292263e-12 0 0)
(4.194869265809917e-12 0 0)
(4.395039376004042e-12 0 0)
(4.516882051774053e-12 0 0)
(4.717052161968976e-12 0 0)
(4.952034465240347e-12 0 0)
(5.178313720242536e-12 0 0)
(5.326265540820585e-12 0 0)
(5.569950892361551e-12 0 0)
(5.569950892361735e-12 0 0)
(5.787527099094774e-12 0 0)
(6.144352078135974e-12 0 0)
(6.405443526215802e-12 0 0)
(6.727456312180676e-12 0 0)
(6.683941070833884e-12 0 0)
(7.02335995333716e-12 0 0)
(7.310560546224785e-12 0 0)
(7.65868247699717e-12 0 0)
)
;

boundaryField
{
    inlet
    {
        type            zeroGradient;
    }
    outlet
    {
        type            velocityOutletNSCBCx;
        pInf            101325;
        gamma           1.4;
        etaAc           1;
        fieldInf        (-1 0 0);
        lInf            2.25;
        value           uniform (7.937518233700643e-12 0 0);
    }
    frontAndBack
    {
        type            empty;
    }
}


// ************************************************************************* //
