/*--------------------------------*- C++ -*----------------------------------*\
| =========                 |                                                 |
| \\      /  F ield         | OpenFOAM: The Open Source CFD Toolbox           |
|  \\    /   O peration     | Version:  v2012                                 |
|   \\  /    A nd           | Website:  www.openfoam.com                      |
|    \\/     M anipulation  |                                                 |
\*---------------------------------------------------------------------------*/
FoamFile
{
    version     2.0;
    format      ascii;
    class       volVectorField;
    location    "0.0015";
    object      UMean;
}
// * * * * * * * * * * * * * * * * * * * * * * * * * * * * * * * * * * * * * //

dimensions      [0 1 -1 0 0 0 0];


internalField   nonuniform List<vector> 
1000
(
(0.008772562654792003 0 0)
(0.008428222288766588 0 0)
(0.00838754381997112 0 0)
(0.008130076391318863 0 0)
(0.00784636127066078 0 0)
(0.007471143442342717 0 0)
(0.007047809318971315 0 0)
(0.006568422580344346 0 0)
(0.006050257603907515 0 0)
(0.005492904958855379 0 0)
(0.004920907618919689 0 0)
(0.004343560065956086 0 0)
(0.003770932592244586 0 0)
(0.00320394595458976 0 0)
(0.002654631405258259 0 0)
(0.002132116623453576 0 0)
(0.001649983865289259 0 0)
(0.001216142847491787 0 0)
(0.0008404546070544664 0 0)
(0.000527677775269932 0 0)
(0.0002848887651556561 0 0)
(0.0001150120194315998 0 0)
(2.26885505897942e-05 0 0)
(8.630550809679846e-06 0 0)
(7.433911372861151e-05 0 0)
(0.0002175881313077182 0 0)
(0.0004365484272020898 0 0)
(0.0007262983984293531 0 0)
(0.001083221215450217 0 0)
(0.00150214382288576 0 0)
(0.001979253520165588 0 0)
(0.002505083196928068 0 0)
(0.003061926373310691 0 0)
(0.003627612205201992 0 0)
(0.004193715857193202 0 0)
(0.004757251118283844 0 0)
(0.005316096200770496 0 0)
(0.005861536354347916 0 0)
(0.006386218670824234 0 0)
(0.006876849785408392 0 0)
(0.007323784699193636 0 0)
(0.007714474029573257 0 0)
(0.008042361330827578 0 0)
(0.008299320380513816 0 0)
(0.008483034755428828 0 0)
(0.008588946832671461 0 0)
(0.008617500522244923 0 0)
(0.008566599515368421 0 0)
(0.008439030529459103 0 0)
(0.008235088480216176 0 0)
(0.007959431704804938 0 0)
(0.007613427113323051 0 0)
(0.007201844739757225 0 0)
(0.006727815743941407 0 0)
(0.006204572512918764 0 0)
(0.005652618466775067 0 0)
(0.00509448361299685 0 0)
(0.004535754066042581 0 0)
(0.003979002807033383 0 0)
(0.003426836118988942 0 0)
(0.002884912270655295 0 0)
(0.002361087377274407 0 0)
(0.001865368704107752 0 0)
(0.001408919232436927 0 0)
(0.001003060110561813 0 0)
(0.0006579527959620104 0 0)
(0.0003818462211365655 0 0)
(0.0001804991241047756 0 0)
(5.74024687035815e-05 0 0)
(1.403917149923629e-05 0 0)
(5.041957078493848e-05 0 0)
(0.0001654105276147901 0 0)
(0.0003571659065904694 0 0)
(0.0006235651730685612 0 0)
(0.0009625330377221149 0 0)
(0.001371459531238048 0 0)
(0.001844503979353107 0 0)
(0.002367179812483067 0 0)
(0.002915088473855852 0 0)
(0.003468390254234952 0 0)
(0.004021544655639395 0 0)
(0.004572865407046945 0 0)
(0.00512034193307955 0 0)
(0.005658035446769987 0 0)
(0.006180025785767458 0 0)
(0.006676167767557361 0 0)
(0.007137169294750499 0 0)
(0.00755092084884678 0 0)
(0.007908006069541578 0 0)
(0.008198221321627289 0 0)
(0.008415683646266768 0 0)
(0.008554793915742475 0 0)
(0.008614468023767424 0 0)
(0.008593411273380045 0 0)
(0.008493734541295084 0 0)
(0.008316111512471386 0 0)
(0.0080633968219664 0 0)
(0.007736296412545418 0 0)
(0.007338065165888691 0 0)
(0.006873395822196382 0 0)
(0.006357961012681208 0 0)
(0.005815744281889234 0 0)
(0.005268162669808562 0 0)
(0.004720250043972892 0 0)
(0.004173799526240731 0 0)
(0.003630907703478401 0 0)
(0.003095880423810731 0 0)
(0.002574901916262211 0 0)
(0.002076077002242095 0 0)
(0.001609071433760844 0 0)
(0.001184507450815478 0 0)
(0.0008131410914243285 0 0)
(0.0005049312032113353 0 0)
(0.0002681707787094263 0 0)
(0.0001088918718928931 0 0)
(3.065506030089094e-05 0 0)
(3.473751324541754e-05 0 0)
(0.0001206755924911471 0 0)
(0.0002870048067918175 0 0)
(0.0005320156714388629 0 0)
(0.0008539886610897401 0 0)
(0.001250304258661361 0 0)
(0.001714013913673464 0 0)
(0.002228354646724744 0 0)
(0.002767147348712812 0 0)
(0.003310895606770124 0 0)
(0.003854527571175913 0 0)
(0.004396744073332479 0 0)
(0.004935837464406618 0 0)
(0.005467149664013606 0 0)
(0.00598572028683425 0 0)
(0.006483232496360042 0 0)
(0.006951469339303461 0 0)
(0.007379584533350177 0 0)
(0.007758006283004752 0 0)
(0.008076041356180607 0 0)
(0.008325854348192824 0 0)
(0.008499975401008471 0 0)
(0.008594803679245464 0 0)
(0.008607472411463419 0 0)
(0.008538507054314835 0 0)
(0.00838810879185032 0 0)
(0.008158523763954841 0 0)
(0.007850676797259773 0 0)
(0.007467858509149269 0 0)
(0.007015696506622496 0 0)
(0.006510659749747113 0 0)
(0.005977810212629097 0 0)
(0.005438962632888408 0 0)
(0.004899714973625951 0 0)
(0.004361587003857708 0 0)
(0.003826236586774877 0 0)
(0.003297126112777574 0 0)
(0.002779369780505316 0 0)
(0.00227976610926351 0 0)
(0.001806713397402573 0 0)
(0.001369771481485728 0 0)
(0.0009792091907228234 0 0)
(0.0006452098817557799 0 0)
(0.0003771768564665111 0 0)
(0.0001829335894162727 0 0)
(6.829264790655346e-05 0 0)
(3.676541065845089e-05 0 0)
(8.982390459785623e-05 0 0)
(0.0002273385645051194 0 0)
(0.0004483302146962952 0 0)
(0.0007511620671106869 0 0)
(0.001132736981477605 0 0)
(0.001585087473272014 0 0)
(0.002090108603549283 0 0)
(0.002620533055216808 0 0)
(0.003156255132726799 0 0)
(0.003691949012887555 0 0)
(0.004226545331419141 0 0)
(0.004758600311677063 0 0)
(0.005284317095713807 0 0)
(0.005799442679000914 0 0)
(0.006296960186200047 0 0)
(0.006769570548832383 0 0)
(0.007207631506180517 0 0)
(0.007601993184660503 0 0)
(0.007942238290685013 0 0)
(0.008219725868499899 0 0)
(0.008425904192085314 0 0)
(0.008555190327613277 0 0)
(0.008602877201641893 0 0)
(0.008567386047021801 0 0)
(0.00844756549806038 0 0)
(0.008244497523268023 0 0)
(0.007958869428071304 0 0)
(0.007593897534744179 0 0)
(0.007155863939792072 0 0)
(0.006661768517039783 0 0)
(0.006137774537432516 0 0)
(0.005606790140831223 0 0)
(0.00507530832514214 0 0)
(0.004544705692384771 0 0)
(0.004016313679361662 0 0)
(0.003493078200800944 0 0)
(0.002979363212129033 0 0)
(0.002481112104479185 0 0)
(0.002005750954587892 0 0)
(0.001561958226820546 0 0)
(0.001159244455847407 0 0)
(0.0008073234385028658 0 0)
(0.0005152372000998344 0 0)
(0.0002901158538382845 0 0)
(0.0001352279921874743 0 0)
(4.675253871246419e-05 0 0)
(9.961535465987089e-06 0 0)
(9.843564424913513e-07 0 0)
(3.107484266887406e-08 0 0)
(2.075918874332151e-10 0 0)
(2.319558830279408e-13 0 0)
(2.987962969695834e-14 0 0)
(2.62763503462605e-14 0 0)
(7.593639522592402e-14 0 0)
(1.742281709246447e-14 0 0)
(5.799524096468447e-14 0 0)
(5.376494084530969e-14 0 0)
(5.740166130366442e-14 0 0)
(6.281076046817199e-14 0 0)
(4.876549524968288e-14 0 0)
(5.185043743159576e-14 0 0)
(5.478489462903466e-14 0 0)
(5.814572594916874e-14 0 0)
(4.458535679179627e-14 0 0)
(3.508808221547892e-14 0 0)
(4.713524125109709e-14 0 0)
(5.64067883506801e-14 0 0)
(6.341270040610192e-14 0 0)
(6.939029840086935e-14 0 0)
(6.656452480334605e-14 0 0)
(7.297685719774077e-14 0 0)
(7.651325433311314e-14 0 0)
(6.1815887515192e-14 0 0)
(6.273551797591873e-14 0 0)
(7.163921289122264e-14 0 0)
(7.93724690382988e-14 0 0)
(1.015104823112606e-13 0 0)
(9.926156782091215e-14 0 0)
(1.681251687760879e-13 0 0)
(5.011986011003077e-14 0 0)
(1.055401357846554e-13 0 0)
(9.095145256664507e-14 0 0)
(9.243958185765214e-14 0 0)
(9.147815001234431e-14 0 0)
(8.902858887601032e-14 0 0)
(9.519847323985064e-14 0 0)
(7.735764230160815e-14 0 0)
(9.174567887364252e-14 0 0)
(3.209510307963397e-14 0 0)
(5.83380123182262e-14 0 0)
(4.434290876123734e-14 0 0)
(5.001117651012586e-14 0 0)
(5.101440974001869e-14 0 0)
(6.551112991195519e-14 0 0)
(7.559362387237659e-14 0 0)
(7.320258467447118e-14 0 0)
(6.709122224903785e-14 0 0)
(5.930780444046165e-14 0 0)
(5.277842816924481e-14 0 0)
(4.901630355715162e-14 0 0)
(5.914895917905248e-14 0 0)
(7.272604889026428e-14 0 0)
(6.103002148510227e-14 0 0)
(1.18908218572963e-13 0 0)
(1.600157001678195e-14 0 0)
(8.070175306790124e-14 0 0)
(6.186604917668938e-14 0 0)
(7.596147605667129e-14 0 0)
(8.008309257614628e-14 0 0)
(8.036734199127798e-14 0 0)
(8.964724936778234e-14 0 0)
(8.280854285068612e-14 0 0)
(1.229545926002003e-13 0 0)
(7.994096786857871e-14 0 0)
(1.039098817860873e-13 0 0)
(9.567500902405997e-14 0 0)
(9.781523991448774e-14 0 0)
(1.140676182387482e-13 0 0)
(1.122283573172824e-13 0 0)
(9.355985896436579e-14 0 0)
(9.134438558167725e-14 0 0)
(8.047602559118424e-14 0 0)
(7.030156858468891e-14 0 0)
(5.821260816449239e-14 0 0)
(6.077921317762598e-14 0 0)
(7.543477861098065e-14 0 0)
(8.038406254510172e-14 0 0)
(6.744235387950072e-14 0 0)
(1.421999500602944e-13 0 0)
(1.37024938649403e-14 0 0)
(1.210986111248926e-13 0 0)
(6.053676514707082e-14 0 0)
(1.123955628555677e-13 0 0)
(4.546318586795241e-14 0 0)
(7.993260759165233e-14 0 0)
(3.748748169030885e-14 0 0)
(5.206780463140338e-14 0 0)
(7.882069076186776e-14 0 0)
(8.247413177404433e-14 0 0)
(8.532498620233253e-14 0 0)
(8.375325414215217e-14 0 0)
(8.833468589201108e-14 0 0)
(1.047793505853138e-13 0 0)
(1.130142233473624e-13 0 0)
(1.114341310102662e-13 0 0)
(7.462383175014356e-14 0 0)
(1.321258163767941e-13 0 0)
(3.269704301756544e-14 0 0)
(9.990530914341966e-14 0 0)
(7.181477870645319e-14 0 0)
(9.381902754874662e-14 0 0)
(9.250646407298068e-14 0 0)
(8.841828866116258e-14 0 0)
(8.869417779938153e-14 0 0)
(8.338540195786686e-14 0 0)
(9.226401604242235e-14 0 0)
(9.897731840576362e-14 0 0)
(9.848406206775766e-14 0 0)
(1.021960250183429e-13 0 0)
(1.120360709482169e-13 0 0)
(1.066353320606135e-13 0 0)
(8.700540186240125e-14 0 0)
(1.453684950113672e-13 0 0)
(4.636609577484977e-14 0 0)
(1.014937617574148e-13 0 0)
(6.66314070186712e-14 0 0)
(6.929833535479477e-14 0 0)
(7.535953611873413e-14 0 0)
(9.127750336635755e-14 0 0)
(9.174567887364327e-14 0 0)
(8.800027481537307e-14 0 0)
(9.089293062823481e-14 0 0)
(7.646309267161431e-14 0 0)
(8.283362368143124e-14 0 0)
(7.780909725505543e-14 0 0)
(7.513380864201401e-14 0 0)
(7.269260778260012e-14 0 0)
(5.416623413726487e-14 0 0)
(9.919468560558537e-14 0 0)
(-9.94036925285076e-15 0 0)
(4.502009119140999e-14 0 0)
(2.182032275015201e-14 0 0)
(3.122563428039456e-14 0 0)
(2.228849825743801e-14 0 0)
(1.075131611367627e-14 0 0)
(-3.068221628091557e-15 0 0)
(-1.417066937223011e-14 0 0)
(-1.219764402011104e-14 0 0)
(-2.024859068999679e-14 0 0)
(4.685935211287623e-14 0 0)
(-5.717593382693541e-14 0 0)
(-3.653441012192659e-15 0 0)
(-3.266360190990849e-14 0 0)
(-3.943542621167833e-14 0 0)
(-2.881787452865389e-14 0 0)
(-6.612979040378698e-15 0 0)
(-1.192175488188957e-14 0 0)
(-3.167708923384672e-14 0 0)
(1.857653530683263e-14 0 0)
(-4.147533377912927e-14 0 0)
(-2.044923733597283e-14 0 0)
(-1.830064616861961e-14 0 0)
(-1.933732050617553e-14 0 0)
(-1.784919121516558e-14 0 0)
(-2.168655831950455e-14 0 0)
(-3.583214686098216e-14 0 0)
(-2.829953735987176e-14 0 0)
(-4.527925977580324e-14 0 0)
(-6.129755034641148e-14 0 0)
(-4.31473891622761e-14 0 0)
(-2.855870594426576e-14 0 0)
(-4.211071482472638e-14 0 0)
(-3.675177732171935e-14 0 0)
(-4.666706574381771e-14 0 0)
(2.574129262364508e-14 0 0)
(-7.260064473653515e-14 0 0)
(-1.759002263077983e-14 0 0)
(-4.011260864185662e-14 0 0)
(-2.053284010512681e-14 0 0)
(-3.839875187412399e-14 0 0)
(-4.224447925537024e-14 0 0)
(-4.996101484862635e-14 0 0)
(-5.669103776581806e-14 0 0)
(-1.094360248273661e-14 0 0)
(-6.419020615926601e-14 0 0)
(-3.979491811904594e-14 0 0)
(-5.458424798304016e-14 0 0)
(-7.189838147560157e-14 0 0)
(-8.720604850837138e-14 0 0)
(-8.380341580365858e-14 0 0)
(-8.540858897148046e-14 0 0)
(-8.679639493950816e-14 0 0)
(-6.622175344980618e-14 0 0)
(-1.151795350685295e-13 0 0)
(-1.020873414184449e-13 0 0)
(-1.174284495588784e-13 0 0)
(-1.181056319890611e-13 0 0)
(-1.311058625930821e-13 0 0)
(-1.332293729296741e-13 0 0)
(-8.663754967811103e-14 0 0)
(-1.491891415618933e-13 0 0)
(-1.11810343471478e-13 0 0)
(-1.276279873961268e-13 0 0)
(-1.106733458109546e-13 0 0)
(-1.668544066849079e-13 0 0)
(-1.346338994515349e-13 0 0)
(-1.181223525428986e-13 0 0)
(-1.018699742186396e-13 0 0)
(-1.030320527099324e-13 0 0)
(-1.083659093821817e-13 0 0)
(-6.677353172625158e-14 0 0)
(-1.048796739083082e-13 0 0)
(-6.828674184799998e-14 0 0)
(-8.312623337348781e-14 0 0)
(-8.302591005050008e-14 0 0)
(-7.010092193871507e-14 0 0)
(-8.356932805002423e-14 0 0)
(-5.680808164265333e-14 0 0)
(-8.644526330905806e-14 0 0)
(-5.761902850348716e-14 0 0)
(-9.034951262871357e-14 0 0)
(-1.067356553836193e-13 0 0)
(-1.202124217718397e-13 0 0)
(-1.21934638816478e-13 0 0)
(-1.239076641686029e-13 0 0)
(-1.323097424689463e-13 0 0)
(-1.304035993321707e-13 0 0)
(-1.127383342091363e-13 0 0)
(-1.080900202439748e-13 0 0)
(-9.812457016037619e-14 0 0)
(-9.860110594457496e-14 0 0)
(-1.14619396515187e-13 0 0)
(-1.233224447844986e-13 0 0)
(-5.065491783264183e-14 0 0)
(-1.55885723371429e-13 0 0)
(-5.186715798542603e-14 0 0)
(-1.365316823114033e-13 0 0)
(-8.046766531426861e-14 0 0)
(-1.298769018864552e-13 0 0)
(-9.682872723842297e-14 0 0)
(-1.103222141804705e-13 0 0)
(-1.241417519222268e-13 0 0)
(-1.303367171168279e-13 0 0)
(-1.324184260688411e-13 0 0)
(-1.358294190504777e-13 0 0)
(-1.448334372887503e-13 0 0)
(-1.460373171646367e-13 0 0)
(-1.482444302703941e-13 0 0)
(-1.598066932449058e-13 0 0)
(-1.697888638823268e-13 0 0)
(-1.608433675824743e-13 0 0)
(-1.224446157083342e-13 0 0)
(-1.643714044409104e-13 0 0)
(-1.038680804015041e-13 0 0)
(-1.696718200055194e-13 0 0)
(-1.538959774654572e-13 0 0)
(-1.66453113392937e-13 0 0)
(-1.539043377423699e-13 0 0)
(-1.514965779906463e-13 0 0)
(-1.408957468614393e-13 0 0)
(-1.496489567922496e-13 0 0)
(-1.438636451665375e-13 0 0)
(-1.531853539276236e-13 0 0)
(-1.590626285994019e-13 0 0)
(-1.681586098837625e-13 0 0)
(-1.61980365243023e-13 0 0)
(-1.337393498215473e-13 0 0)
(-1.168683110055123e-13 0 0)
(-1.047793505853236e-13 0 0)
(-1.073793967061288e-13 0 0)
(-9.493094437854221e-14 0 0)
(-8.749865820042948e-14 0 0)
(-7.3018658582318e-14 0 0)
(-7.679750374824878e-14 0 0)
(-6.28191207450848e-14 0 0)
(-4.677574934372066e-14 0 0)
(-4.901630355714945e-14 0 0)
(-5.866406311794534e-14 0 0)
(-4.847288555761987e-14 0 0)
(-2.691173139185882e-14 0 0)
(-2.897671979005255e-14 0 0)
(-3.762124612095321e-14 0 0)
(-1.215584263552685e-14 0 0)
(7.607851993350275e-15 0 0)
(1.955468770598247e-14 0 0)
(1.576748226313512e-14 0 0)
(2.544032265467448e-14 0 0)
(5.431671912174543e-14 0 0)
(7.182313898336767e-14 0 0)
(6.117214619267816e-14 0 0)
(7.874544826961866e-14 0 0)
(8.260789620470061e-14 0 0)
(8.313459365040202e-14 0 0)
(9.305824234941865e-14 0 0)
(1.011259095731245e-13 0 0)
(9.936189114391e-14 0 0)
(7.01845247078788e-14 0 0)
(6.93484970163036e-14 0 0)
(6.745907443333634e-14 0 0)
(8.201431654367911e-14 0 0)
(8.690507853941364e-14 0 0)
(9.162863499682855e-14 0 0)
(8.820928173827565e-14 0 0)
(9.259006684214181e-14 0 0)
(1.016776878495826e-13 0 0)
(1.056739002153197e-13 0 0)
(1.110495582721562e-13 0 0)
(9.81496509911185e-14 0 0)
(1.057909440921407e-13 0 0)
(9.92030458825113e-14 0 0)
(1.044198586779368e-13 0 0)
(1.120862326097078e-13 0 0)
(1.262819828126818e-13 0 0)
(1.223860937699317e-13 0 0)
(1.241668327529885e-13 0 0)
(1.350602735742201e-13 0 0)
(1.518059082365209e-13 0 0)
(1.489884949159055e-13 0 0)
(1.384796268327709e-13 0 0)
(1.595809657681823e-13 0 0)
(1.73308540463876e-13 0 0)
(1.747047067088095e-13 0 0)
(1.811504802108683e-13 0 0)
(1.947610110297293e-13 0 0)
(2.117156526149272e-13 0 0)
(2.181447055631464e-13 0 0)
(2.270902018629939e-13 0 0)
(2.381675687764085e-13 0 0)
(2.457503399390106e-13 0 0)
(2.497047509201699e-13 0 0)
(2.520539887335003e-13 0 0)
(2.545955129158757e-13 0 0)
(2.561839655298924e-13 0 0)
(2.619943579863514e-13 0 0)
(2.661661361672967e-13 0 0)
(2.788653968023708e-13 0 0)
(2.887890455013829e-13 0 0)
(2.730800851766661e-13 0 0)
(2.55582025591952e-13 0 0)
(2.535922796859765e-13 0 0)
(2.527228108867681e-13 0 0)
(2.262458138945269e-13 0 0)
(2.479407324909151e-13 0 0)
(2.525388847946056e-13 0 0)
(2.326414257350863e-13 0 0)
(2.168237818104452e-13 0 0)
(2.100101561240969e-13 0 0)
(2.046846597287267e-13 0 0)
(2.130532969214422e-13 0 0)
(2.027199946535466e-13 0 0)
(2.075355141570188e-13 0 0)
(1.971520502276457e-13 0 0)
(1.868187479597655e-13 0 0)
(1.854978242070674e-13 0 0)
(1.763098798766461e-13 0 0)
(1.702235982819443e-13 0 0)
(1.447163934119466e-13 0 0)
(1.447414742426922e-13 0 0)
(1.387053543095025e-13 0 0)
(1.903300642644018e-13 0 0)
(1.391484489860358e-13 0 0)
(1.627578709961739e-13 0 0)
(1.548824901415225e-13 0 0)
(1.573654923854919e-13 0 0)
(1.601745454292076e-13 0 0)
(1.520734370978217e-13 0 0)
(1.446745920273743e-13 0 0)
(1.332210126527637e-13 0 0)
(1.670801341616201e-13 0 0)
(1.223192115546014e-13 0 0)
(1.385130679404512e-13 0 0)
(1.13984015469571e-13 0 0)
(1.045452628316837e-13 0 0)
(1.066353320606214e-13 0 0)
(9.571681040863335e-14 0 0)
(1.163834149444095e-13 0 0)
(8.86774572455463e-14 0 0)
(1.11082999379815e-13 0 0)
(9.534059794741925e-14 0 0)
(9.926156782091343e-14 0 0)
(1.015021220343429e-13 0 0)
(8.657066746278347e-14 0 0)
(8.829288450742559e-14 0 0)
(8.495713401804199e-14 0 0)
(1.158399969448812e-13 0 0)
(5.973417856316791e-14 0 0)
(8.733981293903212e-14 0 0)
(7.688946679431673e-14 0 0)
(7.563542525695652e-14 0 0)
(7.019288498479454e-14 0 0)
(8.47230462643937e-14 0 0)
(7.494988254986386e-14 0 0)
(5.960877440942523e-14 0 0)
(9.233089825774952e-14 0 0)
(2.911884449762306e-14 0 0)
(8.178022879003653e-14 0 0)
(7.52174114111679e-14 0 0)
(6.730858944885268e-14 0 0)
(6.488410914327524e-14 0 0)
(3.835695048954253e-14 0 0)
(5.547879761302966e-14 0 0)
(2.031547290530842e-15 0 0)
(3.782189276693381e-14 0 0)
(3.899233153513511e-14 0 0)
(3.502120000015337e-14 0 0)
(3.558133855350983e-14 0 0)
(4.111584187174899e-14 0 0)
(4.36239249464745e-14 0 0)
(3.41266503701627e-14 0 0)
(5.397394776820019e-14 0 0)
(-1.065935306760369e-14 0 0)
(2.354253979479955e-14 0 0)
(9.639399283881858e-15 0 0)
(8.418798854178478e-15 0 0)
(-6.153163810003808e-15 0 0)
(-1.509866010987319e-14 0 0)
(-1.780738983058816e-15 0 0)
(-1.98723782287809e-14 0 0)
(3.491251640024955e-14 0 0)
(-6.959930532376603e-14 0 0)
(-1.006577340658743e-14 0 0)
(-3.328226240167455e-14 0 0)
(-4.113256242557867e-14 0 0)
(-5.128193860131653e-14 0 0)
(-4.015441002642671e-14 0 0)
(-3.749584196721529e-14 0 0)
(-4.85564883267811e-14 0 0)
(-4.376604965403912e-14 0 0)
(-2.99632324661083e-14 0 0)
(-2.662748197671907e-14 0 0)
(-2.05997223204479e-14 0 0)
(-1.193011515879755e-14 0 0)
(-1.733921432329759e-14 0 0)
(-3.172725089533668e-14 0 0)
(-6.111362425421234e-15 0 0)
(-6.646420148034694e-14 0 0)
(-3.038960658881276e-14 0 0)
(-5.413279302959828e-14 0 0)
(-5.736822019599507e-14 0 0)
(-5.628974447386541e-14 0 0)
(-4.74612920508159e-14 0 0)
(-2.52898376702009e-14 0 0)
(-2.857542649809753e-14 0 0)
(8.677967438565481e-15 0 0)
(-1.105228608264575e-13 0 0)
(-4.945103795676772e-14 0 0)
(-6.1707203915287e-14 0 0)
(-7.071958243048454e-14 0 0)
(-6.751759637173384e-14 0 0)
(-6.307828932947069e-14 0 0)
(-7.0351730246188e-14 0 0)
(-5.975925939390674e-14 0 0)
(-5.286203093840005e-14 0 0)
(-3.494595750790815e-14 0 0)
(-3.980327839596998e-14 0 0)
(-4.981889014105872e-14 0 0)
(-2.982946803546167e-14 0 0)
(-9.47219374556513e-15 0 0)
(-2.62512695155076e-14 0 0)
(1.120277106713268e-15 0 0)
(-5.183371687776753e-14 0 0)
(-2.269815182631232e-14 0 0)
(-4.06978280259605e-14 0 0)
(-4.359048383881493e-14 0 0)
(-6.255995216068926e-14 0 0)
(-8.672115244727002e-14 0 0)
(-7.015108360021168e-14 0 0)
(-6.980831224665778e-14 0 0)
(6.91394900934069e-15 0 0)
(-1.059832304611955e-13 0 0)
(-3.720323227516411e-14 0 0)
(-5.066327810955332e-14 0 0)
(-5.282858983073354e-14 0 0)
(-6.145639560780945e-14 0 0)
(-5.851357813345924e-14 0 0)
(-5.916567973288548e-14 0 0)
(-6.403972117478478e-14 0 0)
(-5.904863585606791e-14 0 0)
(-5.611417865863067e-14 0 0)
(-6.20750560995722e-14 0 0)
(-6.820313907882611e-14 0 0)
(-6.408988283627801e-14 0 0)
(-7.836087553149216e-14 0 0)
(-7.592803494899905e-14 0 0)
(-7.484119894996363e-14 0 0)
(-7.7850898639624e-14 0 0)
(-8.089403943696916e-14 0 0)
(-8.517450121784064e-14 0 0)
(-7.206558701390775e-14 0 0)
(-6.488410914327564e-14 0 0)
(-7.903805796167102e-14 0 0)
(-7.405533291986952e-14 0 0)
(-6.623011372670852e-14 0 0)
(-7.300193802848135e-14 0 0)
(-8.609413167858321e-14 0 0)
(-7.612032131806906e-14 0 0)
(-1.167512671286991e-13 0 0)
(-9.803260711430532e-14 0 0)
(-1.119775490098013e-13 0 0)
(-1.017194892341536e-13 0 0)
(-9.751426994551987e-14 0 0)
(-8.86105750302145e-14 0 0)
(-9.239778047307432e-14 0 0)
(-1.03918242062996e-13 0 0)
(-3.412665037016423e-14 0 0)
(-1.401098808313599e-13 0 0)
(-7.483283867304316e-14 0 0)
(-9.399459336398294e-14 0 0)
(-9.282415459577152e-14 0 0)
(-8.290050589674905e-14 0 0)
(-8.286706478909508e-14 0 0)
(-9.036623318254753e-14 0 0)
(-1.069363020295858e-13 0 0)
(-1.129891425166091e-13 0 0)
(-9.968794194362132e-14 0 0)
(-8.599380835559515e-14 0 0)
(-7.321930522830254e-14 0 0)
(-6.095477899286341e-14 0 0)
(-5.297071453831193e-14 0 0)
(-6.91060489857398e-14 0 0)
(-3.681029926012343e-14 0 0)
(-7.336979021277964e-14 0 0)
(-4.452683485338096e-14 0 0)
(-5.057131506348119e-14 0 0)
(-4.628249300568955e-14 0 0)
(-4.978544903339657e-14 0 0)
(-5.076360143254427e-14 0 0)
(-3.659293206031735e-14 0 0)
(-7.179805815260622e-14 0 0)
(-2.662748197672164e-14 0 0)
(-1.145943156844333e-13 0 0)
(-5.66575966581597e-14 0 0)
(-5.907371668681716e-14 0 0)
(-6.108018314659612e-14 0 0)
(-7.061925910749385e-14 0 0)
(-7.568558691844602e-14 0 0)
(-6.016055268586304e-14 0 0)
(-6.112198453117791e-14 0 0)
(-5.481833573668867e-14 0 0)
(-5.947500997877482e-14 0 0)
(-6.276895908358786e-14 0 0)
(-6.422364726692473e-14 0 0)
(-6.626355483437474e-14 0 0)
(-5.410771219885603e-14 0 0)
(-7.008420138487933e-14 0 0)
(-3.930166178103114e-14 0 0)
(-9.418687973304656e-14 0 0)
(-6.570341628102371e-14 0 0)
(-6.612143012681469e-14 0 0)
(-6.861279264770621e-14 0 0)
(-7.598655688742384e-14 0 0)
(-8.923759579890845e-14 0 0)
(-7.990752676091102e-14 0 0)
(-9.254826545755803e-14 0 0)
(-3.531380969220696e-14 0 0)
(-1.392822134166988e-13 0 0)
(-8.122845051360694e-14 0 0)
(-9.918632532867371e-14 0 0)
(-8.382013635749084e-14 0 0)
(-9.535731850126572e-14 0 0)
(-9.16119144429805e-14 0 0)
(-9.245630241148181e-14 0 0)
(-9.139454724318157e-14 0 0)
(-9.865126760606989e-14 0 0)
(-1.042275723088917e-13 0 0)
(-1.316576408695054e-13 0 0)
(-1.251199043214028e-13 0 0)
(-9.439588665593513e-14 0 0)
(-7.816858916243447e-14 0 0)
(-7.651325433311252e-14 0 0)
(-5.878110699476884e-14 0 0)
(-1.243340382913129e-13 0 0)
(-9.311676428782968e-14 0 0)
(-9.009870432123398e-14 0 0)
(-9.097653339738832e-14 0 0)
(-1.044365792317908e-13 0 0)
(-1.009001820963975e-13 0 0)
(-8.543366980223721e-14 0 0)
(-9.269875044204209e-14 0 0)
(-4.415898266909289e-14 0 0)
(-1.485370399624553e-13 0 0)
(-6.660632618792198e-14 0 0)
(-6.690729615690175e-14 0 0)
(-6.118886674650188e-14 0 0)
(-5.697528718095387e-14 0 0)
(-4.969348598732209e-14 0 0)
(-5.886470976392575e-14 0 0)
(-8.47732079258866e-14 0 0)
(-1.753986096927839e-14 0 0)
(-1.29617733302064e-13 0 0)
(-5.577976758199621e-14 0 0)
(-5.383182306063431e-14 0 0)
(-6.542752714279486e-14 0 0)
(-7.864512494663519e-14 0 0)
(-7.547657999555804e-14 0 0)
(-3.674341704480433e-14 0 0)
(-1.071118678448284e-13 0 0)
(-1.653662773939435e-14 0 0)
(-1.111749624258887e-13 0 0)
(-5.367297779922716e-14 0 0)
(-6.396447868254896e-14 0 0)
(-6.898064483200857e-14 0 0)
(-5.523634958248266e-14 0 0)
(-7.184821981411466e-14 0 0)
(-1.644466469331804e-14 0 0)
(-1.274524215808882e-13 0 0)
(-5.817080677990765e-14 0 0)
(-7.727403953244841e-14 0 0)
(-8.638674137063239e-14 0 0)
(-9.042475512096789e-14 0 0)
(-9.315856567240414e-14 0 0)
(-7.65968571022719e-14 0 0)
(-7.652161461001123e-14 0 0)
(-7.85448016236407e-14 0 0)
(-8.60105289094246e-14 0 0)
(-2.517279379338038e-14 0 0)
(-1.263237841972555e-13 0 0)
(-7.53177347341555e-14 0 0)
(-8.463108321832484e-14 0 0)
(-8.224840429731449e-14 0 0)
(-7.210738839850509e-14 0 0)
(-6.525196132757748e-14 0 0)
(-7.377944378166396e-14 0 0)
(-8.76993048464186e-14 0 0)
(-1.84678517069443e-14 0 0)
(-1.202458628795043e-13 0 0)
(-5.297907481523092e-14 0 0)
(-5.018674232536232e-14 0 0)
(-4.752817426613847e-14 0 0)
(-6.385579508264507e-14 0 0)
(-7.198198424476905e-14 0 0)
(-2.967062277406806e-14 0 0)
(-7.818530971627372e-14 0 0)
(-4.559695029860842e-14 0 0)
(-4.126632685624016e-14 0 0)
(-3.594919073780267e-14 0 0)
(-2.361778228704771e-14 0 0)
(-1.952960687523359e-14 0 0)
(1.496489567924354e-15 0 0)
(-1.045034614474116e-15 0 0)
(5.496882072117416e-14 0 0)
(-6.247634939153582e-14 0 0)
(3.143464120326656e-15 0 0)
(-7.791778085498516e-15 0 0)
(2.809053043695998e-15 0 0)
(9.530715683973035e-15 0 0)
(2.197080773463414e-14 0 0)
(2.376826727152521e-14 0 0)
(3.369191597050799e-15 0 0)
(5.628138419694652e-14 0 0)
(-4.724392485100696e-14 0 0)
(5.3254963953407e-15 0 0)
(9.229745715004753e-15 0 0)
(2.702877526867854e-14 0 0)
(3.737043781348383e-14 0 0)
(2.720434108390687e-14 0 0)
(5.162470995486773e-14 0 0)
(1.121113134404588e-14 0 0)
(2.560752819300078e-14 0 0)
(8.226512485119592e-15 0 0)
(1.27828634042118e-14 0 0)
(1.306711281935104e-14 0 0)
(1.575076170930781e-14 0 0)
(2.346729730255804e-14 0 0)
(8.259953592774547e-15 0 0)
(7.110415516860359e-14 0 0)
(-3.35163501553181e-14 0 0)
(1.607681250901765e-14 0 0)
(1.585944530921268e-14 0 0)
(2.955357889723908e-14 0 0)
(2.671944502279326e-14 0 0)
(1.855145447608495e-14 0 0)
(1.896946832187271e-14 0 0)
(8.084387777545034e-15 0 0)
(6.27940399143322e-14 0 0)
(-4.276281642415884e-14 0 0)
(8.39371802342426e-15 0 0)
(4.046374027226065e-15 0 0)
(1.340988417288556e-14 0 0)
(-1.218092346628074e-14 0 0)
(-4.85564883267887e-14 0 0)
(-3.105006846517043e-14 0 0)
(-9.350969730287653e-14 0 0)
(-5.628974447386679e-14 0 0)
(-5.979270050158072e-14 0 0)
(-5.612253893555664e-14 0 0)
(-4.993593401788956e-14 0 0)
(-4.842272389613657e-14 0 0)
(-5.367297779923757e-14 0 0)
(-7.853644134673513e-14 0 0)
(-4.41840634998411e-14 0 0)
(-1.650736677018509e-13 0 0)
(-1.100296044884106e-13 0 0)
(-1.389979640015674e-13 0 0)
(-1.278704354266782e-13 0 0)
(-1.184149622349462e-13 0 0)
(-1.374095113875702e-13 0 0)
(-1.375850772027999e-13 0 0)
(-1.400262780622079e-13 0 0)
(-9.642743394646301e-14 0 0)
(-1.967340363818614e-13 0 0)
(-1.382204582484009e-13 0 0)
(-1.298016593942235e-13 0 0)
(-1.151460939608707e-13 0 0)
(-1.167847082363711e-13 0 0)
(-1.125794889477412e-13 0 0)
(-7.99744089762472e-14 0 0)
(-1.433369477208341e-13 0 0)
(-1.19894731249038e-13 0 0)
(-1.369831372648624e-13 0 0)
(-1.319836916692415e-13 0 0)
(-1.513377327292242e-13 0 0)
(-1.387387954171801e-13 0 0)
(-1.341490033904294e-13 0 0)
(-1.738435981864835e-13 0 0)
(-1.107987499646756e-13 0 0)
(-2.288625805691507e-13 0 0)
(-1.75348448031324e-13 0 0)
(-1.766860923378458e-13 0 0)
(-1.652826746247213e-13 0 0)
(-1.79637270089111e-13 0 0)
(-1.817607804257181e-13 0 0)
(-1.768783787069119e-13 0 0)
(-1.824045217482396e-13 0 0)
(-1.194767174032422e-13 0 0)
(-2.144578234432934e-13 0 0)
(-1.543056310343417e-13 0 0)
(-1.781156996904384e-13 0 0)
(-1.766526512301745e-13 0 0)
(-1.758500646462672e-13 0 0)
(-2.042666458829676e-13 0 0)
(-1.520149151594144e-13 0 0)
(-2.590097391273908e-13 0 0)
(-1.835415194087734e-13 0 0)
(-2.176096478405308e-13 0 0)
(-1.576497418006434e-13 0 0)
(-2.547209170696054e-13 0 0)
(-1.888168541426278e-13 0 0)
(-1.881145908817029e-13 0 0)
(-1.746545450473236e-13 0 0)
(-1.704576860355841e-13 0 0)
(-1.68693667606366e-13 0 0)
(-1.157480338988144e-13 0 0)
(-2.173170381484728e-13 0 0)
(-1.528007811894801e-13 0 0)
(-1.420411047989019e-13 0 0)
(-1.305290034858944e-13 0 0)
(-1.17445170112716e-13 0 0)
(-9.864290732915046e-14 0 0)
(-7.874544826961897e-14 0 0)
(-8.922087524507569e-14 0 0)
(-3.896725070439398e-14 0 0)
(-1.510702038679241e-13 0 0)
(-7.951459374585994e-14 0 0)
(-8.195579460527339e-14 0 0)
(-8.799191453845437e-14 0 0)
(-8.1378935498086e-14 0 0)
(-6.982503280048766e-14 0 0)
(-4.660018352849102e-14 0 0)
(-3.62836018144343e-14 0 0)
(3.139283981870919e-14 0 0)
(-6.640567954194114e-14 0 0)
(-2.817413320616828e-15 0 0)
(1.404526521846777e-15 0 0)
(7.348683408957267e-15 0 0)
(1.964665075205378e-14 0 0)
(7.942263069980373e-15 0 0)
(7.725731897861416e-14 0 0)
(-2.512263213188156e-14 0 0)
(4.220267787080026e-14 0 0)
(3.077417932694858e-14 0 0)
(5.154946746263244e-14 0 0)
(5.722609548843862e-14 0 0)
(7.207394729084454e-14 0 0)
(8.871089835321638e-14 0 0)
(8.446387768001526e-14 0 0)
(1.677071549303248e-13 0 0)
(7.629588713331063e-14 0 0)
(1.617797185970279e-13 0 0)
(1.688023512062934e-13 0 0)
(1.967423966587872e-13 0 0)
(2.208952366684414e-13 0 0)
(2.400151899747835e-13 0 0)
(2.485761135365668e-13 0 0)
(2.595782379577115e-13 0 0)
(3.513071962775201e-13 0 0)
(2.713411475781831e-13 0 0)
(3.668656716177612e-13 0 0)
(3.899985578437076e-13 0 0)
(4.265496885194608e-13 0 0)
(4.725228512792129e-13 0 0)
(4.980049753185099e-13 0 0)
(5.949758272645252e-13 0 0)
(5.241141201264625e-13 0 0)
(6.111111617119442e-13 0 0)
(6.444352254982185e-13 0 0)
(6.92481736933121e-13 0 0)
)
;

boundaryField
{
    inlet
    {
        type            calculated;
        value           uniform (0.008772562654792003 0 0);
    }
    outlet
    {
        type            calculated;
        value           uniform (7.041610780814005e-13 0 0);
    }
    frontAndBack
    {
        type            empty;
    }
}


// ************************************************************************* //
