/*--------------------------------*- C++ -*----------------------------------*\
| =========                 |                                                 |
| \\      /  F ield         | OpenFOAM: The Open Source CFD Toolbox           |
|  \\    /   O peration     | Version:  v2012                                 |
|   \\  /    A nd           | Website:  www.openfoam.com                      |
|    \\/     M anipulation  |                                                 |
\*---------------------------------------------------------------------------*/
FoamFile
{
    version     2.0;
    format      ascii;
    class       volScalarField;
    location    "0.016";
    object      p;
}
// * * * * * * * * * * * * * * * * * * * * * * * * * * * * * * * * * * * * * //

dimensions      [1 -1 -2 0 0 0 0];


internalField   nonuniform List<scalar> 
1000
(
101310.4711653957
101309.1446282249
101299.6765369624
101291.390456252
101282.9481181902
101275.1137615536
101268.3814565108
101263.2987481763
101259.4859692636
101256.5098518287
101254.9517236205
101254.8604120985
101255.8955272192
101258.060573475
101261.4710275685
101266.0742201929
101271.7063983358
101278.1829471495
101285.358350841
101293.114093949
101301.3223507566
101309.8369726379
101318.5129055526
101327.2225103787
101335.8742357591
101344.4163860938
101352.7358177605
101360.6902494886
101368.280692635
101375.0373157312
101380.1549482506
101384.5471742641
101388.0242922631
101390.4965745544
101391.7471914766
101391.7653967352
101390.7366093721
101388.51325712
101384.938210563
101380.0079068047
101373.8455615423
101366.6226322708
101358.5201960887
101349.7253087588
101340.4245690744
101330.7972217022
101321.0102480137
101311.200226616
101301.4983696887
101292.0958352288
101283.168119651
101274.9100225226
101267.9431405539
101262.8219312046
101258.9217615812
101255.8616722731
101253.9570443204
101253.2993232456
101253.8011019256
101255.2029978532
101257.7433819408
101261.5306673279
101266.5375578507
101272.6258494713
101279.6076040233
101287.2840442464
101295.4609318226
101303.963150691
101312.6468980491
101321.3977254645
101330.1336953135
101338.8088525776
101347.3124712409
101355.4523626981
101363.2001914972
101370.1853882415
101375.5392625703
101380.0808625633
101383.7938713745
101386.5245269751
101388.2709168473
101388.875140265
101388.3123176452
101386.7657672094
101383.9705812051
101379.8161378592
101374.3242084436
101367.6082313225
101359.8293635543
101351.1837966543
101341.8926011628
101332.1792463648
101322.2476816042
101312.2578369123
101302.3428433538
101292.6940706702
101283.5165014591
101274.9994634448
101267.6988587757
101262.2362180706
101258.1831655076
101254.895040457
101252.6474587219
101251.6089127249
101251.7417272529
101252.712842689
101254.6723510676
101257.7719384491
101262.0722789468
101267.5242676852
101274.0054544703
101281.3522027946
101289.375060101
101297.8714945435
101306.6453961581
101315.5308756101
101324.4107910966
101333.2183445255
101341.8613724045
101350.1541287598
101358.0211809785
101365.2376525406
101370.9697711247
101375.658785125
101379.6164594631
101382.6586256899
101384.8045297119
101385.8533840033
101385.7630837483
101384.7100298126
101382.537502708
101379.07932559
101374.2825079232
101368.1949859102
101360.9219294463
101352.6185850729
101343.4932485508
101333.7832443583
101323.7252462364
101313.5268643319
101303.359000594
101293.4300522997
101283.9786765466
101275.1979304841
101267.5422523599
101261.6827822501
101257.4119402146
101253.8595119678
101251.3233968825
101249.9379816224
101249.6688814728
101250.3305887609
101251.8563558383
101254.4233468414
101258.124750307
101262.9687712554
101268.8857932301
101275.7619656367
101283.4506350632
101291.7686399546
101300.5098526788
101309.479723671
101318.5165164438
101327.4987188873
101336.3290483621
101344.8327690857
101352.842974411
101360.2569638392
101366.4255198608
101371.2253539625
101375.4535299963
101378.791660922
101381.2220629494
101382.7051075642
101383.1087796689
101382.4345813084
101380.7908844733
101377.9365406269
101373.7728992727
101368.2926206046
101361.5594295263
101353.6946025397
101344.8721669493
101335.3039237312
101325.225674088
101314.8765632632
101304.4674928171
101294.2278595062
101284.4384058118
101275.3299870996
101267.2710842855
101260.9441689413
101256.3859964987
101252.5893311165
101249.7801791749
101248.0042280754
101247.3433864452
101247.7409038753
101248.9102081076
101251.0300030367
101254.2142919747
101258.5078490167
101263.882876387
101270.2628993223
101277.5358706317
101285.5545584855
101294.1408995638
101303.1003542323
101312.2440096163
101321.4154054353
101330.5035134464
101339.3549429388
101347.7264835386
101355.5692017625
101362.6149822143
101368.0428024201
101372.7384562264
101376.6725054168
101379.7535173115
101381.9630345112
101383.1950000626
101383.3716401306
101382.5484728362
101380.7651932054
101377.8593800697
101373.7588126547
101368.4620366849
101362.0420854349
101354.6262051383
101346.3789448287
101337.4913710167
101328.1799576018
101318.6727644648
101309.1762965961
101299.9061273093
101291.1027531183
101282.9394105716
101275.6757470454
101269.7774717402
101265.2433214048
101261.3986957513
101258.3582017597
101256.2150321483
101254.9721606587
101254.6660402
101255.2320215002
101256.4820655619
101258.4931710312
101261.306811532
101264.9631895714
101269.4662087148
101274.7799104968
101280.8410513827
101287.5643468751
101294.8412788833
101302.5475444536
101310.5579538374
101318.7530825596
101326.9696354973
101334.9592119438
101342.606952541
101349.6637148154
101355.3758822193
101360.2945630138
101364.5052528921
101367.8309965517
101370.2464209378
101371.8168918123
101372.3310100518
101371.7106765426
101370.2170958742
101367.7049065889
101364.1127481934
101359.41410664
101353.6394549817
101346.8694801492
101339.2324951515
101330.8976657105
101322.0613743143
101312.9261135563
101303.7027763063
101294.654959644
101286.039578504
101278.0739772158
101271.1906920188
101265.7683100127
101261.5134840551
101257.9368137247
101255.2872594114
101253.4983879914
101252.6804185125
101252.8534860896
101253.7384941879
101255.3621961756
101257.7652016949
101260.9988729743
101265.090860968
101270.0313047856
101275.7766821804
101282.2552495189
101289.3707224588
101297.0115554241
101305.051776362
101313.3479560214
101321.735610126
101329.9661645657
101337.8199192855
101345.1210310761
101351.2012340261
101356.2068693369
101360.5929671495
101364.1354181777
101366.8327384379
101368.7044829137
101369.5711974475
101369.3439261613
101368.1901924259
101366.0899578018
101362.9706661325
101358.7678131592
101353.4719316382
101347.1422085027
101339.8884381623
101331.8486600589
101323.1867179978
101314.0927205304
101304.7755411944
101295.4960454936
101286.5429133313
101278.1612757866
101270.753420961
101264.8300355385
101260.3021230435
101256.4858226835
101253.5506499285
101251.5320421027
101250.4712419984
101250.3502072793
101251.0313511299
101252.42595824
101254.5662857719
101257.4877081414
101261.2281071097
101265.7957729828
101271.1646238493
101277.280551047
101284.0696738625
101291.4416490263
101299.2818522008
101307.4573327256
101315.8359068207
101324.1919350329
101332.2053792139
101339.7701974355
101346.4305933278
101351.5826979852
101356.2518797682
101360.0982130257
101363.0996279671
101365.2202526302
101366.4605949957
101366.6789929101
101365.8567100304
101364.166065186
101361.4656068906
101357.6967903848
101352.8378967114
101346.9353984952
101340.0751261308
101332.3612871489
101323.9316139137
101314.9664593855
101305.665634752
101296.2688795271
101287.074965536
101278.3521744045
101270.4568397723
101263.9821535244
101259.0719841033
101255.008603519
101251.7715402445
101249.5105175599
101248.1347161061
101247.7027273367
101248.20602394
101249.37655357
101251.279406934
101253.9342865944
101257.3767522203
101261.6241529923
101266.6597470565
101272.4407561549
101278.9084028982
101285.9872876777
101293.5826715179
101301.5855051353
101309.8719024537
101318.2398350245
101326.378392738
101334.1394681482
101341.2200455761
101346.7572968644
101351.5983540349
101355.7049287969
101358.9693617548
101361.3854676509
101362.9985102656
101363.6003924836
101363.1172510165
101361.7686985019
101359.4463963915
101356.0848032464
101351.6535019621
101346.1751371811
101339.7027390062
101332.3194536919
101324.1526185791
101315.3709429723
101306.1586000408
101296.7299581204
101287.3755213179
101278.3865648387
101270.0758832394
101263.0202264364
101257.5875378728
101253.2991104164
101249.7541094586
101247.1953377064
101245.5107474701
101244.7914874259
101245.0527269662
101246.0043745783
101247.6726720276
101250.0756906906
101253.2473896339
101257.2079164223
101261.9474275248
101267.4289604929
101273.5991906595
101280.3940541888
101287.7381400668
101295.5353417139
101303.6649448505
101311.9753232033
101320.2069536651
101328.0758907485
101335.4095611808
101341.5438211029
101346.447247827
101350.7995082021
101354.345554952
101357.0797958756
101358.9803870089
101359.9191989895
101359.8161362143
101358.7683018075
101356.8013830934
101353.8446801578
101349.8449580632
101344.7845001315
101338.7011289973
101331.6805856112
101323.840581286
101315.3236649276
101306.295208991
101296.9503466561
101287.5540697168
101278.4064652424
101269.796654225
101262.2111699464
101256.2034145022
101251.6687940395
101247.8507513667
101244.9556258191
101242.9926747485
101242.004342446
101241.9523501235
101242.6714871532
101244.1068960198
101246.2698906201
101249.1887358323
101252.8879472202
101257.362516628
101262.5793982143
101268.489008176
101275.0323989598
101282.1388937596
101289.71840867
101297.6675407459
101305.8685165584
101314.0956545448
101322.0208423849
101329.5287034801
101336.2166716401
101341.2695600525
101345.8149699814
101349.6074416298
101352.5865896078
101354.7041497143
101355.9748139372
101356.2415186256
101355.4826520653
101353.8846543009
101351.292706647
101347.6477097392
101342.9357221018
101337.2033889507
101330.5270869105
101322.9948944483
101314.7235523025
101305.8729310171
101296.6297512668
101287.2266609553
101277.9534013444
101269.0932077708
101261.0533931973
101254.4750722864
101249.5259526843
101245.4748559216
101242.2371086791
101239.9848703042
101238.6395280078
101238.2402703147
101238.7538277102
101239.9335572459
101241.8436281382
101244.5018123608
101247.9346968745
101252.1473492323
101257.1123899899
101262.779807016
101269.0885530078
101275.9700743329
101283.3453015751
101291.1215038578
101299.1855565805
101307.3603944339
101315.3666820975
101322.9874748065
101329.9793850578
101335.5507733818
101340.1491780379
101344.1461399228
101347.3552863093
101349.7423658273
101351.3259099678
101351.925826013
101351.491579664
101350.2160463002
101347.9840701904
101344.7224339845
101340.4138912055
101335.0914426963
101328.8040740617
101321.6211849303
101313.6553930209
101305.0623705362
101296.0136964329
101286.709558762
101277.4231939664
101268.4415121587
101260.0990787313
101252.9812683614
101247.491559719
101243.2807859606
101239.7522294286
101237.1914788719
101235.5147310368
101234.8031402658
101235.0529569845
101235.9774744835
101237.6140386251
101239.9927503489
101243.1486082806
101247.0950963488
101251.8107868564
101257.2465385285
101263.3410396711
101270.027570066
101277.2289950507
101284.8502159137
101292.7837436122
101300.8960254527
101308.9441208479
101316.6255020102
101323.7994127138
101329.9720818581
101334.567856085
101338.7372776011
101342.1513077882
101344.7867907853
101346.6073137913
101347.4673059764
101347.3224455026
101346.3069179922
101344.3975094433
101341.5074811722
101337.5903575838
101332.6471352845
101326.7206426088
101319.8888488104
101312.2579217976
101303.9583443795
101295.1437325777
101285.9960868587
101276.7592691453
101267.7165421026
101259.1609686461
101251.569511871
101245.524870226
101241.0272230487
101237.3003037978
101234.4183940869
101232.4498687591
101231.4554916333
101231.3878962009
101232.0557553666
101233.4181011631
101235.5088979222
101238.3672846036
101242.0199026183
101246.4583544956
101251.6442839895
101257.521060416
101264.0197560708
101271.0592234327
101278.5440257356
101286.3696076481
101294.4127349943
101302.4656864458
101310.2480357099
101317.5813903243
101324.1215063771
101329.1286961151
101333.3104805793
101336.8957351968
101339.7265404228
101341.7202555278
101342.8053615963
101342.9409139078
101342.1883059281
101340.609707707
101338.0648181897
101334.4957221934
101329.9078720976
101324.3569475755
101317.9106194067
101310.6427509632
101302.6589411041
101294.1090247488
101285.1647743647
101276.0343194356
101266.9875288245
101258.3001456826
101250.3540736116
101243.776347374
101238.8283141106
101234.9544502433
101231.7731559692
101229.5295904131
101228.1970576351
101227.7980613638
101228.2553153409
101229.3473043613
101231.1534773271
101233.7096971157
101237.0515596374
101241.189958652
101246.1013136978
101251.7342966103
101258.0213832681
101264.8855255314
101272.2355438487
101279.9621508861
101287.9422674621
101296.006183675
101303.8964235174
101311.3623297535
101318.1698255353
101323.7636431969
101327.9417254651
101331.6868708485
101334.67847569
101336.8499498091
101338.1828080625
101338.566237542
101338.0216993163
101336.717014227
101334.4895132727
101331.2752563525
101327.0741403005
101321.9192030366
101315.8526500919
101308.9408232299
101301.2898940803
101293.0390339586
101284.3403558826
101275.370322549
101266.3753885717
101257.6311297265
101249.4474981455
101242.3595025631
101236.855613142
101232.7654627374
101229.344506462
101226.817241473
101225.1672942689
101224.4669416146
101224.6850558279
101225.5338050396
101227.0647553197
101229.3235009354
101232.3543247242
101236.178360028
101240.7833729384
101246.1313972003
101252.1697015775
101258.8309154862
101266.0265395498
101273.6460371827
101281.5688893489
101289.6453996988
101297.6349170804
101305.2712815507
101312.3463172229
101318.3909648291
101322.8955457083
101326.6805623741
101329.8168113103
101332.1494724654
101333.6651052463
101334.2302301738
101333.8572060439
101332.7677443137
101330.8370537804
101327.9815439448
101324.168408132
101319.4136679816
101313.7640252659
101307.2864566215
101300.0629214433
101292.1987184303
101283.8302686664
101275.1163314897
101266.2654145929
101257.5482644003
101249.2370176369
101241.7377160968
101235.6807328246
101231.2203032659
101227.6314905239
101224.8012034819
101222.8478458659
101221.8627201416
101221.7899034059
101222.408748024
101223.6899327879
101225.677582278
101228.415656632
101231.9310255147
101236.2237727366
101241.2741276954
101247.0422341313
101253.4651174848
101260.4608096128
101267.9294789186
101275.7544616068
101283.7964998044
101291.8444526846
101299.636494454
101306.9472426648
101313.399171838
101318.4712639358
101322.3193429681
101325.6519785712
101328.1754210353
101329.9005569609
101330.6879807644
101330.5443256788
101329.691632795
101328.0549237052
101325.5361231726
101322.0848287633
101317.7117245087
101312.4581657378
101306.373378268
101299.5210236288
101291.9957225227
101283.9244753125
101275.4484744181
101266.7397583646
101258.0508309491
101249.6537121702
101241.8609002239
101235.2617743022
101230.2685782163
101226.4921262008
101223.3485472158
101221.1274239506
101219.8014509588
101219.3918859355
101219.8197304708
101220.857498805
101222.5860016831
101225.0435255976
101228.2652915025
101232.263502291
101237.0215275826
101242.5015096403
101248.6536062801
101255.4158849059
101262.7012585961
101270.3931181723
101278.3607789843
101286.4272124801
101294.3365920994
101301.8486371644
101308.6703215092
101314.2576108729
101318.3983539058
101321.8957792091
101324.66625879
101326.6191112857
101327.6535195068
101327.7790669366
101327.1381637815
101325.7650334519
101323.568761597
101320.4959084536
101316.525829721
101311.6722332998
101305.975580101
101299.5011599536
101292.3335319376
101284.5771261799
101276.3585526873
101267.8274209491
101259.2012558017
101250.7566818815
101242.7608735783
101235.6723208767
101230.0936947078
101225.9905867772
101222.6028148685
101220.0877575715
101218.4297293601
101217.7067330741
101217.8965229019
101218.7059790324
101220.1816654102
101222.3689214719
101225.3083165758
101229.0142440803
101233.475378402
101238.6664351102
101244.5509211056
101251.071904651
101258.1469282067
101265.6712508269
101273.5274650542
101281.563341466
101289.5396400705
101297.2084701628
101304.3296870517
101310.4003228665
101315.0217725636
101318.6796153569
101321.6971954784
101323.8622329894
101325.1906874464
101325.6204249165
101325.1911673617
101324.1063005657
101322.2483246652
101319.5499450053
101315.9742243398
101311.5275909238
101306.2465353455
101300.1797811199
101293.3886217657
101285.961309252
101278.0169351815
101269.6894276449
101261.1570388246
101252.6892783293
101244.5528249733
101237.0797996745
101230.9198533494
101226.3656658044
101222.7292183228
101219.8708182267
101217.9051187475
101216.8862421519
101216.7684917614
101217.373472685
101218.6288866757
101220.5715275125
101223.234820125
101226.6455989486
101230.8094751844
101235.712774881
101241.3211110642
101247.5803155817
101254.4229482161
101261.7619393653
101269.4833334763
101277.4485923665
101285.4513655722
101293.2380017575
101300.5864109105
101307.0906457565
101312.240458149
101316.1289965117
101319.3998066006
101321.835541444
101323.4693969478
101324.1999146703
101324.0232907726
101323.1863058138
101321.6176360114
101319.2503575031
101316.0406193951
101311.9773557827
101307.074625341
101301.3684662465
101294.9184902962
101287.8036114634
101280.1223724176
101271.9947639651
101263.5730637775
101255.0998530161
101246.8561843091
101239.1055339506
101232.4099156893
101227.2853833856
101223.3835697677
101220.1756468661
101217.9344945834
101216.5600290834
101216.0938886395
101216.5176303567
101217.5572681637
101219.2784561219
101221.6995155179
101224.8449690528
101228.7248863456
101233.3282542015
101238.6315759359
101244.6042864522
101251.198916196
101258.3346974772
101265.898289985
101273.7646497828
101281.7602260539
101289.6294649666
101297.1479491097
101304.0167067624
101309.6823824315
101313.9544667545
101317.4463863154
101320.1743665136
101322.0638989761
101323.0656612764
101323.2066050865
101322.6346246031
101321.3797959576
101319.3532420755
101316.4861758128
101312.7413532216
101308.1362304561
101302.7291937624
101296.5898138326
101289.7827468053
101282.380527173
101274.4793513109
101266.197311227
101257.7336075692
101249.384236517
101241.4079499762
101234.2430466653
101228.5360960931
101224.2917363754
101220.8038813787
101218.2238161596
101216.5038133481
101215.7075878768
101215.8350050887
101216.6451123014
101218.1533011156
101220.3741183839
101223.3133673191
101226.9605074799
101231.2938764949
101236.2920388804
101241.9366950112
101248.2172415007
101255.0655394346
101262.5642795567
101269.9387126782
101280.5034036896
)
;

boundaryField
{
    inlet
    {
        type            uniformFixedValue;
        uniformValue    sine;
        uniformValueCoeffs
        {
            frequency       constant 3000;
            scale           constant 50;
            level           constant 101325;
        }
        value           uniform 101323.6440830864;
    }
    outlet
    {
        type            waveTransmissive;
        gamma           1.4;
        fieldInf        101325;
        lInf            2.25;
        value           uniform 101282.4165580064;
    }
    frontAndBack
    {
        type            empty;
    }
}


// ************************************************************************* //
