/*--------------------------------*- C++ -*----------------------------------*\
| =========                 |                                                 |
| \\      /  F ield         | OpenFOAM: The Open Source CFD Toolbox           |
|  \\    /   O peration     | Version:  v2012                                 |
|   \\  /    A nd           | Website:  www.openfoam.com                      |
|    \\/     M anipulation  |                                                 |
\*---------------------------------------------------------------------------*/
FoamFile
{
    version     2.0;
    format      ascii;
    class       volScalarField;
    location    "0.016";
    object      pMean;
}
// * * * * * * * * * * * * * * * * * * * * * * * * * * * * * * * * * * * * * //

dimensions      [1 -1 -2 0 0 0 0];


internalField   nonuniform List<scalar> 
1000
(
101325.0311257031
101325.0154510684
101325.0242037628
101325.045070852
101325.0611460223
101325.0812673797
101325.1004443558
101325.1227074129
101325.1446478305
101325.1670482523
101325.1887490995
101325.209243178
101325.2280041279
101325.2455358072
101325.2595624528
101325.2715292466
101325.2803340443
101325.2859524361
101325.2880178175
101325.2865584161
101325.2814319941
101325.2729138576
101325.2609815747
101325.2463548317
101325.2286108991
101325.2088803682
101325.1866322391
101325.1622692839
101325.1358685062
101325.1084855708
101325.0805575737
101325.0528902418
101325.0255642446
101324.9988375159
101324.9733147216
101324.9489261298
101324.9268947405
101324.9057278302
101324.8872227012
101324.8713449152
101324.8582586465
101324.8482506922
101324.8413429777
101324.8375928787
101324.8371089487
101324.8397714535
101324.8457976578
101324.8549489785
101324.8668995671
101324.8820385925
101324.8989082477
101324.9174150094
101324.9377382827
101324.9590489407
101324.9807480531
101325.0023668385
101325.0234702121
101325.0438124674
101325.0625847586
101325.0802325502
101325.095224614
101325.1076987598
101325.1176888604
101325.1245391296
101325.1280281308
101325.1279469038
101325.1241308455
101325.1167896179
101325.1059566808
101325.0919767523
101325.0753076349
101325.0557677965
101325.0348240471
101325.010962573
101324.9848607518
101324.9575062767
101324.9295412949
101324.9018065517
101324.8743929841
101324.8476926005
101324.8219350188
101324.7974924038
101324.7748571655
101324.7538485298
101324.73431553
101324.7175367749
101324.7032768751
101324.6919982024
101324.6837574503
101324.6785999592
101324.6766930147
101324.6780593341
101324.68253515
101324.6905518047
101324.7011252604
101324.7158376056
101324.7321498472
101324.7500208798
101324.7695582826
101324.7903208926
101324.8115036351
101324.8327212011
101324.8535607093
101324.8735766898
101324.8924811567
101324.9098544262
101324.9257673447
101324.9384190839
101324.9490172318
101324.9568103801
101324.9614426257
101324.9626813257
101324.9601638412
101324.9540399122
101324.9443552222
101324.9311646491
101324.9150859393
101324.8960170332
101324.8756691796
101324.852628192
101324.8268851892
101324.7994255933
101324.771302373
101324.7432472138
101324.7156131822
101324.688623973
101324.6624853409
101324.6377276752
101324.6143960729
101324.5933644397
101324.573108403
101324.5552718128
101324.5400548975
101324.5275641234
101324.5180040828
101324.5114362124
101324.5080216325
101324.5078860115
101324.5108531896
101324.5171625672
101324.5267041511
101324.5397407373
101324.5561420795
101324.5732242929
101324.5918876724
101324.6119838879
101324.6325293434
101324.6533179484
101324.6737349822
101324.6934553431
101324.71222337
101324.7294374707
101324.7456144642
101324.7588885258
101324.769473434
101324.7779919346
101324.7834013329
101324.785673922
101324.78435125
101324.779375065
101324.7707712411
101324.7585804055
101324.7429444172
101324.7246955394
101324.7037962388
101324.6825143866
101324.6568091692
101324.6293574164
101324.6008847617
101324.5723849192
101324.5443306789
101324.5168530374
101324.4902037574
101324.4648628227
101324.4409143643
101324.4191063051
101324.3989666617
101324.3798057708
101324.3635856367
101324.349878173
101324.339041005
101324.33112304
101324.326179739
101324.3244510586
101324.3258702549
101324.3303968121
101324.3384037693
101324.3494169795
101324.3658875017
101324.3820631464
101324.3999335323
101324.4191314179
101324.4390243517
101324.4592068018
101324.4791674011
101324.4985299776
101324.5170166358
101324.5341382
101324.549929498
101324.5644864183
101324.5748733136
101324.5835489801
101324.5895280744
101324.5926103544
101324.5922881937
101324.5883380631
101324.5807494269
101324.5695677311
101324.554664409
101324.5366668137
101324.5156515145
101324.4954569284
101324.4701176217
101324.4425449304
101324.4132882237
101324.3836431258
101324.3542585418
101324.3253568148
101324.2970877472
101324.2698793003
101324.2438615095
101324.2194865365
101324.1978553696
101324.1757190722
101324.1559099965
101324.1386117359
101324.1236436748
101324.1111436892
101324.10099872
101324.0934864835
101324.0886897729
101324.0863672151
101324.0867568581
101324.0897190429
101324.0986732688
101324.1075897155
101324.117495796
101324.1285427661
101324.1408979294
101324.1539219097
101324.1671734391
101324.1803191011
101324.1929486459
101324.2050803709
101324.216279853
101324.2275393162
101324.2351885877
101324.2412558007
101324.2462050697
101324.2492581311
101324.2501614099
101324.2486048022
101324.2444368085
101324.2377352426
101324.2280795672
101324.215832115
101324.2008718469
101324.1866521965
101324.1694485821
101324.1487294457
101324.1259440637
101324.1021971428
101324.0779166636
101324.0539623004
101324.0302434437
101324.0070055292
101323.9847459108
101323.9634771641
101323.9445988075
101323.9254017188
101323.9072934462
101323.8915537427
101323.8773751662
101323.8651134048
101323.8545842181
101323.8460015585
101323.8395123546
101323.8350476505
101323.8327343885
101323.8327882561
101323.8372499078
101323.8453801212
101323.8524298665
101323.8610547998
101323.8711160466
101323.8821771653
101323.8938388833
101323.9055568363
101323.916848921
101323.9279525064
101323.9380216927
101323.9483146088
101323.9561949408
101323.9615190404
101323.9660565719
101323.968818884
101323.9696459926
101323.9681884029
101323.964163761
101323.9575549273
101323.9481598566
101323.9358236841
101323.9209719678
101323.9043627107
101323.8895987293
101323.8678754857
101323.8447248169
101323.819954723
101323.7944884437
101323.769236681
101323.7443132905
101323.7197735509
101323.6963043743
101323.6735966487
101323.6531934439
101323.6337038899
101323.6141396683
101323.5968070224
101323.5812171442
101323.5674611069
101323.5554489635
101323.5451659561
101323.5367614609
101323.530474168
101323.5259208216
101323.5239542521
101323.5239510089
101323.5328751123
101323.537503751
101323.5447464117
101323.5530679209
101323.5626589423
101323.572908138
101323.5834232591
101323.5936350342
101323.6035662119
101323.6125951013
101323.6214844596
101323.6296926732
101323.634154833
101323.6372889768
101323.6393248104
101323.6394908668
101323.6376263695
101323.6332295638
101323.6262808857
101323.6167797644
101323.6041537928
101323.5891392448
101323.5703604007
101323.5572055804
101323.5351394184
101323.5116829384
101323.4860749133
101323.4594681195
101323.4327958508
101323.4065490889
101323.3807026175
101323.3556365168
101323.3316047912
101323.3090824877
101323.2894645937
101323.2685574698
101323.248956393
101323.2319207653
101323.2165634411
101323.202965797
101323.191051107
101323.1807818344
101323.1726066651
101323.1659609888
101323.1618319058
101323.158217319
101323.1656324485
101323.1692233093
101323.1746140373
101323.1811766972
101323.1891044392
101323.1977769248
101323.2069928179
101323.2160131596
101323.2246109505
101323.2327165167
101323.2399020987
101323.2479529225
101323.2520213081
101323.2536155685
101323.2548950468
101323.2542953066
101323.2518396551
101323.2470668395
101323.2397087948
101323.2298894433
101323.2170130645
101323.2017174715
101323.1821032793
101323.167214401
101323.1470077488
101323.1228563548
101323.0967209656
101323.0691128525
101323.0409949369
101323.0132940339
101322.9860579554
101322.9592970319
101322.9337979461
101322.9091648939
101322.8878718364
101322.8661534253
101322.8446777409
101322.8259846396
101322.808902188
101322.7935799647
101322.7799806751
101322.7678591789
101322.7576179376
101322.7489711795
101322.7424399691
101322.7368988454
101322.7382758544
101322.7434380301
101322.7461463709
101322.7510175484
101322.7570363659
101322.7639757616
101322.7715083323
101322.779186682
101322.786370735
101322.7932799853
101322.7989564009
101322.8053019399
101322.8094574881
101322.8100309526
101322.8100483985
101322.8085219116
101322.8052020708
101322.7998087125
101322.791928846
101322.7814720397
101322.7683330839
101322.7523088894
101322.7332531235
101322.7128752014
101322.6971267415
101322.6714372091
101322.6450565475
101322.616515625
101322.5870070232
101322.5575847937
101322.5287980614
101322.5003353729
101322.4730342315
101322.4465351176
101322.4226345652
101322.4002215108
101322.3772108971
101322.3559874369
101322.3370036972
101322.3196950169
101322.3041845351
101322.2902168837
101322.2777518334
101322.2671086849
101322.2579208595
101322.2510463098
101322.2447953105
101322.2526006127
101322.2520525802
101322.255194041
101322.259234298
101322.2643702618
101322.2700996716
101322.2762806304
101322.2821332992
101322.2876467033
101322.2922546492
101322.2965422501
101322.3009865933
101322.3011549286
101322.2990994477
101322.2966538415
101322.2923877006
101322.2862382523
101322.2778938099
101322.2667868042
101322.2533026654
101322.2366232449
101322.2178269614
101322.1933737173
101322.1801366678
101322.1542007957
101322.1272442217
101322.0980642314
101322.0674471812
101322.0363874142
101322.0059255282
101321.975883187
101321.9466505505
101321.9184993988
101321.8916957939
101321.8686967444
101321.8444625047
101321.8200302458
101321.7991642477
101321.7797453539
101321.7621644906
101321.7462555191
101321.7316206575
101321.7187412777
101321.7070573318
101321.6979240217
101321.6874609677
101321.6919850222
101321.6912170263
101321.6914290035
101321.6933871603
101321.6963795415
101321.7000488709
101321.7041871152
101321.7084589944
101321.7121781587
101321.7154888389
101321.7175836646
101321.7209237881
101321.7209464608
101321.7168300677
101321.7132078674
101321.7076565447
101321.7003724635
101321.6910990025
101321.679240598
101321.6648367582
101321.6473918563
101321.6278581669
101321.6030997737
101321.5844874239
101321.5624564168
101321.5339145998
101321.5041647081
101321.4724531678
101321.4397123168
101321.4072390042
101321.3753889439
101321.3440009965
101321.3138478881
101321.2845253866
101321.258388168
101321.2332519195
101321.2066724916
101321.1832686724
101321.1615387039
101321.1416181512
101321.123426871
101321.1067606037
101321.0913720898
101321.077399401
101321.0652914556
101321.0539876865
101321.0482415237
101321.0514971693
101321.0479398347
101321.0479336631
101321.0488138565
101321.0504655777
101321.0525333275
101321.0549731321
101321.0571089838
101321.0589217725
101321.0596862805
101321.0604267116
101321.0607318028
101321.0560710713
101321.0502213386
101321.043611269
101321.0351100327
101321.0247886926
101321.0122733941
101320.9969655432
101320.9789762456
101320.9580917635
101320.9349210843
101320.9072953884
101320.8921972956
101320.86125506
101320.8312614188
101320.7987608479
101320.7648602249
101320.7305223336
101320.696741294
101320.6634975253
101320.6312373643
101320.5999946326
101320.5704748241
101320.5442933221
101320.5166107358
101320.4892219903
101320.4653830343
101320.4428774684
101320.4223016581
101320.4034238365
101320.3856808967
101320.3693835928
101320.3541854053
101320.3417299124
101320.3269888073
101320.332811264
101320.3261119986
101320.3236056081
101320.3222467456
101320.3219310839
101320.3219170461
101320.3222949191
101320.3227246447
101320.3228423896
101320.3223925275
101320.3207632117
101320.3207980137
101320.3164189463
101320.3075130504
101320.3000030268
101320.2901249203
101320.2786703037
101320.2652288124
101320.249201009
101320.2304392636
101320.208426165
101320.1849749675
101320.1544768239
101320.1380465479
101320.1092390347
101320.0776534416
101320.0445350268
101320.009790882
101319.9739052305
101319.9382181541
101319.9030463472
101319.8686711138
101319.8354790706
101319.8030519715
101319.7745979032
101319.7460457723
101319.7152566485
101319.6891361121
101319.6641001805
101319.6409887272
101319.6196745077
101319.5998349795
101319.581101411
101319.5632718436
101319.5480782992
101319.5316791265
101319.5282142764
101319.5251786452
101319.5186214805
101319.5152010372
101319.5128669673
101319.5109521447
101319.5092329269
101319.5076501548
101319.5060520112
101319.5041361175
101319.5010315007
101319.4984735521
101319.4944376463
101319.484656702
101319.4753894358
101319.4645222481
101319.4517868334
101319.4372505302
101319.4205722935
101319.4009736667
101319.3782213175
101319.3533103026
101319.324767249
101319.2975909529
101319.2767826941
101319.2425136343
101319.2091380654
101319.1735722994
101319.1367430952
101319.0992966677
101319.0621554616
101319.0258269869
101318.9905429054
101318.9563762496
101318.9240108551
101318.8945942945
101318.8627064544
101318.8325355171
101318.8054467641
101318.7796218878
101318.7557979689
101318.7337153687
101318.7128510336
101318.6928192038
101318.6740769969
101318.6582762139
101318.640879332
101318.6457648833
101318.6337202057
101318.6285439351
101318.6239173135
101318.6204275186
101318.6167913766
101318.6131699557
101318.6096591087
101318.6061405348
101318.6021051104
101318.5968262826
101318.59305682
101318.5839229582
101318.5711844418
101318.5597097757
101318.5457108582
101318.5300467577
101318.5124546444
101318.4923553347
101318.4690468298
101318.4424059767
101318.4151013354
101318.3791967547
101318.3649715959
101318.3286617389
101318.2945065381
101318.2581464256
101318.2207459702
101318.1821104523
101318.1432904545
101318.1048415478
101318.0676303021
101318.0316408757
101317.9962150735
101317.9655602906
101317.9332783864
101317.8983038107
101317.8692418104
101317.8408611333
101317.8144432936
101317.7899266347
101317.7671211522
101317.7450721036
101317.7236440981
101317.7056689458
101317.6846191567
101317.6843299387
101317.674633947
101317.6655255902
101317.6590773373
101317.6540067652
101317.6491676423
101317.6439713567
101317.638536971
101317.6334962516
101317.6283029772
101317.6215469546
101317.61665942
101317.6083429353
101317.5937113952
101317.5815195398
101317.5668330818
101317.5502811824
101317.5318816689
101317.5114368475
101317.4880102541
101317.4607690432
101317.4322379032
101317.3985855066
101317.3730942758
101317.3462535716
101317.30886201
101317.2723825679
101317.2343855216
101317.19541281
101317.1555480461
101317.1153740961
101317.0764368087
101317.0386087508
101317.0019683656
101316.9678501166
101316.9350327188
101316.8992036539
101316.8670046101
101316.8369709698
101316.8083958452
101316.7816753638
101316.7569756432
101316.7336514751
101316.710528116
101316.6892820425
101316.6702858136
101316.6535748084
101316.6556362731
101316.6404221963
101316.6327555923
101316.625788795
101316.620106626
101316.6139753243
101316.6069866087
101316.6002508526
101316.5936846129
101316.5869348357
101316.5790557365
101316.5717160876
101316.5586137429
101316.5432546189
101316.5286226712
101316.5114426405
101316.4923326749
101316.4713436112
101316.4481307925
101316.4210945108
101316.3906652546
101316.3606033184
101316.3201707436
101316.3086864196
101316.2654446071
101316.229353296
101316.190467637
101316.1513343285
101316.1112607185
101316.0700858237
101316.0292432433
101315.9898406777
101315.9522237202
101315.9148462519
101315.8824619173
101315.8473835454
101315.810087679
101315.7791491828
101315.7487446211
101315.7202053355
101315.6935101916
101315.6689690626
101315.6449689079
101315.6212066308
101315.6020439084
101315.5770613685
101315.582232931
101315.5659949391
101315.555632434
101315.5469694646
101315.5401567738
101315.5337245714
101315.5261593296
101315.5178057676
101315.5098091193
101315.5024593772
101315.4926764156
101315.4867773497
101315.475352798
101315.4563709957
101315.4423025727
101315.4248083163
101315.405584408
101315.384053571
101315.3608749837
101315.3345102609
101315.3040629392
101315.2729365031
101315.2353120078
101315.212278848
101315.180445202
101315.1404830031
101315.1017157678
101315.0620640961
101315.0221042788
101314.9811926708
101314.9390892742
101314.8980936322
101314.8589234862
101314.8206123682
101314.7863847231
101314.7515106851
101314.7126691466
101314.6797448658
101314.6481950024
101314.6184002129
101314.5901018882
101314.5640713047
101314.5395013376
101314.5150855948
101314.4929222728
101314.4719695989
101314.4575076159
101314.458137694
101314.4409522308
101314.4315846038
101314.4233134362
101314.4164311746
101314.4093984928
101314.4004881061
101314.39126237
101314.3824500876
101314.373768206
101314.3645363828
101314.3548247108
101314.3387850445
101314.3217967222
101314.3050835877
101314.2860091424
101314.2647088995
101314.2412764728
101314.2155987047
101314.1862414477
101314.1535428261
101314.1214516508
101314.077806215
101314.0705225023
101314.0214419936
101313.9839760054
101313.9434302033
101313.903408603
101313.8631711218
101313.8215481098
101313.7794216081
101313.7383648433
101313.7001973769
101313.6619742357
101313.629094416
101313.5928191905
101313.554408618
101313.5229367494
101313.4919480495
101313.4629673043
101313.4355047763
101313.4100936782
101313.385183504
101313.3614045053
101313.3422175479
101313.3150754149
101313.326479167
101313.3053445725
101313.2946781816
101313.284760692
101313.2770302714
101313.2699198365
101313.2619277877
101313.2524545863
101313.2419646623
101313.2331398002
101313.2211067603
101313.2153360965
101313.2025226112
101313.1800689337
101313.1652236098
101313.1461613253
101313.1255842667
101313.1025312258
101313.0774480387
101313.0481365715
101313.0168151395
101312.9841959797
101312.9442406982
101312.9235942045
101312.8893793636
101312.8473316407
101312.807369706
101312.766973271
101312.7267311242
101312.686025975
101312.6446774853
101312.6026560481
101312.5626996984
101312.5230476511
101312.4899613527
101312.4554201628
101312.4145865094
101312.3821576136
101312.3504231091
101312.3205552657
101312.292288531
101312.2665188189
101312.2402839155
101312.215910846
101312.1944148031
101312.173380155
101312.1587175799
101312.1652187634
101312.1423050709
101312.1330675137
101312.1239947781
101312.1164274619
101312.1083844622
101312.0994867352
101312.0897949954
101312.079314378
101312.0674486296
101312.0570285828
101312.0476381012
101312.0295921294
101312.010915759
101311.9935986124
101311.9729097648
101311.949721078
101311.9251670853
101311.8989776958
101311.864864946
101311.8234176203
101311.7734969863
101311.7357491816
)
;

boundaryField
{
    inlet
    {
        type            calculated;
        value           uniform 101324.9999999999;
    }
    outlet
    {
        type            calculated;
        value           uniform 101311.7527006412;
    }
    frontAndBack
    {
        type            empty;
    }
}


// ************************************************************************* //
