/*--------------------------------*- C++ -*----------------------------------*\
| =========                 |                                                 |
| \\      /  F ield         | OpenFOAM: The Open Source CFD Toolbox           |
|  \\    /   O peration     | Version:  v2012                                 |
|   \\  /    A nd           | Website:  www.openfoam.com                      |
|    \\/     M anipulation  |                                                 |
\*---------------------------------------------------------------------------*/
FoamFile
{
    version     2.0;
    format      ascii;
    class       volScalarField;
    location    "0.016";
    object      rho;
}
// * * * * * * * * * * * * * * * * * * * * * * * * * * * * * * * * * * * * * //

dimensions      [1 -3 0 0 0 0 0];


internalField   nonuniform List<scalar> 
1000
(
1.17626556732194
1.176284015824315
1.176220821150763
1.176152455006646
1.176079279669798
1.176011319709954
1.175953063995127
1.175908602123827
1.175874595493277
1.175847520364896
1.175832912929916
1.175830582107166
1.175837612142814
1.175855016720007
1.175883230487728
1.17592139463022
1.1759681324221
1.176021945622865
1.176081626481465
1.176146178430812
1.176214522872421
1.17628542470349
1.176357654817763
1.176430129932184
1.176502073687493
1.176573050470092
1.176642121852
1.176708109683345
1.176771025889576
1.17682698548868
1.176869329277278
1.176905645460629
1.176934372132853
1.176954776887145
1.176965092658453
1.176965191577134
1.176956600752992
1.176938146810003
1.176908511056003
1.176867648787359
1.176816579628402
1.176756724404481
1.17668958111293
1.176616696253447
1.176539612384172
1.176459811514639
1.176378675253547
1.176297335140615
1.176216880362596
1.176138898790417
1.176064849144318
1.175996350195636
1.175938559671984
1.175896077802452
1.175863725403201
1.175838343277235
1.175822546858246
1.175817093036118
1.175821257224202
1.175832888406183
1.175853961273585
1.17588537422429
1.175926900725539
1.175977394184282
1.176035295400229
1.176098955399534
1.176166763104663
1.176237266305601
1.17630927269888
1.17638183352496
1.176454269616899
1.176526200102809
1.176596706991074
1.176664196867846
1.176728434917269
1.176786348935556
1.176830737121188
1.176868390355622
1.176899173564132
1.176921812186877
1.176936290560892
1.176941299802454
1.176936633689298
1.176923811960465
1.17690063836952
1.176866195593161
1.176820663743099
1.176764982814781
1.176700488404549
1.176628806612727
1.176551769909056
1.17647123079506
1.176388880090133
1.176306043780668
1.176223825786546
1.176143813120503
1.176067705859549
1.175997074428886
1.175936529473873
1.17589122618571
1.175857612552961
1.175830342491605
1.175811702019558
1.175803088724762
1.175804190200975
1.175812244183018
1.175828495434778
1.175854201814358
1.175889866261943
1.175935081182902
1.175988830653456
1.17604975718642
1.176116289258805
1.176186746986698
1.176259503874464
1.17633318416914
1.176406816462509
1.176479846880218
1.176551511295035
1.176620269737677
1.176685496990245
1.176745328875192
1.176792853105677
1.176831728507651
1.176864540151689
1.176889761394505
1.17690755199013
1.176916247467067
1.176915498801489
1.17690676843502
1.176888757044873
1.17686008675033
1.176820317905618
1.17676984749648
1.17670954694422
1.176640702831974
1.176565041631106
1.176484530624567
1.176401131877439
1.176316566661031
1.176232252047726
1.176149916219293
1.176071538491592
1.175998720222658
1.175935230609665
1.175886636267688
1.175851216364481
1.175821754237705
1.175800720735579
1.175789230594465
1.175786998738703
1.175792486651878
1.175805140728271
1.175826430201744
1.175857127729545
1.175897301067763
1.175946372492026
1.17600339739438
1.176067159138412
1.176136138386993
1.176208625461118
1.176283006836949
1.17635794123353
1.176432421040382
1.176505639657657
1.176576148377334
1.176642563531206
1.176704033913374
1.176755177267432
1.176794971947473
1.176830026639089
1.176857701895919
1.176877851329336
1.17689014654857
1.176893493169532
1.176887903658934
1.176874276448397
1.176850612173012
1.176816092695688
1.176770656780488
1.176714832271691
1.176649624110747
1.176576474606881
1.17649713933976
1.176413573031134
1.176327758323409
1.176241443875151
1.176156531933367
1.176075350771272
1.175999815197527
1.175932981569398
1.175880510488107
1.175842707532343
1.175811219706427
1.175787921645145
1.17577319245864
1.175767711609062
1.175771008453532
1.175780706231149
1.175798287006469
1.175824696118793
1.175860304658345
1.175904881761836
1.17595779280992
1.1760181081499
1.176084606361402
1.176155810411377
1.176230106748811
1.176305928627418
1.176381978553467
1.176457335880472
1.176530728815629
1.176600140967595
1.176665166899022
1.176723583985897
1.176768585648524
1.176807516398434
1.176840132424994
1.176865675915426
1.176883994038025
1.17689420765722
1.176895672057543
1.176888847517224
1.176874063092563
1.176849972106295
1.176815975555589
1.176772061041389
1.176718833644773
1.176657347885122
1.176588967581331
1.176515276489781
1.176438069157688
1.176359236370345
1.176280490373351
1.176203618804291
1.176130616172465
1.176062919401706
1.176002682144267
1.175953767075353
1.175916164274723
1.175884279481527
1.175859063376842
1.175841289030613
1.175830981231483
1.175828442377673
1.175833136309894
1.175843503504527
1.175860182504446
1.175883517147927
1.175913840690282
1.175951185296534
1.175995252497148
1.176045517514159
1.176101272778046
1.17616161806818
1.176225522316565
1.176291947176911
1.176359902198854
1.176428033262008
1.176494280711211
1.176557692321636
1.176616202585548
1.176663563457042
1.176704344727122
1.176739255516214
1.176766828928698
1.176786854809889
1.176799875238245
1.176804137651638
1.176798994562389
1.176786611529783
1.17676578331856
1.176736001008677
1.176697044496124
1.176649166079371
1.176593034328937
1.176529712679399
1.176460603331886
1.176387334254871
1.176311584221954
1.176235101835437
1.176160072942514
1.176088628202185
1.176022570321496
1.175965486768304
1.175920517786184
1.175885231096964
1.175855568248702
1.175833594169735
1.175818758060394
1.175811974152645
1.1758134094637
1.175820749279644
1.175834215468202
1.175854144735756
1.175880962914688
1.175914899141008
1.175955871396092
1.176003518453488
1.176057245020421
1.176116252293443
1.176179614943966
1.176246288071027
1.176315082100202
1.176384632983169
1.176452879556278
1.176518000252432
1.176578537308156
1.176628950270674
1.176670452975368
1.176706818480939
1.176736188907528
1.176758552163452
1.176774070533259
1.176781256312253
1.176779372007036
1.17676980651619
1.176752393664897
1.176726531752444
1.176691685742357
1.176647776824507
1.176595295336096
1.176535151177777
1.176468488452378
1.176396665280314
1.176321257670774
1.176243997387119
1.176167047526542
1.176092802076937
1.176023294121287
1.175961860254345
1.175912736259756
1.175875184666582
1.175843534346882
1.175819191381343
1.175802449858922
1.17579365196793
1.175792648117997
1.17579829721902
1.175809863491302
1.175827614396877
1.175851843193731
1.175882863895434
1.175920745048793
1.175965270089947
1.176015989989151
1.176072291733486
1.176133425799682
1.176198441349397
1.176266235646571
1.176335712412869
1.176405000555085
1.176471446427081
1.176534170974446
1.176589395295406
1.176632112978858
1.176670826055057
1.176702716345446
1.176727601099099
1.176745183088056
1.176755466648053
1.176757277337313
1.17675045981951
1.17673644274199
1.176714053245728
1.176682805733472
1.176642519847897
1.176593580543718
1.176536699052908
1.176472738964377
1.17640284186449
1.176328502816931
1.176251378366369
1.17617345633852
1.17609721431901
1.176024877300617
1.175959400725523
1.175905704590748
1.175864982694805
1.175831283100147
1.175804436276439
1.175785684168671
1.175774273698877
1.175770690890771
1.175774865035184
1.175784572976606
1.175800354517059
1.175822372955233
1.175850923066946
1.175886148554598
1.17592791033878
1.175975853373776
1.176029489909379
1.176088194344993
1.176151180724283
1.176217544471966
1.176286258057635
1.176355646091745
1.176423130515917
1.176487483403771
1.176546192534948
1.176592104245356
1.176632242910363
1.176666291320744
1.176693357088092
1.176713389123488
1.176726762844926
1.176731753021733
1.176727747271846
1.176716566378307
1.176697312046071
1.176669440704569
1.17663269991282
1.176587277098458
1.176533611561135
1.176472392267315
1.176404674599507
1.176331857044295
1.176255466424774
1.176177280108088
1.176099707031573
1.176025162787242
1.175956241682447
1.175897727314437
1.175852671822865
1.175817105645832
1.175787704765955
1.1757664831054
1.175752511543248
1.175746546156822
1.175748712779399
1.175756605456374
1.175770441809899
1.175790371628081
1.17581667642803
1.175849523141529
1.175888829921284
1.175934289970456
1.175985460769924
1.176041810730205
1.176102714169706
1.176167373816566
1.176234788401603
1.176303700419813
1.17637195781055
1.176437206201247
1.176498014889574
1.176548877448651
1.176589533836023
1.176625619788355
1.176655020839886
1.176677690829006
1.176693448800729
1.176701232547375
1.176700378020442
1.176691690302276
1.176675382336065
1.176650867811234
1.176617705135301
1.176575747124173
1.176525307013713
1.17646709530422
1.176402087573173
1.176331465381101
1.176256599621658
1.176179108102352
1.176101188124037
1.176025328271029
1.175953926448033
1.175891017995766
1.17584119309913
1.175803584960573
1.175771919421257
1.175747908005574
1.175731627685029
1.175723430616425
1.175722999369097
1.175728963719252
1.175740868672992
1.175758807997634
1.175783015995734
1.175813695842849
1.175850805810984
1.175894071599284
1.175943081722474
1.17599734702541
1.176056281083977
1.176119136558426
1.17618505571069
1.176253061711902
1.176321283040497
1.176386998998391
1.176449253080706
1.176504707618092
1.176546603884504
1.176584291843997
1.176615736486346
1.176640437354816
1.176657994457303
1.176668529726505
1.176670740993221
1.176664449078217
1.176651199754131
1.17662970930671
1.176599487539708
1.176560418591117
1.176512888877093
1.17645753128321
1.176395075698276
1.17632648968016
1.176253098475041
1.176176450091026
1.176098473559203
1.176021571596753
1.175948093223931
1.175881416719798
1.175826859665645
1.175785813636791
1.175752215010267
1.175725361787953
1.175706682027312
1.175695523873952
1.175692212438787
1.175696471799669
1.175706256307862
1.175722098135614
1.175744144574428
1.17577261599245
1.175807554241889
1.175848732027595
1.175895734318064
1.175948054546919
1.176005123895312
1.176066286353988
1.17613077266175
1.176197644505724
1.176265433448086
1.17633182315684
1.176395014839644
1.176452990609726
1.176499186826041
1.176537314797812
1.176570455454931
1.176597063697033
1.176616855716909
1.176629985296793
1.176634959337125
1.176631358861992
1.176620783032156
1.176602277004568
1.176575233555961
1.176539509451547
1.176495378010995
1.176443245036475
1.176383685556432
1.176317632948101
1.176246377639141
1.176171342054509
1.176094186003701
1.17601717526691
1.17594268926794
1.175873502904012
1.175814471416042
1.175768941740485
1.175734018590655
1.175704753261567
1.175683514582528
1.175669607664576
1.175663705716076
1.175665777660017
1.175673445546183
1.175687019101608
1.175706747892435
1.175732922065809
1.175765653290902
1.175804763643995
1.175849845320051
1.175900389560009
1.175955842745721
1.176015564901443
1.176078767109376
1.176144557762377
1.176211829205019
1.176278566818727
1.176342262064263
1.176401748009582
1.176452930709625
1.176491037473843
1.176525608611059
1.176553916041923
1.176575767960578
1.176590862599742
1.176597993092595
1.17659679197633
1.176588371825425
1.176572540134291
1.176548577592653
1.176516098644214
1.176475111274364
1.176425970256739
1.176369321702278
1.176306045530374
1.176237223305075
1.17616412848352
1.176088270018458
1.176011670040248
1.175936677657216
1.175865723501425
1.175802763628031
1.175752631307425
1.175715328680729
1.175684417953965
1.175660515427159
1.175644188381775
1.175635940927297
1.175635380249761
1.175640919474192
1.175652218799633
1.175669559863605
1.17569326716644
1.175723561522029
1.175760373089556
1.175803383515871
1.175852122860411
1.175906019187635
1.175964399227109
1.176026471236294
1.176091367908548
1.17615806711716
1.176224846233351
1.176289379901863
1.17635018903823
1.176404419462758
1.176445938228717
1.176480612404672
1.176510339986198
1.17653381173856
1.176550342606954
1.176559339710798
1.17656046360993
1.17655422334995
1.176541134389426
1.176520033333736
1.176490439792956
1.176452398724751
1.176406371496194
1.176352918860537
1.176292652895666
1.176226448834944
1.176155548775777
1.176081376831533
1.176005658765338
1.175930632546068
1.175858585097513
1.175792684026706
1.175738130252681
1.175697091987836
1.175664962305245
1.175638576499552
1.175619968110137
1.175608915863576
1.175605606489554
1.175609398978748
1.175618456046964
1.175633436616927
1.175654638032514
1.175682355393741
1.175716678878272
1.17575741269031
1.175804130866461
1.175856273104186
1.175913200116131
1.175974155441154
1.176038232495762
1.176104410398077
1.176171281676652
1.176236711205279
1.176298620588318
1.176355069089261
1.176401452817665
1.176436096819143
1.176467150618867
1.176491956007064
1.176509961010712
1.17652101247872
1.176524191681666
1.176519676575439
1.176508858634194
1.176490389016595
1.176463737401
1.176428902711177
1.176386158611312
1.176335854730401
1.176278540797765
1.176215096811102
1.176146676448491
1.176074540786267
1.176000152946911
1.175925556667072
1.175853037413121
1.175785165990218
1.175726380005898
1.175680731349027
1.17564680759915
1.175618433839373
1.175597472260133
1.175583787215286
1.175577978298009
1.175579787346566
1.175586827013096
1.175599524990107
1.175618259359334
1.175643397287361
1.175675113898371
1.175713307520197
1.17575766301849
1.175807742776267
1.1758629877546
1.175922663696012
1.175985853621867
1.176051557836393
1.176118534775611
1.176184788752752
1.176248112736308
1.176306780698896
1.176356903487572
1.17639425532229
1.176425640167743
1.176451645253012
1.176470987006923
1.176483554118489
1.176488239917266
1.176485146890807
1.176476113382715
1.176460104631563
1.176436427403529
1.17640480948223
1.176365383467484
1.176318536305261
1.17626482302862
1.176204922897497
1.176139708720669
1.176070311438363
1.175998047330973
1.17592464538659
1.17585235094888
1.175783421119344
1.175721223798467
1.175670987722545
1.175633992737837
1.175604226618724
1.175580751591612
1.175564549889376
1.175556378931982
1.175555774923657
1.17556090774883
1.175571534207426
1.175588020226057
1.175610730307263
1.175639887172462
1.175675491331575
1.175717378576161
1.175765218076168
1.175818487248087
1.17587650598793
1.175938446070206
1.176003339730404
1.176070031916399
1.176136771588465
1.176201387567876
1.176262011068224
1.176315511860925
1.176357570045502
1.176389478188925
1.176417112002285
1.176438035898067
1.176452340291947
1.176458869384308
1.176457678195725
1.176450607826575
1.176437036565859
1.176416151093696
1.176387533316157
1.17635127160526
1.176307708607936
1.176257252193999
1.176200429911438
1.176138026031245
1.17607109336994
1.176000802511258
1.175928579960483
1.175856519703231
1.17578687779436
1.175722246227565
1.175667513655126
1.175626099818777
1.175594777308426
1.175568703687274
1.175550280990635
1.17553928287535
1.175535885753412
1.175539434397145
1.1755480419474
1.175562378653994
1.175582761977356
1.17560948392109
1.175642645532865
1.175682108666399
1.175727559079127
1.175778583110053
1.175834666817271
1.175895087652771
1.175958878271643
1.176024954674826
1.176091848644678
1.176157438663851
1.176219732320305
1.176276299994006
1.176322630828283
1.176356966133941
1.176385966677928
1.176408939194592
1.176425131920639
1.176433709018708
1.176434749991801
1.176429435684738
1.176418049873777
1.176399838639984
1.176374358725997
1.176341438763753
1.176301192177229
1.176253954180498
1.176200265844808
1.176140828021538
1.17607650636228
1.176008350502549
1.175937600902924
1.17586606139779
1.175796026153237
1.17572971118012
1.175670919456067
1.175624650054242
1.17559061817345
1.175562519100864
1.175541658364873
1.17552790601294
1.175521909156406
1.175523483295193
1.175530197169433
1.175542437005926
1.175560578784843
1.175584958882094
1.175615696531156
1.175652697604818
1.175695752159257
1.175744557254972
1.175798640420428
1.175857317487228
1.175919719515567
1.175984872582757
1.176051514076655
1.176117659950905
1.176181254603277
1.176240306848724
1.176290646263689
1.176328968016861
1.176359299017442
1.176384320684094
1.176402272956801
1.176413288294856
1.176416851574928
1.176413292176689
1.176404296540107
1.176388890343219
1.176366515466204
1.176336865463743
1.176299993426578
1.176256201674381
1.176205893929103
1.176149578128703
1.176087985767022
1.176022104116106
1.175953043556579
1.175882282166925
1.17581205502445
1.175744573946597
1.17568259373443
1.175631503014632
1.175593729887433
1.175563568263447
1.175539859729408
1.175523555428109
1.175515104410668
1.175514127689989
1.175519145585286
1.175529558434048
1.175545671365207
1.175567761508219
1.175596051303476
1.175630587119763
1.175671255327018
1.175717770464917
1.175769682990068
1.175826433282891
1.175887298946106
1.175951334653449
1.176017391289838
1.176083757493821
1.176148329814783
1.176209266712577
1.176263202200487
1.176305905601297
1.17633814979688
1.176365271437621
1.176385468437876
1.176399016194625
1.176405073538773
1.176403608944804
1.176396668684569
1.17638366134838
1.176364031916378
1.176337416635851
1.176303723562699
1.176263069036061
1.176215751608234
1.176162265283967
1.176103264125034
1.176039564986856
1.175972162641338
1.175902319706934
1.1758320478595
1.175763678040882
1.175699395640462
1.175643862322188
1.175601358818575
1.175568996246871
1.175542388685615
1.17552379967565
1.17551239923028
1.17550853280453
1.175512047429397
1.175520670548054
1.175534946717541
1.175555027804261
1.175581117087771
1.175613297938586
1.175651478812825
1.175695464578178
1.175745001437623
1.175799695369438
1.17585887619354
1.175921603629135
1.175986840412099
1.176053147135881
1.176118404551327
1.176180751858116
1.176237710242786
1.176284691689182
1.176320117149703
1.176349073802841
1.176371696563511
1.176387367485073
1.176395676987515
1.176396849668953
1.176392113219606
1.176381715076785
1.176364916258602
1.176341145240599
1.176310090411625
1.176271892447108
1.176227030510732
1.176176076491784
1.176119563649139
1.176058095205918
1.175992476358295
1.175923699058927
1.175853432246803
1.175784151803036
1.175718029464277
1.175658729487695
1.175611639329467
1.175576808584283
1.175548367168251
1.175527551060908
1.175513940157015
1.175507785778665
1.175509431211574
1.175517042761296
1.175530195217188
1.175548922500831
1.175573259991461
1.175603032870432
1.175638044702628
1.175678199472043
1.175723345939072
1.175773102580713
1.175826410839305
1.175884064493584
1.175941820418395
1.176034606269961
)
;

boundaryField
{
    inlet
    {
        type            calculated;
        value           uniform 1.176395973595895;
    }
    outlet
    {
        type            calculated;
        value           uniform 1.176055468060541;
    }
    frontAndBack
    {
        type            empty;
    }
}


// ************************************************************************* //
