/*--------------------------------*- C++ -*----------------------------------*\
| =========                 |                                                 |
| \\      /  F ield         | OpenFOAM: The Open Source CFD Toolbox           |
|  \\    /   O peration     | Version:  v2012                                 |
|   \\  /    A nd           | Website:  www.openfoam.com                      |
|    \\/     M anipulation  |                                                 |
\*---------------------------------------------------------------------------*/
FoamFile
{
    version     2.0;
    format      ascii;
    class       volScalarField;
    location    "0.016";
    object      T;
}
// * * * * * * * * * * * * * * * * * * * * * * * * * * * * * * * * * * * * * //

dimensions      [0 0 0 1 0 0 0];


internalField   nonuniform List<scalar> 
1000
(
299.9942525730967
299.9856195513833
299.9736994541488
299.9665974222002
299.9602583782906
299.954389015276
299.949307920877
299.9455940319099
299.9429746273315
299.9410653038228
299.9401759578533
299.9405000365638
299.9417730021362
299.9437466118145
299.9466519647968
299.9505519713209
299.9553125805033
299.9607689496981
299.9667979696371
299.9733026588543
299.9801794166587
299.9873103403777
299.994579292829
300.0018845683329
300.0091530863393
300.0163429035155
300.0233584081613
300.0300789068838
300.0365044550397
300.0422350894336
300.0465858021996
300.0503260736333
300.0532928046279
300.0554072901832
300.0564784359551
300.056507093777
300.0556526694017
300.0537775382572
300.050752775926
300.0465790618612
300.0413608812307
300.0352431948612
300.0283797752897
300.0209297641296
300.0130520131585
300.0048991125735
299.9966130235767
299.9883095337534
299.9800994045866
299.9721437964334
299.964590509963
299.9576037627573
299.9517092965656
299.9473763503944
299.9440761361317
299.9414862132364
299.9398737434796
299.9393166166772
299.9397407744326
299.9409265449407
299.9430762647148
299.9462817958118
299.9505199011155
299.9556734811715
299.9615833729424
299.9680812395181
299.9750025721432
299.9821990343369
299.9895487916926
299.9969548733742
300.0043478613442
300.0116888329187
300.0188841019786
300.0257711055045
300.0323259487179
300.0382352213567
300.0427642011593
300.0466059179105
300.0497466503357
300.0520563964499
300.0535335853438
300.0540446732439
300.0535686302021
300.052260508125
300.0498961793124
300.0463819948941
300.0417362690703
300.036054835619
300.0294738885345
300.0221592725395
300.0142979110309
300.0060787999915
299.9976744660109
299.989220228378
299.9808287589524
299.9726620513653
299.9648936640958
299.9576839423784
299.9515035944534
299.9468789757356
299.9434475913583
299.9406637369681
299.9387608123317
299.93788151351
299.9379939725014
299.9388161970516
299.9404752413989
299.9430994956439
299.9467402647042
299.9513558835536
299.9568425795831
299.9630617153879
299.9698528159933
299.9770443636057
299.9844703122386
299.9919902307135
299.9995049745064
300.0069580233381
300.0142714060348
300.0212879902753
300.0279440097633
300.0340492740586
300.0388985258326
300.0428651916358
300.0462130821163
300.0487864607538
300.0506016568057
300.0514888608117
300.0514124872934
300.0505217482399
300.0486840486395
300.0457587746384
300.0417010209118
300.0365512247624
300.0303982204532
300.0233732026707
300.0156522631735
300.0074360898315
299.998924868111
299.9902942409523
299.9816888310148
299.9732850359395
299.9652849155668
299.9578519773717
299.9513710386208
299.9464104509602
299.9427946619225
299.9397870169847
299.937639783701
299.9364667908944
299.9362389574771
299.9367992248919
299.9380910649272
299.9402644486134
299.9433982269766
299.9474992701871
299.9525085421909
299.9583295504744
299.9648380371187
299.9718788572197
299.9792774569552
299.986869120894
299.9945169426405
300.0021180885356
300.0095902512134
300.0167856069083
300.0235629915868
300.0298355858444
300.0350542315998
300.0391147755724
300.0426916003877
300.0455154191064
300.0475713231769
300.0488258316977
300.0491673020815
300.0485970169169
300.0472066311807
300.0447921187266
300.0412699674033
300.0366338705065
300.030937609934
300.0242836413884
300.0168190528764
300.0087229149781
300.0001946459912
299.9914365459209
299.982627066893
299.9739603646354
299.9656741119023
299.9579638124338
299.9511415199748
299.9457851775562
299.9419261056658
299.9387116556773
299.9363332314425
299.9348295662973
299.9342700430136
299.9346066307252
299.9355966844581
299.9373914855611
299.9400875222209
299.9437226415965
299.9482732230809
299.9536744204151
299.9598312679574
299.9666190222389
299.9738868616192
299.9814700501113
299.9892086523901
299.9969702363416
300.0046608478934
300.0121507094844
300.0192340780734
300.0258696262734
300.0318305927648
300.0364225100643
300.0403948802024
300.0437228593413
300.0463291552007
300.0481982002357
300.0492403175334
300.0493897445763
300.0486934495027
300.0471849907773
300.0447269379126
300.0412581405637
300.0367772804142
300.0313460299214
300.0250719171731
300.0180940366933
300.0105739407029
300.0026947144726
299.9946492925876
299.9866124167816
299.9787665479274
299.9713152880919
299.9644053510368
299.9582566242879
299.9532634762784
299.9494249840995
299.946170131675
299.943595994264
299.9417815154885
299.9407292498695
299.9404700813689
299.9409492823
299.9420076396573
299.9437103226443
299.9460924186745
299.9491879216898
299.9530000789771
299.9574983812572
299.9626292165021
299.968320315949
299.974479751919
299.9810022500884
299.9877818041383
299.994717307235
300.0016705479987
300.0084313311482
300.0149025032322
300.0208733088523
300.0257062200174
300.0298676310189
300.0334299395601
300.0362434960453
300.0382868877932
300.0396154530253
300.0400503803569
300.0395256168749
300.0382621183731
300.0361368809217
300.0330979484532
300.0291228204323
300.0242371848416
300.0185091997825
300.0120473183448
300.0049945733929
299.9975170544135
299.9897860573834
299.9819800276036
299.9743220630548
299.9670296610372
299.9602868700519
299.9544599443786
299.9498695263123
299.9462674064156
299.9432393273829
299.9409961149344
299.9394815681565
299.938789029826
299.9389355696566
299.9396848855839
299.9410596087356
299.9430941001194
299.9458318109424
299.9492961002658
299.9534785557929
299.9583422598531
299.9638264011566
299.9698493980667
299.9763167610186
299.9831218053101
299.9901430919217
299.9972413883507
300.0042063346523
300.0108520526524
300.0170298077434
300.0221742604999
300.0264093612954
300.0301201720255
300.033117141873
300.0353990682815
300.0369825357731
300.0377157564275
300.0375235008381
300.036547485267
300.0347707288021
300.0321318125149
300.0285761075762
300.0240955215529
300.0187400283821
300.0126024141762
300.0057993700756
299.9984694393228
299.9907734190967
299.9828880240017
299.9750340170147
299.9674557607576
299.9603608116882
299.9540898108505
299.9490752316273
299.9452418866828
299.942010901531
299.939525845943
299.9378167689697
299.9369186216191
299.9368161524703
299.9373928738914
299.9385736571064
299.9403857933914
299.9428592050517
299.9460259208915
299.9498929024198
299.9544380015604
299.9596153385028
299.9653622959303
299.9716023264765
299.9782383408976
299.9851577555926
299.9922486574058
299.9993200698289
300.0061011821745
300.012502315881
300.0181378702634
300.0224970364381
300.0264474699708
300.029701624418
300.0322408832823
300.0340349427915
300.0350842678491
300.0352690366558
300.0345734050728
300.033143135262
300.0308585250814
300.027669995781
300.0235590991269
300.0185650598616
300.0127603929989
300.0062331626258
299.9990998096608
299.9915128631136
299.983641352265
299.9756881403322
299.9679061092795
299.9605223940967
299.9538387209341
299.9483574003449
299.944200402556
299.9407601989074
299.938019515679
299.9361051680744
299.9349403011598
299.9345745462036
299.9350006943333
299.9359917788952
299.9376028914007
299.9398506901422
299.9427652447002
299.9463611920625
299.9506242963633
299.9555182732502
299.9609932923137
299.9669854547419
299.9734144987896
299.9801880620887
299.9872012409339
299.9942830212476
300.0011702889265
300.0077377519997
300.0137290631441
300.0184142632739
300.0225102512433
300.0259846912637
300.0287465506765
300.0307906457142
300.0321553084473
300.0326645094512
300.0322557771516
300.0311148963355
300.0291501810369
300.0263061390108
300.0225569725814
300.0179217555814
300.0124452563914
300.0061977192296
299.999286785304
299.9918551225531
299.9840585141966
299.9760783346518
299.9681604477084
299.9605514326454
299.9535161437828
299.9475429569017
299.942943547231
299.9393127696069
299.9363113286192
299.9341448515848
299.9327185129545
299.9321095136855
299.932330717123
299.9331364960013
299.9345490504027
299.9365836609616
299.9392690480365
299.942622223157
299.9466347946804
299.9512754047901
299.9564988410904
299.9622508011807
299.9684673817598
299.9750671697674
299.9819479373721
299.9889813138329
299.9959476457881
300.0026066652654
300.0088123937171
300.0140029374233
300.0181518465282
300.0218342828982
300.0248345015045
300.0271478213464
300.0287558015668
300.0295500672695
300.0294628802481
300.0285763913354
300.0269123064059
300.024410775655
300.021026705506
300.016745029706
300.0115976549895
300.0056570244536
299.9990226357083
299.9918150168111
299.9841740327722
299.9762647665417
299.9683114708872
299.9605681637265
299.9532796417554
299.9468578863627
299.9417715724957
299.9379323142976
299.9346996566961
299.9322483578097
299.9305863026019
299.9297494619894
299.9297054467426
299.9303143703308
299.9315297687074
299.9333612016481
299.9358325740034
299.9389646004168
299.9427529866057
299.9471696927749
299.9521726745717
299.9577119609389
299.963727655158
299.9701434395747
299.9768717340629
299.9838128105293
299.9907756368043
299.997482541949
300.0038359354155
300.0094952267011
300.0137707551435
300.0176167516174
300.0208255746969
300.023346182055
300.0251377813942
300.0262128377557
300.0264384887562
300.0257964575136
300.0244444664696
300.0222514973787
300.0191675007472
300.0151806110213
300.010330206225
300.0046808117506
299.9983068532869
299.9913070172884
299.9838165066599
299.9759932762804
299.9680341906353
299.9601844925401
299.9526839789098
299.945877548191
299.9403081204923
299.9361178656893
299.9326878318766
299.9299463860527
299.9280393487711
299.9269001953772
299.9265621309529
299.9269969950849
299.9279959344345
299.9296132641209
299.9318640087484
299.9347706427063
299.938337406132
299.9425410581015
299.9473391916084
299.9526800572581
299.9585055546337
299.9647486877518
299.9713309054961
299.9781564073888
299.985075294102
299.9918511483128
299.9983004049845
300.0042171566627
300.0089316141396
300.0128226075195
300.0162045835094
300.0189198916038
300.0209395964137
300.0222794133753
300.0227869924034
300.0224195943688
300.0213403986147
300.0194519459516
300.0166922472267
300.0130466493047
300.0085429947138
300.0032226384931
299.9971442030579
299.9904028854894
299.9831303336928
299.9754716834148
299.9675963167537
299.9597354913821
299.95213209858
299.945069432953
299.9390432019151
299.9343951878658
299.9308299035385
299.927842176098
299.9256738724624
299.92425407537
299.9236515279537
299.92386307421
299.9246459364342
299.9260317193902
299.9280458912721
299.9307180546738
299.9340595800046
299.9380522671028
299.9426544457918
299.9478141410254
299.9534748017703
299.9595710663548
299.9660223752518
299.9727376936058
299.9796039419716
299.9864154846342
299.9929163048834
299.9989873375108
300.0042108092966
300.0080997290598
300.0116277656236
300.014516538016
300.0167464977538
300.0182868722316
300.0190145183921
300.0188919585465
300.0180327255396
300.0164171531795
300.0139718175496
300.0106573424795
300.0064744982582
300.0014594355314
299.9956780329935
299.989220033505
299.9821957685028
299.9747351679498
299.9669922133739
299.9591732862679
299.9515181740662
299.9442750199308
299.9378477258109
299.9327297989627
299.9289215594803
299.9257658206932
299.923325532259
299.9216586351661
299.920816615051
299.9207593849563
299.9213249329514
299.9224785535131
299.9242489884312
299.9266693533363
299.9297621647261
299.9335202581071
299.9379110950504
299.9428866615315
299.9483885338016
299.9543479483569
299.9606840542142
299.967308293934
299.9741163145453
299.9809322751848
299.987518841795
299.9937250806485
299.9992597320405
300.0034969559176
300.0070355894084
300.0100693582369
300.0124646749758
300.0141516501121
300.0150697996503
300.0151845013194
300.0145477059552
300.0132120007821
300.0110586424787
300.0080385816724
300.0041563656956
299.9994590279276
299.9940037411371
299.9878529161458
299.9810958256159
299.9738591962147
299.966288348022
299.9585594083657
299.9509008124602
299.94354602449
299.9368184457465
299.9312491022983
299.9270594526997
299.9237792383113
299.9210853955065
299.9191855642401
299.9180571760754
299.9177193105433
299.9181065305086
299.919031244677
299.9205607134559
299.9227252849491
299.9255550648544
299.9290592274509
299.933217746535
299.9379870964587
299.9433100385845
299.9491212750183
299.9553435521497
299.9618842991953
299.968639286478
299.9754648343333
299.982143011469
299.9884617056624
299.9942228765626
299.9989567093903
300.0024923441669
300.0056615271757
300.008192997867
300.010030448322
300.0111582704046
300.0114827183315
300.011021962059
300.0099179954298
300.0080331478177
300.0053132773454
300.0017582395152
299.9973959169853
299.9922619393849
299.9864123561694
299.9799369273655
299.9729533552439
299.9655903174951
299.9579971297355
299.9503823939157
299.9429794172603
299.9360506670426
299.9300492281439
299.9253888584683
299.9219254503384
299.9190286206623
299.9168885169838
299.9154913140615
299.9148982415003
299.9150829585023
299.9158017168687
299.9170981659304
299.919010898808
299.9215773846971
299.9248154742095
299.9287147522713
299.9332430082356
299.9383555267937
299.9439951987451
299.9500870320012
299.9565373890843
299.9632441980784
299.9700807082083
299.9768432098295
299.9833064485693
299.9892942880161
299.9944098418466
299.9982219084421
300.0014249449072
300.0040789058663
300.0060528179843
300.0073353409524
300.0078135469625
300.0074979098471
300.0065760323387
300.0049422946349
300.0025259328759
299.9992991378743
299.9952754017489
299.9904941675555
299.98501203037
299.9788982655467
299.9722419092232
299.9651583552907
299.9577819287602
299.9502890973695
299.942909062521
299.935872256913
299.9295225445168
299.9243938129009
299.9206168263977
299.9175778236738
299.9151810890945
299.9135269283346
299.9126926890817
299.9126310356356
299.9131551164008
299.9142400863502
299.9159232941685
299.9182419432769
299.9212187479831
299.9248537285644
299.9291300847367
299.934014003017
299.9394520936453
299.9453748892923
299.9516978082266
299.9583220331672
299.9651296385123
299.9719418766704
299.9785371395832
299.9847247093272
299.9901851427359
299.9944776145251
299.9977341182983
300.0005543503907
300.0026897645581
300.0041496088103
300.0048159378183
300.0046943860945
300.0039728451822
300.0025878466463
300.0004563740001
299.9975357352737
299.9938349131758
299.9893888338782
299.9842390770516
299.9784394366445
299.9720699126279
299.9652379231494
299.9580629184036
299.9506904846362
299.9433343638493
299.9362248729791
299.9296266541616
299.9240388568656
299.9198107117598
299.9166127907131
299.9139507273201
299.9120697905055
299.9109468946686
299.9106000609881
299.9109623990707
299.9118412537453
299.9133050409207
299.9153861645307
299.9181144175371
299.9215000867226
299.9255290337168
299.9301691395349
299.9353781346368
299.941103513084
299.9472714770365
299.9537832464974
299.9605281433528
299.9673562811398
299.9740511086537
299.9804092791547
299.9861828440971
299.990911469979
299.9944157441505
299.9973755090149
299.9997200331691
300.0013726130902
300.0022479618788
300.0023542134253
300.0018118816403
300.0006499097119
299.9987913426408
299.9961909263176
299.9928311402708
299.9887235205542
299.9839022344243
299.9784224579004
299.9723556775868
299.9657902073242
299.958833149727
299.9516110968669
299.9443081644183
299.9371585487312
299.9303884981496
299.9243863067684
299.9196624323796
299.91618788905
299.9133190255931
299.9111891614979
299.9097850538018
299.9091727801897
299.9093335216018
299.9100190423804
299.9112687551815
299.9131210402239
299.9156102263983
299.918748460326
299.9225260990281
299.9269216727035
299.931904216336
299.9374254580387
299.9434155172798
299.9497856565079
299.9564364289228
299.9632389283851
299.9699906249922
299.9764817115052
299.9825089779958
299.9876468171896
299.991558007314
299.9946536011698
299.997207290145
299.9990394665164
300.0001636700724
300.0005273398229
300.0001641010733
299.9992460578144
299.9976737553052
299.9953902214837
299.9923641559982
299.9886009413572
299.9841313919562
299.978996669331
299.9732485712772
299.9669617162619
299.960236837735
299.9531872460351
299.9459637976046
299.9387946454321
299.9319055984228
299.9255779264381
299.920361837431
299.9165053273443
299.91342588162
299.9110052569548
299.9093405880018
299.9084777373392
299.9083780297136
299.9088903911741
299.9099535773873
299.9115987311019
299.9138541370569
299.9167424834211
299.920268473978
299.9244204734775
299.9291693017842
299.934469027076
299.9402624818218
299.9464758848594
299.9530127044425
299.9597556157339
299.9665299149154
299.9731208991142
299.9793406231166
299.9848455696671
299.9892040086386
299.9924948959434
299.9952629294931
299.9973242141745
299.9987068790933
299.9993250839968
299.9991756295765
299.99846735079
299.9971398687258
299.9951365287384
299.9924201876681
299.9889814303289
299.9848320921143
299.9800026019446
299.9745433363765
299.9685210106693
299.9620189618063
299.9551386955363
299.9480090689231
299.9408354198436
299.9338557073919
299.9272930602954
299.9216234479988
299.9172840024253
299.9139798568697
299.9112632502413
299.9093653143352
299.908201329298
299.9078065778795
299.9081654552562
299.9090459182148
299.9105035442578
299.9125538311782
299.9152175147605
299.9185030781954
299.9224011446349
299.9268917634834
299.9319489976888
299.9375325963775
299.9435741183702
299.9499775545572
299.95663700202
299.9634055091892
299.9700667311921
299.9764307089667
299.982244405317
299.9870395252172
299.9906549107474
299.9936097520221
299.9959177821469
299.9975160552798
299.9983630427771
299.9984812993481
299.9979956376252
299.9969319931375
299.9952156345238
299.9927885819853
299.9896199379405
299.9857253980032
299.9811555115335
299.9759702910777
299.970225047507
299.9639805837892
299.9573162803383
299.9503287610763
299.9431822583335
299.936121977507
299.9293604920024
299.9232616489711
299.9183668726735
299.9146775498026
299.911599416313
299.9092654918027
299.9076416245708
299.9068525397696
299.9068102842883
299.907268734554
299.9083819612788
299.9101843740439
299.9126840825388
299.9158943775254
299.9198010940162
299.9243651068466
299.9295706576303
299.935483520051
299.9421717186675
299.9496775450046
299.9567883568864
299.9644122508734
)
;

boundaryField
{
    inlet
    {
        type            fixedValue;
        value           uniform 300;
    }
    outlet
    {
        type            inletOutlet;
        inletValue      uniform 300;
        value           uniform 299.9647573731831;
    }
    frontAndBack
    {
        type            empty;
    }
}


// ************************************************************************* //
