/*--------------------------------*- C++ -*----------------------------------*\
| =========                 |                                                 |
| \\      /  F ield         | OpenFOAM: The Open Source CFD Toolbox           |
|  \\    /   O peration     | Version:  v2012                                 |
|   \\  /    A nd           | Website:  www.openfoam.com                      |
|    \\/     M anipulation  |                                                 |
\*---------------------------------------------------------------------------*/
FoamFile
{
    version     2.0;
    format      ascii;
    class       volVectorField;
    location    "0.016";
    object      U;
}
// * * * * * * * * * * * * * * * * * * * * * * * * * * * * * * * * * * * * * //

dimensions      [0 1 -1 0 0 0 0];


internalField   nonuniform List<vector> 
1000
(
(-0.04467725517493885 0 0)
(-0.07299240173879068 0 0)
(-0.08011700206638647 0 0)
(-0.09209923324086189 0 0)
(-0.1024110140419739 0 0)
(-0.1113635470498895 0 0)
(-0.1176600733741539 0 0)
(-0.1202572990464528 0 0)
(-0.1203421767822978 0 0)
(-0.1186382746347419 0 0)
(-0.114071568994443 0 0)
(-0.106022496302973 0 0)
(-0.09671887736517917 0 0)
(-0.08531304786810631 0 0)
(-0.07166256407053354 0 0)
(-0.05592532656835018 0 0)
(-0.03854287216158633 0 0)
(-0.02004389759633041 0 0)
(-0.0009082796562025288 0 0)
(0.01843599545883327 0 0)
(0.03758413769232444 0 0)
(0.05614817616996453 0 0)
(0.07376558030499668 0 0)
(0.09012566690601505 0 0)
(0.1050262700454026 0 0)
(0.1183638224393515 0 0)
(0.1299452237707882 0 0)
(0.1396196795166424 0 0)
(0.1474455219111169 0 0)
(0.1524465434558986 0 0)
(0.1537959320869127 0 0)
(0.1527217066942757 0 0)
(0.1496805714050024 0 0)
(0.144715907689054 0 0)
(0.1377948019963275 0 0)
(0.1281726124353792 0 0)
(0.1180394185226321 0 0)
(0.1062793965807999 0 0)
(0.09271457352196967 0 0)
(0.07742965789150279 0 0)
(0.06082149906534261 0 0)
(0.04335800997967691 0 0)
(0.02544666355258279 0 0)
(0.007442174746343896 0 0)
(-0.01033388908660384 0 0)
(-0.02759643698028986 0 0)
(-0.04410734454054191 0 0)
(-0.05971375877514418 0 0)
(-0.07428331606372213 0 0)
(-0.08754779220056548 0 0)
(-0.09926053014154958 0 0)
(-0.1090848666853886 0 0)
(-0.1157668917916032 0 0)
(-0.1183028382312039 0 0)
(-0.1181740539101403 0 0)
(-0.116403172874733 0 0)
(-0.1125347467989686 0 0)
(-0.1054711383566635 0 0)
(-0.09710586862057831 0 0)
(-0.08725805504500597 0 0)
(-0.07547336870174587 0 0)
(-0.06147742744209603 0 0)
(-0.04535536597298429 0 0)
(-0.0274998764103644 0 0)
(-0.00847658166006139 0 0)
(0.01110402237353812 0 0)
(0.0306698222813932 0 0)
(0.04973342788173037 0 0)
(0.06791317336104197 0 0)
(0.08492691156453223 0 0)
(0.1005734056378431 0 0)
(0.1147317649367201 0 0)
(0.127217106453706 0 0)
(0.1377113873386666 0 0)
(0.1461360542392602 0 0)
(0.1518457847908211 0 0)
(0.1537049817517537 0 0)
(0.1528099544423234 0 0)
(0.1499938555516295 0 0)
(0.1453493938876065 0 0)
(0.1390680881751205 0 0)
(0.1301904418881297 0 0)
(0.120469119110477 0 0)
(0.1096498464629805 0 0)
(0.09733371901169265 0 0)
(0.08331213172313232 0 0)
(0.0677234304207886 0 0)
(0.05089489065505588 0 0)
(0.03321991134493812 0 0)
(0.01511568184633196 0 0)
(-0.003002094837463063 0 0)
(-0.02075400160071795 0 0)
(-0.03782116158495556 0 0)
(-0.05399528941461978 0 0)
(-0.06914439235514458 0 0)
(-0.08300756138519554 0 0)
(-0.09526812008769302 0 0)
(-0.1056171501941311 0 0)
(-0.1129488821575631 0 0)
(-0.1159800047002354 0 0)
(-0.1161130782804997 0 0)
(-0.1145506470792539 0 0)
(-0.1110052722564107 0 0)
(-0.1050284188068005 0 0)
(-0.09688705779773973 0 0)
(-0.08781671252072866 0 0)
(-0.07715764373708416 0 0)
(-0.06456490185156305 0 0)
(-0.04990295926989241 0 0)
(-0.03332406332915639 0 0)
(-0.01519623728747768 0 0)
(0.003982563315677621 0 0)
(0.023640199828631 0 0)
(0.04319418701437583 0 0)
(0.06212925455566886 0 0)
(0.08003241584773309 0 0)
(0.09658670758839304 0 0)
(0.1116149596128676 0 0)
(0.1249668881293486 0 0)
(0.1362439947480245 0 0)
(0.1452711506769257 0 0)
(0.1518204757174012 0 0)
(0.1544554359107449 0 0)
(0.1539476985243688 0 0)
(0.1514910814303514 0 0)
(0.1470723974763088 0 0)
(0.1410361478262658 0 0)
(0.1332703280435663 0 0)
(0.123429314443468 0 0)
(0.1131656981599597 0 0)
(0.1016467744573365 0 0)
(0.08863153521251917 0 0)
(0.07405706080548036 0 0)
(0.05810432135668372 0 0)
(0.04107644289010898 0 0)
(0.02331861463987536 0 0)
(0.005205397094723212 0 0)
(-0.01286125745471239 0 0)
(-0.0304763706190967 0 0)
(-0.04731246131763988 0 0)
(-0.06315500795719219 0 0)
(-0.07770826912191429 0 0)
(-0.09057509127556257 0 0)
(-0.1014644227228168 0 0)
(-0.1094908024247425 0 0)
(-0.1132141796929927 0 0)
(-0.1136995758083259 0 0)
(-0.1123730082801432 0 0)
(-0.1092212540059609 0 0)
(-0.1041553450443131 0 0)
(-0.09622245531051811 0 0)
(-0.08768591891824087 0 0)
(-0.0777623359818822 0 0)
(-0.06618630646028319 0 0)
(-0.05272573513037768 0 0)
(-0.03736590019771497 0 0)
(-0.02031124814952472 0 0)
(-0.001924790044075116 0 0)
(0.01732060794394012 0 0)
(0.03689397433779906 0 0)
(0.05626154652907085 0 0)
(0.07491901220922904 0 0)
(0.09242441917794265 0 0)
(0.1084755766795214 0 0)
(0.1228473299267804 0 0)
(0.1350882513384463 0 0)
(0.14490872147572 0 0)
(0.1523222414814024 0 0)
(0.1558548319084228 0 0)
(0.1558748831198886 0 0)
(0.1537968492697512 0 0)
(0.1496941724805449 0 0)
(0.1439784871372725 0 0)
(0.1368410257647032 0 0)
(0.1271741906423551 0 0)
(0.1171565834831297 0 0)
(0.1061353918343486 0 0)
(0.09384847327875023 0 0)
(0.08011862972586356 0 0)
(0.06502152739846936 0 0)
(0.04875870357860174 0 0)
(0.03157262910242931 0 0)
(0.01375814488999876 0 0)
(-0.00431182310002836 0 0)
(-0.02221735785923354 0 0)
(-0.03956875187250252 0 0)
(-0.05606994998687894 0 0)
(-0.07137437131591107 0 0)
(-0.08499256096957883 0 0)
(-0.09657423096083671 0 0)
(-0.1053982089950495 0 0)
(-0.1099852950363614 0 0)
(-0.1109251274736973 0 0)
(-0.1099180938703297 0 0)
(-0.1071845618152002 0 0)
(-0.1026140452588319 0 0)
(-0.09543397548500626 0 0)
(-0.08708794858304349 0 0)
(-0.07769787373520246 0 0)
(-0.06691425660485774 0 0)
(-0.0544363895334487 0 0)
(-0.04015332107185939 0 0)
(-0.02415421134231751 0 0)
(-0.006683320286316744 0 0)
(0.01190884109301565 0 0)
(0.03118585156899915 0 0)
(0.05064987006360025 0 0)
(0.06979303746147188 0 0)
(0.08813751584371113 0 0)
(0.1052473308112754 0 0)
(0.1207913377994793 0 0)
(0.1344599422089788 0 0)
(0.1457557667938018 0 0)
(0.1544717583103589 0 0)
(0.160209987829796 0 0)
(0.1620162426551353 0 0)
(0.1610302146990943 0 0)
(0.1581567883045781 0 0)
(0.1534336193974825 0 0)
(0.1473326381085561 0 0)
(0.1400603105739197 0 0)
(0.1303692030441377 0 0)
(0.1207979827255733 0 0)
(0.1103415650917642 0 0)
(0.09893899836057211 0 0)
(0.08649529294648745 0 0)
(0.0730824060979339 0 0)
(0.05886135390140143 0 0)
(0.04401654907311819 0 0)
(0.02878670790868264 0 0)
(0.01349019290536915 0 0)
(-0.001518807785621293 0 0)
(-0.01591546897747828 0 0)
(-0.02943856473314593 0 0)
(-0.04177948643007835 0 0)
(-0.05255256174145808 0 0)
(-0.06153458965171782 0 0)
(-0.06826464374062632 0 0)
(-0.07182383054018326 0 0)
(-0.07270136022459148 0 0)
(-0.0721019608777338 0 0)
(-0.0700926548394146 0 0)
(-0.06677955301656513 0 0)
(-0.06228894156877522 0 0)
(-0.05552569143789253 0 0)
(-0.04840799674224569 0 0)
(-0.04039219006359932 0 0)
(-0.03145575395384583 0 0)
(-0.02148228501391662 0 0)
(-0.01040662237424528 0 0)
(0.001719301986637475 0 0)
(0.01474286385096833 0 0)
(0.02845480275695088 0 0)
(0.0426030808070617 0 0)
(0.05689566733597062 0 0)
(0.07100004699642838 0 0)
(0.08454455620219743 0 0)
(0.09719482178879842 0 0)
(0.1086330005918732 0 0)
(0.1183355046199766 0 0)
(0.1260000555799792 0 0)
(0.1313349584679697 0 0)
(0.1332934904799621 0 0)
(0.1326358708730892 0 0)
(0.1303020690285865 0 0)
(0.1263746169879518 0 0)
(0.1211856962536783 0 0)
(0.1150567261467898 0 0)
(0.1070140820535161 0 0)
(0.09872719526406107 0 0)
(0.08995357433213534 0 0)
(0.08069553139214952 0 0)
(0.0707667731594229 0 0)
(0.06008689170667234 0 0)
(0.04869326121403084 0 0)
(0.03670161133168421 0 0)
(0.02424299385663825 0 0)
(0.01147523776130385 0 0)
(-0.001368861733864486 0 0)
(-0.01401364402952189 0 0)
(-0.02616745405418472 0 0)
(-0.03741601722800283 0 0)
(-0.04733633206901539 0 0)
(-0.05557822660509175 0 0)
(-0.06129664216854021 0 0)
(-0.06376326959292067 0 0)
(-0.06405290360570934 0 0)
(-0.06306502698005613 0 0)
(-0.06058013761706825 0 0)
(-0.05678611891771918 0 0)
(-0.05142269200969243 0 0)
(-0.04458080097518105 0 0)
(-0.03719418909957332 0 0)
(-0.02895431696784185 0 0)
(-0.01975815677055042 0 0)
(-0.009490748471866959 0 0)
(0.001888046111047782 0 0)
(0.0143024456675521 0 0)
(0.0275924949338142 0 0)
(0.04155455956895668 0 0)
(0.05594102888992637 0 0)
(0.07043118794462118 0 0)
(0.08463767372793565 0 0)
(0.09819020709230483 0 0)
(0.1107107697610109 0 0)
(0.1215488019062618 0 0)
(0.1302208820592005 0 0)
(0.1366105471704852 0 0)
(0.1394266600667128 0 0)
(0.1391646853721245 0 0)
(0.1370999650953292 0 0)
(0.1333215232950437 0 0)
(0.128089134179175 0 0)
(0.1218713741536943 0 0)
(0.1145411397828513 0 0)
(0.1059019417202939 0 0)
(0.09730254104945403 0 0)
(0.08827232278629771 0 0)
(0.07873984000313476 0 0)
(0.06860489062069844 0 0)
(0.05785891825980662 0 0)
(0.04654139383843939 0 0)
(0.03469329712279432 0 0)
(0.02239952766023991 0 0)
(0.009837263762337085 0 0)
(-0.002759461826688171 0 0)
(-0.01513543585286258 0 0)
(-0.02689488241600286 0 0)
(-0.03753780574147682 0 0)
(-0.04665467184418318 0 0)
(-0.05343152886043787 0 0)
(-0.05683317916914854 0 0)
(-0.05757978831552289 0 0)
(-0.05686314124453936 0 0)
(-0.05461816602115697 0 0)
(-0.05102900842307511 0 0)
(-0.04628506042939082 0 0)
(-0.03935981187970641 0 0)
(-0.03227389218931428 0 0)
(-0.02430278367926231 0 0)
(-0.01550073208091076 0 0)
(-0.005763528968824873 0 0)
(0.004992962051144563 0 0)
(0.0167505567103596 0 0)
(0.02941020124239329 0 0)
(0.04283154526406028 0 0)
(0.05682498396207995 0 0)
(0.07112794688377509 0 0)
(0.08541449865737877 0 0)
(0.09931869486426358 0 0)
(0.1124252183778399 0 0)
(0.1241414886946279 0 0)
(0.1338609450039319 0 0)
(0.1413627428355421 0 0)
(0.1455070324556728 0 0)
(0.1461184593005894 0 0)
(0.1445250412523055 0 0)
(0.1410551456579319 0 0)
(0.1360193302165222 0 0)
(0.1299006188214719 0 0)
(0.1230343580532862 0 0)
(0.1140655553291497 0 0)
(0.1055808568760738 0 0)
(0.09658402001946298 0 0)
(0.0872534045642407 0 0)
(0.07749810867630191 0 0)
(0.06724205871435722 0 0)
(0.05643898427606327 0 0)
(0.04509508964885429 0 0)
(0.03327314290259686 0 0)
(0.02108923505327064 0 0)
(0.008704293211767031 0 0)
(-0.003679097020946931 0 0)
(-0.01571812881182237 0 0)
(-0.02689505640777802 0 0)
(-0.03674949465157644 0 0)
(-0.04455957014480275 0 0)
(-0.04911948280874631 0 0)
(-0.05051108992010982 0 0)
(-0.05011352424622029 0 0)
(-0.04827918313490398 0 0)
(-0.04502011398984586 0 0)
(-0.04057009356035106 0 0)
(-0.0340246341559687 0 0)
(-0.02702059722684028 0 0)
(-0.01927379882886494 0 0)
(-0.01079264554413121 0 0)
(-0.001483173726940302 0 0)
(0.008737737417887042 0 0)
(0.01989456488495903 0 0)
(0.03193798347694131 0 0)
(0.0447758870110433 0 0)
(0.05827785447363779 0 0)
(0.07225513209311318 0 0)
(0.08643939887024227 0 0)
(0.1004750507014926 0 0)
(0.1139739787735893 0 0)
(0.1264639935055123 0 0)
(0.1371958701388076 0 0)
(0.1456685335326704 0 0)
(0.1513787085746647 0 0)
(0.15321407379358 0 0)
(0.1521743346370021 0 0)
(0.1492823227961834 0 0)
(0.1446988867418182 0 0)
(0.1387521844287773 0 0)
(0.1318758836131185 0 0)
(0.1235220085114193 0 0)
(0.1146920436371989 0 0)
(0.1057129972516022 0 0)
(0.09655256721584748 0 0)
(0.0870725364892745 0 0)
(0.07716049565104265 0 0)
(0.06677259502739405 0 0)
(0.05592196437606053 0 0)
(0.04462659360856015 0 0)
(0.03291028679310236 0 0)
(0.02086034926111521 0 0)
(0.00864242406436266 0 0)
(-0.003468109593688134 0 0)
(-0.01499994903795528 0 0)
(-0.02544299460161322 0 0)
(-0.03418155571687661 0 0)
(-0.04003450861636457 0 0)
(-0.04232543806891982 0 0)
(-0.04238801105484785 0 0)
(-0.04105452583752554 0 0)
(-0.03810805580575993 0 0)
(-0.03384516908339365 0 0)
(-0.02794531486424114 0 0)
(-0.02089266481246957 0 0)
(-0.01333264280392941 0 0)
(-0.005106863243176007 0 0)
(0.003851806388605849 0 0)
(0.01362318136385629 0 0)
(0.02425444376416412 0 0)
(0.03573017937032232 0 0)
(0.04799433929754234 0 0)
(0.06096491524530516 0 0)
(0.0745112773374966 0 0)
(0.08841978392320327 0 0)
(0.1023950626772388 0 0)
(0.116104651260708 0 0)
(0.1291161826421143 0 0)
(0.140676344596497 0 0)
(0.1501379101322281 0 0)
(0.1572750157355834 0 0)
(0.1605839672278842 0 0)
(0.1604368444077241 0 0)
(0.1582636838228844 0 0)
(0.154214279544435 0 0)
(0.1485979256119956 0 0)
(0.1418917542118766 0 0)
(0.1342600675661924 0 0)
(0.1250405563439834 0 0)
(0.1162408804266695 0 0)
(0.1071272936642012 0 0)
(0.09774577685554481 0 0)
(0.08801087271918243 0 0)
(0.07791187505062207 0 0)
(0.06745190210913127 0 0)
(0.05658280332701733 0 0)
(0.04525724771887544 0 0)
(0.03352043837218176 0 0)
(0.0215043027230213 0 0)
(0.009405243131335691 0 0)
(-0.002390348049885224 0 0)
(-0.01335171345779985 0 0)
(-0.02294208942498072 0 0)
(-0.03010855871221329 0 0)
(-0.03366121224069594 0 0)
(-0.03439289073190273 0 0)
(-0.03355528558962213 0 0)
(-0.03105559237812212 0 0)
(-0.02710662874535014 0 0)
(-0.02195574852215456 0 0)
(-0.01473524761873765 0 0)
(-0.007456044747887577 0 0)
(0.0005897453476569689 0 0)
(0.009282409134112716 0 0)
(0.01868593976714873 0 0)
(0.02886063041626209 0 0)
(0.0398123009631015 0 0)
(0.05151244551000783 0 0)
(0.06391653718646086 0 0)
(0.07694550488914027 0 0)
(0.09045572555444516 0 0)
(0.1042232523818237 0 0)
(0.1179419497562241 0 0)
(0.131217652717702 0 0)
(0.1434630104760302 0 0)
(0.1539273237329779 0 0)
(0.1621582437669654 0 0)
(0.1672158134463282 0 0)
(0.1683914406002532 0 0)
(0.166967599681888 0 0)
(0.163618601388454 0 0)
(0.1585713347346119 0 0)
(0.1522687116444135 0 0)
(0.1450927051391322 0 0)
(0.1359381936168488 0 0)
(0.1272136441253997 0 0)
(0.1181362228478797 0 0)
(0.1088778431039892 0 0)
(0.09937867386633541 0 0)
(0.08961321220952453 0 0)
(0.07953013890285011 0 0)
(0.06906368793275659 0 0)
(0.05817503840340218 0 0)
(0.04688084564521589 0 0)
(0.03524516949827509 0 0)
(0.02338436939764378 0 0)
(0.01158919418770432 0 0)
(0.0003488999284085879 0 0)
(-0.00982807990383798 0 0)
(-0.01805669478525562 0 0)
(-0.02297015444643934 0 0)
(-0.02453538397903375 0 0)
(-0.02417760704699106 0 0)
(-0.02229570919666423 0 0)
(-0.01887355934087062 0 0)
(-0.01415927429792478 0 0)
(-0.007299272351678602 0 0)
(-4.944482720655629e-05 0 0)
(0.007859554547105343 0 0)
(0.01636763946081164 0 0)
(0.02551717462908203 0 0)
(0.03535526430655874 0 0)
(0.04589699183761528 0 0)
(0.0571207366474865 0 0)
(0.06900008496466038 0 0)
(0.08150052587380997 0 0)
(0.09454050254949017 0 0)
(0.1079527581442671 0 0)
(0.1214818068359662 0 0)
(0.1348185974940238 0 0)
(0.1474994478650462 0 0)
(0.1587249050755865 0 0)
(0.1678786454186667 0 0)
(0.1745636584458244 0 0)
(0.1772592805584794 0 0)
(0.1766836511674824 0 0)
(0.1741835774803811 0 0)
(0.1698911246761839 0 0)
(0.1640759158629393 0 0)
(0.1571460467747882 0 0)
(0.1487110891181318 0 0)
(0.1397332607785443 0 0)
(0.1307031055120955 0 0)
(0.1215519472201496 0 0)
(0.1121782684992183 0 0)
(0.1025210910282014 0 0)
(0.09256925494070541 0 0)
(0.08231833969474713 0 0)
(0.07173095683530685 0 0)
(0.06075467472150891 0 0)
(0.04938874056601112 0 0)
(0.03771367930173813 0 0)
(0.02593348403142062 0 0)
(0.01446384448135394 0 0)
(0.003813448715094358 0 0)
(-0.005341396157234379 0 0)
(-0.01172855071064914 0 0)
(-0.0144614632066378 0 0)
(-0.0147479160409437 0 0)
(-0.0135661924173667 0 0)
(-0.01071062321132967 0 0)
(-0.006389110996233681 0 0)
(-0.0002854385398667496 0 0)
(0.007004544859201115 0 0)
(0.01476911456197917 0 0)
(0.02312783348109694 0 0)
(0.03209523384746312 0 0)
(0.04169330853346315 0 0)
(0.05192270549036149 0 0)
(0.06275931476215388 0 0)
(0.07418140054211643 0 0)
(0.08617186686753051 0 0)
(0.09868770028797386 0 0)
(0.1116263729656409 0 0)
(0.1248120370967449 0 0)
(0.1379992037363217 0 0)
(0.1508054745881713 0 0)
(0.1625768442460202 0 0)
(0.1726223006837423 0 0)
(0.1804888951301436 0 0)
(0.1848551396218441 0 0)
(0.1855321957787907 0 0)
(0.1839841958885602 0 0)
(0.1805919196966335 0 0)
(0.1755070487404263 0 0)
(0.1691169253337545 0 0)
(0.1615106399726067 0 0)
(0.1524803553219918 0 0)
(0.1437255375026165 0 0)
(0.1347053459288656 0 0)
(0.1254144855320402 0 0)
(0.1158265789441708 0 0)
(0.1059974578558963 0 0)
(0.09594496784835255 0 0)
(0.08559263705888875 0 0)
(0.07484862531168342 0 0)
(0.06370361655650592 0 0)
(0.05222580113876551 0 0)
(0.0405422389881803 0 0)
(0.02896338663994883 0 0)
(0.01796550800167196 0 0)
(0.008096227889202716 0 0)
(0.0004362038826651169 0 0)
(-0.003730997431346985 0 0)
(-0.004843771725136273 0 0)
(-0.004254416108937158 0 0)
(-0.002048368516081071 0 0)
(0.001742147759633229 0 0)
(0.006955453559409547 0 0)
(0.01428816414820791 0 0)
(0.02177594343686696 0 0)
(0.03000021552520255 0 0)
(0.03882704666818565 0 0)
(0.04825691968875993 0 0)
(0.0582819942952837 0 0)
(0.0688593431902992 0 0)
(0.0799423558725679 0 0)
(0.09150487966912077 0 0)
(0.103529645849098 0 0)
(0.1159713034843684 0 0)
(0.1287166974362649 0 0)
(0.1415756486784905 0 0)
(0.1542734850095368 0 0)
(0.1663238481732556 0 0)
(0.1769922028105961 0 0)
(0.1857133895487605 0 0)
(0.191788357200872 0 0)
(0.193965634670762 0 0)
(0.1932949733411725 0 0)
(0.1908607686078755 0 0)
(0.1866549243193871 0 0)
(0.1810135775686862 0 0)
(0.1742406422845388 0 0)
(0.1653883214272242 0 0)
(0.1569439457073971 0 0)
(0.1480809213829209 0 0)
(0.1389332051760494 0 0)
(0.1294979685153448 0 0)
(0.1198056720573676 0 0)
(0.1098512981398879 0 0)
(0.09958758085534648 0 0)
(0.08897333647566931 0 0)
(0.07799934276921004 0 0)
(0.06668882102743465 0 0)
(0.0551119379100563 0 0)
(0.04349105021908335 0 0)
(0.03225057135695859 0 0)
(0.02188008368832957 0 0)
(0.01320419112138735 0 0)
(0.00757590957463419 0 0)
(0.005455657476843483 0 0)
(0.005467625740670991 0 0)
(0.006948166347336112 0 0)
(0.01001767290136317 0 0)
(0.01456200860897503 0 0)
(0.02136970874390813 0 0)
(0.02871510371789847 0 0)
(0.0367493061066832 0 0)
(0.04542011652919546 0 0)
(0.05471886597425311 0 0)
(0.06461610186703147 0 0)
(0.07504154237457303 0 0)
(0.08591055847961014 0 0)
(0.09717481551212111 0 0)
(0.1088197270051291 0 0)
(0.1208204695262687 0 0)
(0.1331047571829909 0 0)
(0.145546884021213 0 0)
(0.1579676955736107 0 0)
(0.1700125975362324 0 0)
(0.181047539439004 0 0)
(0.1904947082871619 0 0)
(0.1977785753003398 0 0)
(0.2014652179684379 0 0)
(0.2018597217623659 0 0)
(0.2003707018411645 0 0)
(0.1971651722810945 0 0)
(0.1924165859873498 0 0)
(0.1863298121560126 0 0)
(0.178220823466913 0 0)
(0.1699632854485163 0 0)
(0.1613787247402498 0 0)
(0.1524758844307527 0 0)
(0.1431833916106027 0 0)
(0.1335342596136209 0 0)
(0.1235922658208227 0 0)
(0.1133841046335604 0 0)
(0.1028754639288373 0 0)
(0.09201167719353412 0 0)
(0.08079343968753268 0 0)
(0.06929233301171042 0 0)
(0.05766226135849474 0 0)
(0.04624991986896738 0 0)
(0.03552947120073556 0 0)
(0.02609713502052375 0 0)
(0.01914291740940178 0 0)
(0.0157609641881751 0 0)
(0.0150859607972606 0 0)
(0.01592740936187843 0 0)
(0.0183435206425112 0 0)
(0.02232544117682893 0 0)
(0.02823825249015691 0 0)
(0.03542767158387452 0 0)
(0.04317935932451975 0 0)
(0.05162087833750788 0 0)
(0.06074400142066282 0 0)
(0.07050947085652626 0 0)
(0.08083192641238246 0 0)
(0.09160085364963834 0 0)
(0.1027232575398289 0 0)
(0.1141397236052762 0 0)
(0.1258133065757748 0 0)
(0.1377036348178147 0 0)
(0.1497326161545691 0 0)
(0.1617746916664326 0 0)
(0.1735966826017566 0 0)
(0.1847252865597923 0 0)
(0.1945815055490821 0 0)
(0.2026087331928122 0 0)
(0.2077769557784638 0 0)
(0.2094017199300063 0 0)
(0.208772450675293 0 0)
(0.2066158051470806 0 0)
(0.2028582810208861 0 0)
(0.1976507766968256 0 0)
(0.1905295636598449 0 0)
(0.1826856208619863 0 0)
(0.1745102819896301 0 0)
(0.1658873265660161 0 0)
(0.1567474466111023 0 0)
(0.1471491005798551 0 0)
(0.1371913220996847 0 0)
(0.1269087000837423 0 0)
(0.1162727523160189 0 0)
(0.1052659509848159 0 0)
(0.09392537412600305 0 0)
(0.08232710979421487 0 0)
(0.07057946100590987 0 0)
(0.05894457993186043 0 0)
(0.04787387172727975 0 0)
(0.03784759079502317 0 0)
(0.02975035146503976 0 0)
(0.02494024035675993 0 0)
(0.02342430086324799 0 0)
(0.0237503499887904 0 0)
(0.02555400169011543 0 0)
(0.02892640570884632 0 0)
(0.03383526792857171 0 0)
(0.04088651666794688 0 0)
(0.04822839557784286 0 0)
(0.05638292549513823 0 0)
(0.06524663625656366 0 0)
(0.0748048924718261 0 0)
(0.08499384457733915 0 0)
(0.09567906757940342 0 0)
(0.10671224865859 0 0)
(0.1179914602003476 0 0)
(0.129469521101753 0 0)
(0.1411101161166521 0 0)
(0.1528408837821978 0 0)
(0.1645600319828903 0 0)
(0.1761276742453508 0 0)
(0.1872087513728133 0 0)
(0.1972780670270501 0 0)
(0.2058753515504221 0 0)
(0.212214444647292 0 0)
(0.2150465064115205 0 0)
(0.2152224722919057 0 0)
(0.2138904926750497 0 0)
(0.2109192910874167 0 0)
(0.2064709577631544 0 0)
(0.2003837485068365 0 0)
(0.1928551489989028 0 0)
(0.1850831598228855 0 0)
(0.1767651505842245 0 0)
(0.1678816272598058 0 0)
(0.1584495121185613 0 0)
(0.1485392478034905 0 0)
(0.1382161390612815 0 0)
(0.1275206723605075 0 0)
(0.1164796047219744 0 0)
(0.1051217761042839 0 0)
(0.09351023045311474 0 0)
(0.08174927285215926 0 0)
(0.07002946809168088 0 0)
(0.05874062654375364 0 0)
(0.0483577012666297 0 0)
(0.03949424125402694 0 0)
(0.03336602537875035 0 0)
(0.0308431475991286 0 0)
(0.03065131886956584 0 0)
(0.03187381093943247 0 0)
(0.03462316225754757 0 0)
(0.03882172585798645 0 0)
(0.04525863644084602 0 0)
(0.05231063828276071 0 0)
(0.06012026915980494 0 0)
(0.06868191922445904 0 0)
(0.07799670067893906 0 0)
(0.08799808691654638 0 0)
(0.09854733637740101 0 0)
(0.1094852748590222 0 0)
(0.1206906770800513 0 0)
(0.1320773554483256 0 0)
(0.1435686549217587 0 0)
(0.1550898535408144 0 0)
(0.1665642559384365 0 0)
(0.1779003481115423 0 0)
(0.1888731919273326 0 0)
(0.1990483178579736 0 0)
(0.2080123727908843 0 0)
(0.215122600776271 0 0)
(0.2191731682697069 0 0)
(0.2202076250626957 0 0)
(0.2195142545468797 0 0)
(0.2173186429048243 0 0)
(0.2136464835069012 0 0)
(0.2085911995597472 0 0)
(0.2013758852305891 0 0)
(0.1940682388919892 0 0)
(0.1860680762157696 0 0)
(0.177433363479217 0 0)
(0.1681497253663685 0 0)
(0.1582823162227564 0 0)
(0.1479429930785224 0 0)
(0.1372089313632286 0 0)
(0.1261094874509293 0 0)
(0.1146794773288343 0 0)
(0.1030052992755915 0 0)
(0.0912080573919786 0 0)
(0.07943332050714336 0 0)
(0.06799011170754952 0 0)
(0.05734724737287541 0 0)
(0.04794973092957492 0 0)
(0.04074639193818135 0 0)
(0.0370239406292544 0 0)
(0.03619854066726853 0 0)
(0.03693401852610084 0 0)
(0.03915513124307923 0 0)
(0.04285129474632853 0 0)
(0.0483537963431016 0 0)
(0.05519018000875321 0 0)
(0.06261531230511075 0 0)
(0.07080760906277143 0 0)
(0.07978686617907459 0 0)
(0.08951778775838418 0 0)
(0.09988881226401371 0 0)
(0.1107347934851268 0 0)
(0.1218869677585117 0 0)
(0.1332081481278133 0 0)
(0.1446047691716981 0 0)
(0.1560081914364627 0 0)
(0.167334631228128 0 0)
(0.1784915113247996 0 0)
(0.1893400419570234 0 0)
(0.1995465104805035 0 0)
(0.208713649337236 0 0)
(0.2163943353568006 0 0)
(0.2215731562506377 0 0)
(0.2235475936037764 0 0)
(0.2234354219830562 0 0)
(0.2219217909019277 0 0)
(0.2189341978728167 0 0)
(0.2145779350530435 0 0)
(0.2081219656464459 0 0)
(0.2010865753649821 0 0)
(0.19339788672345 0 0)
(0.1850170293836392 0 0)
(0.1759152368814996 0 0)
(0.1661428532751973 0 0)
(0.1557911313943083 0 0)
(0.1449531646645666 0 0)
(0.1337156217065087 0 0)
(0.1221677895713301 0 0)
(0.1104060975474997 0 0)
(0.09854845477451482 0 0)
(0.08673079046589183 0 0)
(0.07518030197068006 0 0)
(0.06432195644309466 0 0)
(0.05457502731612199 0 0)
(0.04658145174680624 0 0)
(0.04166568314048914 0 0)
(0.04006782384125471 0 0)
(0.04036176022304964 0 0)
(0.0421059580011851 0 0)
(0.04529111571823226 0 0)
(0.04980804861900113 0 0)
(0.05647079642009797 0 0)
(0.06341771374001598 0 0)
(0.07123461443225017 0 0)
(0.0798463742387389 0 0)
(0.08925518171463323 0 0)
(0.09939329639569665 0 0)
(0.1100929171040098 0 0)
(0.1211566655218893 0 0)
(0.1324287696034641 0 0)
(0.1437984579452782 0 0)
(0.1551615934095808 0 0)
(0.1664045032455255 0 0)
(0.1774342211069872 0 0)
(0.1881698907059298 0 0)
(0.1983742477933006 0 0)
(0.2076712520929119 0 0)
(0.215746662275304 0 0)
(0.2218090487167396 0 0)
(0.2247569305748803 0 0)
(0.2252599707620427 0 0)
(0.22435745341435 0 0)
(0.221970755228745 0 0)
(0.2181746379643175 0 0)
(0.2126704697632969 0 0)
(0.2058171841198013 0 0)
(0.1984788081292207 0 0)
(0.1904307075574985 0 0)
(0.1816301287333277 0 0)
(0.1720734995230009 0 0)
(0.1618345550180136 0 0)
(0.1510390636630655 0 0)
(0.1398075981108981 0 0)
(0.1282353433635904 0 0)
(0.1164262925121237 0 0)
(0.1045294375740421 0 0)
(0.09270488641987117 0 0)
(0.0811216004405703 0 0)
(0.07012693866201462 0 0)
(0.060159066345054 0 0)
(0.0516273894981163 0 0)
(0.04559195166839889 0 0)
(0.04307464759247731 0 0)
(0.04291059789068333 0 0)
(0.04415199076865095 0 0)
(0.04686091572438515 0 0)
(0.05083789772282056 0 0)
(0.05684267044361939 0 0)
(0.06346670799216399 0 0)
(0.07084968853547853 0 0)
(0.07902428789282837 0 0)
(0.08803833930355623 0 0)
(0.09785454117559646 0 0)
(0.1083452237622867 0 0)
(0.1193236924279453 0 0)
(0.1305975554824512 0 0)
(0.1419879328733376 0 0)
(0.1533414778429363 0 0)
(0.1645447670643045 0 0)
(0.1755092108731985 0 0)
(0.1861588504428555 0 0)
(0.1963351858069309 0 0)
(0.2057132982936278 0 0)
(0.2140170952133644 0 0)
(0.220701187788486 0 0)
(0.2246544477264446 0 0)
(0.2258583912415253 0 0)
(0.2254670924788202 0 0)
(0.2236665206627132 0 0)
(0.2204595406744221 0 0)
(0.2159302526889204 0 0)
(0.2092785384698407 0 0)
(0.2023004418123839 0 0)
(0.1944818382168937 0 0)
(0.1859137715078206 0 0)
(0.1766345213799703 0 0)
(0.1667036276727457 0 0)
(0.1561936439877107 0 0)
(0.145161809434758 0 0)
(0.1336777196321973 0 0)
(0.1218683942324723 0 0)
(0.1099193434654388 0 0)
(0.09804349695686444 0 0)
(0.08644186281970515 0 0)
(0.07539388082827439 0 0)
(0.06529394742256618 0 0)
(0.05642325677347764 0 0)
(0.04955866302793743 0 0)
(0.04600115212606148 0 0)
(0.04521421060138194 0 0)
(0.04594391755332651 0 0)
(0.04817165236945936 0 0)
(0.05176137045337481 0 0)
(0.05685624573877539 0 0)
(0.06345178680663936 0 0)
(0.07047148429285251 0 0)
(0.07821343339755131 0 0)
(0.08670458181346509 0 0)
(0.09600392280209515 0 0)
(0.1061017479601304 0 0)
(0.1168764130663689 0 0)
(0.1281311903838654 0 0)
(0.1396354536958168 0 0)
(0.1511707011701744 0 0)
(0.1624361630214495 0 0)
(0.1736058625828233 0 0)
(0.1830755490662046 0 0)
(0.1984980921799967 0 0)
)
;

boundaryField
{
    inlet
    {
        type            zeroGradient;
    }
    outlet
    {
        type            pressureInletOutletVelocity;
        value           uniform (0.1984980921799967 0 0);
    }
    frontAndBack
    {
        type            empty;
    }
}


// ************************************************************************* //
