/*--------------------------------*- C++ -*----------------------------------*\
| =========                 |                                                 |
| \\      /  F ield         | OpenFOAM: The Open Source CFD Toolbox           |
|  \\    /   O peration     | Version:  v2012                                 |
|   \\  /    A nd           | Website:  www.openfoam.com                      |
|    \\/     M anipulation  |                                                 |
\*---------------------------------------------------------------------------*/
FoamFile
{
    version     2.0;
    format      ascii;
    class       volVectorField;
    location    "0.016";
    object      UMean;
}
// * * * * * * * * * * * * * * * * * * * * * * * * * * * * * * * * * * * * * //

dimensions      [0 1 -1 0 0 0 0];


internalField   nonuniform List<vector> 
1000
(
(0.0006939889150540263 0 0)
(0.0007062123172157313 0 0)
(0.0007373967269699732 0 0)
(0.0007684018102343639 0 0)
(0.000817837021479846 0 0)
(0.000863094040526049 0 0)
(0.0009221857860397407 0 0)
(0.0009845838171235058 0 0)
(0.001056471857343552 0 0)
(0.001131299521459189 0 0)
(0.001209280581342849 0 0)
(0.001287114922357939 0 0)
(0.001362819690310885 0 0)
(0.00143888712033427 0 0)
(0.001509099895851281 0 0)
(0.0015771527963729 0 0)
(0.0016404350387563 0 0)
(0.001696885073261167 0 0)
(0.001745720195161048 0 0)
(0.001786173879709031 0 0)
(0.001817528298910355 0 0)
(0.001839797175358265 0 0)
(0.001852310113219798 0 0)
(0.001855511967756402 0 0)
(0.001847745016619705 0 0)
(0.001832122267968187 0 0)
(0.001807561738609866 0 0)
(0.001772587986044018 0 0)
(0.001729701491283302 0 0)
(0.001678221669311805 0 0)
(0.001620302646624621 0 0)
(0.001557318705239188 0 0)
(0.001490079501047771 0 0)
(0.001419347170178692 0 0)
(0.001346524006115514 0 0)
(0.001271884052238844 0 0)
(0.001199002755392553 0 0)
(0.001125289627100684 0 0)
(0.001056669876806499 0 0)
(0.0009934375825106426 0 0)
(0.0009363132865462278 0 0)
(0.0008862947909050966 0 0)
(0.0008444324140900926 0 0)
(0.0008115452675757824 0 0)
(0.000788647539745404 0 0)
(0.0007760392041944544 0 0)
(0.000774326244865841 0 0)
(0.0007825007229749658 0 0)
(0.000801718307632258 0 0)
(0.000833490240305469 0 0)
(0.0008739102811130279 0 0)
(0.0009242272789691595 0 0)
(0.000982879188993181 0 0)
(0.001048357094869401 0 0)
(0.00111923431637366 0 0)
(0.001194180689786152 0 0)
(0.001272121299408932 0 0)
(0.001351876483054004 0 0)
(0.001430555692805304 0 0)
(0.001508437871411587 0 0)
(0.00158274042244681 0 0)
(0.001654210239015395 0 0)
(0.001722522660481281 0 0)
(0.001785183439717394 0 0)
(0.001840430599360727 0 0)
(0.001887420264255101 0 0)
(0.001925430717529219 0 0)
(0.001954045796291221 0 0)
(0.001973287994499654 0 0)
(0.001982602693337846 0 0)
(0.001982015573782713 0 0)
(0.001971047383779515 0 0)
(0.001953062849053688 0 0)
(0.001924548191541487 0 0)
(0.001887128837104594 0 0)
(0.001841248136609169 0 0)
(0.001788421522647711 0 0)
(0.001730311729081683 0 0)
(0.001667786659640567 0 0)
(0.001601680909479804 0 0)
(0.001533137654352742 0 0)
(0.001462744871654656 0 0)
(0.00139227971684761 0 0)
(0.001321759961328551 0 0)
(0.001253117187377403 0 0)
(0.001190294705610568 0 0)
(0.001133419016307324 0 0)
(0.00108281322529233 0 0)
(0.001040003846455822 0 0)
(0.001005720539857673 0 0)
(0.0009812139225879285 0 0)
(0.000967262048067224 0 0)
(0.00096374294787672 0 0)
(0.0009713820160382531 0 0)
(0.0009884206732642951 0 0)
(0.001018899743802601 0 0)
(0.001059772661622919 0 0)
(0.001109556292480714 0 0)
(0.001168368792977513 0 0)
(0.001234208721661144 0 0)
(0.001305627577335065 0 0)
(0.001381389385877681 0 0)
(0.001460568994072369 0 0)
(0.001541886719586708 0 0)
(0.001623669618967201 0 0)
(0.001703702312457093 0 0)
(0.001782221686379546 0 0)
(0.00185543895808891 0 0)
(0.001927889641621366 0 0)
(0.001995905177228094 0 0)
(0.002057310578755906 0 0)
(0.002110919733161154 0 0)
(0.002155600152533524 0 0)
(0.002191138422494684 0 0)
(0.002217147209618934 0 0)
(0.002232949411390632 0 0)
(0.002239187297945346 0 0)
(0.002234004416868077 0 0)
(0.002220846368678823 0 0)
(0.002199565394749132 0 0)
(0.002167762382692964 0 0)
(0.002127689700717974 0 0)
(0.002079999032487735 0 0)
(0.002026642787560214 0 0)
(0.001968852320624941 0 0)
(0.001907154409828203 0 0)
(0.001842705354730138 0 0)
(0.001776454399451662 0 0)
(0.001709203197028546 0 0)
(0.00164249204806073 0 0)
(0.001573754221522611 0 0)
(0.001511745245216464 0 0)
(0.001455246632632766 0 0)
(0.001404787271335811 0 0)
(0.001361343365266816 0 0)
(0.001325844451289768 0 0)
(0.001299907272090577 0 0)
(0.001284165030642678 0 0)
(0.001279065141081609 0 0)
(0.001285195102925862 0 0)
(0.001301454119541849 0 0)
(0.001328496071629638 0 0)
(0.00137003824389983 0 0)
(0.00141963452365885 0 0)
(0.00147847974923798 0 0)
(0.001544610167578751 0 0)
(0.001616530203438593 0 0)
(0.00169322756438983 0 0)
(0.00177359317458757 0 0)
(0.001856412643955203 0 0)
(0.001940691167277494 0 0)
(0.002023917135658666 0 0)
(0.002106141051646229 0 0)
(0.002181381387187084 0 0)
(0.002256870755951531 0 0)
(0.002329183493522684 0 0)
(0.002396340407492726 0 0)
(0.002456035012495264 0 0)
(0.002507350262623604 0 0)
(0.002549591708025905 0 0)
(0.002582398177414164 0 0)
(0.002605217359694705 0 0)
(0.002617876308140911 0 0)
(0.002620149991384016 0 0)
(0.002610569955719282 0 0)
(0.002596228701945125 0 0)
(0.002570902315706114 0 0)
(0.002536364472916238 0 0)
(0.002493957440231063 0 0)
(0.002445342287658944 0 0)
(0.002392206785915425 0 0)
(0.002334893534098805 0 0)
(0.002274509422216103 0 0)
(0.002212136332488014 0 0)
(0.00214879367625531 0 0)
(0.002085260315976196 0 0)
(0.002019186039529795 0 0)
(0.001956590232846637 0 0)
(0.001900820775851738 0 0)
(0.001850973764670519 0 0)
(0.001807411607992946 0 0)
(0.001771353089050891 0 0)
(0.001744140037373818 0 0)
(0.001726862171399944 0 0)
(0.001720434222643386 0 0)
(0.001724857296196253 0 0)
(0.001740602569156526 0 0)
(0.00176496529901194 0 0)
(0.001805722850695557 0 0)
(0.001855773030727557 0 0)
(0.001914387944344432 0 0)
(0.001981069793344569 0 0)
(0.002053806846731052 0 0)
(0.002131506785588245 0 0)
(0.002213330303372821 0 0)
(0.002297879181451301 0 0)
(0.002384568083482484 0 0)
(0.002471409729711783 0 0)
(0.00255667763209701 0 0)
(0.002637777956253755 0 0)
(0.002713445755523863 0 0)
(0.002790365380321846 0 0)
(0.002862820724206021 0 0)
(0.00292848696952132 0 0)
(0.002986462863017004 0 0)
(0.003035455176233565 0 0)
(0.003075280833082182 0 0)
(0.003105452588060261 0 0)
(0.003125166022117157 0 0)
(0.003134720723835963 0 0)
(0.00313149810234319 0 0)
(0.003122131415431494 0 0)
(0.003103772390892457 0 0)
(0.003074387819687009 0 0)
(0.003036942186152057 0 0)
(0.002992063090575687 0 0)
(0.002941921189622595 0 0)
(0.00288725725424652 0 0)
(0.002828853417670937 0 0)
(0.002767832614351355 0 0)
(0.002705337096509941 0 0)
(0.002641425676706719 0 0)
(0.002577151567086805 0 0)
(0.00250744494986598 0 0)
(0.002448293350569235 0 0)
(0.002393185818272667 0 0)
(0.002343276328481463 0 0)
(0.002299373449642884 0 0)
(0.00226245157001887 0 0)
(0.002233929908588766 0 0)
(0.002215149788547689 0 0)
(0.002205502467059925 0 0)
(0.002206729211369918 0 0)
(0.002215630882281436 0 0)
(0.00223712197944632 0 0)
(0.002271332166262144 0 0)
(0.002312454549167591 0 0)
(0.002362442720365726 0 0)
(0.002419454641126084 0 0)
(0.002482411381001113 0 0)
(0.002550606969288271 0 0)
(0.002622777483750051 0 0)
(0.002698346066822023 0 0)
(0.002776693724308333 0 0)
(0.002855829902523666 0 0)
(0.002934108118145934 0 0)
(0.003001656362442621 0 0)
(0.003077102554530786 0 0)
(0.003150405014341482 0 0)
(0.00322051366245497 0 0)
(0.003285906974698906 0 0)
(0.003345258183652727 0 0)
(0.003398213008857809 0 0)
(0.003444286888963682 0 0)
(0.003481944942045033 0 0)
(0.003511797263341821 0 0)
(0.003530548191565225 0 0)
(0.003540611659876453 0 0)
(0.00354618432859634 0 0)
(0.003539958947372119 0 0)
(0.003525168568864329 0 0)
(0.003501531803935662 0 0)
(0.003470880370778411 0 0)
(0.003434767885048483 0 0)
(0.003393906464342908 0 0)
(0.003348971565450891 0 0)
(0.00330175966719674 0 0)
(0.003252308396512602 0 0)
(0.003202110139689508 0 0)
(0.003139991376816101 0 0)
(0.003089616107307702 0 0)
(0.003041780594378667 0 0)
(0.002998215619596663 0 0)
(0.002958618695611294 0 0)
(0.002924206165859775 0 0)
(0.00289629743047338 0 0)
(0.002876364855565236 0 0)
(0.00286470745299439 0 0)
(0.002862708777385616 0 0)
(0.00286889748822871 0 0)
(0.002882928689308941 0 0)
(0.002913869408127232 0 0)
(0.002952366298446629 0 0)
(0.002999198982737947 0 0)
(0.003054050595388647 0 0)
(0.003115681312069666 0 0)
(0.003183311092394161 0 0)
(0.00325563910545675 0 0)
(0.003331634654801477 0 0)
(0.003411187676570224 0 0)
(0.003492842927625297 0 0)
(0.003575941899542642 0 0)
(0.00364476868500677 0 0)
(0.003721658241573088 0 0)
(0.00379826573513145 0 0)
(0.003872757438499367 0 0)
(0.003942998776942093 0 0)
(0.00400771018041833 0 0)
(0.00406627276928418 0 0)
(0.004117872285551276 0 0)
(0.004162134439197615 0 0)
(0.004197703350785084 0 0)
(0.004224196350914125 0 0)
(0.004236879319777287 0 0)
(0.004248860928807401 0 0)
(0.004249784109134846 0 0)
(0.004240170146024182 0 0)
(0.004221841344052777 0 0)
(0.004195854109818051 0 0)
(0.004164000762008677 0 0)
(0.004127543349728688 0 0)
(0.004086615053524453 0 0)
(0.004043316324661343 0 0)
(0.003997713608296231 0 0)
(0.003952176794241159 0 0)
(0.003894731026114746 0 0)
(0.003842861876759514 0 0)
(0.003796946432903263 0 0)
(0.003754862126298667 0 0)
(0.003716563906078392 0 0)
(0.00368314782978195 0 0)
(0.003655319851143624 0 0)
(0.003634866937181408 0 0)
(0.003623051530631068 0 0)
(0.003619437649345702 0 0)
(0.003626086236475737 0 0)
(0.003636574963623655 0 0)
(0.003666054052892194 0 0)
(0.003705137177110928 0 0)
(0.003751272075888966 0 0)
(0.003806358915621584 0 0)
(0.003868624502607066 0 0)
(0.003937080359285988 0 0)
(0.004010729522960628 0 0)
(0.004088408622164726 0 0)
(0.004169759298725924 0 0)
(0.004253752938974949 0 0)
(0.004339857161983781 0 0)
(0.004417375220719029 0 0)
(0.004490579238405549 0 0)
(0.004571071761828447 0 0)
(0.004648693759398749 0 0)
(0.004723334588784556 0 0)
(0.004792958540194942 0 0)
(0.00485649595162108 0 0)
(0.004913482259650116 0 0)
(0.00496387153179728 0 0)
(0.005005146930952119 0 0)
(0.005039243949809365 0 0)
(0.005057992132028017 0 0)
(0.005074991643540614 0 0)
(0.005083180781321825 0 0)
(0.005079628649567212 0 0)
(0.005067536193590173 0 0)
(0.005047079305497547 0 0)
(0.005020083939022376 0 0)
(0.004988393585088339 0 0)
(0.004952110881750907 0 0)
(0.004912752643340281 0 0)
(0.004871385855147225 0 0)
(0.004829198407658291 0 0)
(0.004782702445222383 0 0)
(0.004724618911507513 0 0)
(0.004682571065106872 0 0)
(0.004641457237251027 0 0)
(0.00460495636056616 0 0)
(0.004572901623669131 0 0)
(0.004545917140107962 0 0)
(0.004525651469294196 0 0)
(0.004513742898037191 0 0)
(0.004509432050784856 0 0)
(0.004516124024352269 0 0)
(0.004526783385841655 0 0)
(0.004552549619752509 0 0)
(0.004591510703480492 0 0)
(0.004637302159485959 0 0)
(0.004692508825046457 0 0)
(0.004755324730569565 0 0)
(0.00482455644476003 0 0)
(0.004899452562073409 0 0)
(0.004978936030920627 0 0)
(0.005061915327891713 0 0)
(0.005148475493120865 0 0)
(0.005236799449786549 0 0)
(0.005325719038969435 0 0)
(0.005393167198923566 0 0)
(0.005478359270284624 0 0)
(0.00555887105447365 0 0)
(0.00563782888954725 0 0)
(0.005712203371665133 0 0)
(0.005781014281187527 0 0)
(0.005843269811488908 0 0)
(0.005899192735417484 0 0)
(0.005946525331118357 0 0)
(0.005987233584388819 0 0)
(0.006014083556958159 0 0)
(0.006034105682938131 0 0)
(0.006049540852726906 0 0)
(0.006053087707666095 0 0)
(0.006047509060527944 0 0)
(0.006033136639198087 0 0)
(0.006011468138056498 0 0)
(0.005984559652172876 0 0)
(0.005953347502059692 0 0)
(0.005918341045650678 0 0)
(0.005881466499031882 0 0)
(0.005842980347241865 0 0)
(0.005806708194814029 0 0)
(0.005745978990127522 0 0)
(0.005705972103557912 0 0)
(0.005666944705465749 0 0)
(0.005632501183176362 0 0)
(0.005602353587965517 0 0)
(0.005577087153744828 0 0)
(0.005557659525222699 0 0)
(0.005545832528960903 0 0)
(0.005542138951513261 0 0)
(0.005548190423909264 0 0)
(0.005560865276485193 0 0)
(0.005581761302341838 0 0)
(0.005620668085366784 0 0)
(0.005667717444470243 0 0)
(0.005723157292753295 0 0)
(0.005786719921403072 0 0)
(0.005857140120529097 0 0)
(0.005933244568740963 0 0)
(0.006014766389099579 0 0)
(0.006099824245810692 0 0)
(0.006188933399871307 0 0)
(0.006280104456403037 0 0)
(0.006376395672567529 0 0)
(0.006447408974981403 0 0)
(0.006531992996750963 0 0)
(0.006617071415810462 0 0)
(0.006700057653496063 0 0)
(0.006779478437996183 0 0)
(0.006853873831471281 0 0)
(0.00692169265519788 0 0)
(0.006983107487503654 0 0)
(0.007037347647919277 0 0)
(0.007083430501882267 0 0)
(0.00712003935442218 0 0)
(0.007141949243486496 0 0)
(0.007164344410245492 0 0)
(0.007177046283473639 0 0)
(0.007178096009146028 0 0)
(0.007170479242787248 0 0)
(0.007154869739354834 0 0)
(0.007133188486492604 0 0)
(0.007107392798845732 0 0)
(0.007077492668484413 0 0)
(0.007045245477895425 0 0)
(0.007011243983121207 0 0)
(0.006979776187570341 0 0)
(0.006930483867018123 0 0)
(0.006884965488828019 0 0)
(0.006850316989237505 0 0)
(0.006817682517558925 0 0)
(0.006790052789864769 0 0)
(0.006767080015807113 0 0)
(0.006749451749966974 0 0)
(0.006738431689105766 0 0)
(0.006736116569889991 0 0)
(0.006741375759132085 0 0)
(0.006757345599119537 0 0)
(0.006774251376773596 0 0)
(0.00681201562713338 0 0)
(0.006861382441223741 0 0)
(0.006916470641797743 0 0)
(0.006980737601482409 0 0)
(0.007052303392995195 0 0)
(0.007129645365598918 0 0)
(0.00721268408162557 0 0)
(0.007299987599803025 0 0)
(0.007391196964644576 0 0)
(0.007485249163380941 0 0)
(0.007583086793420874 0 0)
(0.00767116809678596 0 0)
(0.007746426580026264 0 0)
(0.007837811739772356 0 0)
(0.007923674120885182 0 0)
(0.008007949254026533 0 0)
(0.008087559456668739 0 0)
(0.008161256380010988 0 0)
(0.008228092910747766 0 0)
(0.008288680675024113 0 0)
(0.008340165722417341 0 0)
(0.008385417221730878 0 0)
(0.008413458801736457 0 0)
(0.00844039846842303 0 0)
(0.00846088265658078 0 0)
(0.008468268924898058 0 0)
(0.008467506408475281 0 0)
(0.008458137421864532 0 0)
(0.008442030672911988 0 0)
(0.00842117784618001 0 0)
(0.008396681051778817 0 0)
(0.008369163614772725 0 0)
(0.008340145279696978 0 0)
(0.008310841141205954 0 0)
(0.008280521534208569 0 0)
(0.008224329268240823 0 0)
(0.008195986064630149 0 0)
(0.008164727894318919 0 0)
(0.008139803015558219 0 0)
(0.008119350273383107 0 0)
(0.008104338291476446 0 0)
(0.008095018739162267 0 0)
(0.008094070721331106 0 0)
(0.008100073968907436 0 0)
(0.008117845793540929 0 0)
(0.008137338347860682 0 0)
(0.008172201423901923 0 0)
(0.008221710576789897 0 0)
(0.008277850915617049 0 0)
(0.008343204237365964 0 0)
(0.008416349302541381 0 0)
(0.008495651701243091 0 0)
(0.008580370431315494 0 0)
(0.008670449850776168 0 0)
(0.008764411380942352 0 0)
(0.008861986685575762 0 0)
(0.00896178788583717 0 0)
(0.00906678305200254 0 0)
(0.009135444392629791 0 0)
(0.00923201347991435 0 0)
(0.009322282221926723 0 0)
(0.009411635901911334 0 0)
(0.009497044833092081 0 0)
(0.009577283336811123 0 0)
(0.009650716723412526 0 0)
(0.009717560788907644 0 0)
(0.009776239057366442 0 0)
(0.00982844405940648 0 0)
(0.009866401399433344 0 0)
(0.009896859692283976 0 0)
(0.009924070952022272 0 0)
(0.009940566577915921 0 0)
(0.009947034936192827 0 0)
(0.009944962232436887 0 0)
(0.009935409534251696 0 0)
(0.009920171089904822 0 0)
(0.009901625416719021 0 0)
(0.00987975713954301 0 0)
(0.009856236379859088 0 0)
(0.009831341060650272 0 0)
(0.009812375112615259 0 0)
(0.009759804967312559 0 0)
(0.009730107373230655 0 0)
(0.009703979620786826 0 0)
(0.009681623746412947 0 0)
(0.009664321062798619 0 0)
(0.009652391831736763 0 0)
(0.009645909533833938 0 0)
(0.00964635718635763 0 0)
(0.009654832660977091 0 0)
(0.009672404659429564 0 0)
(0.009696909824680871 0 0)
(0.009727001578714643 0 0)
(0.009776252881958675 0 0)
(0.009836194286899613 0 0)
(0.009901978182339406 0 0)
(0.009976700194554232 0 0)
(0.01005786892835964 0 0)
(0.01014444688093103 0 0)
(0.01023645928155093 0 0)
(0.01033312604921138 0 0)
(0.01043356522842295 0 0)
(0.01053669008166865 0 0)
(0.01064559472942873 0 0)
(0.01073047773950984 0 0)
(0.01081800709901787 0 0)
(0.01091613693982885 0 0)
(0.01100902939189085 0 0)
(0.0110999368693972 0 0)
(0.01118621492964937 0 0)
(0.01126643087665792 0 0)
(0.01133931845773883 0 0)
(0.01140551769805176 0 0)
(0.01146257908562834 0 0)
(0.01151237090673563 0 0)
(0.01154328841260398 0 0)
(0.01157690057883342 0 0)
(0.01160462911381712 0 0)
(0.01161744583032102 0 0)
(0.01162273392304341 0 0)
(0.01161977063878871 0 0)
(0.01161048672094523 0 0)
(0.01159707453307719 0 0)
(0.01158094616321571 0 0)
(0.01156274350067427 0 0)
(0.01154306579347348 0 0)
(0.01152568522500382 0 0)
(0.01149708555845655 0 0)
(0.0114538233749734 0 0)
(0.01143588965920972 0 0)
(0.01141534142671684 0 0)
(0.01140123806139567 0 0)
(0.01139235519851238 0 0)
(0.01138921274097833 0 0)
(0.01139199701842365 0 0)
(0.01140311066905896 0 0)
(0.01142082530729487 0 0)
(0.01145025905397113 0 0)
(0.01147862362192134 0 0)
(0.01152663012996224 0 0)
(0.01158959173781112 0 0)
(0.0116558825562081 0 0)
(0.01173185943776948 0 0)
(0.01181499570501213 0 0)
(0.01190369092237741 0 0)
(0.01199737485450164 0 0)
(0.01209652657028325 0 0)
(0.01219993609135577 0 0)
(0.01230647293868223 0 0)
(0.01241524406976004 0 0)
(0.01252463301808459 0 0)
(0.01259795771698114 0 0)
(0.01270483524729774 0 0)
(0.01280104870945221 0 0)
(0.01289705683201722 0 0)
(0.01298904760824584 0 0)
(0.01307596193368398 0 0)
(0.01315584892653779 0 0)
(0.01322896064776493 0 0)
(0.01329244711372056 0 0)
(0.01335062718675151 0 0)
(0.01339082439825357 0 0)
(0.01342847919401729 0 0)
(0.01346250508003853 0 0)
(0.0134833684899387 0 0)
(0.01349523969311756 0 0)
(0.01349932882197822 0 0)
(0.01349621227100673 0 0)
(0.01348806127404123 0 0)
(0.0134771711900828 0 0)
(0.01346453528071344 0 0)
(0.01345052818894129 0 0)
(0.01343534818690736 0 0)
(0.01342772074881712 0 0)
(0.01337551454545776 0 0)
(0.0133630800251626 0 0)
(0.01334605920307974 0 0)
(0.0133350019554371 0 0)
(0.01332900061437448 0 0)
(0.0133292516793882 0 0)
(0.01333534589140165 0 0)
(0.01334850772364992 0 0)
(0.01336851369383708 0 0)
(0.01339902457414074 0 0)
(0.01343221097894068 0 0)
(0.01347741145185945 0 0)
(0.01353894805344572 0 0)
(0.01360887647062518 0 0)
(0.01368530656786969 0 0)
(0.01377038935702547 0 0)
(0.01386123114981525 0 0)
(0.01395688762066081 0 0)
(0.01405770928309807 0 0)
(0.01416393428435288 0 0)
(0.01427381531178211 0 0)
(0.01438517388229691 0 0)
(0.01450527150881785 0 0)
(0.01458423281601189 0 0)
(0.01468779153001571 0 0)
(0.01479112243822107 0 0)
(0.01489141844865092 0 0)
(0.01498846169865048 0 0)
(0.01508167080312307 0 0)
(0.01516860019753486 0 0)
(0.01524836123823936 0 0)
(0.01531978857328335 0 0)
(0.01538323911593469 0 0)
(0.0154352125875651 0 0)
(0.01547469081934254 0 0)
(0.01551390704859617 0 0)
(0.01554597763268576 0 0)
(0.01556410644965216 0 0)
(0.01557521758483747 0 0)
(0.01557861337694362 0 0)
(0.01557620534495638 0 0)
(0.01556993954400103 0 0)
(0.01556260102940689 0 0)
(0.0155538622594584 0 0)
(0.015543952441612 0 0)
(0.01553852764543452 0 0)
(0.01550993054889572 0 0)
(0.01548301437038046 0 0)
(0.01547507783927232 0 0)
(0.0154660411669264 0 0)
(0.01546272535468492 0 0)
(0.01546568892836928 0 0)
(0.0154750282435698 0 0)
(0.01549084197012992 0 0)
(0.01551387689576978 0 0)
(0.01554357277591173 0 0)
(0.01558406343406585 0 0)
(0.01562146812755882 0 0)
(0.01568280765526033 0 0)
(0.01575912343265167 0 0)
(0.01583552251143715 0 0)
(0.01592191621772832 0 0)
(0.01601492677791433 0 0)
(0.01611276884829408 0 0)
(0.0162151361155635 0 0)
(0.01632321883879441 0 0)
(0.01643602025393643 0 0)
(0.01655125964102036 0 0)
(0.01666901409118133 0 0)
(0.01677888221669989 0 0)
(0.01686172258906445 0 0)
(0.01697639836772664 0 0)
(0.01707952119323127 0 0)
(0.01718150881224107 0 0)
(0.01727966425905367 0 0)
(0.01737319476243061 0 0)
(0.0174602021640885 0 0)
(0.01753938244621015 0 0)
(0.01760818556798784 0 0)
(0.01767170228320932 0 0)
(0.01771348333610957 0 0)
(0.01775839340568287 0 0)
(0.01780063360054869 0 0)
(0.0178250762954289 0 0)
(0.01784253447395153 0 0)
(0.01785247346562513 0 0)
(0.01785598111354942 0 0)
(0.01785464261810752 0 0)
(0.01785127181672357 0 0)
(0.01784788463204385 0 0)
(0.01784345455207158 0 0)
(0.01783749447570893 0 0)
(0.01783853849360989 0 0)
(0.01779154343965746 0 0)
(0.01779485435425923 0 0)
(0.01778768434022804 0 0)
(0.01778781409526037 0 0)
(0.01779251061346558 0 0)
(0.01780462230014941 0 0)
(0.017823514669461 0 0)
(0.0178490977778751 0 0)
(0.0178802539190221 0 0)
(0.0179224143568975 0 0)
(0.01796318076260618 0 0)
(0.01802156049381208 0 0)
(0.01809608201949816 0 0)
(0.01817449135117506 0 0)
(0.01826053523027097 0 0)
(0.01835463641154585 0 0)
(0.01845427445384511 0 0)
(0.01855804257304472 0 0)
(0.01866638585120946 0 0)
(0.01878135421041125 0 0)
(0.01889968037151499 0 0)
(0.01901728084478434 0 0)
(0.01914731481707401 0 0)
(0.01921897015230524 0 0)
(0.01933893044879053 0 0)
(0.01944641069279182 0 0)
(0.01955283627949688 0 0)
(0.01965453790639878 0 0)
(0.01975297759833818 0 0)
(0.01984618992029667 0 0)
(0.01993231916569037 0 0)
(0.02000831152396951 0 0)
(0.02007692847268076 0 0)
(0.02013013024234687 0 0)
(0.02017733440282448 0 0)
(0.02022220656394971 0 0)
(0.02025739221735586 0 0)
(0.02027987598300801 0 0)
(0.02029562518623499 0 0)
(0.02030480389682449 0 0)
(0.0203083563119375 0 0)
(0.02030806847164039 0 0)
(0.02030852741061142 0 0)
(0.02030839601127588 0 0)
(0.0203061414847948 0 0)
(0.02031281354367014 0 0)
(0.02027958738017909 0 0)
(0.02027209089311884 0 0)
(0.02027231595945859 0 0)
(0.02027396107622506 0 0)
(0.02027989529660184 0 0)
(0.0202925398372271 0 0)
(0.0203129344199132 0 0)
(0.02034071991175689 0 0)
(0.02037385252155501 0 0)
(0.02041416482180148 0 0)
(0.0204617754557135 0 0)
(0.02051103599339492 0 0)
(0.02058249981765805 0 0)
(0.02066713727678587 0 0)
(0.02075142581643067 0 0)
(0.02084575144362936 0 0)
(0.02094628082088511 0 0)
(0.02105156581749945 0 0)
(0.02116025247718736 0 0)
(0.02127534351993136 0 0)
(0.02139537479237323 0 0)
(0.02151676192766389 0 0)
(0.02164155082847805 0 0)
(0.02174745527722954 0 0)
(0.02184114237537218 0 0)
(0.02196079793380356 0 0)
(0.02206912388986719 0 0)
(0.02217479618609441 0 0)
(0.0222760700130407 0 0)
(0.0223738401681928 0 0)
(0.02246640242029962 0 0)
(0.02254984798388343 0 0)
(0.02262215596178006 0 0)
(0.02268908868108255 0 0)
(0.02272992879467519 0 0)
(0.02278023378853927 0 0)
(0.02282971872499004 0 0)
(0.02285600398362524 0 0)
(0.02287739189788533 0 0)
(0.02289130210389649 0 0)
(0.02290006370491011 0 0)
(0.02290367590972826 0 0)
(0.02290599628958947 0 0)
(0.02290933640158851 0 0)
(0.022912066938891 0 0)
(0.02291333309454652 0 0)
(0.02291813726535954 0 0)
(0.02287688980216643 0 0)
(0.02289165025204471 0 0)
(0.02289293136185081 0 0)
(0.02290095241829722 0 0)
(0.02291293578562846 0 0)
(0.02293274805906645 0 0)
(0.02296181360268044 0 0)
(0.02299684201164658 0 0)
(0.02303639781964853 0 0)
(0.02308705639645469 0 0)
(0.02313125706912607 0 0)
(0.02319981132128773 0 0)
(0.02328568727717695 0 0)
(0.02336914893484867 0 0)
(0.0234621836256213 0 0)
(0.02356220835012793 0 0)
(0.02366829794327306 0 0)
(0.02377791972230746 0 0)
(0.02389182930425399 0 0)
(0.02401239479082535 0 0)
(0.0241368831971356 0 0)
(0.02425723311617224 0 0)
(0.02439600125880129 0 0)
(0.02445657855286239 0 0)
(0.02459163168588813 0 0)
(0.02470149680759426 0 0)
(0.02481178892845515 0 0)
(0.0249155520542367 0 0)
(0.02501536107940773 0 0)
(0.02511249764253265 0 0)
(0.02520270592684039 0 0)
(0.02528172879941422 0 0)
(0.02535286659299128 0 0)
(0.0254050811688373 0 0)
(0.02545651425956002 0 0)
(0.02550605384451442 0 0)
(0.02554259713909555 0 0)
(0.02556738641471779 0 0)
(0.02558572511150543 0 0)
(0.02559838562159502 0 0)
(0.02560656548333591 0 0)
(0.02561055226560462 0 0)
(0.02561608741106892 0 0)
(0.02562182899044516 0 0)
(0.02562405458148252 0 0)
(0.02563998756258747 0 0)
(0.02559860190172837 0 0)
(0.02560816514122935 0 0)
(0.02561399332954237 0 0)
(0.0256233123907866 0 0)
(0.02563528748629294 0 0)
(0.02565275645908382 0 0)
(0.02567999339847536 0 0)
(0.0257160530987183 0 0)
(0.02575700893491228 0 0)
(0.02580408368336064 0 0)
(0.02585544058501426 0 0)
(0.02591361192257804 0 0)
(0.02599120593060529 0 0)
(0.02608123817429066 0 0)
(0.02617026001903202 0 0)
(0.02626912588493518 0 0)
(0.026373844500656 0 0)
(0.0264840026603816 0 0)
(0.0265971528658159 0 0)
(0.02671686986320429 0 0)
(0.02684050904442409 0 0)
(0.02696483401232686 0 0)
(0.02709359843366974 0 0)
(0.02719327529477296 0 0)
(0.02729496057929567 0 0)
(0.02741724016050955 0 0)
(0.02752873687224558 0 0)
(0.02763582603228799 0 0)
(0.02773705279307732 0 0)
(0.02783472322571087 0 0)
(0.02792973937631227 0 0)
(0.0280161758265958 0 0)
(0.0280896545386018 0 0)
(0.02815747348071489 0 0)
(0.02819705521915387 0 0)
(0.02824793463580398 0 0)
(0.02830234034123554 0 0)
(0.02832791108522932 0 0)
(0.02835068651957092 0 0)
(0.02836580938789355 0 0)
(0.02837706462535673 0 0)
(0.02838400244633659 0 0)
(0.02839114634305191 0 0)
(0.02839683446255436 0 0)
(0.02840387938392264 0 0)
(0.02840895448396097 0 0)
(0.02841550293533655 0 0)
(0.02837565019625181 0 0)
(0.0283990540244967 0 0)
(0.02840603903068702 0 0)
(0.02841933636958826 0 0)
(0.02843549350388285 0 0)
(0.02845810642560958 0 0)
(0.02849197736160866 0 0)
(0.02853405679705255 0 0)
(0.02857947365871209 0 0)
(0.02863574247023208 0 0)
(0.02868023459100866 0 0)
(0.02875354460669762 0 0)
(0.02884864303060737 0 0)
(0.02893437945451052 0 0)
(0.0290312315006562 0 0)
(0.02913403323872502 0 0)
(0.0292427107065451 0 0)
(0.02935535806535311 0 0)
(0.02947484617871842 0 0)
(0.02959712530444432 0 0)
(0.02972368364019219 0 0)
(0.02984411153985249 0 0)
(0.02998847136492459 0 0)
(0.03003490533198425 0 0)
(0.03018218292524652 0 0)
(0.03029231539672559 0 0)
(0.03040399870876656 0 0)
(0.03050784825521198 0 0)
(0.0306060348009569 0 0)
(0.03070128053904016 0 0)
(0.03079216522855258 0 0)
(0.03087340084036893 0 0)
(0.03094503986479558 0 0)
(0.03099503715008902 0 0)
(0.03104516165280169 0 0)
(0.03109714338240699 0 0)
(0.03113313136320068 0 0)
(0.03115757514117889 0 0)
(0.03117606384561215 0 0)
(0.03118939134488102 0 0)
(0.03119801129781234 0 0)
(0.03120620176803535 0 0)
(0.03121559907728182 0 0)
(0.03122175964884553 0 0)
(0.03122604667126329 0 0)
(0.03124644404355839 0 0)
(0.03119546261057958 0 0)
(0.03121760798621191 0 0)
(0.0312271400063228 0 0)
(0.03124061907401797 0 0)
(0.03125643261390664 0 0)
(0.03127715157074439 0 0)
(0.0313062166133359 0 0)
(0.03134414268547842 0 0)
(0.0313916385144247 0 0)
(0.03144416813210481 0 0)
(0.03150138981557375 0 0)
(0.03155941455878255 0 0)
(0.03164014565929463 0 0)
(0.03173790048383902 0 0)
(0.03182758434921586 0 0)
(0.03192955283084207 0 0)
(0.03203701308855953 0 0)
(0.03214901019766177 0 0)
(0.0322638853133971 0 0)
(0.03239018920064873 0 0)
(0.03251471615134135 0 0)
(0.03263838634709632 0 0)
(0.03276769858043221 0 0)
(0.03286211591414825 0 0)
(0.03296258463667422 0 0)
(0.03309226390615826 0 0)
(0.03320326824537816 0 0)
(0.03330932581441609 0 0)
(0.03341058847197797 0 0)
(0.03351015547613532 0 0)
(0.03360160722085159 0 0)
(0.03368192671748284 0 0)
(0.03376553574430322 0 0)
(0.03390835710979874 0 0)
(0.03390105748968002 0 0)
)
;

boundaryField
{
    inlet
    {
        type            calculated;
        value           uniform (0.0006939889150540263 0 0);
    }
    outlet
    {
        type            calculated;
        value           uniform (0.03390105748968002 0 0);
    }
    frontAndBack
    {
        type            empty;
    }
}


// ************************************************************************* //
