/*--------------------------------*- C++ -*----------------------------------*\
| =========                 |                                                 |
| \\      /  F ield         | OpenFOAM: The Open Source CFD Toolbox           |
|  \\    /   O peration     | Version:  v2012                                 |
|   \\  /    A nd           | Website:  www.openfoam.com                      |
|    \\/     M anipulation  |                                                 |
\*---------------------------------------------------------------------------*/
FoamFile
{
    version     2.0;
    format      ascii;
    class       volScalarField;
    location    "0.0155";
    object      p;
}
// * * * * * * * * * * * * * * * * * * * * * * * * * * * * * * * * * * * * * //

dimensions      [1 -1 -2 0 0 0 0];


internalField   nonuniform List<scalar> 
1000
(
101339.1678305035
101336.7030504939
101343.5465945502
101349.0046495002
101355.112381141
101360.6566568841
101365.4732436508
101369.6265677913
101373.1491643051
101375.5145453887
101376.2758899877
101376.3056509402
101375.9219920124
101374.8250829164
101372.7218106858
101369.5429242915
101365.4107876435
101360.5178474376
101355.0249513262
101349.0411427004
101342.6534674712
101335.9575208139
101329.0666111606
101322.1038616145
101315.1920203416
101308.4503462949
101301.9905402939
101295.8972699151
101290.2041250945
101284.923113031
101280.2231942705
101276.6785073294
101274.9081799272
101274.5516408552
101274.5995031047
101274.9637273
101275.8686912315
101277.5446037739
101280.177094309
101283.8430924658
101288.4838066764
101293.9310838346
101299.9716222108
101306.4091379028
101313.0939934121
101319.9175456574
101326.7895793126
101333.6195069055
101340.3134218226
101346.7910403528
101353.0079578456
101358.9454410813
101364.5363555573
101369.48251068
101373.0562648748
101374.6853599227
101375.0150469593
101375.0277306732
101374.7445347111
101374.0136250474
101372.6351178058
101370.4233756284
101367.2484643216
101363.0711505421
101357.9558862782
101352.0573849721
101345.583424252
101338.748918672
101331.7406026334
101324.7022132323
101317.7369067539
101310.9166553541
101304.2867546224
101297.8670363625
101291.6808262802
101285.853508963
101280.8112476398
101277.3675811746
101275.9132351487
101275.6396397961
101275.6559978569
101275.9483249312
101276.6545283395
101277.9435243476
101279.9826364943
101282.9044743625
101286.7765542653
101291.5821199578
101297.2181339501
101303.5122660922
101310.2546828772
101317.235012866
101324.2739297408
101331.2416509811
101338.0608437209
101344.7007387003
101351.1632489697
101357.433991591
101363.3792160834
101368.582677406
101372.2288886972
101373.8105414639
101374.1467000641
101374.2067989701
101373.9969791362
101373.432798716
101372.3437967116
101370.5718969384
101367.9802423306
101364.4767781396
101360.0327159871
101354.6950038345
101348.5863417397
101341.8893674243
101334.8178585507
101327.5815301636
101320.3535309323
101313.2511069659
101306.3327045692
101299.6120461052
101293.1122536405
101286.9893015039
101281.7190468908
101278.1412133113
101276.6411599427
101276.3347371407
101276.2988040071
101276.5207519282
101277.0848965397
101278.1386455069
101279.8250340447
101282.2730986644
101285.5754878931
101289.7718073456
101294.8371307566
101300.6788044391
101307.1445076104
101314.0421725619
101321.1695536293
101328.3469320789
101335.4415784871
101342.3777832337
101349.1301970718
101355.6716413943
101361.8537629133
101367.2589595564
101371.1018500293
101372.8253660597
101373.2226057404
101373.3264587331
101373.1832723966
101372.7473005985
101371.866474833
101370.4003914913
101368.2211854053
101365.2271457465
101361.3570538503
101356.60448818
101351.0267217999
101344.7438273338
101337.9265325217
101330.7730151156
101323.4778460559
101316.203211004
101309.0622208516
101302.118390437
101295.4288339583
101289.1695239842
101283.8089183671
101280.1443009598
101278.5775382702
101278.2283572823
101278.147735384
101278.3085468143
101278.7540956269
101279.619416108
101281.0282800138
101283.0983298483
101285.9254308068
101289.5701085632
101294.0465296933
101299.3153919643
101305.2829038419
101311.8078580434
101318.7182639961
101325.8363234816
101333.0039305392
101340.1000338542
101347.0478383574
101353.7828529434
101360.138470659
101365.7040609826
101369.7497099578
101371.6766251251
101372.1550206685
101372.2919427446
101372.2157364588
101371.8950041479
101371.2006600734
101370.0055418974
101368.1917863464
101365.6577486438
101362.3268635827
101358.1598437305
101353.1648983109
101347.4025682138
101340.9837693521
101334.0594286193
101326.800811862
101319.3761684243
101311.9327051471
101304.5871343157
101297.4529599293
101290.7612869471
101285.0352794412
101281.0979547582
101279.3735032038
101278.9740342493
101278.8674693176
101278.9781376976
101279.3329133986
101280.0534167903
101281.2537567855
101283.0429340724
101285.5153800867
101288.7410370008
101292.7560499299
101297.5555908101
101303.0898137054
101309.2644308908
101315.9481300382
101322.9882288887
101330.2303529591
101337.5343892846
101344.7860403838
101351.8813610671
101358.6211284143
101364.5585351819
101368.9462889263
101371.1387892403
101371.7138868682
101371.863783085
101371.8400476171
101371.6018425661
101371.041490516
101370.0398409871
101368.4862502313
101366.2810762285
101363.3416316504
101359.6124952655
101355.0746397577
101349.7511355098
101343.7092020752
101337.0570159925
101329.9328459913
101322.4888677996
101314.8775378168
101307.2427276405
101299.7349444866
101292.6194884389
101286.4591878195
101282.1211151215
101280.1226435989
101279.6390220474
101279.513934265
101279.5781603861
101279.8581662148
101280.4602934161
101281.4900556001
101283.0492829048
101285.2304793456
101288.1086208637
101291.7327186228
101296.1193517327
101301.2481526783
101307.0598304145
101313.4586321806
101320.3214210554
101327.5117932729
101334.8921939853
101342.3325668536
101349.7051609443
101356.7984844394
101363.1470427434
101367.9822884491
101370.5835814029
101371.3305511624
101371.4866684007
101371.5115217645
101371.34008105
101370.8913805985
101370.053646084
101368.7223406348
101366.7989273032
101364.1968384139
101360.8509056678
101356.7248388865
101351.8159505334
101346.1585126231
101339.8244847435
101332.9183930043
101325.5670331595
101317.9110697626
101310.1005216798
101302.3028693444
101294.792880425
101288.1527484599
101283.3091973709
101280.9134495085
101280.2863733672
101280.1511437189
101280.1710483944
101280.3853045391
101280.8830727128
101281.7637264607
101283.1239164741
101285.0539816245
101287.6307758072
101290.9104346553
101294.9233948604
101299.6703873929
101305.1192280759
101311.2042786934
101317.8310618509
101324.8858360502
101332.2439323854
101339.7738048385
101347.3369690349
101354.7273705226
101361.490465663
101366.8365873505
101369.9609128542
101370.9745535167
101371.150912642
101371.2136458697
101371.0953597105
101370.7436158134
101370.0474957055
101368.9080012564
101367.229015905
101364.9222385394
101361.9163926511
101358.1635612291
101353.6428078251
101348.3635606709
101342.3681961488
101335.730874493
101328.5515939257
101320.9513415531
101313.0728007917
101305.0874431348
101297.2615156822
101290.1569025696
101284.7339196229
101281.7996862318
101280.9260657312
101280.7831111754
101280.7611059658
101280.9204334616
101281.3278258264
101282.0769565863
101283.2603332169
101284.9671916949
101287.2760206114
101290.2477432364
101293.9220689343
101298.3145541123
101303.4131564839
101309.1761283532
101315.533750059
101322.394547912
101329.651223833
101337.181381759
101344.8459103851
101352.4526814599
101359.5887003248
101365.4660873781
101369.2022193412
101370.6102962145
101370.8504867815
101370.9332996087
101370.8631655197
101370.5947335029
101370.0229623442
101369.0534873621
101367.5926444818
101365.5501744098
101362.8496389999
101359.4351081674
101355.2733146275
101350.3557492105
101344.7018221917
101338.3603236305
101331.4066729867
101323.9404475855
101316.0896706939
101308.0190866148
101299.9722872273
101292.4538504811
101286.4167985953
101282.8292848063
101281.5899168476
101281.3931943802
101281.3450588038
101281.4584656173
101281.7850020002
101282.4174293849
101283.442948022
101284.9494921248
101287.0171966911
101289.7107527261
101293.0764256979
101297.1404063588
101301.9058288506
101307.3498176766
101313.4231582074
101320.0541324014
101327.1531869851
101334.611447224
101342.2950844182
101350.0269054007
101357.4585516489
101363.8513365247
101368.2486173669
101370.2031401283
101370.5901945326
101370.6757018097
101370.6435956541
101370.4435326876
101369.9781980914
101369.15813169
101367.8925132944
101366.0893262881
101363.6673021285
101360.5639411478
101356.7367080511
101352.1637229625
101346.8468037733
101340.8143593074
101334.1209067228
101326.8456678863
101319.0979756419
101311.0283863077
101302.8566551641
101295.0143354838
101288.3859940593
101284.0693226268
101282.3198441058
101281.99687377
101281.9345589968
101282.0095005928
101282.2662845976
101282.7950172933
101283.6777460012
101285.0008231783
101286.8470296374
101289.2850882746
101292.3661851864
101296.1240017487
101300.5730161367
101305.7052225433
101311.488253115
101317.8672794002
101324.7686766093
101332.0980790567
101339.7330022945
101347.5121671089
101355.151479262
101362.0056937652
101367.072828842
101369.6842203066
101370.347264922
101370.428346277
101370.4278446791
101370.2848450492
101369.9119015226
101369.2236291104
101368.1327773043
101366.5472137399
101364.3814574748
101361.566741561
101358.0528589162
101353.807831989
101348.8199626351
101343.101171798
101336.6882991448
101329.642612773
101322.0550451152
101314.0591215204
101305.8511246306
101297.786527942
101290.6331855511
101285.5594904376
101283.1648937707
101282.6043388105
101282.5332270237
101282.5754789672
101282.7735086654
101283.2108667749
101283.965800218
101285.1221568305
101286.7643734665
101288.9650576833
101291.7800918595
101295.249473776
101299.3967002458
101304.2255539909
101309.7174155332
101315.8315966963
101322.5081765979
101329.6674461467
101337.2017161415
101344.9631011838
101352.7165497774
101359.9401996254
101365.6562777712
101368.998652073
101370.0950785715
101370.2058731854
101370.225697436
101370.1259155263
101369.8307941362
101369.2574351001
101368.3242834837
101366.9393344381
101365.0123496636
101362.4678708131
101359.2489571231
101355.3158930917
101350.6466548219
101345.2400255669
101339.1182770645
101332.327594586
101324.9415510276
101317.0745014891
101308.9006185542
101300.7121252133
101293.1381728773
101287.3253296278
101284.180083927
101283.2320073132
101283.1328453043
101283.1478920094
101283.298699856
101283.6590495167
101284.3021920552
101285.3083806778
101286.7628591784
101288.742393619
101291.3077498219
101294.5042207087
101298.3623912486
101302.8957577506
101308.0975476558
101313.9394803552
101320.3736878937
101327.3336260014
101334.7255527385
101342.4155706271
101350.206547217
101357.6971599059
101364.0091965471
101368.1046612928
101369.7705322535
101370.0189125418
101370.0340108344
101369.9643877249
101369.7343517254
101369.2596432327
101368.464894778
101367.2605412601
101365.5537721394
101363.2634711521
101360.3258609675
101356.6935184206
101352.3352798435
101347.2389219012
101341.414403014
101334.8950950453
101327.7397548038
101320.0446386904
101311.9619023729
101303.7346116937
101295.8607937434
101289.37053666
101285.4058967469
101283.9321980301
101283.7213664069
101283.7248293356
101283.8353907113
101284.1300282848
101284.6757322468
101285.547358823
101286.8297652514
101288.6036300222
101290.9344658058
101293.8721996961
101297.4533490276
101301.6996653548
101306.6145729314
101312.1808452199
101318.3614244703
101325.1007247594
101332.31843598
101339.8975224453
101347.6675848535
101355.3156117775
101362.1208877549
101366.9701203358
101369.3308915828
101369.8569308382
101369.855591746
101369.8135921324
101369.6299558714
101369.2364279397
101368.5600946797
101367.5166727534
101366.012479821
101363.9607394416
101361.2905473191
101357.9473284261
101353.8921793139
101349.1036374004
101343.5808081135
101337.345439914
101330.4433878159
101322.9534810564
101315.0060983926
101306.8093798379
101298.755567118
101291.6980859114
101286.8893718716
101284.7586448196
101284.3134392104
101284.3044669742
101284.3841536822
101284.6245235979
101285.0876873152
101285.8422167159
101286.9696508936
101288.5532090421
101290.6633684934
101293.355058167
101296.6702060509
101300.6374922855
101305.2691160944
101310.5579269142
101316.476819067
101322.9799646084
101330.0000945114
101337.4358131151
101345.1350559642
101352.8477423375
101360.0264581556
101365.6036190123
101368.7125660819
101369.6553818749
101369.7238881876
101369.679752439
101369.5291865214
101369.2019526236
101368.6261845666
101367.7235416469
101366.4017180197
101364.5705817264
101362.1535594731
101359.0892107681
101355.330526717
101350.8468891677
101345.6273276006
101339.6831102277
101333.0490255799
101325.7886146688
101318.0122238735
101309.9008934276
101301.7664518017
101294.2764761723
101288.65607527
101285.7669001268
101284.9410161562
101284.8853856394
101284.9479487977
101285.1390253897
101285.5313980536
101286.1836676669
101287.1722128828
101288.5815355704
101290.4864094884
101292.9460881824
101296.0068995329
101299.7033157059
101304.0553467924
101309.0651866281
101314.7154386973
101320.9699442352
101327.7728333151
101335.0367055426
101342.6270992167
101350.3386226756
101357.7594044695
101363.9694991859
101367.8677500224
101369.4053806988
101369.6157328909
101369.5617877735
101369.442371759
101369.1647857351
101368.66876159
101367.8848291055
101366.7248413324
101365.0964713657
101362.9176200786
101360.1198641966
101356.6485776809
101352.4649740021
101347.5490530326
101341.9021370093
101335.548372382
101328.5377174553
101320.96111885
101312.9748651991
101304.835379067
101297.0601991574
101290.7221345804
101286.9808446137
101285.6337494993
101285.4523124063
101285.5065951938
101285.6542218243
101285.9879010538
101286.5541573449
101287.4214975522
101288.672606171
101290.3865938775
101292.6279017445
101295.4472769854
101298.8839739763
101302.9641210837
101307.6975744334
101313.0758451953
101319.0718881852
101325.6398425485
101332.7076181648
101340.160839545
101347.8216320841
101355.3652570761
101362.0775240892
101366.7926397675
101369.0188161694
101369.498463453
101369.4836132748
101369.3741464075
101369.1316487569
101368.7003894306
101368.0145622495
101366.9946217174
101365.548401104
101363.5893095257
101361.0434620547
101357.8494862199
101353.9602118432
101349.3466071627
101344.000629892
101337.9366630706
101331.1933425256
101323.8437913739
101316.0195189228
101307.9395116192
101300.0073993874
101293.0795294256
101288.4427218007
101286.4520269773
101286.0329743296
101286.0546057902
101286.1758055072
101286.460201999
101286.9548118166
101287.7189610296
101288.830036811
101290.3687769956
101292.4046215304
101294.9937921981
101298.1808537897
101301.9974982788
101306.4598772801
101311.5666874504
101317.2985483219
101323.6185798791
101330.4686133325
101337.7522395369
101345.3135532813
101352.8955763028
101359.9621846763
101365.4477779861
101368.4346658218
101369.372515686
101369.4355139941
101369.3322302097
101369.1250262771
101368.7390651065
101368.1271386362
101367.22135387
101365.934141722
101364.176826967
101361.8693193337
101358.9421114749
101355.33933438
101351.0234394909
101345.9781337217
101340.2095807668
101333.7470975271
101326.6481357465
101319.0199444748
101311.0499186144
101303.0582243124
101295.7068777728
101290.2147698667
101287.4587337048
101286.6535827813
101286.5920709163
101286.7018681438
101286.9362250989
101287.3751743813
101288.0562968687
101289.0471941315
101290.4273911178
101292.2703812674
101294.6385486312
101297.5836727133
101301.1445833286
101305.3435510408
101310.1846595379
101315.6539007977
101321.7203255512
101328.3352575581
101335.4203011732
101342.8463624959
101350.4036211527
101357.6773244346
101363.7981754471
101367.6343427722
101369.1535258922
101369.3926143813
101369.3245022222
101369.1425189568
101368.7932397205
101368.2373019821
101367.4197299258
101366.2645712289
101364.685223943
101362.5986111861
101359.9286416304
101356.6086662202
101352.5882933095
101347.8406024385
101342.3649131728
101336.1852944663
101329.3500993905
101321.9466250429
101314.1309626714
101306.1632866825
101298.5529655791
101292.328125989
101288.6637948059
101287.3519117791
101287.1362903659
101287.1967895882
101287.3928642981
101287.7846927493
101288.4031272912
101289.3022515324
101290.5513370168
101292.2211275759
101294.3778639671
101297.0825555331
101300.3861837159
101304.3223060525
101308.9028184942
101314.1179251662
101319.938266437
101326.3179957881
101333.1903477442
101340.4471926577
101347.9130118331
101355.2740906519
101361.8613187599
101366.557232291
101368.7531323544
101369.3251535277
101369.3425630357
101369.1923293572
101368.8894250754
101368.3716201296
101367.6103681224
101366.5480267029
101365.1116464569
101363.2224269823
101360.7985851291
101357.7605463983
101354.041539362
101349.5984710129
101344.4179230501
101338.5174704455
101331.9434388477
101324.7731489143
101317.1385770236
101309.259578465
101301.528587358
101294.7588032978
101290.1749696798
101288.206354701
101287.7331915379
101287.6860075773
101287.8338132186
101288.1637730387
101288.7295689889
101289.5647831003
101290.721857518
101292.2585542555
101294.2332623263
101296.7084687953
101299.7481053595
101303.4055356924
101307.7112440547
101312.6674879942
101318.2488912553
101324.4068848322
101331.074351777
101338.1541046447
101345.4950823226
101352.8542451534
101359.7244466717
101365.1257598802
101368.154088064
101369.1591917455
101369.3143798695
101369.2636971938
101369.0318506951
101368.5742349126
101367.8588262677
101366.8474442466
101365.4939628426
101363.7439639544
101361.5299478823
101358.76852348
101355.3702642757
101351.2602753156
101346.3977097204
101340.7845928169
101334.4647301941
101327.5171573921
101320.0644027254
101312.3004930684
101304.5379036112
101297.4074679937
101292.05001904
101289.2685959433
101288.423041646
101288.2887801024
101288.3211783287
101288.5461966896
101289.0161339447
101289.7771648989
101290.8729151945
101292.3395551224
101294.2059123651
101296.5059658916
101299.2938018196
101302.6426963632
101306.624583252
101311.2824733316
101316.6125358795
101322.5628192042
101329.0489909158
101335.9665675345
101343.1761342697
101350.4804131486
101357.5086932028
101363.4488756039
101367.2972032417
101368.8733325634
101369.1907066899
101369.2293237563
101369.1117102075
101368.7973719581
101368.2108875138
101367.2890873706
101365.9798469903
101364.2551611131
101362.1043208629
101359.5081327924
101356.4164913345
101352.7398698869
101348.352944026
101343.1285078889
101337.0193851946
101330.1689115043
101322.791234147
101315.3848792803
101306.8613605038
)
;

boundaryField
{
    inlet
    {
        type            uniformFixedValue;
        uniformValue    sine;
        uniformValueCoeffs
        {
            frequency       constant 3000;
            scale           constant 50;
            level           constant 101325;
        }
        value           uniform 101326.3578702043;
    }
    outlet
    {
        type            pressureOutletNSCBC;
        pInf            101325;
        gamma           1.4;
        etaAc           1;
        fieldInf        1;
        lInf            2.25;
        value           uniform 101303.0532497217;
    }
    frontAndBack
    {
        type            empty;
    }
}


// ************************************************************************* //
