/*--------------------------------*- C++ -*----------------------------------*\
| =========                 |                                                 |
| \\      /  F ield         | OpenFOAM: The Open Source CFD Toolbox           |
|  \\    /   O peration     | Version:  v2012                                 |
|   \\  /    A nd           | Website:  www.openfoam.com                      |
|    \\/     M anipulation  |                                                 |
\*---------------------------------------------------------------------------*/
FoamFile
{
    version     2.0;
    format      ascii;
    class       volScalarField;
    location    "0.0155";
    object      pMean;
}
// * * * * * * * * * * * * * * * * * * * * * * * * * * * * * * * * * * * * * //

dimensions      [1 -1 -2 0 0 0 0];


internalField   nonuniform List<scalar> 
1000
(
101325.3606678765
101325.3376939824
101325.3302638062
101325.3244387933
101325.3119513312
101325.2978070003
101325.2792808218
101325.261019052
101325.2402910657
101325.2188609417
101325.1965221583
101325.173738567
101325.1511476972
101325.1287617498
101325.1070703386
101325.0864319957
101325.0673690189
101325.0502554777
101325.0353486451
101325.0230266033
101325.0134153876
101325.0067661327
101325.0031070132
101325.0026218459
101325.0052115603
101325.0109031696
101325.0195734617
101325.031084387
101325.0451774179
101325.0617677375
101325.0805790245
101325.101312457
101325.1232437996
101325.1456542121
101325.1681066434
101325.1904739033
101325.2126147699
101325.2342672442
101325.2550525363
101325.2745368239
101325.2922920614
101325.3078196047
101325.320859334
101325.331142774
101325.3385042053
101325.3428141506
101325.3440284626
101325.3421392442
101325.337165749
101325.3292665881
101325.3185015554
101325.3049882175
101325.288880486
101325.2703811868
101325.2498885687
101325.2282155511
101325.2061100169
101325.184048786
101325.162042689
101325.1402499951
101325.118861735
101325.0981919948
101325.0786016647
101325.0606385372
101325.0445817347
101325.0309842993
101325.0201001947
101325.012206978
101325.0073588445
101325.0057340476
101325.0072162035
101325.0118301478
101325.0194775597
101325.0300914093
101325.0435079031
101325.0596375632
101325.0782471836
101325.0988309617
101325.1205055933
101325.1424892503
101325.1645597057
101325.1865184881
101325.2082657868
101325.2296850967
101325.2504137982
101325.2701540116
101325.2885088897
101325.3050086178
101325.3192287141
101325.3308813368
101325.3396121409
101325.3453240415
101325.3478054054
101325.3471373264
101325.3433299901
101325.3364881291
101325.3267086479
101325.3140642861
101325.298596717
101325.2806435944
101325.2605660074
101325.2393274842
101325.2176427536
101325.1960571289
101325.1744860616
101325.1530949452
101325.1320472017
101325.1115542876
101325.0919393866
101325.0736230744
101325.0569606148
101325.0424071579
101325.030364727
101325.0211592696
101325.0150301984
101325.012085543
101325.0123834761
101325.015976656
101325.0226695495
101325.032520258
101325.0453441186
101325.0609997904
101325.0792970347
101325.0996352022
101325.1211196131
101325.1428834046
101325.1647716935
101325.1865622754
101325.2081289887
101325.2294580642
101325.2502034823
101325.2701673036
101325.2889134594
101325.3061732987
101325.3213580253
101325.3342693076
101325.344421087
101325.3517013777
101325.355696336
101325.3565483875
101325.354123037
101325.3485124587
101325.3398209954
101325.3281534784
101325.3135263842
101325.2962958221
101325.2768473888
101325.2561352
101325.234966004
101325.2137639073
101325.1927170808
101325.1717730589
101325.1510934036
101325.1309273519
101325.1114635895
101325.0930649475
101325.0761338703
101325.0609973735
101325.0481019441
101325.0378254502
101325.0304799819
101325.0261523201
101325.0251342155
101325.0274234527
101325.0329185158
101325.0416545847
101325.0534832608
101325.0682702214
101325.0856962956
101325.1052728624
101325.1259841489
101325.1470814546
101325.1680743056
101325.1892547907
101325.210128064
101325.2307790178
101325.2509775521
101325.2705024828
101325.2889941677
101325.3062392003
101325.3216912217
101325.3351177234
101325.3460700203
101325.3543708635
101325.3595253025
101325.3616698341
101325.360465299
101325.356110827
101325.3484884952
101325.3378420328
101325.3241812446
101325.3077719255
101325.2891082782
101325.2690229992
101325.2484727868
101325.2277056422
101325.2072723765
101325.1868569042
101325.1666203869
101325.1468541493
101325.1276570395
101325.1093724783
101325.0922781515
101325.0767957897
101325.0632100693
101325.052015018
101325.0434888155
101325.0379035206
101325.0354815255
101325.0363440688
101325.0406028658
101325.0481734835
101325.0590761103
101325.073190621
101325.0900910536
101325.1093468269
101325.1298222153
101325.1507727235
101325.1715196769
101325.1925800598
101325.2133039845
101325.23379728
101325.2539150064
101325.2734702354
101325.2921366064
101325.3096518726
101325.3256748077
101325.3398218221
101325.3517601934
101325.3611576149
101325.3677979087
101325.3712389744
101325.3714806571
101325.3685008673
101325.3621304986
101325.3525546185
101325.3398240677
101325.3241562467
101325.306052133
101325.2863740931
101325.2661208896
101325.2456317306
101325.2254156445
101325.2052896407
101325.185257706
101325.1656430128
101325.1465543703
101325.1282596899
101325.1109541166
101325.0951421814
101325.0809674483
101325.0689982234
101325.0594383222
101325.0528188986
101325.0490136675
101325.0486320043
101325.0515970104
101325.0580350296
101325.0678787597
101325.0811593145
101325.0974804377
101325.1163036293
101325.1365737446
101325.1573712178
101325.1780729082
101325.198804579
101325.2195585564
101325.2399676423
101325.2600265022
101325.2796171031
101325.2984212142
101325.316193001
101325.3326369745
101325.3474088925
101325.3601436002
101325.3705391283
101325.3783755105
101325.3830717805
101325.3847310403
101325.3831080012
101325.3780989909
101325.3697025632
101325.3580282194
101325.3432920992
101325.3258510994
101325.3066761995
101325.2866707174
101325.2666116895
101325.2462944159
101325.2265840321
101325.2067747149
101325.1873133011
101325.1683010764
101325.1500350627
101325.13264022
101325.1165107057
101325.1019264068
101325.0892946564
101325.0788896544
101325.0712846961
101325.0662879061
101325.0647185406
101325.066382915
101325.0716373756
101325.0803311798
101325.0926272048
101325.1082216556
101325.1265108692
101325.146527465
101325.1671571084
101325.1878969745
101325.2082742809
101325.2290907291
101325.2494629935
101325.2694760846
101325.2890685326
101325.3080111489
101325.3260240575
101325.3427784066
101325.3580995256
101325.3715078917
101325.38279708
101325.3916198883
101325.3976466878
101325.4005749645
101325.4002740614
101325.3966445326
101325.3895572193
101325.3790328831
101325.365324759
101325.3487180005
101325.3301019132
101325.3104253664
101325.2906746773
101325.270525724
101325.2510416832
101325.2314762535
101325.2121348761
101325.193214479
101325.1749808272
101325.1575443045
101325.1411880239
101325.1262674619
101325.1130934269
101325.10201129
101325.0934011832
101325.0876454465
101325.0847342895
101325.0851968641
101325.0892109949
101325.0967574358
101325.107924689
101325.1225994487
101325.1402826985
101325.1599220998
101325.1804194518
101325.2010679275
101325.2214269371
101325.2420140593
101325.2624711872
101325.282431242
101325.3020745079
101325.3210866672
101325.3393390079
101325.3564033207
101325.3721478044
101325.3861755026
101325.398255676
101325.4079348024
101325.4152275981
101325.4192375689
101325.4203003634
101325.418002103
101325.4123073712
101325.4030199304
101325.390423043
101325.3747984817
101325.3568493189
101325.3375979051
101325.3180453159
101325.2983649834
101325.2786693945
101325.2595290007
101325.2403470406
101325.2215562898
101325.2033172011
101325.1858906625
101325.1694103486
101325.1541599292
101325.1405759651
101325.1288998401
101325.1194901364
101325.1128819495
101325.1088110764
101325.1081895103
101325.1109563983
101325.117323217
101325.1273329928
101325.1409384987
101325.1578461281
101325.1770191365
101325.1973397483
101325.217844508
101325.238390242
101325.2584494704
101325.2790979646
101325.2991120188
101325.3187739305
101325.3378515822
101325.3563005822
101325.3736797026
101325.3897732028
101325.4043471385
101325.4170984192
101325.4276269037
101325.4358849298
101325.4410708577
101325.4434211144
101325.4423907028
101325.4380576731
101325.43014135
101325.4187278701
101325.4041575666
101325.3870405695
101325.3683032971
101325.3489859731
101325.3297232199
101325.3099864281
101325.2911435828
101325.272196918
101325.2534753703
101325.2352878252
101325.2178191866
101325.2012870135
101325.1858092793
101325.1718422679
101325.1596564829
101325.1496218037
101325.1420493428
101325.1373077466
101325.1354555848
101325.1370278856
101325.142188175
101325.1510332389
101325.1634775845
101325.179427624
101325.1980409485
101325.218104374
101325.2384907358
101325.2590291128
101325.2790086907
101325.2995349282
101325.3196747338
101325.339310901
101325.3585086264
101325.3770587459
101325.3947665387
101325.4112221721
101325.4262257463
101325.4395875489
101325.4509330001
101325.4599206964
101325.4665074027
101325.4697884248
101325.4700726334
101325.467060937
101325.4605259121
101325.4504301823
101325.4369607639
101325.4207884722
101325.4026761376
101325.3836878297
101325.3646481114
101325.3453811906
101325.3262980459
101325.3077480532
101325.2891506944
101325.2710646996
101325.253530625
101325.2369712126
101325.2213522486
101325.2070372082
101325.1944056736
101325.1838212395
101325.1754392712
101325.1700125996
101325.1669579374
101325.1675023307
101325.1714617602
101325.179112638
101325.1904209246
101325.2052732494
101325.2231490246
101325.2428607728
101325.2631518081
101325.2835418387
101325.303817828
101325.3236854682
101325.3441170869
101325.3638551076
101325.3831421156
101325.4018138844
101325.4197516004
101325.4366101666
101325.4520144151
101325.4659168458
101325.4779649897
101325.4877767566
101325.4953436815
101325.4996811932
101325.501281887
101325.4994972046
101325.4943341185
101325.4856314909
101325.4733684028
101325.4581860622
101325.4408478939
101325.4223301834
101325.4034348206
101325.384731902
101325.365410579
101325.34724935
101325.3288668009
101325.310813841
101325.293304428
101325.2766233079
101325.2609690845
101325.2463742619
101325.2333683675
101325.2222455995
101325.2132724476
101325.2068874122
101325.2032123188
101325.2025961161
101325.2053584006
101325.211833872
101325.2219501969
101325.2357067897
101325.2526270656
101325.2719211205
101325.2920204912
101325.3122530423
101325.3326784006
101325.3523503015
101325.3727581637
101325.3926471379
101325.4119541294
101325.4308002243
101325.4488737706
101325.4661301958
101325.4819389337
101325.4963421494
101325.5089699863
101325.5196411452
101325.5278639297
101325.533716381
101325.5361581814
101325.5356552695
101325.531823452
101325.5244802431
101325.5135925969
101325.4994141518
101325.4829911129
101325.4649086655
101325.4463504378
101325.4279411591
101325.4090814527
101325.3906348808
101325.3726671025
101325.3547143093
101325.3372836134
101325.320504567
101325.3047521314
101325.2900590436
101325.2766147038
101325.2650979892
101325.2555718575
101325.2483310583
101325.2441106809
101325.2422078646
101325.2439897163
101325.2492770968
101325.2582072242
101325.2708486342
101325.2867349209
101325.3053885495
101325.3252320679
101325.3454166445
101325.3656751617
101325.3857501934
101325.4054021114
101325.4256702246
101325.4451055259
101325.4640834159
101325.4823322223
101325.4998122444
101325.5161939695
101325.5308321965
101325.5442983681
101325.5555594369
101325.5645797825
101325.5714599611
101325.5748791003
101325.5757146686
101325.573083435
101325.5671253388
101325.5575968575
101325.5446699105
101325.5290016373
101325.5118151978
101325.4934022942
101325.4752364296
101325.4570369422
101325.438259427
101325.4207262023
101325.402964034
101325.3855417146
101325.3687672564
101325.3528165367
101325.3381319486
101325.3242354586
101325.3125728828
101325.3023447377
101325.2945188302
101325.2893239458
101325.2868638899
101325.2874684693
101325.2915654145
101325.2993425797
101325.3107769416
101325.3257019165
101325.3433765163
101325.3631505644
101325.3829103359
101325.4031996197
101325.4234234723
101325.4428579168
101325.4631190274
101325.4827551772
101325.5017800897
101325.5202625861
101325.5379177088
101325.5547236369
101325.5698624385
101325.5838201509
101325.5957620275
101325.6056401762
101325.6131165993
101325.6181627871
101325.6197320351
101325.6183951534
101325.6137755676
101325.6055946905
101325.5940343179
101325.579260747
101325.5628706407
101325.5449074444
101325.5269464408
101325.5090926293
101325.4908219909
101325.4729243944
101325.4556151103
101325.4382794668
101325.4215605551
101325.4055015511
101325.3906116482
101325.376776881
101325.3643248065
101325.3539826222
101325.3454876043
101325.3393946396
101325.3365128079
101325.3357240094
101325.3389007011
101325.3454958888
101325.3557711792
101325.369614052
101325.3864395708
101325.4055747336
101325.4253985117
101325.4453256507
101325.4656357031
101325.4854503797
101325.5049275696
101325.5250094572
101325.5441964071
101325.5628286476
101325.5807286683
101325.5977331739
101325.6136780087
101325.627566094
101325.6406495768
101325.6510664157
101325.6593735426
101325.6655116184
101325.6680366044
101325.6680474995
101325.6645900754
101325.6578286881
101325.6475669805
101325.6340535133
101325.6182060164
101325.6011103819
101325.583230292
101325.5657645391
101325.5480045803
101325.5298245752
101325.5129607355
101325.4957933242
101325.4790433509
101325.4629915373
101325.4478362756
101325.4340565994
101325.4209726289
101325.4105480606
101325.401408196
101325.3946567012
101325.3907714562
101325.3894959692
101325.3914352383
101325.3968328402
101325.4060055597
101325.418666456
101325.4346744081
101325.4529044265
101325.4727845025
101325.4925418922
101325.5126125595
101325.5326600981
101325.5519887094
101325.5719728897
101325.5914312129
101325.61015241
101325.6283186783
101325.6455336493
101325.6619398657
101325.676372524
101325.689991873
101325.7012289395
101325.7101861753
101325.7170012181
101325.7212646605
101325.721911786
101325.7197807665
101325.7143556024
101325.7054416442
101325.6932422707
101325.6781806284
101325.6617520841
101325.6444040901
101325.6268704849
101325.6097453771
101325.5919725906
101325.5746225543
101325.5579828985
101325.5412976573
101325.5252755581
101325.5099845171
101325.4959666691
101325.4829355205
101325.4717001847
101325.4623295107
101325.4549159959
101325.4500708988
101325.4485480279
101325.4489018387
101325.4535018025
101325.4614210782
101325.4730143944
101325.4879730531
101325.5055897227
101325.5248689927
101325.5447344798
101325.5645164495
101325.5847482813
101325.6043460213
101325.6235721206
101325.6435578716
101325.6624311657
101325.6807644569
101325.698277995
101325.714873837
101325.730267895
101325.7436506527
101325.7559659626
101325.7659223531
101325.7732538145
101325.7787585116
101325.7803787095
101325.7795994786
101325.7752745524
101325.767819585
101325.7568595229
101325.7430099572
101325.7270247484
101325.7102474677
101325.6931058134
101325.6760479044
101325.6590374207
101325.6412967642
101325.6251111084
101325.6085871725
101325.5924917608
101325.5772058318
101325.5628570429
101325.5499643994
101325.5378527155
101325.5284026313
101325.5206916705
101325.5146514059
101325.5122239739
101325.5123940451
101325.5155149287
101325.5223066961
101325.5328104705
101325.5466821613
101325.5635894265
101325.5822652759
101325.6019784152
101325.6219022747
101325.6415770658
101325.6618572313
101325.6808154065
101325.7004626101
101325.7198263236
101325.7382658685
101325.7561024208
101325.7729362921
101325.7888643728
101325.8027403585
101325.8158104492
101325.8264401299
101325.8345905448
101325.8406068042
101325.8443401078
101325.8438419511
101325.841040837
101325.8347945967
101325.8252454269
101325.8125414705
101325.7974321674
101325.7809724582
101325.7643565787
101325.7473944122
101325.7309016395
101325.7137994152
101325.6966810554
101325.6809293941
101325.6648766948
101325.6495655423
101325.6350939735
101325.6219205681
101325.6098338406
101325.5996186009
101325.5912746937
101325.5853327336
101325.5812638492
101325.5813059505
101325.5828699375
101325.5889554782
101325.5980778819
101325.6109946648
101325.6269202039
101325.6452704299
101325.6644315799
101325.6843411512
101325.7041688758
101325.7239159841
101325.743912047
101325.7623258605
101325.7824388601
101325.8011211372
101325.8190567564
101325.8362838277
101325.8524160995
101325.8672991141
101325.8801028563
101325.8917803316
101325.9012978788
101325.9074223165
101325.9121508224
101325.9136476093
101325.9115739752
101325.90659485
101325.8983774664
101325.8868923765
101325.872834626
101325.8568956302
101325.8405051919
101325.8241563671
101325.8073440517
101325.7915275627
101325.7741354226
101325.7580628916
101325.7425649612
101325.7271082931
101325.7126188919
101325.6991590355
101325.6870779847
101325.6760427532
101325.6676635493
101325.661072742
101325.6564584624
101325.6548734616
101325.6570086702
101325.6607296857
101325.6692372346
101325.6808527104
101325.6958817796
101325.7135059848
101325.7326705538
101325.7519727268
101325.7719467314
101325.791666652
101325.8114752922
101325.8311242563
101325.8491790689
101325.8690557924
101325.8873070569
101325.904747438
101325.9213696234
101325.9366300526
101325.9502030384
101325.9622849307
101325.9722646406
101325.9803876305
101325.9846057914
101325.9879049946
101325.9869288753
101325.9834461742
101325.9763510043
101325.9662050061
101325.9531040328
101325.9381583253
101325.9218480811
101325.9057545508
101325.8896650869
101325.8731615864
101325.8578774452
101325.8401962411
101325.8255760426
101325.8103789338
101325.7954268493
101325.7819639642
101325.7695247201
101325.7584671871
101325.7489880995
101325.742133023
101325.7375588824
101325.734534851
101325.7353467838
101325.7395527318
101325.7457897935
101325.7567202112
101325.7705708268
101325.7874195921
101325.8061188891
101325.8257161312
101325.8450534443
101325.8649840873
101325.8846869159
101325.9042723293
101325.9239622242
101325.9411621942
101325.9608141423
101325.97865281
101325.9956091866
101326.0115863834
101326.0255373246
101326.0380999627
101326.0490036784
101326.0575518895
101326.0639442731
101326.0664314329
101326.0679591484
101326.0646263501
101326.0598031519
101326.0506346229
101326.038753571
101326.0244734665
101326.0089790833
101325.9928469912
101325.9769185148
101325.9611250325
101325.9449266521
101325.9303500769
101325.9126562572
101325.8990475663
101325.8845401022
101325.8700462234
101325.8583204122
101325.845864955
101325.8365454512
101325.8288822848
101325.8234290836
101325.8211832762
101325.819899627
101325.8228331297
101325.8293360665
101325.8405458001
)
;

boundaryField
{
    inlet
    {
        type            calculated;
        value           uniform 101325.3422476534;
    }
    outlet
    {
        type            calculated;
        value           uniform 101325.8457955011;
    }
    frontAndBack
    {
        type            empty;
    }
}


// ************************************************************************* //
