/*--------------------------------*- C++ -*----------------------------------*\
| =========                 |                                                 |
| \\      /  F ield         | OpenFOAM: The Open Source CFD Toolbox           |
|  \\    /   O peration     | Version:  v2012                                 |
|   \\  /    A nd           | Website:  www.openfoam.com                      |
|    \\/     M anipulation  |                                                 |
\*---------------------------------------------------------------------------*/
FoamFile
{
    version     2.0;
    format      ascii;
    class       volScalarField;
    location    "0.0155";
    object      rho;
}
// * * * * * * * * * * * * * * * * * * * * * * * * * * * * * * * * * * * * * //

dimensions      [1 -3 0 0 0 0 0];


internalField   nonuniform List<scalar> 
1000
(
1.176543952159823
1.17652074092027
1.176573773560187
1.176617101111093
1.176668451225251
1.176714935928161
1.176753905345376
1.176786542453797
1.176813973005721
1.176832202190915
1.17683760221938
1.176837164004201
1.176833234781255
1.176823572238709
1.17680584755999
1.176779308408765
1.176744989827829
1.176704502487607
1.17665914504368
1.176609788063423
1.176557133465227
1.176501957086848
1.176445173673594
1.176387769279132
1.176330726142781
1.176275010088674
1.176221542405527
1.17617103371044
1.176123776753386
1.176079886713283
1.176040782989301
1.176011244954095
1.175996420010186
1.175993371525775
1.175993676860651
1.175996590592961
1.176004054801835
1.176017953254637
1.176039801366026
1.17607023559316
1.176108765674343
1.176153990014672
1.176204132739535
1.176257560605216
1.176313028622727
1.176369633257165
1.176426625553408
1.176483255374965
1.176538746709769
1.176592437454387
1.176643963012403
1.176693171025365
1.1767395073662
1.176780502063635
1.176810124076541
1.176823628854402
1.176826362924803
1.176826472204346
1.176824132767774
1.176818081760041
1.17680666015136
1.176788328566553
1.176762009581238
1.176727377583541
1.17668496677851
1.176636059962507
1.176582380028646
1.17652570913812
1.176467595902457
1.176409232502996
1.17635147463493
1.176294919307791
1.17623994216589
1.176186707571217
1.176135408799578
1.176087085489008
1.176045271724236
1.176016714346394
1.176004653962239
1.176002385240962
1.176002520914591
1.176004945005983
1.176010801160659
1.176021490377755
1.176038400306521
1.176062630563292
1.176094740870065
1.176134592014553
1.176181329223986
1.176233523116859
1.176289433389571
1.176347315393248
1.176405682036266
1.176463457154282
1.17651999956594
1.176575054223995
1.176628637081285
1.176680628979343
1.176729921094521
1.17677306255045
1.176803292613473
1.176816405701508
1.17681919268737
1.176819690940384
1.17681795137571
1.176813273904172
1.176804245254607
1.176789554801648
1.176768067796541
1.176739020868974
1.176702175108618
1.176657919476606
1.176607270984788
1.176551743640457
1.176493109736803
1.176433108007976
1.176373174118306
1.176314280296052
1.176256911259492
1.176201180890351
1.176147281025787
1.176096505229163
1.176052799903043
1.176023129177501
1.176010689246315
1.176008148068515
1.176007850061759
1.176009690663161
1.176014369105434
1.176023107825451
1.176037092966714
1.176057394539042
1.176084780727752
1.176119579771884
1.176161584703916
1.176210026887531
1.176263642913625
1.176320839846449
1.176379940462239
1.176439454455292
1.176498281257996
1.176555793168323
1.176611780085511
1.176666016756225
1.17671727328069
1.176762087526678
1.176793948356802
1.176808237656643
1.176811531062373
1.17681239206875
1.176811204930439
1.176807590376258
1.176800287637098
1.176788132622181
1.176770065157649
1.176745241856507
1.176713154981329
1.176673751051568
1.176627504638449
1.17657541098998
1.176518885396319
1.17645957084092
1.176399080521992
1.176338759226457
1.176279544910436
1.176221964332659
1.176166491213681
1.176114584967674
1.176070130639153
1.176039740390984
1.176026747307318
1.176023851545302
1.176023182933428
1.176024516517308
1.176028211419075
1.176035387466823
1.176047071058805
1.176064237734311
1.176087682388434
1.176117906792421
1.176155028213903
1.17619872047697
1.176248205535235
1.176302312177164
1.176359613996928
1.176418636531034
1.176478068711843
1.176536906815922
1.176594514143834
1.176650356060178
1.17670305132047
1.176749195589947
1.17678273758967
1.176798713279297
1.176802679536515
1.176803814710774
1.176803182880938
1.176800523735536
1.176794767056362
1.176784858540331
1.176769820955113
1.176748811493021
1.176721195223135
1.176686646222247
1.176645232309315
1.176597455158731
1.17654423411851
1.176486820327813
1.17642663365048
1.176365069044124
1.176303347091061
1.176242435602325
1.176183275864322
1.176127784467882
1.176080300131613
1.176047648452855
1.176033347696022
1.176030034900174
1.176029151143904
1.17603006888894
1.176033011001627
1.176038986074998
1.176048940380269
1.176063777804207
1.176084281375394
1.176111030986655
1.176144326204813
1.176184126769152
1.17623001907129
1.176281220966555
1.176336643322616
1.176395019871623
1.176455070404353
1.176515633061981
1.176575760125943
1.176634589788201
1.176690470354293
1.176739697538712
1.176776075989524
1.176794253629297
1.176799021626795
1.176800264367948
1.176800067560365
1.176798092624381
1.176793446838984
1.176785142331776
1.17677226173767
1.176753978873845
1.176729608080141
1.176698689702842
1.176661065775385
1.17661692732248
1.176566831396026
1.176511674646172
1.176452603279529
1.176390878893979
1.176327765512132
1.176264456072786
1.176202198641613
1.176143193327672
1.176092107747764
1.176056132850619
1.176039559713035
1.17603554905143
1.176034511687323
1.176035044287607
1.176037366331726
1.176042359711296
1.176050899421654
1.176063829893752
1.176081918188958
1.176105785968282
1.176135839522942
1.176172216145181
1.176214746702226
1.176262939265619
1.176315999558706
1.176372906267614
1.176432528135483
1.176493724444227
1.176555416739453
1.176616545769694
1.176675358065734
1.176727994362579
1.176768083066695
1.176789649989281
1.176795842957156
1.176797137274951
1.176797343309196
1.176795921905436
1.176792201797585
1.176785256279568
1.176774218624255
1.176758271826091
1.176736698075662
1.176708956934874
1.176674747340951
1.176634046783792
1.176587139154792
1.176534620810481
1.176477358147936
1.17641640226465
1.176352919330976
1.176288153177203
1.17622349253768
1.176161215959304
1.176106151584295
1.176065985011221
1.176046117362282
1.176040917056839
1.176039795593076
1.176039960642168
1.176041737427985
1.176045865361523
1.176053168523834
1.176064448400342
1.17608045410977
1.176101822905617
1.176129020184814
1.176162298183023
1.176201662753447
1.176246846767055
1.176297305668238
1.176352255773959
1.176410753702874
1.176471765527609
1.176534200375904
1.176596909935568
1.176658185757878
1.176714259306955
1.17675858383174
1.176784487209816
1.176792891114948
1.176794353258196
1.17679487335052
1.176793892644496
1.176790976385115
1.176785204967219
1.176775757591887
1.176761837332005
1.176742712024387
1.17671779061167
1.176686675660072
1.17664919338307
1.176605421708294
1.17655571171585
1.176500678012525
1.176441149464961
1.176378129025006
1.176312799625153
1.176246583015008
1.176181687001374
1.17612277121737
1.176077799759872
1.176053466604813
1.176046221752155
1.176045036229769
1.176044853727482
1.176046174997734
1.176049553447816
1.176055765898611
1.17606557948058
1.176079734175872
1.176098880809168
1.176123524500071
1.176153994403152
1.176190419337206
1.176232699219673
1.1762804876136
1.176333206126698
1.176390096000045
1.17645026730304
1.176512704978877
1.176576255455852
1.176639325683976
1.17669849153497
1.176747220995228
1.176778196883019
1.176789871015298
1.176791862378308
1.176792548951848
1.176791967469063
1.176789741933646
1.176785001471236
1.176776963704484
1.176764852048257
1.176747918118682
1.176725528083121
1.176697218094792
1.176662712156378
1.176621939496517
1.176575060791943
1.176522480295268
1.176464823057873
1.176402914468541
1.176337815842776
1.176270893078002
1.176204166031534
1.176141819011832
1.176091755516851
1.176062004928346
1.176051727004344
1.176050095596057
1.176049696401671
1.176050636859682
1.176053344777766
1.176058589415845
1.176067093897829
1.176079587418349
1.176096734467884
1.176119071427677
1.176146981840176
1.176180682732498
1.176220199893304
1.176265343395966
1.176315704884858
1.176370689406053
1.176429554141457
1.176491396109455
1.176555105487932
1.176619212997737
1.176680830338145
1.17673383324787
1.1767702907904
1.1767864954564
1.176789704450514
1.176790413367619
1.17679014716985
1.176788488471093
1.176784630455328
1.176777831412845
1.176767338344678
1.176752388309181
1.176732307441857
1.176706577448075
1.176674845511798
1.17663693002592
1.176592845822817
1.176542828175788
1.176487328819354
1.176427004338873
1.176362761030406
1.176295847085066
1.176228084622946
1.176163052286132
1.176108085752208
1.176072288561162
1.176057780403432
1.176055102046088
1.176054585269965
1.176055206741428
1.176057336209098
1.176061720914324
1.176069041253204
1.176080013309691
1.176095323525769
1.176115541732361
1.176141092294672
1.176172254376465
1.176209147857052
1.176251706132141
1.176299660553649
1.176352556216806
1.176409782367683
1.176470556303036
1.176533862222136
1.176598362741393
1.176661702313339
1.176718531291108
1.176760542728597
1.17678219345523
1.176787690647836
1.176788362874559
1.176788358708113
1.176787173112572
1.176784081094449
1.176778374735262
1.17676933063782
1.176756184910731
1.176738228779196
1.176714892004762
1.176685758184917
1.17665056201327
1.176609206278012
1.176561789560237
1.176508617025658
1.176450196382969
1.176387281328709
1.176320978788801
1.176252916178486
1.176186041153596
1.176126721384364
1.176084646587313
1.176064788634689
1.176060140032195
1.176059550308212
1.176059900691765
1.176061542916868
1.176065169860133
1.176071430405278
1.176081019871079
1.176094638441469
1.176112888174491
1.176136232395858
1.176165002666743
1.176199393672541
1.176239436581917
1.176284976765395
1.176335676576527
1.176391038888524
1.176450402510632
1.176512874288652
1.176577227848828
1.176641514205945
1.176701406584068
1.176748798616829
1.176776509916938
1.176785600226505
1.176786518804238
1.176786683159019
1.176785855876724
1.17678340906728
1.176778655435003
1.176770918809113
1.176759436363901
1.176743459894439
1.176722363700475
1.176695675569234
1.176663066058419
1.17662435236331
1.176579524153201
1.176528765814632
1.176472459994841
1.176411216434238
1.176345983067776
1.176278203917947
1.176210302059255
1.176147494816264
1.176099290747824
1.176073207905141
1.176065345664544
1.176064523328215
1.176064648104991
1.176065898725606
1.176068887043924
1.176074220516725
1.17608256465785
1.176094626350425
1.176111042148916
1.176132315890014
1.176158823061891
1.176190817146563
1.176228409879611
1.176271544884785
1.176319987410345
1.176373340273235
1.176431051434092
1.176492343363798
1.176556105634684
1.176620703607582
1.176682809825316
1.176735143234314
1.176769098455766
1.176782909971382
1.176784969253996
1.176785094429761
1.176784517191083
1.176782609993307
1.176778674255245
1.176772085110162
1.176762099967018
1.176747949305536
1.176728960530573
1.176704604764755
1.176674488680169
1.176638353712552
1.17659609829092
1.176547804720804
1.176493749411649
1.176434419246609
1.176370612066752
1.176303589287982
1.176235366289881
1.176170072922157
1.176116251627815
1.176083373876921
1.176071152776616
1.176069404386661
1.176069433103445
1.176070349967556
1.176072793342891
1.176077318767311
1.176084547002158
1.176095181731007
1.176109891962663
1.176129220910788
1.176153582508184
1.176183279447999
1.176218491939187
1.176259248176622
1.176305405082933
1.176356655119089
1.176412537107879
1.176472384879708
1.176535227790863
1.176599652812923
1.176663064618108
1.17671948782888
1.176759692657084
1.176779265542214
1.17678362685764
1.176783615756514
1.176783267542504
1.176781745037943
1.176778482353291
1.176772874969835
1.17676422409276
1.176751752983131
1.17673474213104
1.176712603586092
1.176684884742363
1.17665126288321
1.176611559851426
1.176565767982345
1.176514067320071
1.176456837771199
1.176394732660949
1.176328832799732
1.176260863898197
1.176194078485079
1.176135553830734
1.176095676597476
1.176078006946667
1.176074314942223
1.176074240538687
1.176074901365965
1.176076894706592
1.176080735632532
1.176086992793536
1.176096342361628
1.176109474423271
1.17612697337418
1.176149294639649
1.176176785796814
1.176209684526323
1.176248091804406
1.176291948119667
1.17634102846507
1.176394952577033
1.176453162411622
1.176514816986223
1.176578655259492
1.176642603618858
1.176702123427901
1.176748363703866
1.176774139701049
1.176781956458774
1.176782524436363
1.176782158514577
1.176780910192711
1.176778197140804
1.176773423527248
1.17676593983169
1.176754980735361
1.176739798919671
1.176719759447935
1.176694352810144
1.176663189105488
1.176626014284966
1.176582737158197
1.176533450885785
1.176478443620905
1.1764182419164
1.176353760453127
1.176286500182184
1.17621904673489
1.176156936066217
1.176110328031193
1.176086368830591
1.176079519948784
1.176079058618867
1.176079577445289
1.176081162006187
1.17608441587187
1.176089825006039
1.17609802279039
1.176109709954841
1.176125506533909
1.17614590382834
1.176171285917002
1.176201938527626
1.176238027423866
1.176279570595213
1.176326423554898
1.176378286220895
1.176434695065901
1.176494925138011
1.176557861321471
1.176621800486305
1.176683327704855
1.176734815910417
1.176767136063781
1.176779884368975
1.176781628371678
1.176781181124241
1.176780191064175
1.176777889635729
1.176773777166116
1.176767277682679
1.176757660353874
1.176744159673139
1.176726094903412
1.176702898657478
1.176674117899074
1.176639430873004
1.176598671539865
1.176551850609101
1.176499168004035
1.176441037653883
1.176378213364459
1.176311990809316
1.176244496111308
1.176180020904667
1.176127461877757
1.176096436443682
1.176085265297075
1.176083760681055
1.176084210840211
1.176085435079076
1.176088202208733
1.176092898045513
1.176100090695086
1.176110465821912
1.176124679434149
1.176143265862721
1.176166645848145
1.1761951447901
1.17622897920364
1.176268230631787
1.176312828464848
1.176362548199153
1.176417009302872
1.176475613764756
1.176537412993282
1.176600931971536
1.176663478132572
1.176719130194129
1.176758223079249
1.176776680069762
1.17678065676183
1.176780533645102
1.176779626075379
1.176777615562346
1.176774040049398
1.176768353944607
1.176759897735054
1.176747907250423
1.176731664524868
1.176710556904238
1.176684075435502
1.176651828873159
1.176613576313584
1.176569250838402
1.176518971429903
1.176463058140099
1.176402116978495
1.176337238122811
1.176270237214734
1.176204461207337
1.176147011573556
1.176108560069958
1.17609205175286
1.176088576647248
1.176088756036595
1.176089761124716
1.176092119563258
1.176096221248148
1.176102558152555
1.176111772015599
1.176124532346004
1.1761414149391
1.176162885947046
1.176189314821333
1.176220964228824
1.176257967932547
1.176300314920433
1.176347844255879
1.176400249881019
1.176457049214893
1.176517442621417
1.176580137209826
1.176643002173865
1.176701592479976
1.176747073580881
1.176771837613458
1.176779613205736
1.176780135519954
1.176779279214449
1.1767775613196
1.176774361368893
1.176769287965685
1.17676177821014
1.17675110605728
1.17673653627084
1.176717404762928
1.176693135151574
1.176663264087566
1.176627480072132
1.176585647794745
1.176537818102204
1.176484233787309
1.176425370916263
1.176362118485143
1.176296030131897
1.176229760617168
1.176168799760628
1.176123255803604
1.176100400795579
1.176093723879658
1.1760932137802
1.176094124308046
1.176096067778599
1.176099707879198
1.176105356255688
1.176113573500832
1.176125019071124
1.176140302385456
1.176159940709622
1.176184363337877
1.176213892142698
1.176248711642724
1.176288855510247
1.176334207368952
1.176384510346175
1.176439360573764
1.176498107770949
1.176559681330533
1.176622341399332
1.176682649155953
1.176733397447723
1.176765202887678
1.176777798255463
1.176779780507867
1.176779215804699
1.176777707013625
1.176774811191323
1.176770201986098
1.176763423595187
1.1767538462918
1.176740752037472
1.176723451995064
1.176701315211351
1.176673788978417
1.176640455333597
1.176601090870381
1.176555689703096
1.176504451121487
1.176447775752549
1.176386387145923
1.176321579339284
1.176255509562542
1.176192401683331
1.176140781805336
1.176110394707288
1.176099515617579
1.176097727526128
1.176098229236842
1.176099855243517
1.176103104582725
1.176108233101026
1.176115689291827
1.176126047586968
1.176139894611122
1.176157779623749
1.176180208472797
1.176207603814081
1.176240243777832
1.176278226831361
1.176321471536938
1.176369734210849
1.176422634452599
1.176479618413859
1.176539789300829
1.176601691636092
1.17666272425618
1.176717339625629
1.176756273324253
1.17677447930819
1.176779221859062
1.176779366202237
1.176778120641805
1.176775609308392
1.176771316257866
1.176765004810831
1.176756197049631
1.176744288134405
1.176728624695324
1.176708528604423
1.176683340008191
1.176652505158493
1.176615666578347
1.176572712783297
1.176523789227781
1.176469279731795
1.176409825118252
1.176346519445397
1.17628118556362
1.176217077580834
1.17616093912821
1.176122927095457
1.176106601957364
1.176102678143499
1.176102286862605
1.176103512582247
1.176106248858744
1.176110940856045
1.176117867053309
1.176127462323142
1.176140205641005
1.176156581163609
1.17617710700662
1.176202313233346
1.176232642233337
1.176268346630207
1.176309444946887
1.176355726535661
1.176406788421795
1.176462073839112
1.176520776713552
1.176581644335795
1.176642661480694
1.176699623366799
1.176744405727746
1.176769513354815
1.176777846544354
1.176779133189586
1.176778712990884
1.176776790790885
1.176772996765691
1.176767065406187
1.1767586801514
1.176747458554701
1.176732949405601
1.176714593013392
1.176691697900823
1.176663522509585
1.176629445712245
1.176589128626086
1.176542587787625
1.17649018612272
1.176432578666993
1.176370781120337
1.176306402127098
1.176242032681021
1.17618290400328
1.17613847695305
1.176115411538129
1.176108399595599
1.176107286194055
1.17610755483748
1.176109420789146
1.176113317754274
1.176119628653878
1.176128715267982
1.176140877550054
1.176156354558205
1.17617542805817
1.176198546537288
1.176226317572138
1.17625933751575
1.176297962762106
1.176342161187391
1.176391501583211
1.176445284163281
1.17650264196877
1.176562418452348
1.176622977613063
1.176681246102233
1.17673049165176
1.176762393160779
1.176775456668644
1.176778086380738
1.17677840737911
1.176777438493478
1.176774846913884
1.176770004562519
1.176762387546116
1.176751571648789
1.176737337931071
1.176719598000385
1.176698154817977
1.176672518664628
1.176641897314843
1.17660531643531
1.176561930415134
1.176511615361541
1.176455642878785
1.176395005054552
1.176331744000768
1.176255274173685
)
;

boundaryField
{
    inlet
    {
        type            calculated;
        value           uniform 1.176427481426743;
    }
    outlet
    {
        type            calculated;
        value           uniform 1.176221106462073;
    }
    frontAndBack
    {
        type            empty;
    }
}


// ************************************************************************* //
