/*--------------------------------*- C++ -*----------------------------------*\
| =========                 |                                                 |
| \\      /  F ield         | OpenFOAM: The Open Source CFD Toolbox           |
|  \\    /   O peration     | Version:  v2012                                 |
|   \\  /    A nd           | Website:  www.openfoam.com                      |
|    \\/     M anipulation  |                                                 |
\*---------------------------------------------------------------------------*/
FoamFile
{
    version     2.0;
    format      ascii;
    class       volScalarField;
    location    "0.0155";
    object      T;
}
// * * * * * * * * * * * * * * * * * * * * * * * * * * * * * * * * * * * * * //

dimensions      [0 0 0 1 0 0 0];


internalField   nonuniform List<scalar> 
1000
(
300.0082248958288
300.0068467019072
300.01358362384
300.0186931973645
300.0236799461161
300.0282389670843
300.0325598807565
300.0365318694525
300.0399643005541
300.0423175142006
300.0431940925395
300.0433939021607
300.0432601712394
300.042477177012
300.0407711029463
300.0381287197796
300.0346481887893
300.0304883353743
300.0257940242995
300.0206659498616
300.0151827111916
300.0094293885793
300.0035081099279
299.9975319140117
299.991613743702
299.9858604378306
299.980367850271
299.9752055420904
299.9703984053376
299.9659527062371
299.9620069014582
299.9590425122456
299.9575804979585
299.9573020613301
299.9573659399246
299.9577015090105
299.9584779678197
299.9598966416425
299.9621207408333
299.9652156794967
299.9691322514545
299.9737297951168
299.9788294235791
299.984266312003
299.9899147937011
299.9956835486212
300.0014964309477
300.0072765236127
300.0129437110511
300.0184291899113
300.0236945299939
300.0287231855754
300.0334577875154
300.0376455645325
300.0406706643178
300.0420491994765
300.0423279080947
300.0423375866297
300.042095863692
300.0414753234996
300.0403073316511
300.0384348877965
300.0357480433187
300.0322135809535
300.0278859240314
300.0228957926113
300.0174187926736
300.0116365946221
300.005707057318
299.9997516887468
299.9938576990811
299.9880859665205
299.9824748533272
299.9770412140373
299.9718048804305
299.9668720767849
299.9626036382716
299.9596883437146
299.9584570724729
299.9582254117706
299.9582392553492
299.9584867659174
299.9590846878883
299.9601759553265
299.9619021695883
299.9643755528639
299.9676532076254
299.971720884974
299.976491297891
299.9818185154521
299.9875248836747
299.9934323215175
299.9993890516337
300.0052852485642
300.0110554868186
300.0166737495373
300.0221416746951
300.0274471112769
300.0324769234669
300.0368790096703
300.0399635757127
300.0413015749342
300.0415859498601
300.0416367927639
300.0414592985871
300.040982032924
300.0400607914456
300.0385618387719
300.036369375033
300.0334054838855
300.0296457525218
300.025129826851
300.0199614374132
300.014295036165
300.0083114463948
300.0021880856491
299.996071461581
299.9900608009193
299.9842055852676
299.9785174517627
299.973015994921
299.9678332658978
299.9633721149815
299.9603434627989
299.9590736390699
299.9588142470694
299.9587838319836
299.9589717205349
299.9594492848492
299.9603413037333
299.9617688485554
299.9638411282448
299.9666365335669
299.9701885381209
299.9744759770572
299.9794203517905
299.9848926663486
299.9907303021253
299.9967620541383
300.0028358123946
300.0088392582717
300.0147083418355
300.0204216348571
300.0259561646146
300.0311864460663
300.0357592345096
300.03901020555
300.0404682206786
300.0408042679385
300.0408921253418
300.040771001376
300.040402196061
300.0396570623342
300.0384168175566
300.0365732755808
300.0340403617804
300.0307662406115
300.0267454187473
300.0220262790292
300.0167103350359
300.0109419705591
300.0048888187336
299.998715490821
299.992559223529
299.9865157482504
299.9806388390615
299.9749768622892
299.9696787992261
299.96514123775
299.9620391689331
299.9607128941446
299.9604173117281
299.9603490683712
299.960485202845
299.9608623702758
299.9615948743356
299.9627874820764
299.9645397623842
299.9669328373818
299.9700179005574
299.9738068896819
299.9782664735804
299.9833171973983
299.988839481443
299.9946877100473
300.0007113773062
300.0067766692558
300.0127811523515
300.0186598590028
300.0243582438309
300.0297353782807
300.0344439153549
300.0378664512163
300.0394965482575
300.0399012534706
300.0400170871862
300.0399526255305
300.0396813069817
300.0390939261005
300.0380829042871
300.0365485216253
300.0344047672622
300.031586833569
300.0280614346851
300.0238354541351
300.0189600420755
300.013528970214
300.0076698749053
300.0015276226781
299.995244553675
299.9889452282864
299.9827284239747
299.9766902229598
299.9710262673665
299.9661794540509
299.9628465666539
299.9613868169116
299.9610486680655
299.9609584643649
299.9610521521178
299.9613524791046
299.9619623933655
299.9629784840958
299.964493008598
299.9665858811525
299.9693162741577
299.9727147385378
299.9767771314554
299.9814611981761
299.9866870681443
299.9923435428429
299.9983013544501
300.0044298253821
300.010610371007
300.0167462740624
300.0227495958692
300.0284518062558
300.0334749496674
300.0371869244242
300.0390417053025
300.0395282183753
300.0396550280745
300.0396349545237
300.0394334508002
300.0389594214785
300.0381120671123
300.0367977784817
300.0349322441128
300.0324454844108
300.0292905731256
300.0254513597278
300.0209472984723
300.0158351910197
300.0102064951447
300.0041781420875
299.9978788498981
299.9914375982609
299.9849761281745
299.9786218231931
299.972599256892
299.9673848931287
299.9637128090432
299.9620211101129
299.961611727536
299.9615058446917
299.9615602184197
299.96179725164
299.9623069583486
299.9631786529814
299.9644985257344
299.9663448636503
299.9687811062
299.9718487023568
299.9755616366977
299.9799026111974
299.9848213778333
299.9902368302394
299.9960446951945
300.0021294877699
300.0083747695102
300.014670470041
300.0209084927474
300.0269099144942
300.0322809587622
300.0363715379073
300.0385721532866
300.0392040635655
300.0393361368116
300.0393571667559
300.0392121412813
300.0388325642746
300.0381238752441
300.0369976339726
300.0353704677606
300.033169119989
300.0303384256611
300.0268476374729
300.0226944243175
300.0179077156826
300.0125483245864
300.006704623283
300.0004838393504
299.9940049546324
299.9873948911184
299.9807953770542
299.9744389807151
299.968818540531
299.9647186198991
299.9626906399042
299.9621598238166
299.9620453552667
299.9620622094555
299.9622435838617
299.9626649486326
299.9634104210492
299.9645618088249
299.9661955694804
299.968376736851
299.9711527966498
299.9745494699953
299.9785673233509
299.98317905573
299.9883290484586
299.9939372783289
299.9999074287078
300.0061339512062
300.0125054981802
300.0189048743437
300.0251577405051
300.0308795671248
300.035402386277
300.0380454858612
300.0389029898423
300.039052186548
300.0391052604633
300.0390052000328
300.0387076433018
300.0381187539817
300.0371547789204
300.0357343960825
300.03378288685
300.0312399246729
300.0280649328017
300.0242401478869
300.0197734853841
300.0147007300542
300.0090845576007
300.0030095114819
299.9965779077802
299.9899104422057
299.9831522004332
299.976528517841
299.9705150181679
299.9659246795046
299.9634408937508
299.9627013795328
299.9625803720338
299.9625617484731
299.9626966236933
299.9630414841154
299.9636756206594
299.9646773355669
299.9661221554041
299.9680765015936
299.9705919174875
299.973701978958
299.9774198070386
299.9817351535946
299.9866126224163
299.9919931421815
299.9977992354923
300.0039400436195
300.0103119475704
300.0167972057318
300.0232332450176
300.0292706669067
300.0342429922607
300.0374036859927
300.0385948706895
300.0387980656952
300.0388681250756
300.0388087981019
300.0385817190124
300.038098023591
300.0372778793724
300.0360420415523
300.0343141386035
300.0320294822317
300.0291407226025
300.0256196705898
300.021459071417
300.0166752822892
300.0113095130244
300.0054255054202
299.9991074492827
299.9924636197126
299.9856333907907
299.9788229021037
299.9724592449738
299.9673491922965
299.964312441085
299.9632633268142
299.9630968046727
299.9630560609138
299.9631520625885
299.9634284770045
299.9639638230064
299.9648319109963
299.9661071676346
299.9678574110591
299.9701373780985
299.972986199212
299.9764260022229
299.9804593894352
299.9850669410164
299.9902069406774
299.9958186276699
300.0018261535138
300.0081373307139
300.0146388740203
300.0211808313891
300.0274684693069
300.0328768968639
300.0365969418453
300.0382504063223
300.0385778413182
300.0386501792401
300.0386230216142
300.0384537792358
300.0380601247629
300.0373663753962
300.0362956939104
300.0347702251153
300.0327211984577
300.0300957114747
300.0268577400182
300.0229887229245
300.0184901376205
300.0133859515133
300.0077222189061
300.001565899791
299.9950094427238
299.9881801997864
299.9812641171741
299.9746264509169
299.9690159917857
299.9653620648254
299.9638811542944
299.9636077636725
299.9635550164804
299.9636184566196
299.9638358248509
299.9642833928091
299.9650306093844
299.966150563847
299.9677133165259
299.9697770206707
299.9723849762683
299.9755656564718
299.9793312702527
299.9836749872799
299.988569351771
299.993967896483
299.9998082492031
300.0060104932523
300.0124709319498
300.0190530646273
300.0255165108944
300.0313154026518
300.0356021810616
300.0378113475288
300.0383722597861
300.0384408527327
300.0384404303852
300.0383194607406
300.0380039654682
300.0374217095268
300.0364988769264
300.0351575169931
300.0333252990887
300.0309440232664
300.0279711803366
300.0243796717531
300.020159544541
300.015320819287
300.0098945939061
300.0039326342562
299.997511811738
299.9907450542497
299.9837984259686
299.9769727659985
299.9709180360829
299.966623368843
299.9645963895143
299.9641218865691
299.9640616920744
299.964097459476
299.9642650914841
299.9646353105818
299.9652743488653
299.9662531766687
299.9676432581853
299.9695060378741
299.9718887947881
299.9748253531066
299.9783355601293
299.9824225675223
299.9870705585783
299.9922450343739
299.9978952187305
300.0039535935963
300.0103289738948
300.0168961802826
300.0234563105378
300.0295678549887
300.0344036966237
300.0372312751507
300.0381588141933
300.0382525428387
300.0382693146248
300.0381849046595
300.0379352440946
300.0374502014481
300.0366607799834
300.035489138873
300.033858925819
300.0317062839692
300.0289830121912
300.025655470728
300.0217049756823
300.0171304363187
300.0119506267978
300.0062045504503
299.999954385584
299.9932968292688
299.9863792203806
299.9794488443232
299.9730382264121
299.9681179767907
299.9654556130781
299.9646530809978
299.9645691418932
299.964581879569
299.9647095378496
299.9650145694735
299.9655589776488
299.9664106906572
299.9676418573869
299.969317444863
299.9714888691463
299.9741944405596
299.9774600105093
299.9812969566281
299.98569949266
299.9906436227501
299.9960887711959
300.001978558346
300.00823359578
300.0147405308416
300.0213325311342
300.0276700462678
300.0330101475468
300.0364748557767
300.0378841305771
300.0380942511058
300.0381070241496
300.0380481267414
300.0378535259085
300.0374519386776
300.0367796032614
300.0357607442967
300.0343168359262
300.0323792382956
300.0298939709806
300.0268208784638
300.0231335493759
300.0188215851912
300.0138933449911
300.0083769915367
300.0023221647748
299.9958102409179
299.9889699157902
299.9820068536717
299.9753425657111
299.96984901759
299.9664930982055
299.9652456428683
299.9650671771336
299.9650701086275
299.965163697742
299.9654131040887
299.9658750312752
299.9666128396568
299.967698352209
299.9691998497993
299.9711727693879
299.973659347535
299.9766904612242
299.9802844797797
299.9844442512194
299.9891551380388
299.9943857144675
300.0000888736875
300.0061965900501
300.0126097717393
300.0191841942466
300.0256550052499
300.0314124853384
300.0355149154408
300.0375120653086
300.0379570756067
300.0379559425081
300.037920412793
300.0377650641292
300.037432153264
300.0368599945848
300.0359772820622
300.0347047543686
300.0329689862231
300.0307099717164
300.0278815094352
300.0244506450101
300.0203991679259
300.0157262586935
300.0104502476376
300.0046098578927
299.9982717156622
299.9915460799846
299.9846090425012
299.9777925548178
299.9718190042213
299.9677486635288
299.9659450616266
299.96556820359
299.9655606083585
299.9656280616261
299.9658315304669
299.9662235883468
299.9668622762532
299.9678166093453
299.9691570208223
299.9709431525166
299.973221478024
299.9760274580002
299.9793853304871
299.9833053746074
299.9877814839872
299.9927906574737
299.9982940465964
300.0042346596789
300.010526634093
300.0170412497814
300.0235668838895
300.0296404063878
300.0343587201056
300.036988825392
300.0377864161556
300.0378443695333
300.0378070319956
300.0376796590714
300.037402830823
300.0369157480557
300.036152132793
300.0350338898052
300.0334847576542
300.0314399380084
300.0288474256193
300.0256674137146
300.0218739508123
300.017457696846
300.0124281178347
300.0068145743858
300.0006707547255
299.994089960261
299.9872253368833
299.9803407576056
299.9740012661617
299.9692439477799
299.9667983644329
299.9660992736702
299.9660521829217
299.9661051405965
299.9662668822514
299.9665990158216
299.9671511424056
299.9679879096364
299.9691808378851
299.9707932079162
299.9728751567624
299.975465872781
299.9785945004415
299.9822779340655
299.9865179798312
299.9912998565488
299.9965928999653
300.0023497641092
300.0084964255748
300.0149190515898
300.0214438183274
300.0277222479672
300.0329761031045
300.0362739725761
300.0375747623589
300.0377527121734
300.0377070755881
300.0376060535862
300.0373712255546
300.0369516042639
300.0362884164509
300.0353070864972
300.0339294982317
300.0320861815643
300.029719227696
300.0267823902282
300.0232428119314
300.0190835179645
300.0143055630438
300.0089293054981
300.0029969402986
299.9965853489261
299.9898267217863
299.982938023497
299.9763572749076
299.9709925947388
299.9678257642766
299.9666854887374
299.9665319061336
299.9665778542405
299.9667028156158
299.9669852656222
299.9674645835275
299.9681987541938
299.9692577607202
299.9707085566747
299.9726056725436
299.9749920405364
299.977900856645
299.9813541977703
299.9853603591785
299.9899121018805
299.9949864765927
300.0005446081743
300.0065254271496
300.0128320913761
300.0193140491191
300.0256965241823
300.0313753161943
300.0353642861678
300.0372475748151
300.0376533396185
300.0376407758756
300.0375481695421
300.0373430242785
300.0369781919817
300.03639799948
300.0355351487125
300.0343116608229
300.0326542684364
300.030500445772
300.027798243222
300.0245077155965
300.0206042517219
300.0160809875359
300.0109500235862
300.0052439756505
299.9990246413482
299.9924032349067
299.9855650248184
299.9788515978995
299.9729878072883
299.969063017101
299.9673779675041
299.9670232515586
299.9670415608159
299.9671441512161
299.9673848831041
299.9678035529223
299.9684503747589
299.9693908486125
299.9706933069577
299.9724165138083
299.9746080380843
299.9773055740077
299.9805359113018
299.9843126774589
299.9886347184506
299.9934855745004
299.9988339722319
300.0046306223715
300.0107938818932
300.0171917799829
300.0236068567939
300.0295855328063
300.0342263839308
300.0367532329092
300.0375466241684
300.0375999175052
300.0375125414955
300.0373372527494
300.0370107410495
300.0364930671572
300.0357267914495
300.0346378260316
300.0331511425218
300.0311989686582
300.0287224766974
300.025674366668
300.0220228266853
300.0177540165483
300.0128730861557
300.0074047684811
300.0013976003344
299.9949422620844
299.9881972762302
299.9814335700085
299.9752114746365
299.9705627981012
299.9682299389222
299.9675484066094
299.96749633784
299.9675892761827
299.9677876501561
299.9681592040469
299.9687357458747
299.9695744931404
299.9707427529392
299.9723027223288
299.9743071888288
299.9767999565436
299.9798138602563
299.9833677101013
299.9874649148974
299.9920935647392
299.9972274076306
300.0028251882895
300.0088205051352
300.0151040677972
300.0214983045158
300.0276522986076
300.0328306585724
300.0360760111056
300.0373611969094
300.0375634569939
300.037505835116
300.0373518815363
300.0370564009061
300.0365860918947
300.0358944430092
300.0349171950354
300.033581075596
300.03181578876
300.0295569406184
300.026748115669
300.023346641059
300.0193296896119
300.0146966242286
300.009467740257
300.0036838768314
299.9974188289904
299.9908046206117
299.9840613905491
299.9776202403663
299.9723514554802
299.9692498035364
299.9681393475299
299.9679568311583
299.968008040106
299.9681740079495
299.9685056737441
299.9690291507877
299.9697902146902
299.9708474945622
299.9722608618726
299.9740863711605
299.9763756421072
299.979171798328
299.9825032066598
299.986379891025
299.9907935088387
299.9957191552432
300.0011179709166
300.0069333959235
300.0130738760327
300.0193908544892
300.0256188825201
300.0311918952084
300.0351646283151
300.0370223076292
300.037506219229
300.0375209462183
300.0373938519962
300.0371376033044
300.0366995541531
300.0360555520286
300.0351568282539
300.0339416617777
300.0323433771352
300.0302927688867
300.0277224911016
300.024576018199
300.0208168449478
300.0164335608152
300.0114409689671
300.0058781941445
299.9998105887386
299.993349765028
299.9866817284355
299.9801385888012
299.9744086691712
299.9705287671028
299.9688624287109
299.9684619150455
299.9684219748259
299.9685470848333
299.9688263801592
299.9693052993132
299.9700122646482
299.9709916606274
299.9722923716722
299.9739638086387
299.9760588453839
299.9786315709715
299.9817271203204
299.9853712534742
299.9895658313521
299.9942893211277
299.9995005596663
300.0051426894714
300.0111334138589
300.0173448651941
300.0235713796823
300.0293838931595
300.0339534538451
300.0365153673306
300.0373656549921
300.0374969384804
300.0374540615456
300.0372579250279
300.0368707939292
300.036265574696
300.0354099631715
300.0342649312207
300.0327844324069
300.0309113485457
300.0285751100504
300.025700030923
300.0222227059388
300.018108522089
300.0133591275558
300.0080115141828
300.0021324833677
299.9958256479925
299.9892551469339
299.9826854011447
299.9766503459978
299.9721157026433
299.9697613845818
299.9690456630081
299.9689320183815
299.9689594487566
299.9691499330196
299.9695477363116
299.9701919371531
299.9711194523483
299.972360882809
299.9739406089183
299.9758873655714
299.9782469002104
299.9810811979535
299.9844511089262
299.9883930101642
299.9929036386886
299.9979390114398
300.0034277661219
300.0092815261451
300.01538237432
300.0215634020012
300.0275108823321
300.0325376376915
300.0357945048579
300.0371288896772
300.0373977845255
300.0374302417669
300.0373291555766
300.0370595237122
300.0365582448877
300.0357719143472
300.0346543985368
300.0331786081142
300.0313353566888
300.0291180376609
300.0265031594863
300.0234276563239
300.0197689004206
300.015365827782
300.0101102060431
300.0041019331803
299.997721868657
299.9919252162774
299.9861885332832
)
;

boundaryField
{
    inlet
    {
        type            fixedValue;
        value           uniform 300;
    }
    outlet
    {
        type            temperatureOutletNSCBC;
        pInf            101325;
        gamma           1.4;
        etaAc           1;
        fieldInf        1;
        lInf            2.25;
        value           uniform 299.983625980023;
    }
    frontAndBack
    {
        type            empty;
    }
}


// ************************************************************************* //
