/*--------------------------------*- C++ -*----------------------------------*\
| =========                 |                                                 |
| \\      /  F ield         | OpenFOAM: The Open Source CFD Toolbox           |
|  \\    /   O peration     | Version:  v2012                                 |
|   \\  /    A nd           | Website:  www.openfoam.com                      |
|    \\/     M anipulation  |                                                 |
\*---------------------------------------------------------------------------*/
FoamFile
{
    version     2.0;
    format      ascii;
    class       volVectorField;
    location    "0.0155";
    object      U;
}
// * * * * * * * * * * * * * * * * * * * * * * * * * * * * * * * * * * * * * //

dimensions      [0 1 -1 0 0 0 0];


internalField   nonuniform List<vector> 
1000
(
(0.00263777445588387 0 0)
(0.03408913709744783 0 0)
(0.0419222194224741 0 0)
(0.05702202383743005 0 0)
(0.07096947037988499 0 0)
(0.08401178098551311 0 0)
(0.09517200670234958 0 0)
(0.1047484983850333 0 0)
(0.1128408163667928 0 0)
(0.1182109081018446 0 0)
(0.119811698326159 0 0)
(0.1197212266435642 0 0)
(0.1188996691104496 0 0)
(0.116468810217961 0 0)
(0.1117186320998004 0 0)
(0.1044352660930396 0 0)
(0.09488264687328107 0 0)
(0.08349720553236624 0 0)
(0.0706457781411136 0 0)
(0.05657722427125274 0 0)
(0.04149599252855505 0 0)
(0.02563670238304382 0 0)
(0.009285243532171694 0 0)
(-0.007243203893873996 0 0)
(-0.02363257214049172 0 0)
(-0.03957762117284458 0 0)
(-0.05479917644958439 0 0)
(-0.06909318380732912 0 0)
(-0.08238498560483642 0 0)
(-0.09467511345567829 0 0)
(-0.105611057992506 0 0)
(-0.1137746456737525 0 0)
(-0.1176694130188774 0 0)
(-0.1183618862846998 0 0)
(-0.1181731721669285 0 0)
(-0.1174661590366855 0 0)
(-0.1156117713009901 0 0)
(-0.112005214552747 0 0)
(-0.1061561623200395 0 0)
(-0.09783354461502701 0 0)
(-0.08714256748714834 0 0)
(-0.07446202230300356 0 0)
(-0.06028954337061971 0 0)
(-0.04509137967657464 0 0)
(-0.02923092347801405 0 0)
(-0.01298229667698394 0 0)
(0.003416129261917712 0 0)
(0.01971903074438581 0 0)
(0.03567219494434478 0 0)
(0.05106069682024907 0 0)
(0.0657663396712959 0 0)
(0.07974088609767017 0 0)
(0.09283918580751779 0 0)
(0.1043725560478903 0 0)
(0.1125449969347316 0 0)
(0.1160146878802412 0 0)
(0.1165791498828339 0 0)
(0.116252174717451 0 0)
(0.1155720353946116 0 0)
(0.1139469612458506 0 0)
(0.1109014951678043 0 0)
(0.1059484334738838 0 0)
(0.09872951206669335 0 0)
(0.08911032222743674 0 0)
(0.07721533728358093 0 0)
(0.06339700561600729 0 0)
(0.04814629319922274 0 0)
(0.03198134318469688 0 0)
(0.01536099641190751 0 0)
(-0.001352939062414099 0 0)
(-0.01789273032841773 0 0)
(-0.0340659806823932 0 0)
(-0.04974977949701749 0 0)
(-0.06489010949285241 0 0)
(-0.07942916007630078 0 0)
(-0.09307987279582255 0 0)
(-0.1048466008773236 0 0)
(-0.1127273985914753 0 0)
(-0.1157984570998366 0 0)
(-0.1162344293730202 0 0)
(-0.1159680774053295 0 0)
(-0.1153440383664526 0 0)
(-0.113886768856895 0 0)
(-0.1111694567070228 0 0)
(-0.1067466786498902 0 0)
(-0.1002494857855796 0 0)
(-0.09146944138265772 0 0)
(-0.08040841474911621 0 0)
(-0.0672862874043572 0 0)
(-0.05250182460337733 0 0)
(-0.03655641077979976 0 0)
(-0.0199641469641711 0 0)
(-0.00317433112139845 0 0)
(0.01347550020579015 0 0)
(0.02977085584179156 0 0)
(0.04561200475691697 0 0)
(0.0609837963996491 0 0)
(0.07583768751314891 0 0)
(0.08985346583089281 0 0)
(0.1020332177734599 0 0)
(0.1103704065857457 0 0)
(0.1137172623705818 0 0)
(0.1142360462176559 0 0)
(0.1138992970568855 0 0)
(0.1132889802671883 0 0)
(0.111954404261114 0 0)
(0.1095235778250186 0 0)
(0.1055820147910483 0 0)
(0.09975730530794429 0 0)
(0.09178317671852801 0 0)
(0.08155050841676113 0 0)
(0.06914094301404894 0 0)
(0.05482907470944254 0 0)
(0.03904521171661955 0 0)
(0.02230562112153955 0 0)
(0.005126237674934295 0 0)
(-0.01205838000949781 0 0)
(-0.02894558480925082 0 0)
(-0.04537635702699248 0 0)
(-0.06130382367905553 0 0)
(-0.07666235755439191 0 0)
(-0.0910797465836209 0 0)
(-0.1034150542272317 0 0)
(-0.1116005144236645 0 0)
(-0.114772681034749 0 0)
(-0.1152606296228729 0 0)
(-0.11495422299786 0 0)
(-0.1144094379511976 0 0)
(-0.1131861393831724 0 0)
(-0.1109571702369918 0 0)
(-0.1073403351067741 0 0)
(-0.1019780811250225 0 0)
(-0.09459873543191935 0 0)
(-0.0850617470316173 0 0)
(-0.07338896492400711 0 0)
(-0.05977534794458051 0 0)
(-0.04457151773656663 0 0)
(-0.02823662221143347 0 0)
(-0.01126693656539662 0 0)
(0.005884550060551077 0 0)
(0.02287038236090562 0 0)
(0.03947757602429763 0 0)
(0.05561636467440044 0 0)
(0.07119923732791149 0 0)
(0.08585902110571891 0 0)
(0.09857310242243814 0 0)
(0.1074154842154292 0 0)
(0.1111193678852417 0 0)
(0.1117224686827622 0 0)
(0.111443951665133 0 0)
(0.110873333844592 0 0)
(0.1097311019505532 0 0)
(0.1076955250548527 0 0)
(0.104409666205662 0 0)
(0.09953299435111325 0 0)
(0.0927775652683008 0 0)
(0.08395177852085639 0 0)
(0.07300049641395541 0 0)
(0.06002994353727784 0 0)
(0.04530795554172669 0 0)
(0.02923614304171954 0 0)
(0.01229388138980616 0 0)
(-0.005038308867311816 0 0)
(-0.02235123542354209 0 0)
(-0.03935136277995725 0 0)
(-0.0558654175649997 0 0)
(-0.07173917301203961 0 0)
(-0.0865415991447533 0 0)
(-0.09912776787981828 0 0)
(-0.1075385130230265 0 0)
(-0.110886440462081 0 0)
(-0.1114237744607757 0 0)
(-0.1111500299765454 0 0)
(-0.1106468553828914 0 0)
(-0.1095973158257585 0 0)
(-0.1077241980786986 0 0)
(-0.1047030984355586 0 0)
(-0.1002133662987657 0 0)
(-0.09397860690151803 0 0)
(-0.08580571094519987 0 0)
(-0.07561559793481146 0 0)
(-0.0634643803326124 0 0)
(-0.04954956359548097 0 0)
(-0.03419557949816563 0 0)
(-0.01781479182516514 0 0)
(-0.0008467166707127223 0 0)
(0.01630603593191788 0 0)
(0.03332327162753565 0 0)
(0.04998720759246418 0 0)
(0.0661097468499213 0 0)
(0.08126349657133591 0 0)
(0.09442862709289562 0 0)
(0.1038175723623459 0 0)
(0.1080393051750758 0 0)
(0.1087938833014698 0 0)
(0.108612273953101 0 0)
(0.1080804812711684 0 0)
(0.1071062153221733 0 0)
(0.1054016246736443 0 0)
(0.1026647144743242 0 0)
(0.0985952961753182 0 0)
(0.09291168127373368 0 0)
(0.08538442595754035 0 0)
(0.07587444691725809 0 0)
(0.06436212172925172 0 0)
(0.05096160603389664 0 0)
(0.03591857062555406 0 0)
(0.01958685753527149 0 0)
(0.002381115359264316 0 0)
(-0.01528129271301146 0 0)
(-0.03302692723420136 0 0)
(-0.05055174362931558 0 0)
(-0.06755861754129083 0 0)
(-0.08347079185576113 0 0)
(-0.0969957659149496 0 0)
(-0.1061118231875367 0 0)
(-0.1098594399329382 0 0)
(-0.1104798430810561 0 0)
(-0.1102563436787849 0 0)
(-0.1097640525756258 0 0)
(-0.1088230415316435 0 0)
(-0.1071847192031201 0 0)
(-0.1045676711001184 0 0)
(-0.1006859276356863 0 0)
(-0.09527251365923241 0 0)
(-0.08811245766158507 0 0)
(-0.0790711177726327 0 0)
(-0.06811546499583265 0 0)
(-0.05532758688956674 0 0)
(-0.04090691828622649 0 0)
(-0.02515496734625211 0 0)
(-0.008438521327236648 0 0)
(0.008858529788546827 0 0)
(0.02637516669174526 0 0)
(0.04380344094300713 0 0)
(0.06085688101144043 0 0)
(0.07701885042507593 0 0)
(0.09116584383781111 0 0)
(0.1014599391535933 0 0)
(0.1063682060368077 0 0)
(0.1073436553296892 0 0)
(0.107246295383663 0 0)
(0.1067345994543015 0 0)
(0.1058712413806543 0 0)
(0.1043729074781617 0 0)
(0.1019841740974295 0 0)
(0.09844014122481361 0 0)
(0.09347741300643206 0 0)
(0.08685822132272188 0 0)
(0.07840461522551953 0 0)
(0.06802643415165374 0 0)
(0.05573909096645414 0 0)
(0.04167225114496379 0 0)
(0.02606517205444116 0 0)
(0.009241857313895199 0 0)
(-0.008428548429702943 0 0)
(-0.02656619485601623 0 0)
(-0.04480350381406745 0 0)
(-0.06275242075427108 0 0)
(-0.07974598624962138 0 0)
(-0.0943831923008711 0 0)
(-0.1045321045296575 0 0)
(-0.1089823641235196 0 0)
(-0.1097889726391288 0 0)
(-0.1096411338934984 0 0)
(-0.1091686658583184 0 0)
(-0.1083160847528495 0 0)
(-0.1068514123653587 0 0)
(-0.1045343826519624 0 0)
(-0.1011121984226891 0 0)
(-0.09633408616462776 0 0)
(-0.08998015554046269 0 0)
(-0.08188732212073463 0 0)
(-0.07196835110737199 0 0)
(-0.06022693206294978 0 0)
(-0.04676761933473976 0 0)
(-0.03179407631130629 0 0)
(-0.01558920180148434 0 0)
(0.001518488184239955 0 0)
(0.01918409086649614 0 0)
(0.03706799990003953 0 0)
(0.05482674542690764 0 0)
(0.07190632650729781 0 0)
(0.08712983224940177 0 0)
(0.09860184220758275 0 0)
(0.1045669130687765 0 0)
(0.1059630279170233 0 0)
(0.1059729538617565 0 0)
(0.1055013524837525 0 0)
(0.1047434175078174 0 0)
(0.103413260705278 0 0)
(0.1012983898343971 0 0)
(0.09816906416695403 0 0)
(0.09378521960318663 0 0)
(0.08791241845658862 0 0)
(0.08035288481264699 0 0)
(0.07097309286213087 0 0)
(0.05972159349369204 0 0)
(0.04664075322340274 0 0)
(0.03187164988149474 0 0)
(0.01564476691739631 0 0)
(-0.001743231175524092 0 0)
(-0.01994985544503012 0 0)
(-0.03859887156316601 0 0)
(-0.05726445499995627 0 0)
(-0.07525353306533179 0 0)
(-0.09111099085861116 0 0)
(-0.1025575366657798 0 0)
(-0.1080248140220283 0 0)
(-0.1091759142140154 0 0)
(-0.109127889771869 0 0)
(-0.1086939120554577 0 0)
(-0.107938267900106 0 0)
(-0.1066274736619011 0 0)
(-0.1045569858562281 0 0)
(-0.1015042159254865 0 0)
(-0.09723956329727185 0 0)
(-0.09154963895062165 0 0)
(-0.08426033141250734 0 0)
(-0.07525292990956334 0 0)
(-0.06447772757351088 0 0)
(-0.05196675146417166 0 0)
(-0.03784025070989588 0 0)
(-0.02229947224390991 0 0)
(-0.005605607441675139 0 0)
(0.0119396960833417 0 0)
(0.03000428260344066 0 0)
(0.04822602779898023 0 0)
(0.06606434220065427 0 0)
(0.08236527509324552 0 0)
(0.0951697668422341 0 0)
(0.1024790375598095 0 0)
(0.1045770159999646 0 0)
(0.104706392319181 0 0)
(0.1043314862307628 0 0)
(0.1036648614151568 0 0)
(0.1024909065152966 0 0)
(0.100609043531297 0 0)
(0.0978198719413985 0 0)
(0.09390949181430709 0 0)
(0.08865499657306104 0 0)
(0.08185344303181948 0 0)
(0.07334744261330911 0 0)
(0.06304099999259255 0 0)
(0.05091175118093612 0 0)
(0.03702104677835528 0 0)
(0.0215151662027779 0 0)
(0.004614094856557797 0 0)
(-0.01339837109201662 0 0)
(-0.03217339208129429 0 0)
(-0.05128286245587108 0 0)
(-0.07005553914061757 0 0)
(-0.08708547498329668 0 0)
(-0.1000113913301381 0 0)
(-0.1068428248988594 0 0)
(-0.108602672442138 0 0)
(-0.1086848111778629 0 0)
(-0.1083086658834775 0 0)
(-0.1076604355514094 0 0)
(-0.1064930556369062 0 0)
(-0.104637363991943 0 0)
(-0.101897383001239 0 0)
(-0.0980637058551168 0 0)
(-0.09293207038283252 0 0)
(-0.08632590250845677 0 0)
(-0.07811062527657552 0 0)
(-0.06820377882241052 0 0)
(-0.05658649474585042 0 0)
(-0.04331366791607163 0 0)
(-0.02851534368757999 0 0)
(-0.01238564653116191 0 0)
(0.004829043968724796 0 0)
(0.02283024141463069 0 0)
(0.04126376687874239 0 0)
(0.05963203503427431 0 0)
(0.07688831172899747 0 0)
(0.09106216952262276 0 0)
(0.09994028913315983 0 0)
(0.1030842141898152 0 0)
(0.1034190930440679 0 0)
(0.1031601443645431 0 0)
(0.1025913296504081 0 0)
(0.101573792228786 0 0)
(0.09990750816753924 0 0)
(0.09741437537593511 0 0)
(0.09390402420010376 0 0)
(0.08916982387374979 0 0)
(0.083013548029333 0 0)
(0.07526766149876313 0 0)
(0.0658087546902256 0 0)
(0.05456930714142653 0 0)
(0.04154993090325488 0 0)
(0.02682677844250225 0 0)
(0.01054896246615283 0 0)
(-0.007063594645418855 0 0)
(-0.02570861549301912 0 0)
(-0.04498265717942065 0 0)
(-0.06427554630553578 0 0)
(-0.08233079968064971 0 0)
(-0.09679782216883148 0 0)
(-0.1052608001754548 0 0)
(-0.1079761673863511 0 0)
(-0.1082423600661716 0 0)
(-0.1079578921312024 0 0)
(-0.1074145161634767 0 0)
(-0.1063978952673046 0 0)
(-0.1047455891441919 0 0)
(-0.1022842987378504 0 0)
(-0.09882296156670735 0 0)
(-0.09416892757321242 0 0)
(-0.08814990469355698 0 0)
(-0.08062559447882815 0 0)
(-0.07149428445614132 0 0)
(-0.06070240473081798 0 0)
(-0.04825594041691534 0 0)
(-0.03422708450946427 0 0)
(-0.0187508530311401 0 0)
(-0.002018628439550922 0 0)
(0.01571662997987608 0 0)
(0.03412783220006597 0 0)
(0.05276724155916829 0 0)
(0.07075225898271616 0 0)
(0.08622737451575556 0 0)
(0.09680031887141458 0 0)
(0.1013737100628656 0 0)
(0.1021052482309021 0 0)
(0.1019659889248064 0 0)
(0.1015040241926318 0 0)
(0.1006453000495905 0 0)
(0.09918284149173617 0 0)
(0.09695490833374365 0 0)
(0.09379329876058976 0 0)
(0.08950898943216733 0 0)
(0.08391191001888226 0 0)
(0.07683174383420316 0 0)
(0.06812984001572804 0 0)
(0.05770919173781217 0 0)
(0.04552631710552496 0 0)
(0.03160202929946473 0 0)
(0.01602549865664814 0 0)
(-0.001043956299711341 0 0)
(-0.01936138382412523 0 0)
(-0.03856797499781389 0 0)
(-0.0581217126079064 0 0)
(-0.07695602891729898 0 0)
(-0.09288051504464884 0 0)
(-0.103160737085626 0 0)
(-0.1071899743908093 0 0)
(-0.1077934333335045 0 0)
(-0.107616686809262 0 0)
(-0.1071833312634976 0 0)
(-0.1063252169173614 0 0)
(-0.1048746326798162 0 0)
(-0.1026741544837973 0 0)
(-0.09954936466019669 0 0)
(-0.095317837566879 0 0)
(-0.08981263627115037 0 0)
(-0.08289328363965096 0 0)
(-0.07444923370824778 0 0)
(-0.0644064033022899 0 0)
(-0.05273745924640489 0 0)
(-0.03947075608818142 0 0)
(-0.02469237120780561 0 0)
(-0.008542928015036175 0 0)
(0.008775214860341123 0 0)
(0.02697619540804554 0 0)
(0.04566052042140245 0 0)
(0.06411461433715313 0 0)
(0.08072747601379356 0 0)
(0.09300436306424287 0 0)
(0.09926759373059069 0 0)
(0.1007105604987734 0 0)
(0.1007098704335514 0 0)
(0.1003702475498887 0 0)
(0.09967829243446977 0 0)
(0.09842256536437324 0 0)
(0.09645149802866539 0 0)
(0.09361258215815559 0 0)
(0.08973041564353916 0 0)
(0.08462434889078244 0 0)
(0.07812855178052512 0 0)
(0.07009990292315291 0 0)
(0.06042414628610385 0 0)
(0.04902713768960606 0 0)
(0.03588774154783405 0 0)
(0.02104609691667273 0 0)
(0.004607834817342819 0 0)
(-0.01323873047083586 0 0)
(-0.03218707715469604 0 0)
(-0.05176488550656119 0 0)
(-0.07110190337765496 0 0)
(-0.0882925662697947 0 0)
(-0.1004471136598646 0 0)
(-0.1061073257895735 0 0)
(-0.1073019276540137 0 0)
(-0.1072523861135706 0 0)
(-0.1069349125036322 0 0)
(-0.1062418311608734 0 0)
(-0.1049968908990807 0 0)
(-0.1030511548432317 0 0)
(-0.1002435197889395 0 0)
(-0.09640013295508419 0 0)
(-0.09135875287858604 0 0)
(-0.08498117506419782 0 0)
(-0.07715407012114285 0 0)
(-0.06779195163441372 0 0)
(-0.05684567432085749 0 0)
(-0.04431199857590375 0 0)
(-0.03023868074051082 0 0)
(-0.01472368774084458 0 0)
(0.002077215617997993 0 0)
(0.01992459726592458 0 0)
(0.0384680802680382 0 0)
(0.05713397927193396 0 0)
(0.07462239324173232 0 0)
(0.08850075434960372 0 0)
(0.09659925458545286 0 0)
(0.09918539530101587 0 0)
(0.09937708288591361 0 0)
(0.09915876875519641 0 0)
(0.09863870420408817 0 0)
(0.09759164716974121 0 0)
(0.09587371957049301 0 0)
(0.09334191932997403 0 0)
(0.08983118072732847 0 0)
(0.08517000095018867 0 0)
(0.07919916210520858 0 0)
(0.0717761357852105 0 0)
(0.06277778924072754 0 0)
(0.05211056285180361 0 0)
(0.03972390953735674 0 0)
(0.02562068622603697 0 0)
(0.009863034322808171 0 0)
(-0.007412745648254711 0 0)
(-0.02595905493700749 0 0)
(-0.04537242280350606 0 0)
(-0.06494454119032622 0 0)
(-0.08311670039747387 0 0)
(-0.09707654964481674 0 0)
(-0.1045881607026271 0 0)
(-0.106733905637234 0 0)
(-0.106860112705407 0 0)
(-0.1066530060616097 0 0)
(-0.1061242551797291 0 0)
(-0.1050835499242912 0 0)
(-0.1033888473747163 0 0)
(-0.1008866028652904 0 0)
(-0.09740859588990074 0 0)
(-0.09279559914130352 0 0)
(-0.08691232188455994 0 0)
(-0.07964620711260352 0 0)
(-0.07090639365948929 0 0)
(-0.06063017757625221 0 0)
(-0.04879244016269541 0 0)
(-0.0354122175184927 0 0)
(-0.02055412277950575 0 0)
(-0.004334007389975863 0 0)
(0.01305703652115876 0 0)
(0.03132126493949244 0 0)
(0.04998494484996146 0 0)
(0.06804749674636359 0 0)
(0.08334483227466813 0 0)
(0.09331447032315271 0 0)
(0.09737722389084592 0 0)
(0.09796533432795214 0 0)
(0.09786087343610213 0 0)
(0.09750858873712864 0 0)
(0.09667229514697738 0 0)
(0.09520480579960086 0 0)
(0.09297028787865988 0 0)
(0.08981397771227206 0 0)
(0.08556883804832223 0 0)
(0.08007969622919822 0 0)
(0.07320843247013413 0 0)
(0.06483134499589731 0 0)
(0.05484447678235833 0 0)
(0.0431765098412878 0 0)
(0.02980128830952435 0 0)
(0.01474568796526306 0 0)
(-0.001898676203843945 0 0)
(-0.01994090451465511 0 0)
(-0.03904168560155469 0 0)
(-0.05861892760825993 0 0)
(-0.07745784768318904 0 0)
(-0.09304317021488563 0 0)
(-0.1025338240476917 0 0)
(-0.1059820616145212 0 0)
(-0.106433296154518 0 0)
(-0.1063200367118032 0 0)
(-0.1059497973963157 0 0)
(-0.1051143440483437 0 0)
(-0.1036672765419722 0 0)
(-0.1014631736323709 0 0)
(-0.09833716444094226 0 0)
(-0.09413012829269359 0 0)
(-0.08870770347008673 0 0)
(-0.08195891074389743 0 0)
(-0.0737915660301789 0 0)
(-0.06413601678926559 0 0)
(-0.05295332712558487 0 0)
(-0.04024217782662523 0 0)
(-0.02604176060331494 0 0)
(-0.01043444323051479 0 0)
(0.006433632893529186 0 0)
(0.02431250913871534 0 0)
(0.04280178169306708 0 0)
(0.06115038663501005 0 0)
(0.07760239106609534 0 0)
(0.08938811043479392 0 0)
(0.09514302549545056 0 0)
(0.09644850268325511 0 0)
(0.09650019537041932 0 0)
(0.09627781152429493 0 0)
(0.09565672221692872 0 0)
(0.09444208109125242 0 0)
(0.09250415938436284 0 0)
(0.08969258884994713 0 0)
(0.08584240596155646 0 0)
(0.0808016967684877 0 0)
(0.07443873945881808 0 0)
(0.06663347280390634 0 0)
(0.05727744613524096 0 0)
(0.04628608358350644 0 0)
(0.03361265908607056 0 0)
(0.01925768463639897 0 0)
(0.003277086780909252 0 0)
(-0.01419024178043332 0 0)
(-0.03286732334754508 0 0)
(-0.05227316404230182 0 0)
(-0.07147390181847484 0 0)
(-0.08837769927300129 0 0)
(-0.0998786631963833 0 0)
(-0.1049370812238824 0 0)
(-0.1059823967661661 0 0)
(-0.1059510255712774 0 0)
(-0.1057265928112885 0 0)
(-0.1050892810682935 0 0)
(-0.1038842956673585 0 0)
(-0.1019727227668078 0 0)
(-0.09919241673579193 0 0)
(-0.09538122532635608 0 0)
(-0.09040168951918007 0 0)
(-0.08414286983991191 0 0)
(-0.07651254791464619 0 0)
(-0.0674372060946485 0 0)
(-0.05686908700879272 0 0)
(-0.04479341815724971 0 0)
(-0.03123173842634141 0 0)
(-0.01624273769448736 0 0)
(6.237030718794678e-05 0 0)
(0.01748058463002835 0 0)
(0.03568146334166022 0 0)
(0.05408576360883836 0 0)
(0.07134202178188076 0 0)
(0.08480969875632739 0 0)
(0.09238994128748093 0 0)
(0.09478854369077629 0 0)
(0.09502083616928772 0 0)
(0.09493947232316234 0 0)
(0.09451836031971832 0 0)
(0.09355278944416365 0 0)
(0.09190698955959629 0 0)
(0.08943268030172039 0 0)
(0.08596829638159181 0 0)
(0.08136054661023982 0 0)
(0.07547901807661583 0 0)
(0.06820835124197185 0 0)
(0.05944166418301961 0 0)
(0.04908788683514743 0 0)
(0.03708595731894004 0 0)
(0.02341635596382155 0 0)
(0.008107943439585798 0 0)
(-0.008742276960279549 0 0)
(-0.0269171649927664 0 0)
(-0.04602116481991472 0 0)
(-0.06532229349703506 0 0)
(-0.08318105803677393 0 0)
(-0.09660686765296066 0 0)
(-0.1035115151686089 0 0)
(-0.1054546090448948 0 0)
(-0.1055497174412007 0 0)
(-0.1054547807765382 0 0)
(-0.1050000708804492 0 0)
(-0.1040292603151669 0 0)
(-0.1024015553497945 0 0)
(-0.0999579676955837 0 0)
(-0.09653194187260013 0 0)
(-0.09198102953739985 0 0)
(-0.08619285087377132 0 0)
(-0.07907472432100712 0 0)
(-0.07055019220940227 0 0)
(-0.0605652781339964 0 0)
(-0.04909569758523651 0 0)
(-0.03615042007709446 0 0)
(-0.02177243699927968 0 0)
(-0.006046540629406775 0 0)
(0.01086929094823587 0 0)
(0.0286987347024065 0 0)
(0.04696807883564626 0 0)
(0.06468098051252376 0 0)
(0.07961774086660939 0 0)
(0.08908466448237136 0 0)
(0.09287758266887874 0 0)
(0.09345138505791971 0 0)
(0.09351872708679228 0 0)
(0.09326592767060703 0 0)
(0.09254548469003357 0 0)
(0.09118355550102684 0 0)
(0.08904087557663964 0 0)
(0.08595566913270429 0 0)
(0.08176965944301373 0 0)
(0.07635166199656024 0 0)
(0.06959080785079036 0 0)
(0.06138346542302955 0 0)
(0.05163534526757384 0 0)
(0.04027545364352068 0 0)
(0.02726942052925624 0 0)
(0.01262747620618443 0 0)
(-0.003584450195980022 0 0)
(-0.0212050479144769 0 0)
(-0.03990890129613361 0 0)
(-0.05910375015264725 0 0)
(-0.07755283880792806 0 0)
(-0.09266937111943996 0 0)
(-0.1015832264521888 0 0)
(-0.1047379264108414 0 0)
(-0.1051438499579862 0 0)
(-0.1051441283946499 0 0)
(-0.1048455687573184 0 0)
(-0.1040950779520639 0 0)
(-0.1027329334765136 0 0)
(-0.1006092849360149 0 0)
(-0.09755541765565268 0 0)
(-0.09342125627697187 0 0)
(-0.0880899025154757 0 0)
(-0.08146741239150179 0 0)
(-0.07347480241142983 0 0)
(-0.06405216695648862 0 0)
(-0.05316649687344283 0 0)
(-0.04081692933207851 0 0)
(-0.02703590948717717 0 0)
(-0.01189029338717973 0 0)
(0.004495862850420057 0 0)
(0.02189111885670448 0 0)
(0.03990730853651087 0 0)
(0.05780576605434534 0 0)
(0.07385786538046052 0 0)
(0.08517417259727347 0 0)
(0.09056371056214894 0 0)
(0.09185130094074201 0 0)
(0.09201826994820939 0 0)
(0.09190689194181569 0 0)
(0.0914156709916964 0 0)
(0.09033598851063881 0 0)
(0.08851997654550156 0 0)
(0.08580587778250905 0 0)
(0.08203273633312642 0 0)
(0.07706483055529667 0 0)
(0.0707922300785977 0 0)
(0.0631160992967276 0 0)
(0.05394405745756475 0 0)
(0.04319929262472572 0 0)
(0.03083479790827714 0 0)
(0.01684487932996427 0 0)
(0.001272352492906748 0 0)
(-0.01576283763424552 0 0)
(-0.03399478748600354 0 0)
(-0.05294095904023949 0 0)
(-0.07167102455769971 0 0)
(-0.08810885052492395 0 0)
(-0.09908507363048455 0 0)
(-0.1037569410908549 0 0)
(-0.1047501690580309 0 0)
(-0.104797330011738 0 0)
(-0.1046437576588628 0 0)
(-0.1040971310564398 0 0)
(-0.1029898821389448 0 0)
(-0.101173296560053 0 0)
(-0.09847567397509484 0 0)
(-0.09474087235375908 0 0)
(-0.0898491085300908 0 0)
(-0.08370672138774238 0 0)
(-0.07623274587584002 0 0)
(-0.06736048361392828 0 0)
(-0.05704688953137404 0 0)
(-0.04527976530183576 0 0)
(-0.03208072688566745 0 0)
(-0.01750595346656809 0 0)
(-0.001658106618036221 0 0)
(0.01527423549604413 0 0)
(0.03296630098656581 0 0)
(0.05083420289784062 0 0)
(0.06758323306156357 0 0)
(0.08064391293395687 0 0)
(0.08782043516176587 0 0)
(0.09016185387926602 0 0)
(0.09040187317630477 0 0)
(0.09047185540807821 0 0)
(0.09017550880344559 0 0)
(0.08935991917645467 0 0)
(0.08785921702715922 0 0)
(0.0855092669723256 0 0)
(0.08213920693643517 0 0)
(0.07760626394038171 0 0)
(0.07180241336735424 0 0)
(0.06463602551675948 0 0)
(0.05601876375367057 0 0)
(0.04587004332249894 0 0)
(0.03413163528465568 0 0)
(0.02078186858061603 0 0)
(0.005845409824203796 0 0)
(-0.01058852378973047 0 0)
(-0.02831229285253111 0 0)
(-0.04692716743980419 0 0)
(-0.06569530709673052 0 0)
(-0.08301880801073963 0 0)
(-0.09597433616295385 0 0)
(-0.102459704027806 0 0)
(-0.1043038688513207 0 0)
(-0.1044048430887927 0 0)
(-0.1044082766689373 0 0)
(-0.1040435744022296 0 0)
(-0.1031830407123148 0 0)
(-0.1016651002884016 0 0)
(-0.09931595034137666 0 0)
(-0.09596698770050764 0 0)
(-0.09149143134923 0 0)
(-0.08579904843763853 0 0)
(-0.07881539858371465 0 0)
(-0.07047446873925733 0 0)
(-0.06072515439173379 0 0)
(-0.04954073519698815 0 0)
(-0.0369264704059275 0 0)
(-0.02292369030081159 0 0)
(-0.007615456250520114 0 0)
(0.008842885662170464 0 0)
(0.02616850365574619 0 0)
(0.04388171375283174 0 0)
(0.06102561617659646 0 0)
(0.07552621846275558 0 0)
(0.08459634128928765 0 0)
(0.088162865487597 0 0)
(0.08879317505960743 0 0)
(0.08892966353922173 0 0)
(0.08878462348876302 0 0)
(0.08823092038884242 0 0)
(0.08705162532282568 0 0)
(0.08507256520941006 0 0)
(0.08210991103430909 0 0)
(0.07800806069391736 0 0)
(0.0726545510406042 0 0)
(0.06596474976701988 0 0)
(0.05786417923182447 0 0)
(0.04828302730395938 0 0)
(0.03716005913563216 0 0)
(0.02445528626146795 0 0)
(0.01016839996209866 0 0)
(-0.005643804434796981 0 0)
(-0.02282489574304789 0 0)
(-0.04103929882114422 0 0)
(-0.05968532211952455 0 0)
(-0.07756499930232323 0 0)
(-0.09220927726218457 0 0)
(-0.100728721521638 0 0)
(-0.1036515246232801 0 0)
(-0.1040931006541108 0 0)
(-0.1041032243861278 0 0)
(-0.1038877204629473 0 0)
(-0.1032589816697651 0 0)
(-0.1020434506812639 0 0)
(-0.1000540614745105 0 0)
(-0.09709984297422078 0 0)
(-0.09303511848131921 0 0)
(-0.08776675138789886 0 0)
(-0.08123211689627334 0 0)
(-0.07337968707966439 0 0)
(-0.0641647131414992 0 0)
(-0.053554238865298 0 0)
(-0.04153586944936051 0 0)
(-0.02812777542848543 0 0)
(-0.01338691097321509 0 0)
(0.002567273284048975 0 0)
(0.01949848131067634 0 0)
(0.03699927381012209 0 0)
(0.05432064821602055 0 0)
(0.06982888798411001 0 0)
(0.08083230082769209 0 0)
(0.0859375915224611 0 0)
(0.08725203433974106 0 0)
(0.08727230291774715 0 0)
(0.08729442836758859 0 0)
(0.08693895732176345 0 0)
(0.08606310510259715 0 0)
(0.08447240843448879 0 0)
(0.08195081510717891 0 0)
(0.07830545880607419 0 0)
(0.07340312236986483 0 0)
(0.06716319478103649 0 0)
(0.05953180654534858 0 0)
(0.0504622240836469 0 0)
(0.03990863946333578 0 0)
(0.02783050771634421 0 0)
(0.01420700515754376 0 0)
(-0.0009427248096484885 0 0)
(-0.01752337114617377 0 0)
(-0.03528076241951215 0 0)
(-0.05371620109316754 0 0)
(-0.07188639681188166 0 0)
(-0.08778968974686303 0 0)
(-0.09844467170446847 0 0)
(-0.1028904499331709 0 0)
(-0.1038495002815421 0 0)
(-0.1037762667378668 0 0)
(-0.1036579946238473 0 0)
(-0.1031920431538846 0 0)
(-0.1022491477346307 0 0)
(-0.1006310912543028 0 0)
(-0.09811660368097112 0 0)
(-0.09451199784826081 0 0)
(-0.08968817554286754 0 0)
(-0.08357683549989588 0 0)
(-0.07614897710577277 0 0)
(-0.06739272384484521 0 0)
(-0.05729862415234163 0 0)
(-0.04585659866956864 0 0)
(-0.03306496340259815 0 0)
(-0.01894570673711264 0 0)
(-0.003566961862972401 0 0)
(0.01289994139078076 0 0)
(0.03011223780593204 0 0)
(0.04746786262373865 0 0)
(0.06370942841034406 0 0)
(0.07644482492346304 0 0)
(0.08344579745971982 0 0)
(0.08557602050996915 0 0)
(0.08581138140738 0 0)
(0.08572681280512279 0 0)
(0.08545980662199294 0 0)
(0.08481162326931034 0 0)
(0.08358789697686565 0 0)
(0.08154983542213999 0 0)
(0.07844869119571329 0 0)
(0.07408183946694823 0 0)
(0.06832249534825628 0 0)
(0.06111744836676552 0 0)
(0.05246293768101747 0 0)
(0.04237073742733052 0 0)
(0.03084044904329859 0 0)
(0.01785378933547652 0 0)
(0.003397464548095105 0 0)
(-0.01249708655856323 0 0)
(-0.02967665289671599 0 0)
(-0.04776242170819849 0 0)
(-0.06601819804459898 0 0)
(-0.08286878139725054 0 0)
(-0.09549669075359418 0 0)
(-0.1019048223428837 0 0)
(-0.1036146544513563 0 0)
(-0.1037224498292918 0 0)
(-0.1034988560503642 0 0)
(-0.1030618296400047 0 0)
(-0.1022568260956991 0 0)
(-0.1009338068062462 0 0)
(-0.09887614778517226 0 0)
(-0.09583487904103417 0 0)
(-0.09158863721240824 0 0)
(-0.08598670862729721 0 0)
(-0.07896890387509876 0 0)
(-0.07055985780271781 0 0)
(-0.06083190435888162 0 0)
(-0.04985120561049658 0 0)
(-0.03763992949160753 0 0)
(-0.02418319097302106 0 0)
(-0.009472758825606963 0 0)
(0.006417996097177352 0 0)
(0.02323315962232154 0 0)
(0.04047774753273383 0 0)
(0.05718433653734385 0 0)
(0.07130272742494502 0 0)
(0.0803372615271786 0 0)
(0.08390281609998788 0 0)
(0.08452106358276207 0 0)
(0.08437495281382139 0 0)
(0.08407706613451278 0 0)
(0.08342240640001003 0 0)
(0.0823131138544472 0 0)
(0.08061111613442271 0 0)
(0.07809610798693424 0 0)
(0.0744897571290431 0 0)
(0.0695144313354146 0 0)
(0.06295411856868843 0 0)
(0.05470044645045945 0 0)
(0.04478385734344739 0 0)
(0.03338468397510036 0 0)
(0.02077504541580317 0 0)
(0.007110384276483385 0 0)
(-0.007710181383129359 0 0)
(-0.02419917847165488 0 0)
(-0.04130820103603587 0 0)
(-0.06192181086980026 0 0)
)
;

boundaryField
{
    inlet
    {
        type            zeroGradient;
    }
    outlet
    {
        type            velocityOutletNSCBCx;
        pInf            101325;
        gamma           1.4;
        etaAc           1;
        fieldInf        (-1 0 0);
        lInf            2.25;
        value           uniform (-0.06962655892182647 0 0);
    }
    frontAndBack
    {
        type            empty;
    }
}


// ************************************************************************* //
