/*--------------------------------*- C++ -*----------------------------------*\
| =========                 |                                                 |
| \\      /  F ield         | OpenFOAM: The Open Source CFD Toolbox           |
|  \\    /   O peration     | Version:  v2012                                 |
|   \\  /    A nd           | Website:  www.openfoam.com                      |
|    \\/     M anipulation  |                                                 |
\*---------------------------------------------------------------------------*/
FoamFile
{
    version     2.0;
    format      ascii;
    class       volVectorField;
    location    "0.0155";
    object      UMean;
}
// * * * * * * * * * * * * * * * * * * * * * * * * * * * * * * * * * * * * * //

dimensions      [0 1 -1 0 0 0 0];


internalField   nonuniform List<vector> 
1000
(
(0.000827205070999802 0 0)
(0.0007888601866598539 0 0)
(0.0007891107219146952 0 0)
(0.0007661892058854565 0 0)
(0.0007407864488128575 0 0)
(0.0006989833452512597 0 0)
(0.0006567325613765698 0 0)
(0.0006060597083252219 0 0)
(0.0005551826241298524 0 0)
(0.0004995632050665417 0 0)
(0.0004425305985302123 0 0)
(0.0003841568096408713 0 0)
(0.0003260007361213717 0 0)
(0.0002686663745260889 0 0)
(0.0002129967214588856 0 0)
(0.0001603615511650875 0 0)
(0.0001116752253816617 0 0)
(6.812863876787286e-05 0 0)
(3.024981692893374e-05 0 0)
(-1.066501362064538e-06 0 0)
(-2.54333616615763e-05 0 0)
(-4.238142592456475e-05 0 0)
(-5.166359415292284e-05 0 0)
(-5.30842663263955e-05 0 0)
(-4.655591941695134e-05 0 0)
(-3.23557297317753e-05 0 0)
(-1.048680492820015e-05 0 0)
(1.848331080004997e-05 0 0)
(5.418740763338228e-05 0 0)
(9.619634068610453e-05 0 0)
(0.0001440612500953175 0 0)
(0.000196743693723144 0 0)
(0.0002527193042978886 0 0)
(0.0003099485830070752 0 0)
(0.0003673247884788918 0 0)
(0.0004244393569046441 0 0)
(0.0004809199390479203 0 0)
(0.0005359657515570034 0 0)
(0.000588638492570314 0 0)
(0.0006378202594927314 0 0)
(0.0006824793607691208 0 0)
(0.000721367320134653 0 0)
(0.0007538888062181934 0 0)
(0.000779341398771985 0 0)
(0.0007974655894545483 0 0)
(0.000807851291574642 0 0)
(0.0008104663994250034 0 0)
(0.0008052768639734599 0 0)
(0.0007923633937566015 0 0)
(0.0007719995122693177 0 0)
(0.0007444124667275984 0 0)
(0.0007098203077818388 0 0)
(0.0006686653986697315 0 0)
(0.0006214178032762823 0 0)
(0.0005690195057667978 0 0)
(0.0005134819490983483 0 0)
(0.0004567038319387254 0 0)
(0.0003998935294826881 0 0)
(0.0003432233714047446 0 0)
(0.0002870940566676176 0 0)
(0.0002321075792389123 0 0)
(0.0001789547761260643 0 0)
(0.0001287850425249262 0 0)
(8.276737971017399e-05 0 0)
(4.184946491738674e-05 0 0)
(7.150498710699031e-06 0 0)
(-2.056214522406507e-05 0 0)
(-4.076735578900871e-05 0 0)
(-5.320885650256475e-05 0 0)
(-5.763136624057758e-05 0 0)
(-5.40439925653825e-05 0 0)
(-4.270457889186703e-05 0 0)
(-2.358291776638331e-05 0 0)
(2.908991190928739e-06 0 0)
(3.663902046951568e-05 0 0)
(7.718676067654571e-05 0 0)
(0.0001242300069479194 0 0)
(0.0001762233118011338 0 0)
(0.0002312775247000329 0 0)
(0.0002872255485341841 0 0)
(0.0003434843259846365 0 0)
(0.0003994122844719668 0 0)
(0.0004548491207977902 0 0)
(0.0005092285274386193 0 0)
(0.0005617462495990483 0 0)
(0.0006114558013794415 0 0)
(0.000657556547245305 0 0)
(0.000698679837515788 0 0)
(0.0007340666393910055 0 0)
(0.0007626711488996671 0 0)
(0.0007840432690166077 0 0)
(0.0007976306096058566 0 0)
(0.0008031763083680059 0 0)
(0.000800783050603576 0 0)
(0.0007905596561997418 0 0)
(0.0007726368610355116 0 0)
(0.0007473219645437499 0 0)
(0.0007147201303164592 0 0)
(0.0006750309099314677 0 0)
(0.0006290022490557907 0 0)
(0.0005775981910069685 0 0)
(0.0005230131991516894 0 0)
(0.0004672221509889624 0 0)
(0.0004114100809037521 0 0)
(0.0003555970012588631 0 0)
(0.0003002329007652379 0 0)
(0.0002457949974518645 0 0)
(0.000192779614248042 0 0)
(0.0001421680624347689 0 0)
(9.493464679860621e-05 0 0)
(5.215144975234437e-05 0 0)
(1.479724522004501e-05 0 0)
(-1.605715683246408e-05 0 0)
(-3.976708364460563e-05 0 0)
(-5.558367101484986e-05 0 0)
(-6.352890468795232e-05 0 0)
(-6.308402371221326e-05 0 0)
(-5.45442476004753e-05 0 0)
(-3.800145861714112e-05 0 0)
(-1.36989973577659e-05 0 0)
(1.825233463825995e-05 0 0)
(5.725495474080965e-05 0 0)
(0.0001031187899519565 0 0)
(0.0001541783716370074 0 0)
(0.0002083783596495654 0 0)
(0.0002634509692135886 0 0)
(0.0003190426748965476 0 0)
(0.0003741915648074428 0 0)
(0.0004291407567092361 0 0)
(0.000483071753629211 0 0)
(0.0005356081295916757 0 0)
(0.0005856981426648749 0 0)
(0.0006327268019944958 0 0)
(0.0006755643896624278 0 0)
(0.000713225800588589 0 0)
(0.0007447700089246788 0 0)
(0.0007694437420010994 0 0)
(0.0007866677219822707 0 0)
(0.0007957602158770181 0 0)
(0.0007967733205523692 0 0)
(0.0007897697597875092 0 0)
(0.0007746335245410458 0 0)
(0.0007518524311980509 0 0)
(0.000721408013583522 0 0)
(0.0006836565135634961 0 0)
(0.0006391905863219203 0 0)
(0.000589276353571264 0 0)
(0.0005358453271721355 0 0)
(0.0004812616671624756 0 0)
(0.0004262377848439761 0 0)
(0.0003714892863867083 0 0)
(0.0003170535716366883 0 0)
(0.0002632149146932652 0 0)
(0.0002106932766100191 0 0)
(0.0001600898446098622 0 0)
(0.0001122400776506452 0 0)
(6.840478141888201e-05 0 0)
(2.919845431199748e-05 0 0)
(-4.043023276695967e-06 0 0)
(-3.074091332570967e-05 0 0)
(-4.98101486367656e-05 0 0)
(-6.143470420058308e-05 0 0)
(-6.456148885861541e-05 0 0)
(-5.945658272811427e-05 0 0)
(-4.616334233109649e-05 0 0)
(-2.486488304523585e-05 0 0)
(4.286518303575255e-06 0 0)
(4.079891952121683e-05 0 0)
(8.410918240741928e-05 0 0)
(0.000132892378446001 0 0)
(0.0001847982924312416 0 0)
(0.0002378256602513633 0 0)
(0.0002909253411681803 0 0)
(0.0003443034920516417 0 0)
(0.0003972675877825175 0 0)
(0.0004493376353497498 0 0)
(0.0005003839693033839 0 0)
(0.0005492964579920181 0 0)
(0.0005955497444154859 0 0)
(0.0006382504507435383 0 0)
(0.0006764023655229903 0 0)
(0.0007091068068465153 0 0)
(0.000735552041347827 0 0)
(0.0007550718914411579 0 0)
(0.0007667849022146462 0 0)
(0.0007706025126448977 0 0)
(0.0007664300940194342 0 0)
(0.0007540320106069333 0 0)
(0.0007337079291438096 0 0)
(0.0007054936282464504 0 0)
(0.0006699178047321779 0 0)
(0.0006272203691213514 0 0)
(0.0005790577165167521 0 0)
(0.0005270300677304581 0 0)
(0.0004738198200822211 0 0)
(0.0004197056267923341 0 0)
(0.0003664168646675737 0 0)
(0.0003128621739332671 0 0)
(0.0002599399454742644 0 0)
(0.0002080175298155683 0 0)
(0.0001577529387328828 0 0)
(0.0001096956601672522 0 0)
(6.504747708245629e-05 0 0)
(2.44996933694613e-05 0 0)
(-1.080520015477859e-05 0 0)
(-4.017368077030421e-05 0 0)
(-6.245946603729828e-05 0 0)
(-7.750036797257373e-05 0 0)
(-8.449894352899127e-05 0 0)
(-8.310579482333597e-05 0 0)
(-7.323064060645019e-05 0 0)
(-5.505806796825172e-05 0 0)
(-2.851135293013831e-05 0 0)
(5.956343980549438e-06 0 0)
(4.756887407584573e-05 0 0)
(9.508833953829892e-05 0 0)
(0.0001460084981900636 0 0)
(0.0001982050590859338 0 0)
(0.0002503374924918737 0 0)
(0.0003031566855130257 0 0)
(0.0003552362257911544 0 0)
(0.0004068217314603228 0 0)
(0.0004573762373700286 0 0)
(0.0005062605507622142 0 0)
(0.0005527480834819011 0 0)
(0.0005959965029766978 0 0)
(0.000635382211507781 0 0)
(0.0006697191407439857 0 0)
(0.0006984108024901955 0 0)
(0.0007204009146505927 0 0)
(0.0007355153315837467 0 0)
(0.0007422763128181321 0 0)
(0.0007412864970850702 0 0)
(0.0007319674542685923 0 0)
(0.0007144224622579567 0 0)
(0.0006886138094531582 0 0)
(0.0006550020844142476 0 0)
(0.0006138852030457944 0 0)
(0.0005668063151858972 0 0)
(0.000515624515068547 0 0)
(0.0004629543216518436 0 0)
(0.0004093889766768344 0 0)
(0.0003564999961360076 0 0)
(0.0003032274789066797 0 0)
(0.0002507525048069775 0 0)
(0.0001987759302989597 0 0)
(0.0001484795526887194 0 0)
(9.994267066676515e-05 0 0)
(5.429821068793689e-05 0 0)
(1.243574340092657e-05 0 0)
(-2.4804295101533e-05 0 0)
(-5.647942316171366e-05 0 0)
(-8.174576989735943e-05 0 0)
(-9.969896496218827e-05 0 0)
(-0.0001103543399943193 0 0)
(-0.0001125274423107869 0 0)
(-0.0001060789106048847 0 0)
(-9.108242332729349e-05 0 0)
(-6.739348879163765e-05 0 0)
(-3.538740329225226e-05 0 0)
(4.43298108591386e-06 0 0)
(5.039323018467859e-05 0 0)
(0.0001003732290334181 0 0)
(0.0001517028071648383 0 0)
(0.0002033144652569693 0 0)
(0.0002549486134967135 0 0)
(0.000306613949504913 0 0)
(0.0003577997976911491 0 0)
(0.0004078563185401934 0 0)
(0.0004566539151987441 0 0)
(0.000503315877835517 0 0)
(0.0005469850848479786 0 0)
(0.0005872650600306944 0 0)
(0.0006229359606783392 0 0)
(0.0006534725708825389 0 0)
(0.0006776767298215282 0 0)
(0.0006955095619113116 0 0)
(0.0007051321313076706 0 0)
(0.0007071716938436529 0 0)
(0.0007009460157614946 0 0)
(0.000686351818387659 0 0)
(0.0006631810445039484 0 0)
(0.0006318469159111209 0 0)
(0.0005927092241219519 0 0)
(0.0005469404349471255 0 0)
(0.0004967327090967205 0 0)
(0.0004444639398770292 0 0)
(0.0003917492218240715 0 0)
(0.0003384186643039174 0 0)
(0.0002860784450949908 0 0)
(0.0002337612835717203 0 0)
(0.0001819081575530706 0 0)
(0.0001314315473179736 0 0)
(8.260165716161988e-05 0 0)
(3.621116280819848e-05 0 0)
(-6.929062078560524e-06 0 0)
(-4.573544563006264e-05 0 0)
(-7.949093105069624e-05 0 0)
(-0.0001073088616773982 0 0)
(-0.0001280737908144706 0 0)
(-0.0001420339268702461 0 0)
(-0.0001476894158747434 0 0)
(-0.0001446588491063695 0 0)
(-0.0001329978481238244 0 0)
(-0.0001124419243341684 0 0)
(-8.317231349950088e-05 0 0)
(-4.556686464016667e-05 0 0)
(-1.348414134730787e-06 0 0)
(4.748513438060447e-05 0 0)
(9.794864591522805e-05 0 0)
(0.000149102932974978 0 0)
(0.0001994418344583068 0 0)
(0.0002510517540909941 0 0)
(0.000301468616833687 0 0)
(0.0003512337820615842 0 0)
(0.0003996855789168123 0 0)
(0.0004465070589342882 0 0)
(0.0004905422823406352 0 0)
(0.0005313771790547814 0 0)
(0.0005682204954247748 0 0)
(0.0006002279983380121 0 0)
(0.0006264689269242646 0 0)
(0.000646494706385246 0 0)
(0.0006591411187333814 0 0)
(0.0006638441448474749 0 0)
(0.0006606312863313849 0 0)
(0.0006489884194841237 0 0)
(0.0006287042184223351 0 0)
(0.0005999000201502875 0 0)
(0.000562904371105561 0 0)
(0.0005188475411987887 0 0)
(0.0004696355653145931 0 0)
(0.0004179343541082729 0 0)
(0.0003657122642100915 0 0)
(0.0003125839885299999 0 0)
(0.0002607796872370166 0 0)
(0.0002084753144991369 0 0)
(0.0001568964678121599 0 0)
(0.0001061916400100906 0 0)
(5.714048131562032e-05 0 0)
(1.017316958406572e-05 0 0)
(-3.407448187986962e-05 0 0)
(-7.426100045542156e-05 0 0)
(-0.0001099113141716387 0 0)
(-0.000139865993094025 0 0)
(-0.0001635974827801771 0 0)
(-0.0001798569876968017 0 0)
(-0.0001891831621821543 0 0)
(-0.0001896033011605962 0 0)
(-0.0001813855389480591 0 0)
(-0.0001640320332377022 0 0)
(-0.0001378455558686978 0 0)
(-0.0001028773420447931 0 0)
(-6.058305446874502e-05 0 0)
(-1.318789130121474e-05 0 0)
(3.645826622460848e-05 0 0)
(8.684847236662519e-05 0 0)
(0.000136682778759332 0 0)
(0.0001873635974758561 0 0)
(0.0002372213724237365 0 0)
(0.0002867459545558982 0 0)
(0.0003348387787714916 0 0)
(0.0003816092572206252 0 0)
(0.0004259718651175434 0 0)
(0.0004673057173604835 0 0)
(0.0005049670005594672 0 0)
(0.0005382831296733292 0 0)
(0.000566296795195581 0 0)
(0.0005881704269570644 0 0)
(0.0006036804840984417 0 0)
(0.0006109012911793256 0 0)
(0.0006104632990553242 0 0)
(0.0006017967009107695 0 0)
(0.0005844758814560162 0 0)
(0.0005583890509279081 0 0)
(0.0005237896388512738 0 0)
(0.0004817134565119105 0 0)
(0.0004337478088740821 0 0)
(0.0003827460223107542 0 0)
(0.000330749391818565 0 0)
(0.000278492891953609 0 0)
(0.0002259879404647497 0 0)
(0.0001744109467987457 0 0)
(0.0001230074126449567 0 0)
(7.225153377912021e-05 0 0)
(2.28631057124326e-05 0 0)
(-2.449347590344371e-05 0 0)
(-6.956657631340466e-05 0 0)
(-0.000111177935653772 0 0)
(-0.0001484047467678272 0 0)
(-0.0001803879194779439 0 0)
(-0.0002066111257955689 0 0)
(-0.0002254479091724629 0 0)
(-0.0002379744628521588 0 0)
(-0.0002417714184992778 0 0)
(-0.0002368645169946662 0 0)
(-0.0002229225420773053 0 0)
(-0.0001998999089144319 0 0)
(-0.0001678835578443113 0 0)
(-0.0001279148878021532 0 0)
(-8.213287796931576e-05 0 0)
(-3.343021726876766e-05 0 0)
(1.607215042322596e-05 0 0)
(6.582163533700705e-05 0 0)
(0.0001147076361182759 0 0)
(0.0001648208182527327 0 0)
(0.0002137600883128167 0 0)
(0.0002616096077841363 0 0)
(0.0003081344457229685 0 0)
(0.0003527741414604369 0 0)
(0.0003945887885844734 0 0)
(0.0004328375070604132 0 0)
(0.0004672587015579167 0 0)
(0.0004967638885539289 0 0)
(0.0005205089021135018 0 0)
(0.000538204794648949 0 0)
(0.0005480831427645663 0 0)
(0.0005502117570451313 0 0)
(0.0005444948232741604 0 0)
(0.000530020989951484 0 0)
(0.0005069109667530524 0 0)
(0.0004748731051556893 0 0)
(0.0004349714946578849 0 0)
(0.0003886049344608901 0 0)
(0.0003384082308097993 0 0)
(0.0002866819667946699 0 0)
(0.0002350647886528032 0 0)
(0.000182190395799887 0 0)
(0.00013139497322386 0 0)
(7.988023166846778e-05 0 0)
(2.923569821097137e-05 0 0)
(-2.046845647355482e-05 0 0)
(-6.824847371420865e-05 0 0)
(-0.0001139313501166397 0 0)
(-0.0001567159247848469 0 0)
(-0.0001955182686362342 0 0)
(-0.0002293160782674863 0 0)
(-0.0002576614526864145 0 0)
(-0.0002793980506823723 0 0)
(-0.0002940491874704062 0 0)
(-0.0003014504976398886 0 0)
(-0.000299908365078332 0 0)
(-0.0002894396236639009 0 0)
(-0.0002696901309136664 0 0)
(-0.0002408788506879026 0 0)
(-0.0002035813097152796 0 0)
(-0.000159654035767027 0 0)
(-0.00011210736792983 0 0)
(-6.33705365348969e-05 0 0)
(-1.424070794809691e-05 0 0)
(3.396431848124377e-05 0 0)
(8.349469610779064e-05 0 0)
(0.0001317600113225001 0 0)
(0.0001794920779700207 0 0)
(0.0002257513181997851 0 0)
(0.000270381659215017 0 0)
(0.0003126797166862294 0 0)
(0.0003515329615146206 0 0)
(0.0003866822434972782 0 0)
(0.0004175298377896687 0 0)
(0.0004430391582031942 0 0)
(0.000462305805633365 0 0)
(0.0004753694189555051 0 0)
(0.0004796894235918838 0 0)
(0.0004765970621647467 0 0)
(0.000465020480661507 0 0)
(0.0004448094474482426 0 0)
(0.000415629167404129 0 0)
(0.0003780767597396477 0 0)
(0.0003335355455424118 0 0)
(0.000284357426373826 0 0)
(0.0002330996081616949 0 0)
(0.0001815936321675826 0 0)
(0.000129589872569179 0 0)
(7.801577118251486e-05 0 0)
(2.700463703892858e-05 0 0)
(-2.344692104521698e-05 0 0)
(-7.331923337022772e-05 0 0)
(-0.0001215783494286229 0 0)
(-0.0001677166090459233 0 0)
(-0.0002113797305753016 0 0)
(-0.0002517151062157819 0 0)
(-0.0002872216852970318 0 0)
(-0.0003174855434281466 0 0)
(-0.0003418652608767781 0 0)
(-0.0003587076006944941 0 0)
(-0.0003694172652615356 0 0)
(-0.0003712242203616136 0 0)
(-0.0003640301860514324 0 0)
(-0.0003477648786061249 0 0)
(-0.0003221364915166344 0 0)
(-0.0002878601875805815 0 0)
(-0.0002461372047504104 0 0)
(-0.0001999769837228313 0 0)
(-0.0001519699673264359 0 0)
(-0.0001037766089744092 0 0)
(-5.543259115028551e-05 0 0)
(-8.021233786053569e-06 0 0)
(4.064329133101168e-05 0 0)
(8.792303313292752e-05 0 0)
(0.0001339692155494636 0 0)
(0.0001784719964224112 0 0)
(0.0002210361056867767 0 0)
(0.0002605402450563477 0 0)
(0.0002963083676106715 0 0)
(0.0003281463762869255 0 0)
(0.000355329287957004 0 0)
(0.0003762467771647602 0 0)
(0.0003915919175698396 0 0)
(0.0003983211796543189 0 0)
(0.000397739394087647 0 0)
(0.0003890852679334593 0 0)
(0.000371679332280296 0 0)
(0.0003454917969639473 0 0)
(0.0003104891329851718 0 0)
(0.0002679821665621937 0 0)
(0.0002201333951156885 0 0)
(0.0001694697536009104 0 0)
(0.0001180386361085279 0 0)
(6.683440990486425e-05 0 0)
(1.439798546556006e-05 0 0)
(-3.563502871341091e-05 0 0)
(-8.628231054840178e-05 0 0)
(-0.0001361643210811833 0 0)
(-0.0001847927327969442 0 0)
(-0.0002315440840369405 0 0)
(-0.000275793195600448 0 0)
(-0.0003174087646574168 0 0)
(-0.0003546448868767968 0 0)
(-0.0003866192453874054 0 0)
(-0.0004133029363648384 0 0)
(-0.0004329601721592978 0 0)
(-0.0004457577946608507 0 0)
(-0.0004511366550014366 0 0)
(-0.0004473036685181375 0 0)
(-0.0004345400315011291 0 0)
(-0.0004122947006161502 0 0)
(-0.000381123958278546 0 0)
(-0.0003420378562573019 0 0)
(-0.000297382848582202 0 0)
(-0.0002504655059514351 0 0)
(-0.0002029531298424167 0 0)
(-0.0001550902762518198 0 0)
(-0.0001085601241641761 0 0)
(-6.024202434411869e-05 0 0)
(-1.367675299737485e-05 0 0)
(3.23364731359318e-05 0 0)
(7.663324655908079e-05 0 0)
(0.0001192014854729998 0 0)
(0.0001593040251506174 0 0)
(0.0001957302262054805 0 0)
(0.0002283237089898705 0 0)
(0.0002568238970952207 0 0)
(0.000279523935996308 0 0)
(0.0002962474683584849 0 0)
(0.0003064521955550058 0 0)
(0.0003078173571201571 0 0)
(0.0003017256439956052 0 0)
(0.0002871855690339353 0 0)
(0.0002638412132567153 0 0)
(0.0002317664019708985 0 0)
(0.0001913485997960762 0 0)
(0.0001452367571160176 0 0)
(9.495848702393611e-05 0 0)
(4.403942361870204e-05 0 0)
(-7.079826069142341e-06 0 0)
(-5.869558580589149e-05 0 0)
(-0.0001096198510327028 0 0)
(-0.0001598564465343104 0 0)
(-0.0002095576646265305 0 0)
(-0.0002584846807742033 0 0)
(-0.0003057685221864746 0 0)
(-0.0003506558874303617 0 0)
(-0.000393049977292293 0 0)
(-0.0004320969511112615 0 0)
(-0.0004657490645951692 0 0)
(-0.0004942385291217025 0 0)
(-0.0005169078436067082 0 0)
(-0.0005315112573841718 0 0)
(-0.0005404384207565046 0 0)
(-0.0005399479639347976 0 0)
(-0.0005304814893808994 0 0)
(-0.0005117688927697538 0 0)
(-0.0004837762132609706 0 0)
(-0.0004475907774506661 0 0)
(-0.000404840150069755 0 0)
(-0.0003591247443566013 0 0)
(-0.0003122246921400202 0 0)
(-0.0002652705829794394 0 0)
(-0.0002184623815760212 0 0)
(-0.0001724397326420325 0 0)
(-0.0001253224217795726 0 0)
(-7.96812096288314e-05 0 0)
(-3.55764685235152e-05 0 0)
(6.969070082088037e-06 0 0)
(4.728786538242698e-05 0 0)
(8.470825348184058e-05 0 0)
(0.0001175190310921385 0 0)
(0.0001475198601250644 0 0)
(0.0001718359316632957 0 0)
(0.000189894140205557 0 0)
(0.0002026370179198611 0 0)
(0.0002062458567689235 0 0)
(0.0002026489377100401 0 0)
(0.0001910206179470818 0 0)
(0.0001704652093027701 0 0)
(0.0001412951642882253 0 0)
(0.000103476786834527 0 0)
(5.885440938716754e-05 0 0)
(1.012864105685263e-05 0 0)
(-4.110406614211711e-05 0 0)
(-9.196036476172704e-05 0 0)
(-0.0001426659496450062 0 0)
(-0.0001947279513159063 0 0)
(-0.0002438813950149044 0 0)
(-0.0002939001274259248 0 0)
(-0.0003428710839228767 0 0)
(-0.0003906082904419988 0 0)
(-0.0004362399754226408 0 0)
(-0.0004791190841391307 0 0)
(-0.0005198007181000825 0 0)
(-0.0005548449265414617 0 0)
(-0.0005852904256896206 0 0)
(-0.0006104041539492728 0 0)
(-0.0006278361464241238 0 0)
(-0.00063875695364722 0 0)
(-0.0006419326892289412 0 0)
(-0.0006358605864938192 0 0)
(-0.0006206698528667954 0 0)
(-0.0005961633298005843 0 0)
(-0.0005628023597277742 0 0)
(-0.0005227425284775405 0 0)
(-0.0004776063228315215 0 0)
(-0.0004324835696988632 0 0)
(-0.0003858281482173346 0 0)
(-0.0003393225877351733 0 0)
(-0.000294381139340902 0 0)
(-0.0002474651735992364 0 0)
(-0.0002025449871658349 0 0)
(-0.0001583598637824106 0 0)
(-0.0001159823542534757 0 0)
(-7.559488688097078e-05 0 0)
(-3.75657452895168e-05 0 0)
(-3.916104369494249e-06 0 0)
(2.665918114964323e-05 0 0)
(5.262489681314995e-05 0 0)
(7.229422799124964e-05 0 0)
(8.631924647515311e-05 0 0)
(9.362335142544267e-05 0 0)
(9.182061970778831e-05 0 0)
(8.271871422316687e-05 0 0)
(6.505813596049847e-05 0 0)
(3.864860754129159e-05 0 0)
(3.724485751374444e-06 0 0)
(-3.911122392362416e-05 0 0)
(-8.632624884317525e-05 0 0)
(-0.0001373831159415324 0 0)
(-0.0001881138005990872 0 0)
(-0.0002385994627727622 0 0)
(-0.0002899218059622283 0 0)
(-0.0003401545985765893 0 0)
(-0.0003896959521819272 0 0)
(-0.0004385638019408289 0 0)
(-0.0004866724211431416 0 0)
(-0.0005329073634869853 0 0)
(-0.0005766217542278214 0 0)
(-0.0006177506149197302 0 0)
(-0.0006554071177160094 0 0)
(-0.0006868660064576547 0 0)
(-0.000714295254690614 0 0)
(-0.000734741227055789 0 0)
(-0.0007473051933718424 0 0)
(-0.0007542479258934893 0 0)
(-0.0007515210815290745 0 0)
(-0.000739637360986389 0 0)
(-0.0007186877239070411 0 0)
(-0.0006885259808611327 0 0)
(-0.0006509503075736947 0 0)
(-0.0006076894204980378 0 0)
(-0.0005630425760607522 0 0)
(-0.0005176627844615587 0 0)
(-0.0004717662533964089 0 0)
(-0.0004263759714187193 0 0)
(-0.0003819857077539313 0 0)
(-0.0003362255378399434 0 0)
(-0.0002924727173051387 0 0)
(-0.0002502496262103883 0 0)
(-0.0002098149458253668 0 0)
(-0.0001716710092754242 0 0)
(-0.000136549211525713 0 0)
(-0.0001064991538980402 0 0)
(-7.850105915247574e-05 0 0)
(-5.746000727577234e-05 0 0)
(-4.188650580506718e-05 0 0)
(-3.206229522122443e-05 0 0)
(-3.153868068626349e-05 0 0)
(-3.820361421971878e-05 0 0)
(-5.297365488122526e-05 0 0)
(-7.657723254587094e-05 0 0)
(-0.0001087830016865823 0 0)
(-0.0001490548181690572 0 0)
(-0.0001952927312678425 0 0)
(-0.0002448336833882391 0 0)
(-0.0002960257986925622 0 0)
(-0.0003464758842884009 0 0)
(-0.0003968162012018387 0 0)
(-0.0004484809640166409 0 0)
(-0.0004967679908724177 0 0)
(-0.0005462255699801252 0 0)
(-0.000594356516166225 0 0)
(-0.0006411334039060848 0 0)
(-0.0006857489014100126 0 0)
(-0.0007272178248850329 0 0)
(-0.0007669236194445858 0 0)
(-0.0007998222054381726 0 0)
(-0.0008289064459261395 0 0)
(-0.0008520925046325197 0 0)
(-0.0008676887041789896 0 0)
(-0.0008763643447042415 0 0)
(-0.0008775199818081668 0 0)
(-0.0008690729433486755 0 0)
(-0.0008516416355850283 0 0)
(-0.0008249715181519161 0 0)
(-0.000789958473512304 0 0)
(-0.0007492042256623801 0 0)
(-0.0007047155517715053 0 0)
(-0.0006604902682281219 0 0)
(-0.0006157070392530553 0 0)
(-0.0005703238808478373 0 0)
(-0.0005269327246664517 0 0)
(-0.0004815171224052006 0 0)
(-0.000438321590410434 0 0)
(-0.0003959078759034042 0 0)
(-0.0003556414951942635 0 0)
(-0.0003173898410479545 0 0)
(-0.0002815603104172241 0 0)
(-0.0002506665229380856 0 0)
(-0.000222064803652616 0 0)
(-0.0001988662098666981 0 0)
(-0.0001825825620833466 0 0)
(-0.0001710918529087797 0 0)
(-0.0001666866132682843 0 0)
(-0.0001717101142339787 0 0)
(-0.0001838486420507307 0 0)
(-0.0002045679634051275 0 0)
(-0.0002340283018010631 0 0)
(-0.0002716253799374992 0 0)
(-0.0003163139142149941 0 0)
(-0.0003645989697156742 0 0)
(-0.0004154783583613803 0 0)
(-0.0004664714341890731 0 0)
(-0.0005163324401895189 0 0)
(-0.0005673291581999335 0 0)
(-0.0006170951733029286 0 0)
(-0.0006657972885412447 0 0)
(-0.0007139901345235714 0 0)
(-0.0007612551573541186 0 0)
(-0.0008065381920316988 0 0)
(-0.0008489328767821245 0 0)
(-0.0008890934389629632 0 0)
(-0.0009246687776822021 0 0)
(-0.0009547576855932474 0 0)
(-0.000980787306868339 0 0)
(-0.0009989970584660449 0 0)
(-0.001009514024636932 0 0)
(-0.001014475571482243 0 0)
(-0.001009459055712971 0 0)
(-0.000995294457074937 0 0)
(-0.0009721764327754812 0 0)
(-0.0009403191099138357 0 0)
(-0.000901624868380446 0 0)
(-0.0008587782730028626 0 0)
(-0.000814828335001958 0 0)
(-0.0007711580914469728 0 0)
(-0.000726395455995546 0 0)
(-0.0006825473038343609 0 0)
(-0.0006397478011575978 0 0)
(-0.0005953692452313834 0 0)
(-0.0005535469695703181 0 0)
(-0.0005133162889294795 0 0)
(-0.0004750079386190763 0 0)
(-0.0004391096187167497 0 0)
(-0.0004063994960957955 0 0)
(-0.00037876412322802 0 0)
(-0.0003536044689679378 0 0)
(-0.0003351206206673442 0 0)
(-0.000322662707187951 0 0)
(-0.0003158372100558254 0 0)
(-0.0003180104272140091 0 0)
(-0.000327988922231165 0 0)
(-0.0003457175311200502 0 0)
(-0.000372413380594654 0 0)
(-0.0004074195323984544 0 0)
(-0.0004498195580726753 0 0)
(-0.0004973230208662939 0 0)
(-0.0005472573161070627 0 0)
(-0.0005980722465625389 0 0)
(-0.0006487361070743113 0 0)
(-0.0006984697269540334 0 0)
(-0.0007499199843149873 0 0)
(-0.0007973003802877658 0 0)
(-0.0008462752685152759 0 0)
(-0.0008935238535737273 0 0)
(-0.0009394773860725727 0 0)
(-0.0009829574941577952 0 0)
(-0.001023189873882373 0 0)
(-0.001061398033509917 0 0)
(-0.001093012231210844 0 0)
(-0.001119830930082808 0 0)
(-0.001142268273878896 0 0)
(-0.001155268942930286 0 0)
(-0.001161554946797313 0 0)
(-0.001160815443746108 0 0)
(-0.001150109308520259 0 0)
(-0.001130515531524226 0 0)
(-0.001102063961195408 0 0)
(-0.001065854970511514 0 0)
(-0.001024873619433275 0 0)
(-0.0009814464795629796 0 0)
(-0.0009380301635054501 0 0)
(-0.0008951856098581461 0 0)
(-0.0008506814490644308 0 0)
(-0.0008089276276554263 0 0)
(-0.000765402131520022 0 0)
(-0.0007236300177914206 0 0)
(-0.0006832570446335091 0 0)
(-0.0006451261174697399 0 0)
(-0.0006091134722602865 0 0)
(-0.0005755559403817652 0 0)
(-0.0005471849178909707 0 0)
(-0.0005210552766683228 0 0)
(-0.0005007051684984029 0 0)
(-0.0004873773056711355 0 0)
(-0.0004788629722386803 0 0)
(-0.0004771141088974267 0 0)
(-0.0004855577184901421 0 0)
(-0.0005007589989130133 0 0)
(-0.0005244174467212927 0 0)
(-0.0005567450896801241 0 0)
(-0.0005968624511213582 0 0)
(-0.0006428034209168769 0 0)
(-0.0006921757261685898 0 0)
(-0.0007424476661897748 0 0)
(-0.0007935555628456097 0 0)
(-0.0008433116462649803 0 0)
(-0.0008936279244378575 0 0)
(-0.0009437554840661734 0 0)
(-0.0009909521836433495 0 0)
(-0.00103872119814731 0 0)
(-0.001085176552832585 0 0)
(-0.001129472093140276 0 0)
(-0.001170732146799217 0 0)
(-0.001209374582052811 0 0)
(-0.001243561308215111 0 0)
(-0.001272284329969483 0 0)
(-0.001295864986850827 0 0)
(-0.001313209741422297 0 0)
(-0.001321180745265263 0 0)
(-0.001323767556326773 0 0)
(-0.001316880725994131 0 0)
(-0.001300421602744181 0 0)
(-0.001275490310849809 0 0)
(-0.001242372823464487 0 0)
(-0.00120304050884118 0 0)
(-0.00116119400493964 0 0)
(-0.001117826400029621 0 0)
(-0.001075243039527592 0 0)
(-0.001032847190441529 0 0)
(-0.0009893581607244228 0 0)
(-0.0009494576300851884 0 0)
(-0.0009053590892533574 0 0)
(-0.0008660827105435527 0 0)
(-0.0008277457912579446 0 0)
(-0.0007917694073716993 0 0)
(-0.0007581978828572098 0 0)
(-0.0007277351067503307 0 0)
(-0.0007025939763673918 0 0)
(-0.0006805305760040696 0 0)
(-0.0006640886609889091 0 0)
(-0.0006559373464003601 0 0)
(-0.0006515432240455154 0 0)
(-0.0006557164708695552 0 0)
(-0.0006694768146330382 0 0)
(-0.0006903276222680362 0 0)
(-0.0007198192264751399 0 0)
(-0.000757517939070406 0 0)
(-0.0008016322313400188 0 0)
(-0.000850156252500683 0 0)
(-0.0008999566671856182 0 0)
(-0.0009504994886134743 0 0)
(-0.001001707317901256 0 0)
(-0.00105051835455922 0 0)
(-0.001101651654454201 0 0)
(-0.001149347980849066 0 0)
(-0.001197004298619878 0 0)
(-0.001243584630420486 0 0)
(-0.001288708938415801 0 0)
(-0.001331119253397374 0 0)
(-0.001370031506225745 0 0)
(-0.001406489156012761 0 0)
(-0.001436797681915592 0 0)
(-0.001462066901631268 0 0)
(-0.001482310375945278 0 0)
(-0.001493942510738562 0 0)
(-0.001497140720905898 0 0)
(-0.001494900904247092 0 0)
(-0.001482313867446788 0 0)
(-0.001460483312607281 0 0)
(-0.001430656552124235 0 0)
(-0.001393917902463647 0 0)
(-0.001352861873263091 0 0)
(-0.001311202165556909 0 0)
(-0.001268226491051259 0 0)
(-0.001226459750259865 0 0)
(-0.001184615501648202 0 0)
(-0.001142253959030099 0 0)
(-0.001103437905455859 0 0)
(-0.001060687656066903 0 0)
(-0.001023315361150569 0 0)
(-0.0009873796514283896 0 0)
(-0.0009536629453641915 0 0)
(-0.0009227836751006795 0 0)
(-0.000895867341991934 0 0)
(-0.0008734175654956713 0 0)
(-0.000855883281758835 0 0)
(-0.0008439265014050786 0 0)
(-0.000840786713857509 0 0)
(-0.0008410575674365639 0 0)
(-0.0008516696767451401 0 0)
(-0.0008706741326597833 0 0)
(-0.0008969895354709403 0 0)
(-0.000932072542565519 0 0)
(-0.0009743771058546722 0 0)
(-0.001021206372909133 0 0)
(-0.001071340170681011 0 0)
(-0.001120934007388733 0 0)
(-0.001171370688158968 0 0)
(-0.001222729352581678 0 0)
(-0.001270991681819293 0 0)
(-0.001323017111246731 0 0)
(-0.001366927977663484 0 0)
(-0.001415791372282419 0 0)
(-0.001460850248181304 0 0)
(-0.001504204017372655 0 0)
(-0.001544751504528658 0 0)
(-0.00158094177784355 0 0)
(-0.001614453505646367 0 0)
(-0.001641680273850287 0 0)
(-0.001662830847193733 0 0)
(-0.001679366498895907 0 0)
(-0.001685197504617784 0 0)
(-0.001683488540906552 0 0)
(-0.001675808572891155 0 0)
(-0.001657840718997404 0 0)
(-0.001630988819540306 0 0)
(-0.001597112478350309 0 0)
(-0.001558013349544262 0 0)
(-0.001516642248343646 0 0)
(-0.00147550577415798 0 0)
(-0.00143313403494167 0 0)
(-0.001391879488176335 0 0)
(-0.001351548451391019 0 0)
(-0.001309429482981867 0 0)
(-0.001272442365788051 0 0)
(-0.001230481917425764 0 0)
(-0.001196578368759603 0 0)
(-0.001162578802164151 0 0)
(-0.001131877938378631 0 0)
(-0.001103316905626958 0 0)
(-0.001080271136317106 0 0)
(-0.001061110963805544 0 0)
(-0.00104817245550948 0 0)
(-0.001040848614650068 0 0)
(-0.001042539164219267 0 0)
(-0.001048008311857393 0 0)
(-0.001065312667787112 0 0)
(-0.001089525525699832 0 0)
(-0.001121153272504257 0 0)
(-0.001161339183297594 0 0)
(-0.001206931446417333 0 0)
(-0.001255640773418293 0 0)
(-0.001306298321477056 0 0)
(-0.001356003836458378 0 0)
(-0.001405750954008323 0 0)
(-0.001457112552837413 0 0)
(-0.001505128974122795 0 0)
(-0.001557088256399377 0 0)
(-0.001597105891027949 0 0)
(-0.001648658042506278 0 0)
(-0.001691407056481386 0 0)
(-0.001733295724159252 0 0)
(-0.001769173842579728 0 0)
(-0.001804782471430061 0 0)
(-0.001833335420382612 0 0)
(-0.001858210771158125 0 0)
(-0.001874957242073123 0 0)
(-0.001887448614381121 0 0)
(-0.001885417533600731 0 0)
(-0.001880534305060042 0 0)
(-0.0018660386318529 0 0)
)
;

boundaryField
{
    inlet
    {
        type            calculated;
        value           uniform (0.000827205070999802 0 0);
    }
    outlet
    {
        type            calculated;
        value           uniform (-0.00185500498981624 0 0);
    }
    frontAndBack
    {
        type            empty;
    }
}


// ************************************************************************* //
