/*--------------------------------*- C++ -*----------------------------------*\
| =========                 |                                                 |
| \\      /  F ield         | OpenFOAM: The Open Source CFD Toolbox           |
|  \\    /   O peration     | Version:  v2012                                 |
|   \\  /    A nd           | Website:  www.openfoam.com                      |
|    \\/     M anipulation  |                                                 |
\*---------------------------------------------------------------------------*/
FoamFile
{
    version     2.0;
    format      ascii;
    class       volScalarField;
    location    "0.007";
    object      pMean;
}
// * * * * * * * * * * * * * * * * * * * * * * * * * * * * * * * * * * * * * //

dimensions      [1 -1 -2 0 0 0 0];


internalField   nonuniform List<scalar> 
1000
(
101324.9937920522
101324.9772705769
101324.994500544
101325.0426999946
101325.072909049
101325.1068821377
101325.1419469267
101325.1789740928
101325.2164661417
101325.2552898498
101325.324019608
101325.390971918
101325.4314039216
101325.4768698361
101325.5316699897
101325.5671341614
101325.5963807986
101325.6510739529
101325.7165794509
101325.7243934177
101325.7343075626
101325.7654234704
101325.7719269609
101325.7428476028
101325.756330736
101325.7649856916
101325.7208109727
101325.7015719454
101325.6920335623
101325.6434356729
101325.5906670247
101325.5562565231
101325.5048326979
101325.438823248
101325.3924743768
101325.3551832064
101325.296063655
101325.2528713078
101325.2060699875
101325.1492397812
101325.1022057074
101325.0648556007
101325.0492335926
101325.0264683972
101325.0159418028
101325.0138032256
101324.9978994385
101324.9808434543
101325.0070492131
101325.0164006796
101325.0254285568
101325.0797476695
101325.1322990625
101325.1731412221
101325.2084468704
101325.2717128043
101325.3205336417
101325.3431464338
101325.4137518974
101325.4711992588
101325.5275862368
101325.5768441074
101325.6211631623
101325.6610094201
101325.6889409934
101325.7178221836
101325.7499254802
101325.7812395371
101325.8091520511
101325.7993458853
101325.7854727989
101325.7810969126
101325.7587227713
101325.7186455631
101325.6993950927
101325.677943072
101325.6209858711
101325.5645398099
101325.5323753106
101325.4819714325
101325.4105705348
101325.3693166219
101325.3121433987
101325.2503482082
101325.2214131098
101325.1742199441
101325.1101264981
101325.0859639347
101325.0580829539
101324.9996245013
101324.9989892015
101324.9957726737
101324.9626164797
101324.9573049589
101324.989252846
101325.0052461627
101325.0359624931
101325.0708599921
101325.0998419314
101325.1436789904
101325.1799836068
101325.2211309687
101325.2932277813
101325.3512206872
101325.3965159703
101325.4577704731
101325.5102587184
101325.54066147
101325.5999566215
101325.6535829443
101325.6808803835
101325.7292234361
101325.7639410817
101325.7640656676
101325.7848981951
101325.8073821109
101325.8111241495
101325.8089503948
101325.7924050324
101325.7517916071
101325.7082609986
101325.6692543428
101325.6193902772
101325.5853456966
101325.5452013458
101325.479272658
101325.4312422963
101325.382425764
101325.3126037854
101325.2590800961
101325.2146518869
101325.1672380428
101325.1116601253
101325.0622466307
101325.0274639086
101324.9926677895
101324.9722365326
101324.9748505164
101324.9641848755
101324.9532085882
101324.9558579323
101324.9668606969
101324.9775514623
101325.0302480739
101325.0851703625
101325.1112340397
101325.1597932008
101325.2215646768
101325.2444079261
101325.2986171654
101325.3699294354
101325.418388815
101325.4721389212
101325.5363260583
101325.5821918528
101325.6177787018
101325.6727519851
101325.7191131338
101325.7509884297
101325.7825721558
101325.796657365
101325.7909757138
101325.7838628114
101325.7784239136
101325.7710342235
101325.7545265882
101325.7183417387
101325.6830293278
101325.6461406328
101325.5866236411
101325.5442789238
101325.5094232175
101325.4564894252
101325.4002130377
101325.3546326823
101325.292787388
101325.2299674233
101325.1694113332
101325.1202382313
101325.0736094274
101325.0396741713
101325.0107537715
101324.9974606423
101324.9744479845
101324.9573143079
101324.9487797447
101324.9406877587
101324.9406454176
101324.9706274573
101325.0091186899
101325.0517202916
101325.1002611251
101325.1489304895
101325.2002108057
101325.2496618341
101325.3017370502
101325.3598542621
101325.4150126301
101325.4709447462
101325.5326842119
101325.5960750201
101325.6450396992
101325.7005047339
101325.7477727847
101325.7837375091
101325.8172893764
101325.851705116
101325.8733185564
101325.8974080368
101325.9032119973
101325.892169119
101325.8555571587
101325.7949336835
101325.7380971677
101325.6832761059
101325.6234566548
101325.5647505567
101325.5125917426
101325.4585876709
101325.3997956373
101325.3468433422
101325.2982253982
101325.2446250221
101325.1934015255
101325.1387693944
101325.0875945896
101325.0367181228
101324.9901354716
101324.942795013
101324.8959948611
101324.8578234135
101324.8295596274
101324.8179416746
101324.8516826134
101324.9094175472
101324.9655137211
101325.0177430499
101325.0779682803
101325.1349398622
101325.1849725479
101325.23999669
101325.2900367272
101325.3393703467
101325.3872944296
101325.4412044433
101325.4902190024
101325.5389211823
101325.5925291234
101325.6442579364
101325.6936430001
101325.7433489421
101325.7928461391
101325.8402475566
101325.8686618085
101325.8770721396
101325.8486822375
101325.8098756141
101325.767131311
101325.7260072957
101325.6854882639
101325.6445867125
101325.6046632212
101325.5608961355
101325.5205904761
101325.469716333
101325.4177536114
101325.3583389482
101325.3046476272
101325.2452343867
101325.191324287
101325.1354314847
101325.0918175965
101325.0463513033
101325.0111576068
101324.9707020341
101324.9386565697
101324.8999991041
101324.8672782607
101324.840346622
101324.8358693215
101324.867092256
101324.9232854881
101324.9822346315
101325.0420967454
101325.1011255593
101325.1600109639
101325.2188379177
101325.2768473597
101325.3332743295
101325.3872591612
101325.4402234566
101325.4898779366
101325.5358886799
101325.5810109
101325.6256427215
101325.6708537476
101325.7141138166
101325.7530077465
101325.7866673114
101325.796820952
101325.7903997537
101325.7732859426
101325.758348665
101325.7402457969
101325.7232562667
101325.7024933804
101325.6725138028
101325.6311923728
101325.5816160407
101325.5327332749
101325.4815811437
101325.4333983515
101325.3818466289
101325.3340447592
101325.2806378111
101325.231453261
101325.1757854268
101325.1244691676
101325.066295072
101325.0139734369
101324.9579152192
101324.9087376981
101324.8558912507
101324.8237007683
101324.814168919
101324.8534246783
101324.9009841588
101324.9575974362
101325.0068968235
101325.0634938754
101325.1122427613
101325.168102038
101325.2152448063
101325.2687952975
101325.314898439
101325.3681767358
101325.4143095886
101325.4674263557
101325.5138638812
101325.5671725861
101325.6136422328
101325.666720422
101325.7129745178
101325.7656011591
101325.8109477549
101325.8589572227
101325.8928982219
101325.9060074958
101325.8778757884
101325.8343641734
101325.7847715696
101325.7386956375
101325.6891715096
101325.6430367888
101325.5937446017
101325.5475708271
101325.4979860034
101325.4516609351
101325.4012665992
101325.3520272121
101325.2969171443
101325.2436875387
101325.1857528645
101325.1322191487
101325.0740472208
101325.0220716829
101324.9643703406
101324.9132162483
101324.8607325367
101324.825145461
101324.8155981439
101324.8507759882
101324.8976973136
101324.9508711338
101324.9993441974
101325.0522885289
101325.10053996
101325.1533790859
101325.2013726681
101325.2538992698
101325.3017993104
101325.354563435
101325.4026869612
101325.4556395319
101325.5045259639
101325.5589396564
101325.6088950814
101325.6638806866
101325.7136791081
101325.7686309692
101325.8175889974
101325.8691112589
101325.9105682418
101325.9375205185
101325.9237525568
101325.8816193243
101325.8277236572
101325.7777093832
101325.7232369342
101325.6732713248
101325.618950162
101325.5694875211
101325.5157480216
101325.4670561687
101325.413562367
101325.3650517428
101325.3113460847
101325.2627195292
101325.2089681114
101325.1604367544
101325.1067995703
101325.0581621101
101325.0050772553
101324.9567690551
101324.9054841716
101324.8609504008
101324.8225292792
101324.812947828
101324.8412666895
101324.8948432478
101324.950106747
101325.0063439504
101325.0624761592
101325.1178602649
101325.174520195
101325.2290521491
101325.2860430013
101325.3389845472
101325.3959310088
101325.448103733
101325.5056029682
101325.5571185065
101325.6146619911
101325.665836639
101325.7240090316
101325.7737114937
101325.8301760847
101325.8776717548
101325.9225744642
101325.9367085467
101325.9181632508
101325.8696564321
101325.8244295341
101325.7723731815
101325.7268673694
101325.6752015468
101325.6298380652
101325.578178855
101325.5322028753
101325.4805905462
101325.4340128898
101325.3804086885
101325.3301633866
101325.2727196551
101325.2198694278
101325.1622598045
101325.1087437744
101325.0523067717
101324.9995593412
101324.9439922242
101324.8923057709
101324.8432735789
101324.8053439143
101324.7974083875
101324.8298551651
101324.8836184615
101324.9382272102
101324.9943873887
101325.0488531397
101325.104965344
101325.158804498
101325.2146357878
101325.2679629382
101325.3236639492
101325.3767836607
101325.4323695729
101325.4855677261
101325.5411730604
101325.5940065703
101325.6489365311
101325.7019333307
101325.7565860121
101325.8085109515
101325.8605954837
101325.9101674764
101325.9477576529
101325.9615087365
101325.9308470155
101325.8808665652
101325.8246120423
101325.771744044
101325.7154400464
101325.6627549089
101325.606585876
101325.5543911616
101325.4985354348
101325.4465570671
101325.3906248261
101325.338740459
101325.2831246062
101325.2314059725
101325.1756885261
101325.1241435973
101325.0695407811
101325.0184012231
101324.964017633
101324.913980139
101324.8644048902
101324.8213167552
101324.7996309524
101324.8153594422
101324.8651627715
101324.9197316657
101324.9770523586
101325.031701186
101325.0889402968
101325.1429605095
101325.1999569543
101325.2533057798
101325.3098270323
101325.3627584902
101325.4192675425
101325.472381981
101325.5287153225
101325.581191372
101325.6372490838
101325.6899187622
101325.7453722991
101325.7964638168
101325.8505460032
101325.9001030876
101325.9439920549
101325.9689799673
101325.9542974297
101325.9067704875
101325.8509639676
101325.7953516279
101325.7393107217
101325.683665538
101325.6278616485
101325.5726327737
101325.5174783953
101325.4627943315
101325.4082503559
101325.3540049679
101325.2999414737
101325.2459797444
101325.1924973058
101325.1394073897
101325.0870317491
101325.0348391038
101324.9834641322
101324.9326172489
101324.883810085
101324.8389239356
101324.8102985808
101324.8130070201
101324.8557502366
101324.9093890622
101324.9661676982
101325.0207553378
101325.0771211869
101325.1315372058
101325.1876707886
101325.2413077273
101325.2965253384
101325.3497462239
101325.4049632089
101325.4573589498
101325.5110567019
101325.5624913975
101325.6156102665
101325.6647296064
101325.7147901786
101325.7621007619
101325.8118362274
101325.8572554103
101325.9007222215
101325.9367331424
101325.9446175941
101325.9154535768
101325.861193372
101325.806772881
101325.7494438817
101325.6948277768
101325.6378505044
101325.5838982182
101325.5274195919
101325.4739186153
101325.4184899189
101325.3670338305
101325.3139747997
101325.2649934763
101325.213469091
101325.1650439243
101325.1134502908
101325.0645414563
101325.0131724387
101324.9658699866
101324.9162757901
101324.8708708052
101324.8338411064
101324.8184321165
101324.8445738007
101324.895570382
101324.9524845557
101325.0079267342
101325.0647875263
101325.1200481515
101325.1767501775
101325.231164751
101325.2859511649
101325.3372067943
101325.3877913952
101325.4362769187
101325.4861007034
101325.5347925007
101325.5851025066
101325.6337892523
101325.683445029
101325.7318816723
101325.781672684
101325.828411937
101325.8740378128
101325.9154797519
101325.9374322278
101325.9262696131
101325.8781727775
101325.8236424282
101325.7656763111
101325.7105612044
101325.6528947399
101325.5983601834
101325.5411357951
101325.4877678884
101325.4339958555
101325.3849619892
101325.3341209278
101325.2859293495
101325.2351692267
101325.1870555583
101325.135857031
101325.0871900583
101325.0366891388
101324.9894761581
101324.9396780809
101324.8939673889
101324.8531763168
101324.8268047356
101324.8372837255
101324.8816695689
101324.9383479795
101324.9938430631
101325.0510531964
101325.1064751586
101325.1634805323
101325.2179890905
101325.2731773967
101325.3246753371
101325.3757300853
101325.4244220628
101325.4746906427
101325.5236899016
101325.5745854919
101325.6235705849
101325.674254573
101325.7231323724
101325.7740206004
101325.8211051476
101325.8685363003
101325.9114442779
101325.9386390087
101325.9345550792
101325.8915551971
101325.8375963026
101325.7808537223
101325.7258840727
101325.6694522643
101325.614991433
101325.558862672
101325.5054512266
101325.4522766524
101325.4026084967
101325.3521933984
101325.3035107096
101325.253269164
101325.2045259811
101325.1537120128
101325.1044491384
101325.0543775335
101325.0062998282
101324.9565335061
101324.9098750365
101324.8675793716
101324.8357240087
101324.8375098269
101324.8751331017
101324.9305967885
101324.9846973776
101325.0414275686
101325.0955686609
101325.1520102448
101325.2051434529
101325.2600213984
101325.3103364512
101325.3616517976
101325.4097827706
101325.4605048498
101325.5089785715
101325.5601293968
101325.608541949
101325.6595016597
101325.7080755889
101325.7589840045
101325.8058803552
101325.854179292
101325.8982158852
101325.9307775
101325.9366163434
101325.9018888388
101325.8495323054
101325.7939269788
101325.7394134108
101325.6840595814
101325.62999296
101325.5751886411
101325.523036737
101325.4714122744
101325.4219292095
101325.3714599232
101325.3221325173
101325.2718427326
101325.2223687382
101325.1717710603
101325.1222385101
101325.0725919836
101325.0239702589
101324.9744218383
101324.9271184411
101324.8834303904
101324.8466603746
101324.8384561288
101324.8667146275
101324.9198271418
101324.9726659038
101325.0286345382
101325.0815644463
101325.1371867365
101325.1888197022
101325.2424898762
101325.2914633577
101325.3433403021
101325.3918105908
101325.4436692902
101325.492391422
101325.5442194269
101325.5923358377
101325.6437540568
101325.6920190106
101325.7429806074
101325.7896283743
101325.8388677173
101325.8836677009
101325.9210809916
101325.9372989012
101325.9138815296
101325.8643526606
101325.8093485524
101325.7549666227
101325.7000119718
101325.6459501612
101325.5914422793
101325.5392019209
101325.4875579466
101325.4379928927
101325.3876543602
101325.3384152643
101325.2883118228
101325.2388159978
101325.1883191527
101325.1389762789
101325.0893735957
101325.0405760266
101324.990895611
101324.9435065532
101324.898362203
101324.8577582388
101324.8394289874
101324.8558267836
101324.9051289793
101324.957785058
101325.0136621881
101325.0666097751
101325.1222119925
101325.1741703721
101325.2282551922
101325.2774122081
101325.3291050948
101325.377416248
101325.4290541515
101325.4775870621
101325.529085935
101325.5771481494
101325.628517227
101325.6767265111
101325.7273782011
101325.774200341
101325.823943053
101325.8693453943
101325.9101696207
101325.9355202856
101325.9249907673
101325.8809887537
101325.8263664073
101325.7721305615
101325.717069224
101325.6629686788
101325.6082769527
101325.5557983701
101325.5035930131
101325.4539847266
101325.4035769391
101325.3545765166
101325.3044371062
101325.2550994427
101325.2045306166
101325.1555743252
101325.1058264064
101325.0570561597
101325.0072862956
101324.960093005
101324.9137068823
101324.8705403002
101324.843584366
101324.8465304758
101324.8889160291
101324.9413510536
101324.9973518649
101325.0507433733
101325.1064898482
101325.1591067377
101325.2135996459
101325.2632292615
101325.3146920271
101325.3629744965
101325.4143150213
101325.4627560763
101325.5138609239
101325.5619728153
101325.6131882683
101325.6612720896
101325.7115325478
101325.7585558072
101325.808565587
101325.8542234738
101325.8975081534
101325.9302582805
101325.933463655
101325.8986458736
101325.8447369384
101325.7900550901
101325.734278165
101325.6795530213
101325.62410555
101325.5706611092
101325.5171979082
101325.4671616368
101325.4170494777
101325.368568974
101325.3188230162
101325.2699615108
101325.219872316
101325.1712287574
101325.1215916111
101325.0727897289
101325.0233357156
101324.976173884
101324.9290613535
101324.8842425279
101324.8511610157
101324.8411653249
101324.87352454
101324.9243025259
101324.9806028319
101325.0341018383
101325.0902512297
101325.1432153329
101325.198444949
101325.2485420774
101325.3003207371
101325.3483699544
101325.3997447863
101325.4478243922
101325.4989786382
101325.5469476891
101325.5983506702
101325.6460229384
101325.6964102132
101325.7434593821
101325.7939146391
101325.8394339159
101325.8847521438
101325.922386301
101325.9377702417
101325.9151824925
101325.8641582515
101325.8088604804
101325.752513254
101325.6969205096
101325.64095364
101325.5864454195
101325.5319223984
101325.4808587241
101325.4308464326
101325.3825499896
101325.3332417914
101325.2847038382
101325.2352671846
101325.1868029214
101325.1373679564
101325.0884610019
101325.0396653393
101324.9924106743
101324.9448894044
101324.8991589255
101324.8618029955
101324.8400461284
101324.8588987179
101324.9055766438
101324.9624456035
101325.0163360445
101325.0732538725
101325.1268496095
101325.183581587
101325.2361320588
101325.2901209576
101325.3386695822
101325.3889518098
101325.4358570624
101325.4857702741
101325.5329561364
101325.5834501382
101325.630918307
101325.6809967093
101325.7280158928
101325.7782062828
101325.8241589355
101325.8706680433
101325.9109040808
101325.9345801221
101325.9226624142
101325.8776378623
101325.8240045605
101325.769984179
101325.7159618617
101325.6619401159
101325.6079176711
101325.5538961566
101325.499874363
101325.4458545597
101325.3918334771
101325.337822835
101325.2838251789
101325.2298928281
101325.1761692191
101325.1231894176
101325.0727822163
101325.0304481701
101325.0061307029
101325.0003040886
101325.0000015125
101325.0000000015
101325.0000000012
101325.0000000012
101325.0000000012
101325.0000000013
101325.0000000013
101325.0000000013
101325.0000000013
101325.0000000013
101325.0000000013
101325.0000000013
101325.0000000013
101325.0000000013
101325.0000000013
101325.0000000013
101325.0000000013
101325.0000000013
101325.0000000013
101325.0000000013
101325.0000000013
101325.0000000013
101325.0000000013
101325.0000000013
101325.0000000013
101325.0000000013
101325.0000000013
101325.0000000013
101325.0000000013
101325.0000000013
)
;

boundaryField
{
    inlet
    {
        type            calculated;
        value           uniform 101324.9999999997;
    }
    outlet
    {
        type            calculated;
        value           uniform 101325.0000000013;
    }
    frontAndBack
    {
        type            empty;
    }
}


// ************************************************************************* //
