/*--------------------------------*- C++ -*----------------------------------*\
| =========                 |                                                 |
| \\      /  F ield         | OpenFOAM: The Open Source CFD Toolbox           |
|  \\    /   O peration     | Version:  v2012                                 |
|   \\  /    A nd           | Website:  www.openfoam.com                      |
|    \\/     M anipulation  |                                                 |
\*---------------------------------------------------------------------------*/
FoamFile
{
    version     2.0;
    format      ascii;
    class       volVectorField;
    location    "0.007";
    object      UMean;
}
// * * * * * * * * * * * * * * * * * * * * * * * * * * * * * * * * * * * * * //

dimensions      [0 1 -1 0 0 0 0];


internalField   nonuniform List<vector> 
1000
(
(-5.574333034987731e-05 0 0)
(-2.881300257570618e-05 0 0)
(2.928980942095997e-05 0 0)
(9.041426947464615e-05 0 0)
(0.0001385871873856922 0 0)
(0.000228012677687044 0 0)
(0.0002982219720111708 0 0)
(0.0003997385370083965 0 0)
(0.0005219811166221894 0 0)
(0.0006838883385065164 0 0)
(0.0007965653610944279 0 0)
(0.0008900034783181296 0 0)
(0.001042546953317823 0 0)
(0.001156444992507606 0 0)
(0.001239603366823979 0 0)
(0.001378956446335791 0 0)
(0.001519896836391257 0 0)
(0.00159949913791214 0 0)
(0.001636219774454621 0 0)
(0.001749900291655268 0 0)
(0.001870009004876852 0 0)
(0.001812418433383427 0 0)
(0.001844267296571885 0 0)
(0.001886103100122397 0 0)
(0.001831667569089828 0 0)
(0.001768007340549166 0 0)
(0.001777928111370151 0 0)
(0.001767495727854422 0 0)
(0.001624174346427321 0 0)
(0.001557094030753146 0 0)
(0.001477133979232248 0 0)
(0.001291482424283653 0 0)
(0.001179031841135504 0 0)
(0.001105842831043097 0 0)
(0.0009651072356958809 0 0)
(0.000842202138092654 0 0)
(0.0007142684826359139 0 0)
(0.0005976870461336063 0 0)
(0.0004488688822466917 0 0)
(0.000340321998071496 0 0)
(0.0002794483538682575 0 0)
(0.0001578136229486894 0 0)
(7.687200163207014e-05 0 0)
(6.30144367043515e-05 0 0)
(2.391428852251261e-05 0 0)
(-3.608248578931872e-05 0 0)
(-3.150771588447965e-07 0 0)
(-1.637279287720764e-05 0 0)
(-4.554160550908003e-05 0 0)
(-3.611695915469016e-07 0 0)
(0.0001134273083548454 0 0)
(0.0002027320655399836 0 0)
(0.0002585891972606652 0 0)
(0.0004095151826522052 0 0)
(0.0005213038070419299 0 0)
(0.0005924792667111435 0 0)
(0.0007425837731778317 0 0)
(0.0008913870099193795 0 0)
(0.001031237265112097 0 0)
(0.00113104998806079 0 0)
(0.001253799044820177 0 0)
(0.001377893768441589 0 0)
(0.001491720164144662 0 0)
(0.00159010088363226 0 0)
(0.001682444267750198 0 0)
(0.001776053167143451 0 0)
(0.001841804964474785 0 0)
(0.001879074935520575 0 0)
(0.001919458885829137 0 0)
(0.001942289236637727 0 0)
(0.001938315503426118 0 0)
(0.001867270749453335 0 0)
(0.001816566102216352 0 0)
(0.001797735391685947 0 0)
(0.001722031492636046 0 0)
(0.001596883967010641 0 0)
(0.001512438962639712 0 0)
(0.001416949467003317 0 0)
(0.001229805073620926 0 0)
(0.001116643282964391 0 0)
(0.001034079740133471 0 0)
(0.0008809193236898061 0 0)
(0.0007564729888072556 0 0)
(0.0006621917455891448 0 0)
(0.0004809148051372743 0 0)
(0.0003655921057135757 0 0)
(0.000308815441073019 0 0)
(0.0001547081768532349 0 0)
(8.12027590813933e-05 0 0)
(7.349175958928719e-05 0 0)
(-1.694710085216359e-05 0 0)
(-0.0001137947732963912 0 0)
(-7.823909941513988e-05 0 0)
(-7.100651745093138e-05 0 0)
(-7.82464388320524e-05 0 0)
(3.855027015730508e-06 0 0)
(7.782316575259977e-05 0 0)
(0.0001346739708498643 0 0)
(0.0002206128784246696 0 0)
(0.0003180147605529671 0 0)
(0.0004311142702363969 0 0)
(0.0005921886881382447 0 0)
(0.0006833254656598203 0 0)
(0.0008083493989944881 0 0)
(0.000972850923527671 0 0)
(0.001078180920268436 0 0)
(0.001203928119562295 0 0)
(0.001368964804414825 0 0)
(0.001464374659381068 0 0)
(0.001550271650785391 0 0)
(0.001676678418327998 0 0)
(0.001748924041538467 0 0)
(0.001799238346231015 0 0)
(0.001909588546434369 0 0)
(0.001938526761603208 0 0)
(0.00192378992696119 0 0)
(0.001979086028437103 0 0)
(0.001953127730870211 0 0)
(0.001891348086132321 0 0)
(0.001840864548120699 0 0)
(0.001735486035411225 0 0)
(0.001628569953353371 0 0)
(0.001537813431463822 0 0)
(0.001401381182652538 0 0)
(0.001268040556832692 0 0)
(0.00116430451744899 0 0)
(0.001038526459797847 0 0)
(0.0008845906484064353 0 0)
(0.0007821991694343454 0 0)
(0.0006625667301384131 0 0)
(0.0004872255073499557 0 0)
(0.0003698083507980039 0 0)
(0.0002674326523676725 0 0)
(0.0001303704505688238 0 0)
(4.440739340462762e-05 0 0)
(-1.785986396973006e-05 0 0)
(-7.153309723752421e-05 0 0)
(-0.000102634534549493 0 0)
(-0.0001160334743440536 0 0)
(-0.0001118928920978 0 0)
(-0.0001281147392988192 0 0)
(-0.00010327907914562 0 0)
(-2.337517648031285e-05 0 0)
(4.214271062443261e-05 0 0)
(0.0001237558746062185 0 0)
(0.0002815439310091502 0 0)
(0.000379403721513374 0 0)
(0.0004708773432049749 0 0)
(0.0006316865017749599 0 0)
(0.0007750019846682124 0 0)
(0.0008515151292483235 0 0)
(0.001003647620374502 0 0)
(0.001152758526985709 0 0)
(0.001243364184972842 0 0)
(0.001388057855151729 0 0)
(0.001546381000238152 0 0)
(0.001634949928402361 0 0)
(0.001744308170787216 0 0)
(0.001839552460394502 0 0)
(0.00188230766079657 0 0)
(0.001896531388055779 0 0)
(0.00190680514063896 0 0)
(0.001911345998972278 0 0)
(0.001913843367697107 0 0)
(0.001873790670943112 0 0)
(0.001832734841768318 0 0)
(0.001762458526593089 0 0)
(0.001634658190149324 0 0)
(0.001516633474642184 0 0)
(0.001443910994621455 0 0)
(0.001336325849852923 0 0)
(0.001201938677463054 0 0)
(0.001102688005771727 0 0)
(0.0009881267336321836 0 0)
(0.0008336810269982668 0 0)
(0.0006910908933920159 0 0)
(0.0005567171973732135 0 0)
(0.0004127441636156487 0 0)
(0.0002650988404051885 0 0)
(0.0001430580814529329 0 0)
(7.462146224271814e-05 0 0)
(2.338062502982468e-05 0 0)
(-2.373070271774204e-05 0 0)
(-6.716223356301048e-05 0 0)
(-9.988391111721324e-05 0 0)
(-0.0001622858602854481 0 0)
(-0.0001835809328194346 0 0)
(-0.0001694449751945327 0 0)
(-9.892237958930636e-05 0 0)
(1.133215055744021e-05 0 0)
(0.0001291557434717333 0 0)
(0.000246731153205085 0 0)
(0.0003405688344839666 0 0)
(0.0004587761474104109 0 0)
(0.0005771025866657187 0 0)
(0.0007111975273339897 0 0)
(0.0008556103249833051 0 0)
(0.001013518292354912 0 0)
(0.001165588397001133 0 0)
(0.001294428331794323 0 0)
(0.001423501443737414 0 0)
(0.00155394587628684 0 0)
(0.001683661930686444 0 0)
(0.001800787267346056 0 0)
(0.001911323356458693 0 0)
(0.001998438811521651 0 0)
(0.002078926644931762 0 0)
(0.002118063872629999 0 0)
(0.002166024796733907 0 0)
(0.002187274326918859 0 0)
(0.002157865448664888 0 0)
(0.002070896565521505 0 0)
(0.001944663661560553 0 0)
(0.001797284610306265 0 0)
(0.001643000157386346 0 0)
(0.001507480572427982 0 0)
(0.001373870675109681 0 0)
(0.00122502973224303 0 0)
(0.001101124352695669 0 0)
(0.0009722199037953148 0 0)
(0.0008454456875630913 0 0)
(0.0007068231467624133 0 0)
(0.0005739796841079723 0 0)
(0.000447254941953543 0 0)
(0.0003264237823649952 0 0)
(0.0002026279104390852 0 0)
(7.643129837792762e-05 0 0)
(-4.547207983449214e-05 0 0)
(-0.0001557975507335824 0 0)
(-0.0002712627141915606 0 0)
(-0.0003678519719313397 0 0)
(-0.0004473397427206636 0 0)
(-0.0004475589192326625 0 0)
(-0.0003687502031365643 0 0)
(-0.0002546254039984649 0 0)
(-0.0001109875738896433 0 0)
(4.199709481111123e-05 0 0)
(0.0001705043479118189 0 0)
(0.0003048977077130995 0 0)
(0.0004424879392856133 0 0)
(0.0005749114374875038 0 0)
(0.0006828688521134786 0 0)
(0.0008182525480714668 0 0)
(0.0009372481691118434 0 0)
(0.001053065834341341 0 0)
(0.001179239236409039 0 0)
(0.001311066010992847 0 0)
(0.001434016682141635 0 0)
(0.001553002133734916 0 0)
(0.001685020106130832 0 0)
(0.001803115603491134 0 0)
(0.001928267807129681 0 0)
(0.002026809690503953 0 0)
(0.002118112721392401 0 0)
(0.002125979108153271 0 0)
(0.002064426485930926 0 0)
(0.001960122454464211 0 0)
(0.001864875730668352 0 0)
(0.001761944373413823 0 0)
(0.001660725490227056 0 0)
(0.001560771507351332 0 0)
(0.00145932529056885 0 0)
(0.001363167110465859 0 0)
(0.001249703075135279 0 0)
(0.001138230742474 0 0)
(0.001000757216166389 0 0)
(0.0008692269758793367 0 0)
(0.000721319281562686 0 0)
(0.0005891696461764399 0 0)
(0.0004474246429468478 0 0)
(0.0003235073325835986 0 0)
(0.0001963429568548627 0 0)
(0.0001042553993961746 0 0)
(4.57693210102617e-06 0 0)
(-7.878069992295561e-05 0 0)
(-0.0001754112060021936 0 0)
(-0.000256188015697483 0 0)
(-0.0003415498694333582 0 0)
(-0.0004078699352427608 0 0)
(-0.0004201001090816178 0 0)
(-0.0003402334240902706 0 0)
(-0.0002049720085779445 0 0)
(-5.943350983850851e-05 0 0)
(8.596795046277531e-05 0 0)
(0.0002321713994099209 0 0)
(0.0003760400396939187 0 0)
(0.0005199853951297046 0 0)
(0.000660038406357942 0 0)
(0.000798380079733201 0 0)
(0.000933786137968246 0 0)
(0.001062005205837254 0 0)
(0.00118141686202947 0 0)
(0.001295760669801539 0 0)
(0.001407434538995845 0 0)
(0.001516777005053824 0 0)
(0.001624681947830418 0 0)
(0.001729237312128155 0 0)
(0.001832175206344233 0 0)
(0.001903825895769882 0 0)
(0.001939660635611423 0 0)
(0.001914222156307025 0 0)
(0.001881361672102911 0 0)
(0.001836364333018412 0 0)
(0.001798794767592867 0 0)
(0.001753230301118414 0 0)
(0.00170241704071905 0 0)
(0.00163280343700885 0 0)
(0.001527181605929122 0 0)
(0.001409350285287946 0 0)
(0.001284504068812265 0 0)
(0.001167499471379331 0 0)
(0.001041180411420659 0 0)
(0.0009235432265041425 0 0)
(0.0007946215394232288 0 0)
(0.0006782095036319971 0 0)
(0.0005449907620750273 0 0)
(0.0004212028305528098 0 0)
(0.0002803808314384182 0 0)
(0.000153632150793127 0 0)
(1.342491374729377e-05 0 0)
(-0.0001121057327618849 0 0)
(-0.0002486872952297656 0 0)
(-0.0003573226821561443 0 0)
(-0.0004577042149614591 0 0)
(-0.0004599328587422501 0 0)
(-0.0003846379271953602 0 0)
(-0.0002480218276301762 0 0)
(-0.0001286132950355323 0 0)
(1.050349344118867e-05 0 0)
(0.0001304647304120732 0 0)
(0.0002690133347605733 0 0)
(0.0003867327493537564 0 0)
(0.0005204740708822312 0 0)
(0.0006338956959719463 0 0)
(0.0007643432865602989 0 0)
(0.0008773825552788857 0 0)
(0.001006824276180244 0 0)
(0.001120845802952856 0 0)
(0.001250858579350964 0 0)
(0.001365000725762029 0 0)
(0.001494645353456802 0 0)
(0.001608417542688487 0 0)
(0.00173902121123514 0 0)
(0.00185076495244107 0 0)
(0.001976644492293366 0 0)
(0.002081823320232091 0 0)
(0.002175901177121436 0 0)
(0.002197361010077044 0 0)
(0.00213877749975928 0 0)
(0.002022693502031353 0 0)
(0.00191025385912015 0 0)
(0.001788869081770145 0 0)
(0.00167607039011403 0 0)
(0.001555306423434918 0 0)
(0.001442031543548887 0 0)
(0.001321455512987334 0 0)
(0.001208357654072322 0 0)
(0.001086592835118447 0 0)
(0.0009709639384410154 0 0)
(0.0008434625054850013 0 0)
(0.0007165307963119145 0 0)
(0.0005762760309943636 0 0)
(0.0004451760717658898 0 0)
(0.0003034950267204772 0 0)
(0.0001740773722539307 0 0)
(3.098843643217633e-05 0 0)
(-9.492353450825095e-05 0 0)
(-0.0002325215062319534 0 0)
(-0.000349719921674119 0 0)
(-0.000448512111006699 0 0)
(-0.0004598891818817827 0 0)
(-0.0003855711604830233 0 0)
(-0.000258990773444166 0 0)
(-0.000140729596491442 0 0)
(-1.054098454385738e-05 0 0)
(0.0001080784900392401 0 0)
(0.0002376844365344967 0 0)
(0.0003553352076374205 0 0)
(0.0004842156795628519 0 0)
(0.0006015071546659368 0 0)
(0.0007303330132738343 0 0)
(0.0008476806352551386 0 0)
(0.0009767860674740913 0 0)
(0.001095527723926558 0 0)
(0.001226873028709444 0 0)
(0.001347957768776973 0 0)
(0.001482092691907698 0 0)
(0.001604717543929446 0 0)
(0.001739764842145468 0 0)
(0.00186069503952041 0 0)
(0.001992650820681258 0 0)
(0.002108551143740862 0 0)
(0.002219281976359389 0 0)
(0.002276401624765228 0 0)
(0.002252018826655505 0 0)
(0.002139018146126124 0 0)
(0.002017280901242763 0 0)
(0.001884222093144457 0 0)
(0.001761942957494573 0 0)
(0.001628636768660995 0 0)
(0.001506716403726864 0 0)
(0.001374460951140158 0 0)
(0.001254539606817681 0 0)
(0.001123591131390567 0 0)
(0.001004652547266472 0 0)
(0.0008735108838480002 0 0)
(0.0007547260069131767 0 0)
(0.0006231269525343684 0 0)
(0.0005042938994076008 0 0)
(0.0003727643078999336 0 0)
(0.000253938419477509 0 0)
(0.0001230943851138197 0 0)
(4.224482707547421e-06 0 0)
(-0.0001242115944350571 0 0)
(-0.0002402780466976413 0 0)
(-0.0003580741290485903 0 0)
(-0.0004439499545695993 0 0)
(-0.0004745605333366136 0 0)
(-0.0003995277174905139 0 0)
(-0.0002726315589573642 0 0)
(-0.0001343263727659546 0 0)
(2.04186702450788e-06 0 0)
(0.0001387390532254724 0 0)
(0.0002768737334435316 0 0)
(0.0004116158415597457 0 0)
(0.0005508251426186117 0 0)
(0.0006824012705450963 0 0)
(0.0008218357310340925 0 0)
(0.0009504028284671515 0 0)
(0.001090269704745273 0 0)
(0.001216975689616292 0 0)
(0.001358080785955646 0 0)
(0.00148432266540927 0 0)
(0.001625573096186697 0 0)
(0.001748910251505333 0 0)
(0.001890313242340347 0 0)
(0.00201155026470414 0 0)
(0.00214270184102997 0 0)
(0.002237535475970145 0 0)
(0.002288223707061326 0 0)
(0.002226535903870364 0 0)
(0.002123928332494928 0 0)
(0.001996879163487052 0 0)
(0.001885857411117048 0 0)
(0.001758918519937745 0 0)
(0.001647581265858944 0 0)
(0.001521149854004652 0 0)
(0.001409622744405455 0 0)
(0.001283803086150881 0 0)
(0.001170397425591295 0 0)
(0.001042294827338467 0 0)
(0.0009256942374897112 0 0)
(0.00078941442852568 0 0)
(0.000661057273010951 0 0)
(0.0005195642724508505 0 0)
(0.0003895828081588548 0 0)
(0.0002501697640210162 0 0)
(0.0001196751761082999 0 0)
(-1.810678326540642e-05 0 0)
(-0.0001461123243126343 0 0)
(-0.0002769833713726678 0 0)
(-0.0003964574519014584 0 0)
(-0.0004875691782245755 0 0)
(-0.0005093980176039748 0 0)
(-0.0004273679758136989 0 0)
(-0.0002988408192784642 0 0)
(-0.0001614873847485035 0 0)
(-2.784263034943845e-05 0 0)
(0.0001095556922755509 0 0)
(0.0002421759799108709 0 0)
(0.0003794816624480703 0 0)
(0.0005105443504497075 0 0)
(0.0006468403415280595 0 0)
(0.0007769372807505623 0 0)
(0.0009134304753055122 0 0)
(0.001043720619366845 0 0)
(0.001179583301979252 0 0)
(0.00130920310680148 0 0)
(0.001444998624777054 0 0)
(0.001575001254605902 0 0)
(0.001708541661027166 0 0)
(0.001836871165574834 0 0)
(0.001969291278584546 0 0)
(0.002095626353299178 0 0)
(0.002213341595095944 0 0)
(0.002311954247303268 0 0)
(0.002337861108401013 0 0)
(0.002270759303452169 0 0)
(0.002140408377725146 0 0)
(0.002011160568270321 0 0)
(0.001873243251901608 0 0)
(0.001743847637142074 0 0)
(0.00160628759913733 0 0)
(0.00147802789844782 0 0)
(0.00134097330452761 0 0)
(0.001213386787846826 0 0)
(0.001076727535791241 0 0)
(0.0009498493538949602 0 0)
(0.0008132919621722075 0 0)
(0.0006861136914837081 0 0)
(0.0005498972316611614 0 0)
(0.000424011634991445 0 0)
(0.0002889163562674221 0 0)
(0.0001624330774655732 0 0)
(2.904078949697518e-05 0 0)
(-9.450438261422481e-05 0 0)
(-0.0002237581504974878 0 0)
(-0.000343609787771922 0 0)
(-0.0004464777625753607 0 0)
(-0.0005038786332084323 0 0)
(-0.0004605949025962319 0 0)
(-0.0003438047495459373 0 0)
(-0.0002043181793335526 0 0)
(-7.039024037763905e-05 0 0)
(6.988943556416267e-05 0 0)
(0.0002031018181825028 0 0)
(0.0003432171013490788 0 0)
(0.0004744669746101335 0 0)
(0.0006131820417021857 0 0)
(0.0007432040892191021 0 0)
(0.000881810228497802 0 0)
(0.001011505170492118 0 0)
(0.001149326856766491 0 0)
(0.001278715258720621 0 0)
(0.001417051595510346 0 0)
(0.001545599566573044 0 0)
(0.001681413771311454 0 0)
(0.001808699798627354 0 0)
(0.001944710199879654 0 0)
(0.002068349212793702 0 0)
(0.002193143944005748 0 0)
(0.002300858767216857 0 0)
(0.002360562620710289 0 0)
(0.00232611306995211 0 0)
(0.002208490107681075 0 0)
(0.002073197417714398 0 0)
(0.001935933027294563 0 0)
(0.00179966877484753 0 0)
(0.001662797207807944 0 0)
(0.001526989784592379 0 0)
(0.001391080745355044 0 0)
(0.00125656985005298 0 0)
(0.001122530989731733 0 0)
(0.0009893227863077894 0 0)
(0.0008563844282310526 0 0)
(0.0007238278148077929 0 0)
(0.0005922423497900773 0 0)
(0.0004611299755088321 0 0)
(0.0003314164877602826 0 0)
(0.0002025211612140212 0 0)
(7.576817038555549e-05 0 0)
(-5.054958068559433e-05 0 0)
(-0.0001745029142220903 0 0)
(-0.0002953760066233923 0 0)
(-0.0004020499695997267 0 0)
(-0.0004771308269916929 0 0)
(-0.0004645721647437639 0 0)
(-0.0003653924174360666 0 0)
(-0.0002289364087187702 0 0)
(-9.560781927171889e-05 0 0)
(4.337924454762788e-05 0 0)
(0.0001773830941457189 0 0)
(0.0003147516256541799 0 0)
(0.0004466242580529842 0 0)
(0.0005831888171776082 0 0)
(0.0007146349800334112 0 0)
(0.0008494834522678312 0 0)
(0.0009781233085466769 0 0)
(0.001111856522655754 0 0)
(0.001240275338846636 0 0)
(0.001370742639347387 0 0)
(0.001493208007068786 0 0)
(0.001619786640717747 0 0)
(0.001738556298088282 0 0)
(0.001860558203413319 0 0)
(0.001973219234344019 0 0)
(0.00208992889765725 0 0)
(0.002197926688541785 0 0)
(0.002279962746263285 0 0)
(0.002306448879472047 0 0)
(0.002228325015612906 0 0)
(0.002102201290916372 0 0)
(0.001962012272480409 0 0)
(0.00182840669769384 0 0)
(0.001688668369846984 0 0)
(0.001555662011250004 0 0)
(0.001416510046123578 0 0)
(0.001285034973150217 0 0)
(0.001148158063681223 0 0)
(0.001018966378469151 0 0)
(0.0008853254316825149 0 0)
(0.0007631182569500947 0 0)
(0.0006365195474224622 0 0)
(0.0005177059471617137 0 0)
(0.0003910476987206417 0 0)
(0.000271572016510562 0 0)
(0.0001463961151754372 0 0)
(2.834062864507788e-05 0 0)
(-9.727665445096665e-05 0 0)
(-0.0002116649132200393 0 0)
(-0.0003239171860489974 0 0)
(-0.0004174699327981248 0 0)
(-0.0004510892285576988 0 0)
(-0.0003908722767110661 0 0)
(-0.0002623418171818901 0 0)
(-0.0001270781721862404 0 0)
(1.259100574690865e-05 0 0)
(0.000148407430569308 0 0)
(0.0002873696370009896 0 0)
(0.0004217400487028946 0 0)
(0.0005593738289676312 0 0)
(0.0006901025620110986 0 0)
(0.0008185317719882097 0 0)
(0.0009387679358025173 0 0)
(0.001061239459804967 0 0)
(0.001180227819081303 0 0)
(0.001302686894275544 0 0)
(0.001421409812804921 0 0)
(0.001544333496414012 0 0)
(0.001664197985087133 0 0)
(0.001785480295454023 0 0)
(0.00190171379243571 0 0)
(0.002020779788757219 0 0)
(0.002133266459002588 0 0)
(0.002229153043774892 0 0)
(0.002290094686379307 0 0)
(0.002255909504265397 0 0)
(0.00214486291181501 0 0)
(0.002004257858936538 0 0)
(0.001869520753222667 0 0)
(0.001728117112791999 0 0)
(0.001593763166016424 0 0)
(0.001452694807626302 0 0)
(0.001320185469875303 0 0)
(0.001183245174855703 0 0)
(0.001057349297143758 0 0)
(0.000930959864842853 0 0)
(0.0008132272201769561 0 0)
(0.000689448045594618 0 0)
(0.0005712040968490555 0 0)
(0.0004460624915924469 0 0)
(0.0003277900815863707 0 0)
(0.0002037559440219439 0 0)
(8.579923072233357e-05 0 0)
(-3.856378234071629e-05 0 0)
(-0.0001521248175530976 0 0)
(-0.0002668942509377697 0 0)
(-0.0003690563160234651 0 0)
(-0.0004291913201320566 0 0)
(-0.0004078008850077257 0 0)
(-0.0002951376813719381 0 0)
(-0.0001608543556736071 0 0)
(-2.040933327757869e-05 0 0)
(0.0001156913517873595 0 0)
(0.0002553820244144293 0 0)
(0.0003900914364307337 0 0)
(0.0005286206883773068 0 0)
(0.0006596553634659861 0 0)
(0.0007891459746263341 0 0)
(0.0009100678666317447 0 0)
(0.001033704701346381 0 0)
(0.001153208211837915 0 0)
(0.001276752831293826 0 0)
(0.001396293759369542 0 0)
(0.001521343182987134 0 0)
(0.001642032550067279 0 0)
(0.001765736914089588 0 0)
(0.001883066454800244 0 0)
(0.002005647421070316 0 0)
(0.002119253357124902 0 0)
(0.002221785379023017 0 0)
(0.002293020902516237 0 0)
(0.002278478795181014 0 0)
(0.002177382965076792 0 0)
(0.00204084808603992 0 0)
(0.001906588803298165 0 0)
(0.001768075310337673 0 0)
(0.001633909215226754 0 0)
(0.001495873523039122 0 0)
(0.00136355829980551 0 0)
(0.00122876774301555 0 0)
(0.00110189639305821 0 0)
(0.0009765533513731029 0 0)
(0.0008574839986649848 0 0)
(0.0007348024284385706 0 0)
(0.0006151529965944172 0 0)
(0.0004912339667119831 0 0)
(0.0003716627316018749 0 0)
(0.0002483445163798613 0 0)
(0.0001284686991892816 0 0)
(5.115870935184406e-06 0 0)
(-0.000110448314412527 0 0)
(-0.0002262321723164443 0 0)
(-0.0003335878400545084 0 0)
(-0.0004050692134545411 0 0)
(-0.0004073483482450269 0 0)
(-0.000309017684732168 0 0)
(-0.0001796839421887803 0 0)
(-4.056796136322285e-05 0 0)
(9.2199343934833e-05 0 0)
(0.0002306358993731692 0 0)
(0.0003621889219089202 0 0)
(0.000499561358411379 0 0)
(0.0006271060627833112 0 0)
(0.0007564072121755284 0 0)
(0.0008755696085520366 0 0)
(0.001000278092946792 0 0)
(0.001118359906604596 0 0)
(0.001242714577508055 0 0)
(0.001361143945239626 0 0)
(0.001486799225005996 0 0)
(0.001606205059155403 0 0)
(0.00173013604718195 0 0)
(0.001847013419013182 0 0)
(0.001970542555509476 0 0)
(0.002083998758566664 0 0)
(0.002191444292726998 0 0)
(0.002274201304257644 0 0)
(0.002285226638814596 0 0)
(0.002203007286239424 0 0)
(0.00207200609794526 0 0)
(0.001938975100010559 0 0)
(0.001803046791544793 0 0)
(0.001669747331769903 0 0)
(0.001534658153309758 0 0)
(0.001404072563398711 0 0)
(0.001273142022256018 0 0)
(0.00114945719584639 0 0)
(0.001025538876969484 0 0)
(0.0009051376638255394 0 0)
(0.0007821071371548783 0 0)
(0.0006607681471116637 0 0)
(0.0005369466015304681 0 0)
(0.0004163409914705629 0 0)
(0.0002937406202318033 0 0)
(0.0001727849176363056 0 0)
(5.074919206511801e-05 0 0)
(-6.617807433194779e-05 0 0)
(-0.000182660317813446 0 0)
(-0.0002940314796359251 0 0)
(-0.0003767485087371285 0 0)
(-0.0004045304507363948 0 0)
(-0.0003279699851482562 0 0)
(-0.0002054180489630175 0 0)
(-6.838201651586278e-05 0 0)
(6.130722512934721e-05 0 0)
(0.0001979721311922759 0 0)
(0.000326564301561551 0 0)
(0.0004613865265475566 0 0)
(0.0005842652309686195 0 0)
(0.0007122104642446484 0 0)
(0.0008310889096302649 0 0)
(0.0009582642457295432 0 0)
(0.001077284443718639 0 0)
(0.001203837024312152 0 0)
(0.0013224966047153 0 0)
(0.001449579795687726 0 0)
(0.001567612427965214 0 0)
(0.001692167910129278 0 0)
(0.001808547951558552 0 0)
(0.001933184538507402 0 0)
(0.00204603240171152 0 0)
(0.002158012095922375 0 0)
(0.002250874418989484 0 0)
(0.002288476986528765 0 0)
(0.002232884216162707 0 0)
(0.002109956916391433 0 0)
(0.001977403018643866 0 0)
(0.001842524108410135 0 0)
(0.001709412262613271 0 0)
(0.001575302141092084 0 0)
(0.001444649452497443 0 0)
(0.001313870129679951 0 0)
(0.001189860447919123 0 0)
(0.001066227265369908 0 0)
(0.0009458133751113656 0 0)
(0.0008230009647601944 0 0)
(0.0007018689235411723 0 0)
(0.0005786230078882748 0 0)
(0.0004581355388784575 0 0)
(0.0003355057227226321 0 0)
(0.0002144852050528244 0 0)
(9.299018246180974e-05 0 0)
(-2.433050053503229e-05 0 0)
(-0.0001423651533154041 0 0)
(-0.0002558411769813308 0 0)
(-0.0003487105588127295 0 0)
(-0.0004009982270179131 0 0)
(-0.0003536837082712333 0 0)
(-0.0002401081379787874 0 0)
(-0.0001038172765756496 0 0)
(2.577402186750115e-05 0 0)
(0.0001622899387979352 0 0)
(0.0002912332203299266 0 0)
(0.000426458749179703 0 0)
(0.0005504547778053115 0 0)
(0.0006788546830008602 0 0)
(0.0007975338420570329 0 0)
(0.0009240662109342116 0 0)
(0.001042471692423033 0 0)
(0.001168459648719099 0 0)
(0.001286979877700393 0 0)
(0.001413541747585773 0 0)
(0.001531037459659085 0 0)
(0.00165541812862992 0 0)
(0.001772182877554616 0 0)
(0.001896704639895605 0 0)
(0.002009674321649972 0 0)
(0.002124590705896882 0 0)
(0.002225216564130432 0 0)
(0.002284952596334773 0 0)
(0.002261335876691201 0 0)
(0.002151703588820645 0 0)
(0.002020340256420187 0 0)
(0.001885295734689892 0 0)
(0.001752373367192369 0 0)
(0.001618036182999143 0 0)
(0.001487081748008785 0 0)
(0.001355159429593868 0 0)
(0.00123050635494312 0 0)
(0.00110632129370036 0 0)
(0.0009861977094138392 0 0)
(0.0008630942147138346 0 0)
(0.0007426297886263217 0 0)
(0.0006195452532369258 0 0)
(0.0004994592732270252 0 0)
(0.0003763325345633876 0 0)
(0.0002559099406950505 0 0)
(0.0001347395562341837 0 0)
(1.750915144273435e-05 0 0)
(-0.0001020866250459084 0 0)
(-0.0002161670110838763 0 0)
(-0.0003168629188315237 0 0)
(-0.0003894589161575728 0 0)
(-0.0003757075274718903 0 0)
(-0.0002782701506551515 0 0)
(-0.0001433276910624047 0 0)
(-1.278621705776619e-05 0 0)
(0.0001240957617425208 0 0)
(0.0002543899344907516 0 0)
(0.0003901544753648401 0 0)
(0.0005159291494258696 0 0)
(0.0006449324053710257 0 0)
(0.0007638097547864933 0 0)
(0.0008894215048135468 0 0)
(0.001007578385281808 0 0)
(0.001132904257061482 0 0)
(0.001251493301001152 0 0)
(0.001377160655362562 0 0)
(0.001494318260728725 0 0)
(0.001618346182246961 0 0)
(0.001735516175354669 0 0)
(0.001859217677503771 0 0)
(0.001972301561294733 0 0)
(0.00208933099785501 0 0)
(0.002195242937194599 0 0)
(0.002272839078270849 0 0)
(0.002283461662996747 0 0)
(0.002195884707901211 0 0)
(0.002066551011706405 0 0)
(0.00192991686561252 0 0)
(0.001795752926761446 0 0)
(0.001659717536020811 0 0)
(0.001526921200954114 0 0)
(0.001392386818645423 0 0)
(0.001265114813192399 0 0)
(0.001139682186553429 0 0)
(0.001020265269022506 0 0)
(0.0008980881444072477 0 0)
(0.0007791086572565945 0 0)
(0.0006573001546431619 0 0)
(0.0005379343388218962 0 0)
(0.0004153272129847256 0 0)
(0.0002955515617314303 0 0)
(0.0001751344444532599 0 0)
(5.765784255306484e-05 0 0)
(-6.247574518458902e-05 0 0)
(-0.000176765779690029 0 0)
(-0.000282365487908926 0 0)
(-0.0003700895824534634 0 0)
(-0.0003874430321267176 0 0)
(-0.000315054381654107 0 0)
(-0.0001837637247301006 0 0)
(-5.307859280672251e-05 0 0)
(8.4752365028354e-05 0 0)
(0.0002155500334733685 0 0)
(0.0003524815726134375 0 0)
(0.0004795421974842362 0 0)
(0.0006105593660348023 0 0)
(0.0007293977545141502 0 0)
(0.0008550212499443936 0 0)
(0.0009723965795839735 0 0)
(0.001098035463086043 0 0)
(0.001216032835530666 0 0)
(0.001341618631744282 0 0)
(0.001458162364349989 0 0)
(0.001582885775890868 0 0)
(0.001699797989872817 0 0)
(0.001823312840391357 0 0)
(0.001936243812791284 0 0)
(0.00205581277328024 0 0)
(0.002164172962751312 0 0)
(0.002254967894710199 0 0)
(0.002294966128335275 0 0)
(0.002237796241961745 0 0)
(0.002114729407199584 0 0)
(0.001977203330650918 0 0)
(0.001841243229199774 0 0)
(0.001703844729987834 0 0)
(0.001568642568732134 0 0)
(0.001432388344259081 0 0)
(0.001302159366302541 0 0)
(0.001174651321177171 0 0)
(0.001054600219945843 0 0)
(0.0009335202436593312 0 0)
(0.0008154246087079473 0 0)
(0.0006950698378900893 0 0)
(0.000576035548612275 0 0)
(0.0004544254884679609 0 0)
(0.0003352558508604309 0 0)
(0.0002157344001475713 0 0)
(9.767986581690882e-05 0 0)
(-2.209559083220005e-05 0 0)
(-0.0001361608647701281 0 0)
(-0.0002447355650073583 0 0)
(-0.0003435155580556356 0 0)
(-0.0003885580994228792 0 0)
(-0.0003501357193013628 0 0)
(-0.0002280765474534177 0 0)
(-9.701945187697589e-05 0 0)
(4.276304760626225e-05 0 0)
(0.0001746720801220941 0 0)
(0.0003138750464148705 0 0)
(0.0004441271031233623 0 0)
(0.0005810501569429202 0 0)
(0.0007059151201274852 0 0)
(0.0008320182171120842 0 0)
(0.0009472740522041562 0 0)
(0.001069641989433047 0 0)
(0.001185032883474756 0 0)
(0.001307927014655702 0 0)
(0.001423381242198688 0 0)
(0.00154680363113488 0 0)
(0.00166318536834244 0 0)
(0.00178610204360011 0 0)
(0.001899553259509364 0 0)
(0.002019471343177239 0 0)
(0.002129900089851238 0 0)
(0.002229287552840823 0 0)
(0.002287133254131765 0 0)
(0.0022579683923123 0 0)
(0.002147779318126993 0 0)
(0.002016528517068136 0 0)
(0.001884328401346895 0 0)
(0.001752125543787711 0 0)
(0.001619921391905557 0 0)
(0.001487719660376202 0 0)
(0.001355516269618149 0 0)
(0.001223315162664871 0 0)
(0.001091112790903469 0 0)
(0.0009589221712947187 0 0)
(0.0008267335368201605 0 0)
(0.000694602440437079 0 0)
(0.0005626104290634276 0 0)
(0.0004311416084643828 0 0)
(0.0003014870562935478 0 0)
(0.0001781286322428354 0 0)
(7.452319426997923e-05 0 0)
(1.500603027320979e-05 0 0)
(7.443266200703937e-07 0 0)
(3.696912178842884e-09 0 0)
(-1.714505891234865e-12 0 0)
(-2.288518252861218e-12 0 0)
(-2.31520075755475e-12 0 0)
(-2.310491975177468e-12 0 0)
(-2.292062343998316e-12 0 0)
(-2.275188611700299e-12 0 0)
(-2.261030110515003e-12 0 0)
(-2.271033593562945e-12 0 0)
(-2.199419372958822e-12 0 0)
(-2.32600273290999e-12 0 0)
(-2.264216934400164e-12 0 0)
(-2.295556417719881e-12 0 0)
(-2.293511062703895e-12 0 0)
(-2.289052367402446e-12 0 0)
(-2.313041077017894e-12 0 0)
(-2.324823750979465e-12 0 0)
(-2.343826796097653e-12 0 0)
(-2.241644789437707e-12 0 0)
(-2.337237001639746e-12 0 0)
(-2.286463966163855e-12 0 0)
(-2.304659587293315e-12 0 0)
(-2.29891472988589e-12 0 0)
(-2.310993935665788e-12 0 0)
(-2.338026562266067e-12 0 0)
(-2.275131448939977e-12 0 0)
(-2.390434095418561e-12 0 0)
(-2.343578495357539e-12 0 0)
(-2.359676957719516e-12 0 0)
(-2.358194298624756e-12 0 0)
)
;

boundaryField
{
    inlet
    {
        type            calculated;
        value           uniform (-5.574333034987731e-05 0 0);
    }
    outlet
    {
        type            calculated;
        value           uniform (-2.358194298624756e-12 0 0);
    }
    frontAndBack
    {
        type            empty;
    }
}


// ************************************************************************* //
