/*--------------------------------*- C++ -*----------------------------------*\
| =========                 |                                                 |
| \\      /  F ield         | OpenFOAM: The Open Source CFD Toolbox           |
|  \\    /   O peration     | Version:  v2012                                 |
|   \\  /    A nd           | Website:  www.openfoam.com                      |
|    \\/     M anipulation  |                                                 |
\*---------------------------------------------------------------------------*/
FoamFile
{
    version     2.0;
    format      ascii;
    class       volVectorField;
    location    "0.001";
    object      U;
}
// * * * * * * * * * * * * * * * * * * * * * * * * * * * * * * * * * * * * * //

dimensions      [0 1 -1 0 0 0 0];


internalField   nonuniform List<vector> 
1000
(
(-0.001040911961667782 0 0)
(-0.03287786920241893 0 0)
(-0.04109470475929313 0 0)
(-0.05632464057075487 0 0)
(-0.07031323551286675 0 0)
(-0.08344549587959572 0 0)
(-0.09469598752279977 0 0)
(-0.1043418645264805 0 0)
(-0.1127526715781922 0 0)
(-0.1186025376767202 0 0)
(-0.1202909276120477 0 0)
(-0.1201723184905932 0 0)
(-0.119534508929706 0 0)
(-0.1172805891409357 0 0)
(-0.1127511633555208 0 0)
(-0.1056503221492452 0 0)
(-0.09623222176986451 0 0)
(-0.08495676302213939 0 0)
(-0.0722180854985406 0 0)
(-0.05827148220671061 0 0)
(-0.04330312843869945 0 0)
(-0.02752096924801524 0 0)
(-0.01119487177885568 0 0)
(0.005364288635849617 0 0)
(0.02183850998250792 0 0)
(0.03790433724168561 0 0)
(0.05324458783266453 0 0)
(0.06765233542035257 0 0)
(0.08116360076067544 0 0)
(0.09394273522702316 0 0)
(0.1056166834619007 0 0)
(0.1143115580519224 0 0)
(0.1179628997189545 0 0)
(0.118389324514023 0 0)
(0.1183480192603341 0 0)
(0.1177373675519474 0 0)
(0.1161674878569506 0 0)
(0.1129195667906672 0 0)
(0.1074455586477866 0 0)
(0.09942492452907993 0 0)
(0.08890197747116091 0 0)
(0.0762467203062452 0 0)
(0.06199728518250009 0 0)
(0.04667405852899092 0 0)
(0.03066819216727677 0 0)
(0.01424438023004772 0 0)
(-0.002375352040123329 0 0)
(-0.01893169590027875 0 0)
(-0.03513754813913116 0 0)
(-0.05078363623962779 0 0)
(-0.06583941921965968 0 0)
(-0.08040510771031893 0 0)
(-0.09436766839417506 0 0)
(-0.1066122797948108 0 0)
(-0.1145618347587541 0 0)
(-0.1171283193426498 0 0)
(-0.1173217876284356 0 0)
(-0.1171610248605348 0 0)
(-0.1166646516489627 0 0)
(-0.1152762977428175 0 0)
(-0.1125232413963821 0 0)
(-0.1078707897896718 0 0)
(-0.1009063869419213 0 0)
(-0.09143947288317247 0 0)
(-0.07957536626507596 0 0)
(-0.0656921056074094 0 0)
(-0.05033090595213781 0 0)
(-0.03405933825609702 0 0)
(-0.0173688431959379 0 0)
(-0.0006288276191828324 0 0)
(0.01591435029899722 0 0)
(0.03211909420975292 0 0)
(0.04794320988796531 0 0)
(0.0634551334707168 0 0)
(0.07875709726693762 0 0)
(0.09356728770883653 0 0)
(0.1063086074439343 0 0)
(0.1140410461087928 0 0)
(0.1162322543278433 0 0)
(0.1163461944384946 0 0)
(0.1162841220039678 0 0)
(0.1158150466602913 0 0)
(0.1146633957799286 0 0)
(0.1123474836650755 0 0)
(0.1083989647855127 0 0)
(0.1023814252831845 0 0)
(0.09399005004097857 0 0)
(0.08312913976957531 0 0)
(0.06996117487397231 0 0)
(0.05489493758076878 0 0)
(0.03850143090959202 0 0)
(0.02138814813492561 0 0)
(0.004085798829365067 0 0)
(-0.01302512687347185 0 0)
(-0.02975957133515445 0 0)
(-0.04614668577020056 0 0)
(-0.06236986277971645 0 0)
(-0.07852509576645592 0 0)
(-0.09404614842438136 0 0)
(-0.1068331489595406 0 0)
(-0.1138656649604799 0 0)
(-0.1155687931492828 0 0)
(-0.1156503748780196 0 0)
(-0.1155154454041806 0 0)
(-0.1150993219016567 0 0)
(-0.1140111476142418 0 0)
(-0.1118858339594674 0 0)
(-0.1082894850314095 0 0)
(-0.1028099252537551 0 0)
(-0.09511823279396647 0 0)
(-0.08504633299295876 0 0)
(-0.07264174665469898 0 0)
(-0.05818302326863612 0 0)
(-0.04214851366409407 0 0)
(-0.0251353175575969 0 0)
(-0.007736110975964867 0 0)
(0.009591528339206902 0 0)
(0.02661281141970622 0 0)
(0.04332917275649416 0 0)
(0.05990549582643143 0 0)
(0.07644376402564848 0 0)
(0.09239989192900462 0 0)
(0.1056396699406256 0 0)
(0.1130165679156178 0 0)
(0.1148371972544552 0 0)
(0.1149096373514626 0 0)
(0.1148519713889687 0 0)
(0.1144744006792374 0 0)
(0.1135473073620533 0 0)
(0.1116877804361461 0 0)
(0.1084895896863184 0 0)
(0.1035178810658336 0 0)
(0.09636060211502712 0 0)
(0.08668087329076764 0 0)
(0.07428400704795871 0 0)
(0.05922748917301292 0 0)
(0.0420798992875949 0 0)
(0.02451513703783519 0 0)
(0.00998559778376162 0 0)
(0.002160614157337596 0 0)
(0.000168785901180451 0 0)
(3.082711099695256e-06 0 0)
(8.722981363381555e-09 0 0)
(4.426442749529079e-12 0 0)
(8.866382410337163e-13 0 0)
(5.320244589488665e-13 0 0)
(-5.970929569602873e-13 0 0)
(-8.24999058520271e-13 0 0)
(5.962027301251236e-13 0 0)
(3.876257742951161e-13 0 0)
(9.466458870125269e-13 0 0)
(1.774249632542975e-12 0 0)
(2.056812727867031e-12 0 0)
(1.470913544865819e-12 0 0)
(2.652565100984067e-13 0 0)
(-7.241013556349015e-13 0 0)
(-1.595254233691318e-12 0 0)
(-3.179110968100392e-12 0 0)
(-4.333466381501189e-12 0 0)
(-3.710990441827172e-12 0 0)
(-1.790711697020926e-12 0 0)
(-9.211810376356625e-14 0 0)
(2.660430485284212e-13 0 0)
(6.35450933172898e-13 0 0)
(2.050634860548046e-12 0 0)
(3.231078274153913e-12 0 0)
(4.346422708312866e-12 0 0)
(3.719743029713487e-12 0 0)
(2.279387375754197e-12 0 0)
(7.076657851308735e-13 0 0)
(-7.675380145082222e-13 0 0)
(-1.745532184830246e-12 0 0)
(-2.97735191207662e-12 0 0)
(-4.591619300898887e-12 0 0)
(-5.939938068091975e-12 0 0)
(-5.408792170328704e-12 0 0)
(-3.835340321200423e-12 0 0)
(-2.744339515834133e-12 0 0)
(-1.851580630053532e-12 0 0)
(-7.128029558509764e-13 0 0)
(-7.674891781380636e-13 0 0)
(-3.302756375825593e-14 0 0)
(1.936725797930684e-12 0 0)
(1.90720828544993e-12 0 0)
(3.216375757481808e-13 0 0)
(-1.008570885965503e-13 0 0)
(1.014470588458673e-12 0 0)
(1.826455594836849e-12 0 0)
(1.82472417332306e-12 0 0)
(9.874347812287402e-13 0 0)
(-4.321264860976429e-13 0 0)
(-1.783832296615361e-12 0 0)
(-3.266748627723468e-12 0 0)
(-4.734143262077138e-12 0 0)
(-5.993839158900303e-12 0 0)
(-6.358052995041921e-12 0 0)
(-5.051446718298106e-12 0 0)
(-4.135227981802559e-12 0 0)
(-3.224181175848094e-12 0 0)
(-1.881111958553169e-12 0 0)
(-5.571907185491458e-13 0 0)
(-8.354027123188073e-14 0 0)
(9.405455541707657e-13 0 0)
(2.502708594146263e-12 0 0)
(2.880834533683448e-12 0 0)
(3.041639319838678e-12 0 0)
(2.918208677297879e-12 0 0)
(2.547041883857502e-12 0 0)
(2.686109084632501e-12 0 0)
(2.028073803518256e-12 0 0)
(6.684452889412618e-13 0 0)
(1.215285964354431e-12 0 0)
(2.060286571086952e-12 0 0)
(1.239629109235713e-12 0 0)
(1.986324362647664e-12 0 0)
(2.273202254906028e-12 0 0)
(2.761775609704743e-12 0 0)
(3.764915113632194e-12 0 0)
(2.760854724429375e-12 0 0)
(2.654828755427155e-12 0 0)
(3.62151909493334e-12 0 0)
(3.201621797191501e-12 0 0)
(2.243654638624755e-12 0 0)
(1.057925197488548e-12 0 0)
(-1.295463198836344e-13 0 0)
(-1.471721114286814e-12 0 0)
(-1.753366077907201e-12 0 0)
(-1.370010826310715e-12 0 0)
(-1.812485839408407e-12 0 0)
(-1.720338442969653e-12 0 0)
(-6.502222624155847e-13 0 0)
(1.652131987874263e-14 0 0)
(1.216727005320964e-13 0 0)
(1.329998748697872e-12 0 0)
(2.060222052186727e-12 0 0)
(1.663841620837517e-12 0 0)
(2.224656488233085e-12 0 0)
(1.889870358969683e-12 0 0)
(5.728098186756993e-13 0 0)
(-7.502476775921252e-13 0 0)
(-1.878554036420834e-12 0 0)
(-2.661759725498389e-12 0 0)
(-4.363889311569062e-12 0 0)
(-5.370530801581992e-12 0 0)
(-5.022820826553322e-12 0 0)
(-4.643777112695427e-12 0 0)
(-3.685832045907401e-12 0 0)
(-2.350567383682612e-12 0 0)
(-1.030963182569632e-12 0 0)
(5.476227067036811e-13 0 0)
(2.369682786860226e-12 0 0)
(4.167406054197694e-12 0 0)
(5.421824692343123e-12 0 0)
(5.142790461823283e-12 0 0)
(4.931509644441083e-12 0 0)
(5.684322873980436e-12 0 0)
(4.674223563206843e-12 0 0)
(2.909569755052407e-12 0 0)
(1.298800505392296e-12 0 0)
(-5.702263192203247e-13 0 0)
(-2.388820707093563e-12 0 0)
(-4.149192072421365e-12 0 0)
(-5.369749131894159e-12 0 0)
(-4.585586211731749e-12 0 0)
(-3.475462977927788e-12 0 0)
(-3.883962163084614e-12 0 0)
(-3.309258995974093e-12 0 0)
(-2.899099321433394e-12 0 0)
(-3.4798512608153e-12 0 0)
(-3.991819752286566e-12 0 0)
(-3.03037717706384e-12 0 0)
(-1.248287006628065e-12 0 0)
(-2.605125257923159e-15 0 0)
(1.817581578063778e-14 0 0)
(6.145763215378513e-13 0 0)
(7.736935128682475e-13 0 0)
(-3.29468861372728e-13 0 0)
(-1.625253091359076e-13 0 0)
(-4.23329647275922e-13 0 0)
(-9.292939404318024e-13 0 0)
(1.660500139237939e-13 0 0)
(9.866772872538972e-13 0 0)
(5.91993556933968e-13 0 0)
(7.223576495030777e-13 0 0)
(1.78233222340296e-13 0 0)
(2.364518376061141e-13 0 0)
(5.537332382904409e-13 0 0)
(4.382151900388172e-13 0 0)
(-4.302917223209555e-13 0 0)
(-6.702768457606423e-13 0 0)
(-8.371484842009755e-13 0 0)
(-6.606527389738184e-13 0 0)
(-5.589953266718315e-13 0 0)
(-1.875973219755476e-12 0 0)
(-3.467625163524453e-12 0 0)
(-4.340375210385141e-12 0 0)
(-3.83626555950069e-12 0 0)
(-3.463248146921292e-12 0 0)
(-3.382355068451015e-12 0 0)
(-3.921348985049192e-12 0 0)
(-3.651911625374415e-12 0 0)
(-2.321091495156098e-12 0 0)
(-1.620418785429064e-12 0 0)
(-1.998500648176388e-12 0 0)
(-2.797361052839356e-12 0 0)
(-2.149754713658138e-12 0 0)
(-1.752467708776957e-12 0 0)
(-1.89069306402698e-12 0 0)
(-1.375234057825887e-12 0 0)
(-2.799031671895802e-13 0 0)
(6.493047187948147e-13 0 0)
(9.205487391307208e-13 0 0)
(1.63865201386969e-12 0 0)
(2.189862364249739e-12 0 0)
(7.38921655705177e-13 0 0)
(5.102276053608924e-13 0 0)
(1.490836676630202e-12 0 0)
(3.094707079598875e-12 0 0)
(3.284173054176549e-12 0 0)
(3.279775183290022e-12 0 0)
(3.957863503509828e-12 0 0)
(4.546445936058746e-12 0 0)
(6.290231279154865e-12 0 0)
(7.294286584413926e-12 0 0)
(6.379841666476247e-12 0 0)
(5.139293538598235e-12 0 0)
(3.716946729195729e-12 0 0)
(2.501747462160039e-12 0 0)
(1.412620462863605e-12 0 0)
(1.634955091636115e-13 0 0)
(-1.425635693769654e-12 0 0)
(-1.608174944034033e-12 0 0)
(-5.20979127047905e-15 0 0)
(1.495111149164063e-12 0 0)
(1.168287789846423e-12 0 0)
(5.685090588202863e-13 0 0)
(1.005822838194459e-12 0 0)
(5.924033011082573e-14 0 0)
(1.918012975492155e-14 0 0)
(7.667146489920196e-13 0 0)
(-1.468947841909845e-13 0 0)
(-1.956124218589982e-13 0 0)
(-8.737721553600916e-13 0 0)
(-1.250123059403208e-12 0 0)
(-1.871580710013724e-12 0 0)
(-2.684340540354288e-12 0 0)
(-1.935941280226401e-12 0 0)
(-1.529065228737364e-12 0 0)
(-4.998078150597945e-13 0 0)
(5.885296031378971e-13 0 0)
(1.318750141060754e-12 0 0)
(2.622638542287761e-12 0 0)
(3.515425967635255e-12 0 0)
(2.920774852684219e-12 0 0)
(1.476889894711456e-12 0 0)
(-5.384525909381207e-14 0 0)
(-1.455129678637401e-12 0 0)
(-2.69220398350839e-12 0 0)
(-2.374924140290854e-12 0 0)
(-2.619211893661974e-12 0 0)
(-3.079025499200739e-12 0 0)
(-2.361815125976908e-12 0 0)
(-2.318449274369137e-12 0 0)
(-2.347221722045041e-12 0 0)
(-2.477530819559791e-12 0 0)
(-2.400084816602463e-12 0 0)
(-2.160137814266864e-12 0 0)
(-1.667291386761305e-12 0 0)
(-7.914600134469928e-14 0 0)
(3.59037822519053e-13 0 0)
(-3.259681416789024e-13 0 0)
(-6.145952525992107e-13 0 0)
(5.355064805563385e-13 0 0)
(2.399258920615063e-12 0 0)
(3.020744783593472e-12 0 0)
(2.653971243876375e-12 0 0)
(2.942655097284528e-12 0 0)
(2.477542334900788e-12 0 0)
(5.54622777044805e-13 0 0)
(-3.955654238381879e-13 0 0)
(-1.253583201449918e-12 0 0)
(-1.659494099348924e-12 0 0)
(-1.637799249422317e-12 0 0)
(-2.05938431989735e-12 0 0)
(-1.929814530416246e-12 0 0)
(-6.528242353266646e-13 0 0)
(6.180701939790949e-13 0 0)
(1.62561796312378e-12 0 0)
(2.606154468990706e-12 0 0)
(4.252579887552613e-12 0 0)
(4.725489174165997e-12 0 0)
(3.286793394113236e-12 0 0)
(1.42652642360097e-12 0 0)
(9.066580685854146e-13 0 0)
(1.117000126915256e-12 0 0)
(4.729011877150289e-13 0 0)
(-5.833143439563785e-13 0 0)
(-1.672476881435492e-12 0 0)
(-1.45162216474062e-12 0 0)
(-7.379870847742933e-13 0 0)
(-7.797758825460072e-13 0 0)
(-8.1893622285374e-13 0 0)
(-1.062289902487622e-12 0 0)
(-6.615144665161177e-13 0 0)
(3.216368505467637e-13 0 0)
(-2.356627345574095e-13 0 0)
(-1.383953078696364e-12 0 0)
(-2.403622348848947e-12 0 0)
(-2.64962548258749e-12 0 0)
(-1.906359774445226e-12 0 0)
(-1.269984389177158e-12 0 0)
(-2.087134110115113e-12 0 0)
(-2.796549474398774e-12 0 0)
(-3.677992367916401e-12 0 0)
(-4.29610885660541e-12 0 0)
(-2.779151602780938e-12 0 0)
(-1.355203167533511e-12 0 0)
(-4.824115242899683e-13 0 0)
(4.321445584852011e-13 0 0)
(1.341410375123595e-12 0 0)
(1.658613049145147e-12 0 0)
(6.840666398832275e-13 0 0)
(-8.137091962735177e-13 0 0)
(-1.431767357652278e-12 0 0)
(-1.276107335812585e-12 0 0)
(-1.233533103193689e-12 0 0)
(-1.161433480654205e-12 0 0)
(-7.415009893106886e-13 0 0)
(3.825771973179456e-13 0 0)
(1.043161673042305e-12 0 0)
(3.963064071715771e-13 0 0)
(7.805920490451985e-13 0 0)
(1.246568684306778e-12 0 0)
(7.63246733583549e-13 0 0)
(4.729151291314861e-13 0 0)
(-3.511899218144762e-13 0 0)
(-2.955388714446281e-13 0 0)
(7.336747131023009e-13 0 0)
(2.03764504324721e-12 0 0)
(2.267989912200222e-12 0 0)
(7.606437276108585e-13 0 0)
(-1.216825705969377e-14 0 0)
(1.022327155621907e-12 0 0)
(1.539490871727085e-12 0 0)
(8.944375889451294e-13 0 0)
(-2.616905860482435e-13 0 0)
(-1.232642967186451e-12 0 0)
(-9.622599187507338e-13 0 0)
(-1.138812567065259e-13 0 0)
(1.283892183118912e-12 0 0)
(2.551388953822994e-12 0 0)
(3.00607238001166e-12 0 0)
(3.15993502772645e-12 0 0)
(2.575769626142297e-12 0 0)
(2.701740892916959e-12 0 0)
(2.151396157593524e-12 0 0)
(8.049360733252701e-13 0 0)
(-1.659817140748767e-13 0 0)
(-1.65946860692075e-13 0 0)
(-2.616004490715077e-13 0 0)
(-2.477712661419947e-13 0 0)
(1.298638014810721e-12 0 0)
(2.856480120633896e-12 0 0)
(4.561165700837691e-12 0 0)
(5.866815763500467e-12 0 0)
(4.908898780874283e-12 0 0)
(4.204833481862505e-12 0 0)
(5.099365433292357e-12 0 0)
(5.483525509826845e-12 0 0)
(4.909712729218172e-12 0 0)
(3.498807704854613e-12 0 0)
(3.925705578441035e-12 0 0)
(4.046616608121386e-12 0 0)
(3.471997935750995e-12 0 0)
(2.447048225024081e-12 0 0)
(1.394342015925418e-12 0 0)
(1.712840336992415e-13 0 0)
(-5.902158993013759e-13 0 0)
(2.103735827409328e-13 0 0)
(1.037037199801855e-12 0 0)
(1.990659682770563e-12 0 0)
(2.063712267432541e-12 0 0)
(1.558644004601115e-12 0 0)
(1.421248430542627e-12 0 0)
(2.328842437797584e-12 0 0)
(3.030424068468393e-12 0 0)
(3.501568502957839e-12 0 0)
(4.380389266489852e-12 0 0)
(4.375149143445047e-12 0 0)
(3.817945947281197e-12 0 0)
(2.656536449841304e-12 0 0)
(2.189719850555393e-12 0 0)
(1.474355573548325e-12 0 0)
(2.877564075596797e-13 0 0)
(-6.416172921410163e-13 0 0)
(-1.964643067895463e-12 0 0)
(-2.586109209745029e-12 0 0)
(-1.788950022755e-12 0 0)
(-1.019636897538865e-12 0 0)
(-5.302965647222727e-13 0 0)
(3.292893072988516e-14 0 0)
(7.48419545109607e-13 0 0)
(1.254410026475371e-12 0 0)
(8.345137828168857e-13 0 0)
(-5.875915976345381e-13 0 0)
(-2.358304272282604e-12 0 0)
(-3.755327193506174e-12 0 0)
(-4.209934507093074e-12 0 0)
(-4.482921161780524e-12 0 0)
(-5.587018238090567e-12 0 0)
(-5.520903521326572e-12 0 0)
(-4.0543843310417e-12 0 0)
(-2.465356504085747e-12 0 0)
(-1.738642090844465e-12 0 0)
(-9.23258240585742e-13 0 0)
(5.572176066254122e-13 0 0)
(2.318473058253104e-12 0 0)
(2.503615025531603e-12 0 0)
(6.876993114593609e-13 0 0)
(-6.093689424285782e-13 0 0)
(-4.347200421773383e-13 0 0)
(-1.034836928843003e-13 0 0)
(-1.12664436072873e-12 0 0)
(-2.747880422994377e-12 0 0)
(-3.682323539689112e-12 0 0)
(-4.612461081333153e-12 0 0)
(-5.169729418630024e-12 0 0)
(-4.910693696542033e-12 0 0)
(-4.423825925420747e-12 0 0)
(-4.538535140490647e-12 0 0)
(-5.617389182594924e-12 0 0)
(-6.91436808458358e-12 0 0)
(-8.868544993417538e-12 0 0)
(-8.777282447060904e-12 0 0)
(-8.439104908517706e-12 0 0)
(-8.185235047211374e-12 0 0)
(-6.520529118264798e-12 0 0)
(-5.318327052185647e-12 0 0)
(-4.113509034368534e-12 0 0)
(-2.66870915960885e-12 0 0)
(-1.857644904856734e-12 0 0)
(-2.067186063340827e-12 0 0)
(-2.532297977035031e-12 0 0)
(-2.242859428806321e-12 0 0)
(-2.780932834377477e-12 0 0)
(-2.955602819812586e-12 0 0)
(-2.391393497505769e-12 0 0)
(-2.915577798372132e-12 0 0)
(-3.292023074106663e-12 0 0)
(-2.965142817868459e-12 0 0)
(-1.050991724220697e-12 0 0)
(-7.694016895631791e-13 0 0)
(6.514924171227921e-14 0 0)
(1.864697940436139e-12 0 0)
(3.316481233915887e-12 0 0)
(3.562385720836063e-12 0 0)
(3.306725884617104e-12 0 0)
(2.843442702934208e-12 0 0)
(1.382214832003488e-12 0 0)
(2.799223670177441e-13 0 0)
(-1.043121837875626e-12 0 0)
(-1.567274452509814e-12 0 0)
(-2.135829846204404e-12 0 0)
(-2.384518885024793e-12 0 0)
(-2.20368819251849e-12 0 0)
(-2.686924751429113e-12 0 0)
(-2.03848264920899e-12 0 0)
(-1.66997853434062e-12 0 0)
(-9.928368144286122e-13 0 0)
(3.389637286757041e-13 0 0)
(1.716843604787842e-12 0 0)
(2.876503907341227e-12 0 0)
(3.758834214486535e-12 0 0)
(4.116982977923439e-12 0 0)
(3.222470826279829e-12 0 0)
(1.885487878673756e-12 0 0)
(1.049232251903583e-12 0 0)
(2.373528242600607e-13 0 0)
(-7.470586414734044e-14 0 0)
(1.077757935451055e-13 0 0)
(-4.189652146648409e-13 0 0)
(2.647290994656858e-15 0 0)
(9.414143161561133e-13 0 0)
(1.279569757118753e-12 0 0)
(1.369979217357143e-12 0 0)
(1.450877720491117e-12 0 0)
(2.011637597025757e-12 0 0)
(1.935059452486217e-12 0 0)
(1.575923481540811e-12 0 0)
(1.965447045379034e-12 0 0)
(1.506504472319733e-12 0 0)
(7.840776372374874e-13 0 0)
(-7.389165136843608e-13 0 0)
(-7.82340418218619e-13 0 0)
(9.128037572553787e-13 0 0)
(1.649873337764662e-12 0 0)
(8.770903078221755e-13 0 0)
(-5.041293578025305e-13 0 0)
(1.488960166508399e-14 0 0)
(7.02415698854288e-13 0 0)
(1.095269254683373e-12 0 0)
(2.012420206942712e-12 0 0)
(3.436357434040747e-12 0 0)
(5.326995244978144e-12 0 0)
(5.263452498352761e-12 0 0)
(3.434543151128695e-12 0 0)
(2.14548539806799e-12 0 0)
(6.650549327962144e-13 0 0)
(-6.406406073542265e-13 0 0)
(-1.290895651451335e-12 0 0)
(-9.666917345797434e-13 0 0)
(7.753867121856042e-13 0 0)
(2.232346491146134e-12 0 0)
(3.461525799291457e-12 0 0)
(3.951851799189109e-12 0 0)
(3.917032103368403e-12 0 0)
(4.582919103963991e-12 0 0)
(3.544976807378904e-12 0 0)
(1.738595748885517e-12 0 0)
(9.396003453022283e-14 0 0)
(-1.486454226123245e-12 0 0)
(-2.565299948145125e-12 0 0)
(-4.005759778760546e-12 0 0)
(-3.970154104422219e-12 0 0)
(-2.397536127949831e-12 0 0)
(-7.562740190940169e-13 0 0)
(2.329622969877942e-13 0 0)
(1.261355088241239e-12 0 0)
(1.913356265462727e-12 0 0)
(1.266578305071456e-12 0 0)
(2.260024813125282e-13 0 0)
(1.220638062179925e-14 0 0)
(5.659605177553867e-13 0 0)
(1.144010174673351e-12 0 0)
(1.584698146284281e-12 0 0)
(2.020141678367543e-12 0 0)
(1.842004279800025e-12 0 0)
(1.116185145811182e-12 0 0)
(-9.388670313175219e-14 0 0)
(-1.005748714850156e-12 0 0)
(-2.222794967518479e-12 0 0)
(-2.847007917872124e-12 0 0)
(-2.387990777839722e-12 0 0)
(-1.659506175439283e-12 0 0)
(-4.015858800857154e-13 0 0)
(5.750783742005824e-14 0 0)
(7.0730042712948e-15 0 0)
(-3.208139339297577e-13 0 0)
(-6.493754768329094e-13 0 0)
(-1.75862322679389e-12 0 0)
(-2.820047962106226e-12 0 0)
(-2.52535812179726e-12 0 0)
(-3.144260956023731e-12 0 0)
(-4.10912086721944e-12 0 0)
(-2.979861368747535e-12 0 0)
(-1.938495628340123e-12 0 0)
(-1.5916630980004e-12 0 0)
(-8.458154808880399e-13 0 0)
(-1.060120247164607e-13 0 0)
(7.84087284892352e-13 0 0)
(1.98275445305715e-12 0 0)
(3.307659459540844e-12 0 0)
(4.247434915558561e-12 0 0)
(3.617986218064506e-12 0 0)
(3.598881750732215e-12 0 0)
(4.152607290544827e-12 0 0)
(4.168218698976976e-12 0 0)
(3.334590917311947e-12 0 0)
(2.476585295466695e-12 0 0)
(2.280140582702468e-12 0 0)
(2.53406020648533e-12 0 0)
(2.186396362369185e-12 0 0)
(9.449068672168802e-13 0 0)
(2.86782340281278e-13 0 0)
(-1.230052064876496e-12 0 0)
(-2.002818369271995e-12 0 0)
(-1.182229014734739e-12 0 0)
(-3.146607141912802e-13 0 0)
(-8.435850040295818e-14 0 0)
(4.597720914855956e-13 0 0)
(2.031544086887416e-12 0 0)
(3.164314463336287e-12 0 0)
(3.292913764015105e-12 0 0)
(2.555726779296755e-12 0 0)
(1.286546104637813e-12 0 0)
(-1.756544050083281e-13 0 0)
(-1.759482414360782e-12 0 0)
(-2.960809948248754e-12 0 0)
(-4.074363051114784e-12 0 0)
(-4.977573410948355e-12 0 0)
(-4.620260940011326e-12 0 0)
(-3.567535680077747e-12 0 0)
(-2.819142513262473e-12 0 0)
(-2.284544579853676e-12 0 0)
(-2.857369057485164e-12 0 0)
(-2.701763865832584e-12 0 0)
(-7.858612457595112e-13 0 0)
(-8.614845575043096e-13 0 0)
(-4.25922129419687e-13 0 0)
(9.466191558273093e-13 0 0)
(1.460383126544254e-12 0 0)
(2.337567041563229e-12 0 0)
(2.420163072551468e-12 0 0)
(9.145136572975322e-13 0 0)
(6.789175327605661e-13 0 0)
(7.484371595388986e-13 0 0)
(-8.675814802360183e-13 0 0)
(-1.50644579569867e-12 0 0)
(-2.398363461829363e-12 0 0)
(-3.926599429066604e-12 0 0)
(-5.577392160375378e-12 0 0)
(-6.198950257182035e-12 0 0)
(-5.181890551950814e-12 0 0)
(-3.747551652723491e-12 0 0)
(-2.244564156444e-12 0 0)
(-9.171188447304762e-13 0 0)
(8.215536693744949e-13 0 0)
(1.746456862418821e-12 0 0)
(1.11876823659157e-12 0 0)
(-2.521549830417549e-13 0 0)
(-7.928058917078265e-13 0 0)
(-6.771431801498166e-13 0 0)
(-9.396891297792092e-13 0 0)
(-1.493441187847323e-12 0 0)
(-2.64011552740552e-12 0 0)
(-1.861166975907854e-12 0 0)
(-1.09874298743016e-12 0 0)
(-5.560542727278135e-14 0 0)
(5.702852070434811e-13 0 0)
(3.763681689841706e-13 0 0)
(5.545328539275148e-13 0 0)
(3.268044694693338e-13 0 0)
(-3.372583111873603e-13 0 0)
(-1.069308969035685e-13 0 0)
(1.543846638237587e-12 0 0)
(1.556041675116396e-12 0 0)
(3.573501421027498e-13 0 0)
(-1.286026964909481e-13 0 0)
(-3.285647745272581e-13 0 0)
(-6.085192042416465e-13 0 0)
(3.468072913018313e-13 0 0)
(1.54385716071751e-12 0 0)
(2.667843419369139e-12 0 0)
(3.474586924493043e-12 0 0)
(3.1060530227726e-12 0 0)
(2.47490676979281e-12 0 0)
(2.572232178138295e-12 0 0)
(2.821681947702944e-12 0 0)
(3.428447775335303e-12 0 0)
(3.45366376123218e-12 0 0)
(2.783508237862241e-12 0 0)
(2.168969510567855e-12 0 0)
(2.248025354095173e-12 0 0)
(3.25378850761259e-12 0 0)
(3.883148954988522e-12 0 0)
(3.778808447942425e-12 0 0)
(3.744923984278174e-12 0 0)
(3.250280648324685e-12 0 0)
(2.339237217067967e-12 0 0)
(1.404800854494337e-12 0 0)
(-3.920080784423682e-13 0 0)
(-1.575937361617315e-12 0 0)
(-3.185941037996496e-12 0 0)
(-3.465954668497904e-12 0 0)
(-3.229534074244477e-12 0 0)
(-3.75279082863187e-12 0 0)
(-3.643178398183389e-12 0 0)
(-3.238966202287685e-12 0 0)
(-2.496634547754344e-12 0 0)
(-2.092429046439649e-12 0 0)
(-2.05502318100321e-12 0 0)
(-1.494336138222188e-12 0 0)
(-1.097910932159301e-12 0 0)
(-9.996540486148402e-13 0 0)
(-6.710956996835108e-13 0 0)
(5.659492349614315e-13 0 0)
(6.911861531168975e-13 0 0)
(-1.056127276468138e-12 0 0)
(-1.543895973652038e-12 0 0)
(-1.663968938362928e-12 0 0)
(-1.110184811916668e-12 0 0)
(-1.391743429288479e-12 0 0)
(-1.65769905670305e-12 0 0)
(-1.595192154645365e-12 0 0)
(-2.721758450661279e-12 0 0)
(-4.272520642572532e-12 0 0)
(-5.284380951041721e-12 0 0)
(-6.029440248439449e-12 0 0)
(-5.404421035658628e-12 0 0)
(-4.015272062845211e-12 0 0)
(-3.043390425085195e-12 0 0)
(-1.84110842807962e-12 0 0)
(-6.249979186959555e-13 0 0)
(1.27097882159106e-12 0 0)
(2.940797214169317e-12 0 0)
(3.694356529948034e-12 0 0)
(3.636197320422502e-12 0 0)
(3.159892809496086e-12 0 0)
(3.478895498168764e-12 0 0)
(4.381263874493328e-12 0 0)
(3.618955760986603e-12 0 0)
(2.16800879901298e-12 0 0)
(1.981048111398536e-12 0 0)
(1.318672664873687e-12 0 0)
(-3.903205096690701e-13 0 0)
(-1.345684300483763e-12 0 0)
(-2.38792557150651e-12 0 0)
(-3.896087530491942e-12 0 0)
(-5.193156047526624e-12 0 0)
(-5.752188903969245e-12 0 0)
(-4.616832692766582e-12 0 0)
(-3.186783131443367e-12 0 0)
(-2.099335170981696e-12 0 0)
(-6.137200772099562e-13 0 0)
(7.362767977750384e-13 0 0)
(1.594268692993545e-12 0 0)
(3.272916835986735e-12 0 0)
(3.791021347173239e-12 0 0)
(2.928648336014798e-12 0 0)
(3.288466758028787e-12 0 0)
(4.565488632558959e-12 0 0)
(4.477742390309428e-12 0 0)
(4.885480232208319e-12 0 0)
(5.226191965764305e-12 0 0)
(4.109142170274952e-12 0 0)
(3.269435521363209e-12 0 0)
(2.647860096155981e-12 0 0)
(2.348841116605535e-12 0 0)
(1.572560475982765e-12 0 0)
(5.893953074906282e-13 0 0)
(1.279611186531118e-12 0 0)
(8.823688334229329e-13 0 0)
(1.895067069369614e-13 0 0)
(6.684764861761197e-13 0 0)
(5.015586174175844e-13 0 0)
(-7.075975956926836e-13 0 0)
(-2.347896115155113e-12 0 0)
(-4.279471142459727e-12 0 0)
(-5.799946139189781e-12 0 0)
(-6.870995201318908e-12 0 0)
(-5.707827354366158e-12 0 0)
(-4.794164514217335e-12 0 0)
(-4.256077651238408e-12 0 0)
(-2.536589993210363e-12 0 0)
(-9.770894276005138e-13 0 0)
(2.095493954888533e-13 0 0)
(1.305708548666132e-12 0 0)
(2.287108621563281e-12 0 0)
(2.628697477205402e-12 0 0)
(3.245938948508085e-12 0 0)
(3.664061965290612e-12 0 0)
(3.13899272196216e-12 0 0)
(2.91736064850125e-12 0 0)
(1.941158560755374e-12 0 0)
(6.146505998324812e-13 0 0)
(-6.797623588175724e-13 0 0)
(-2.40535818092479e-12 0 0)
(-3.79105919156026e-12 0 0)
(-3.967502286848379e-12 0 0)
(-2.907800428957985e-12 0 0)
(-1.966311273461916e-12 0 0)
(-7.962048084109602e-13 0 0)
(-2.007770373663836e-13 0 0)
(8.553746001465991e-13 0 0)
(1.480376690131085e-12 0 0)
(1.786368724893536e-12 0 0)
(1.38041040167596e-12 0 0)
(6.180537227251301e-13 0 0)
(9.466888684522629e-13 0 0)
(-2.703074911019242e-13 0 0)
(-1.15610969686639e-12 0 0)
(-1.487394003999563e-12 0 0)
(-8.319906996152105e-13 0 0)
(7.371392535998066e-13 0 0)
(2.17848139835732e-12 0 0)
(4.084847837928468e-12 0 0)
(4.970634638296964e-12 0 0)
(4.913255513837422e-12 0 0)
(4.498580031098118e-12 0 0)
(4.025710537926447e-12 0 0)
(3.280681390351879e-12 0 0)
(2.495703975491705e-12 0 0)
(1.956793232190232e-12 0 0)
(6.815810093217379e-13 0 0)
(-7.031990127104251e-13 0 0)
(-2.38445890026316e-12 0 0)
(-3.110352551286119e-12 0 0)
(-3.788427558751346e-12 0 0)
(-3.786638561295635e-12 0 0)
(-2.873859010712363e-12 0 0)
(-2.063710028550641e-12 0 0)
(-3.85967025015507e-13 0 0)
(5.458903500569674e-13 0 0)
(1.396933552243977e-12 0 0)
(1.551702720377725e-12 0 0)
(1.796052171877851e-12 0 0)
(2.683509601220182e-12 0 0)
(1.292562469899858e-12 0 0)
(6.919122527726445e-13 0 0)
(8.293423481642293e-13 0 0)
(3.086587198598357e-13 0 0)
(-4.450303106217362e-13 0 0)
(-9.588021786094981e-13 0 0)
(-2.234117664490906e-12 0 0)
(-3.214685090964097e-12 0 0)
(-4.516881343850447e-12 0 0)
(-6.031163910128836e-12 0 0)
(-7.547195767595659e-12 0 0)
(-8.551228991548406e-12 0 0)
(-8.314775612627908e-12 0 0)
(-7.006529303138016e-12 0 0)
(-5.500063773423787e-12 0 0)
(-3.83881582509254e-12 0 0)
(-2.194953309641421e-12 0 0)
(-8.553658817674007e-13 0 0)
(5.763524024430327e-13 0 0)
(1.765516554224822e-12 0 0)
(3.308553206840876e-12 0 0)
(5.124509517308599e-12 0 0)
(6.723952432865997e-12 0 0)
(7.257732653789305e-12 0 0)
(6.204139878728343e-12 0 0)
(5.503503452990856e-12 0 0)
(4.904577727129757e-12 0 0)
(3.464145716978924e-12 0 0)
(2.101083643718855e-12 0 0)
(8.110451735313327e-13 0 0)
(-3.285717929396249e-13 0 0)
(-1.103145866230462e-12 0 0)
(-1.044912024862819e-12 0 0)
(1.043269680848924e-13 0 0)
(7.641072983113211e-13 0 0)
(1.122242832647699e-12 0 0)
(1.509108802820197e-12 0 0)
(2.249744081761869e-12 0 0)
(2.948630659340873e-12 0 0)
(2.459246774859247e-12 0 0)
(1.42042932770948e-12 0 0)
(1.243072758284507e-13 0 0)
(-1.592564521731033e-12 0 0)
(-2.993833500568081e-12 0 0)
(-3.683188983767509e-12 0 0)
(-3.312036117866925e-12 0 0)
(-3.851009165589658e-12 0 0)
(-4.235204692022011e-12 0 0)
(-4.086512301516406e-12 0 0)
(-4.505566758859031e-12 0 0)
(-4.38817990738091e-12 0 0)
(-4.395140161993905e-12 0 0)
(-4.029179031069102e-12 0 0)
(-2.739139062362248e-12 0 0)
(-1.147461539157908e-12 0 0)
(2.242639987504541e-13 0 0)
(1.706407977062526e-12 0 0)
(2.827832630237274e-12 0 0)
(3.364145513661687e-12 0 0)
(4.730705758707559e-12 0 0)
(5.398304525268156e-12 0 0)
(5.969439026419141e-12 0 0)
(5.519145244339803e-12 0 0)
(3.924872736093075e-12 0 0)
(2.93649663256249e-12 0 0)
(1.882898448359712e-12 0 0)
(4.755058178998333e-13 0 0)
(-1.321493423285195e-13 0 0)
(5.825726593021207e-14 0 0)
(-3.711807591050989e-13 0 0)
(-7.293299539766876e-13 0 0)
(-1.220502728847637e-12 0 0)
(-8.510467722695694e-13 0 0)
(-3.120352013742236e-13 0 0)
(-7.580330075823332e-13 0 0)
(-8.067378397448369e-13 0 0)
(6.932115187827283e-15 0 0)
(-1.599332066234427e-13 0 0)
(-1.320458156221106e-12 0 0)
(-2.051552823763413e-12 0 0)
(-2.487056190625542e-12 0 0)
(-2.891257287651278e-12 0 0)
(-3.1137881720493e-12 0 0)
(-2.113271932061985e-12 0 0)
(-3.259707562139906e-13 0 0)
(3.338108371987753e-13 0 0)
(-1.643058329666646e-13 0 0)
(1.225641622919949e-13 0 0)
(2.056766295647386e-12 0 0)
(3.578027251101347e-12 0 0)
(3.636279881147862e-12 0 0)
(2.695701841157959e-12 0 0)
(2.486121239644424e-12 0 0)
(3.445003983292626e-12 0 0)
(2.714819019258813e-12 0 0)
(1.771613194614186e-12 0 0)
(6.345524427474768e-13 0 0)
(-7.197739364286518e-13 0 0)
(-2.27840831368038e-12 0 0)
(-2.961716663505059e-12 0 0)
(-2.053264287430352e-12 0 0)
(-2.131515479892851e-12 0 0)
(-3.20685766889286e-12 0 0)
)
;

boundaryField
{
    inlet
    {
        type            zeroGradient;
    }
    outlet
    {
        type            characteristicPressureInletOutletVelocity;
        UName           U;
        pName           p;
        TName           T;
        phiName         phi;
        rhoName         rho;
        U               (0 0 0);
        p               101325;
        T               300;
        value           uniform (-3.20685766889286e-12 0 0);
    }
    frontAndBack
    {
        type            empty;
    }
}


// ************************************************************************* //
