/*--------------------------------*- C++ -*----------------------------------*\
| =========                 |                                                 |
| \\      /  F ield         | OpenFOAM: The Open Source CFD Toolbox           |
|  \\    /   O peration     | Version:  v2012                                 |
|   \\  /    A nd           | Website:  www.openfoam.com                      |
|    \\/     M anipulation  |                                                 |
\*---------------------------------------------------------------------------*/
FoamFile
{
    version     2.0;
    format      ascii;
    class       volVectorField;
    location    "0.001";
    object      UMean;
}
// * * * * * * * * * * * * * * * * * * * * * * * * * * * * * * * * * * * * * //

dimensions      [0 1 -1 0 0 0 0];


internalField   nonuniform List<vector> 
1000
(
(-0.0002059795930214425 0 0)
(0.0002236315189984884 0 0)
(0.0003618162950354575 0 0)
(0.0007343831913196559 0 0)
(0.00116980877751495 0 0)
(0.001720326709918989 0 0)
(0.00235957543571049 0 0)
(0.003073842893606678 0 0)
(0.003856096058007178 0 0)
(0.004689913008460561 0 0)
(0.005553479537858583 0 0)
(0.006418548864632248 0 0)
(0.00728308023270821 0 0)
(0.008133661756458953 0 0)
(0.008963435516029874 0 0)
(0.009748111439863223 0 0)
(0.0104770364039463 0 0)
(0.01112872342992236 0 0)
(0.01169753843174468 0 0)
(0.01216754039772145 0 0)
(0.01253655286330756 0 0)
(0.01279213804262 0 0)
(0.0129350395575094 0 0)
(0.01295685631808508 0 0)
(0.01286229095610806 0 0)
(0.01264799110558436 0 0)
(0.01232323115712764 0 0)
(0.01188902436925807 0 0)
(0.01135656895143413 0 0)
(0.01072685881511261 0 0)
(0.0100104156239483 0 0)
(0.009216116833328496 0 0)
(0.008378069996779874 0 0)
(0.007525118358763377 0 0)
(0.006673931459282073 0 0)
(0.00582414783397675 0 0)
(0.004982523654456218 0 0)
(0.004158030838033937 0 0)
(0.003364781629824426 0 0)
(0.002619792807021439 0 0)
(0.001941273659809075 0 0)
(0.001345838577298005 0 0)
(0.0008468687714862316 0 0)
(0.0004539674169353868 0 0)
(0.000173553996624544 0 0)
(9.779400406714559e-06 0 0)
(-3.512452408507911e-05 0 0)
(3.937831186701507e-05 0 0)
(0.0002317989338853241 0 0)
(0.0005389935422988164 0 0)
(0.0009566567672473375 0 0)
(0.001480935308543353 0 0)
(0.00210840429520739 0 0)
(0.002832363122118642 0 0)
(0.003631814378995547 0 0)
(0.004468823855686794 0 0)
(0.005313236051572049 0 0)
(0.006157186846683605 0 0)
(0.006999475465938309 0 0)
(0.007833801617106834 0 0)
(0.00865463789278487 0 0)
(0.009447678117306686 0 0)
(0.01020040290648317 0 0)
(0.01089295283089521 0 0)
(0.0115102613032966 0 0)
(0.01203389126809285 0 0)
(0.0124537215372132 0 0)
(0.01275869495058067 0 0)
(0.01294645380696432 0 0)
(0.01301279955307225 0 0)
(0.0129605403867416 0 0)
(0.01278925902126066 0 0)
(0.01250400411005833 0 0)
(0.01210491491998943 0 0)
(0.01159580146208277 0 0)
(0.01097621731227177 0 0)
(0.01025653831835167 0 0)
(0.009459761868117969 0 0)
(0.008629074982810575 0 0)
(0.007790962078461376 0 0)
(0.006954107982335174 0 0)
(0.006118820538727364 0 0)
(0.00528938420980479 0 0)
(0.004472370316633424 0 0)
(0.003677681395362853 0 0)
(0.002918673074589922 0 0)
(0.002211205198636037 0 0)
(0.001572805622490727 0 0)
(0.001020551979677402 0 0)
(0.0005696767486694682 0 0)
(0.0002317437209738177 0 0)
(1.428881054223935e-05 0 0)
(-7.949492234923535e-05 0 0)
(-4.954495189366156e-05 0 0)
(0.0001020335965523519 0 0)
(0.0003728359767324873 0 0)
(0.00076102149670504 0 0)
(0.001266056023377011 0 0)
(0.001886168762970761 0 0)
(0.00261088495453164 0 0)
(0.003409244642297343 0 0)
(0.004237560781407034 0 0)
(0.005070152469146318 0 0)
(0.005902197144142635 0 0)
(0.00673277733358527 0 0)
(0.007557168534675694 0 0)
(0.00837094611550354 0 0)
(0.009163415337201393 0 0)
(0.0099242579291595 0 0)
(0.01063707317909577 0 0)
(0.01128705078886514 0 0)
(0.01185552884909929 0 0)
(0.01232834932356882 0 0)
(0.01269077901300441 0 0)
(0.01293527014316039 0 0)
(0.0130552379396092 0 0)
(0.01305113767807243 0 0)
(0.01292274751944017 0 0)
(0.01267393515276319 0 0)
(0.01230459554575607 0 0)
(0.01181649580833009 0 0)
(0.01120940490589161 0 0)
(0.01049555009554621 0 0)
(0.009704631326241383 0 0)
(0.008882786202919503 0 0)
(0.008055214091377091 0 0)
(0.007228597423085414 0 0)
(0.006403304257781534 0 0)
(0.005582743349362346 0 0)
(0.004772113239749525 0 0)
(0.003979537181142087 0 0)
(0.003216152717737443 0 0)
(0.002496152576544102 0 0)
(0.001836439014525662 0 0)
(0.001255865084685809 0 0)
(0.0007738841769566593 0 0)
(0.000407984893724802 0 0)
(0.0001681825226045329 0 0)
(4.638272752187622e-05 0 0)
(6.65199277433202e-06 0 0)
(3.492736618855644e-07 0 0)
(4.468911628137416e-09 0 0)
(1.051002581023883e-11 0 0)
(6.234025981883807e-13 0 0)
(2.793611805513935e-13 0 0)
(2.150411727426823e-13 0 0)
(1.848053193258707e-13 0 0)
(-9.025040538062767e-14 0 0)
(-2.389279912515099e-14 0 0)
(5.67892325817966e-14 0 0)
(2.616360971494431e-13 0 0)
(2.646205274225467e-13 0 0)
(3.453762637918802e-13 0 0)
(4.409572766448063e-13 0 0)
(3.166025146503612e-13 0 0)
(-2.529728396194039e-13 0 0)
(-1.101525243543242e-12 0 0)
(-1.51695986813897e-12 0 0)
(-1.510194302660948e-12 0 0)
(-1.103389601780276e-12 0 0)
(-5.833966777344305e-13 0 0)
(-4.706267755947909e-13 0 0)
(-3.262793164818882e-13 0 0)
(4.797312730951418e-14 0 0)
(3.238878151261038e-13 0 0)
(2.30015907023308e-13 0 0)
(4.828175291685634e-13 0 0)
(5.949299881935082e-13 0 0)
(-2.847856266888417e-14 0 0)
(-2.913095776830403e-13 0 0)
(-3.044825234600348e-13 0 0)
(-6.020312702667855e-13 0 0)
(-7.207457583273492e-13 0 0)
(-7.265496672416933e-13 0 0)
(-7.715577936771312e-13 0 0)
(-6.058234964364597e-13 0 0)
(1.018681924930103e-13 0 0)
(7.274374737728228e-13 0 0)
(7.493190527972924e-13 0 0)
(7.799574914954793e-13 0 0)
(4.501896943622155e-13 0 0)
(-8.299076678880096e-14 0 0)
(1.708445303776187e-13 0 0)
(1.935271578795809e-13 0 0)
(2.802448668645535e-14 0 0)
(-1.913302960359842e-13 0 0)
(2.566505364951601e-14 0 0)
(2.189160401211992e-13 0 0)
(1.794722649670142e-13 0 0)
(-2.165203771201277e-13 0 0)
(-9.875844842976695e-13 0 0)
(-1.163104316664729e-12 0 0)
(-3.504500512321026e-13 0 0)
(2.68201634327261e-15 0 0)
(-2.586787135366783e-13 0 0)
(-5.233708902471626e-13 0 0)
(-4.311613076948094e-13 0 0)
(-2.825767424514078e-13 0 0)
(1.660043284370172e-14 0 0)
(-2.389793093566462e-14 0 0)
(1.412927479440919e-13 0 0)
(1.926816038687356e-13 0 0)
(7.395427575064414e-13 0 0)
(7.252450281279934e-13 0 0)
(1.540380043885151e-13 0 0)
(6.225667028796948e-14 0 0)
(6.025973483487488e-14 0 0)
(-3.399253446938977e-13 0 0)
(-5.108375468384095e-13 0 0)
(-2.788629232212371e-13 0 0)
(-6.167672278904597e-13 0 0)
(-4.208447089531575e-13 0 0)
(1.056243780803806e-14 0 0)
(6.97020908676714e-14 0 0)
(4.026069539252815e-13 0 0)
(4.433312726951294e-13 0 0)
(3.476293144896654e-13 0 0)
(8.049354400933039e-14 0 0)
(-2.925567543112613e-13 0 0)
(-4.424174912966384e-13 0 0)
(-4.23771679023164e-13 0 0)
(-2.936620281172181e-13 0 0)
(1.903305502258825e-13 0 0)
(5.432978174455567e-13 0 0)
(9.409413073471828e-13 0 0)
(9.67082129758831e-13 0 0)
(7.516375907757242e-13 0 0)
(9.508120713578382e-13 0 0)
(1.14771234457794e-12 0 0)
(9.210209683567889e-13 0 0)
(6.461321996806122e-13 0 0)
(7.269287329124776e-13 0 0)
(7.964259676535643e-13 0 0)
(8.836607734596422e-13 0 0)
(9.276383584339397e-13 0 0)
(9.595708717477819e-13 0 0)
(1.100722413131067e-12 0 0)
(7.988676635160564e-13 0 0)
(7.827222746888299e-13 0 0)
(6.213861086802233e-13 0 0)
(4.579626835898927e-14 0 0)
(-3.852895091610653e-13 0 0)
(-1.165383114518027e-12 0 0)
(-1.761831805459428e-12 0 0)
(-1.846992433999246e-12 0 0)
(-1.395652668202382e-12 0 0)
(-1.011126279155952e-12 0 0)
(-5.590108017349833e-13 0 0)
(-5.549645395105247e-13 0 0)
(-6.813135762890638e-13 0 0)
(-3.271514381352811e-13 0 0)
(-9.667847814548801e-14 0 0)
(-4.350467729350965e-13 0 0)
(-1.222961743306605e-12 0 0)
(-1.730568515965806e-12 0 0)
(-1.588318541836549e-12 0 0)
(-1.48052654111235e-12 0 0)
(-1.24009743531574e-12 0 0)
(-5.381961081114412e-13 0 0)
(-4.313200002271006e-13 0 0)
(-4.765524259415528e-13 0 0)
(-4.761615525524007e-13 0 0)
(-8.525585028153628e-13 0 0)
(-2.369398907840462e-13 0 0)
(2.054558239557039e-13 0 0)
(4.088537247230804e-13 0 0)
(1.09970729085121e-12 0 0)
(6.455572105816283e-13 0 0)
(2.886532817515275e-13 0 0)
(6.367444946702561e-13 0 0)
(5.144156192836614e-13 0 0)
(3.054969956847376e-13 0 0)
(4.374475535689535e-13 0 0)
(6.040942583975518e-14 0 0)
(2.961423067712677e-13 0 0)
(7.081429737681391e-13 0 0)
(1.809251323508705e-13 0 0)
(-5.472291211161439e-14 0 0)
(-1.341242439071292e-13 0 0)
(-6.742360134377742e-13 0 0)
(-8.204524079047735e-13 0 0)
(-7.88030102969123e-13 0 0)
(-1.13529695631321e-12 0 0)
(-1.35468351653828e-12 0 0)
(-1.148296672781415e-12 0 0)
(-8.230809489992834e-13 0 0)
(-5.563141940582549e-13 0 0)
(-6.644167689723998e-13 0 0)
(-9.315025155312844e-13 0 0)
(-8.715244061516134e-13 0 0)
(-6.772321267975792e-13 0 0)
(-7.060217048928113e-13 0 0)
(-8.716951273681234e-13 0 0)
(-6.972324269535398e-13 0 0)
(-6.102542821376495e-13 0 0)
(5.954309125692343e-15 0 0)
(2.019825369120147e-13 0 0)
(8.584195772562129e-14 0 0)
(-3.309707694069741e-13 0 0)
(-7.295767081002641e-13 0 0)
(-7.833232195605906e-13 0 0)
(-4.166502847633904e-13 0 0)
(3.913193631300661e-14 0 0)
(3.745912107848036e-14 0 0)
(-1.99666596081811e-13 0 0)
(-1.651843743019062e-13 0 0)
(-9.373294348035108e-14 0 0)
(-2.373362425446505e-13 0 0)
(-1.942221706830391e-13 0 0)
(6.696563420770341e-14 0 0)
(2.681997906399554e-13 0 0)
(5.962850162053259e-13 0 0)
(8.523121338764854e-13 0 0)
(5.623499729606527e-13 0 0)
(-1.932188847204945e-13 0 0)
(-1.834089721735047e-13 0 0)
(3.235254986429403e-13 0 0)
(9.149213234603744e-13 0 0)
(8.812838664204147e-13 0 0)
(6.690534707023247e-13 0 0)
(8.128486782044785e-13 0 0)
(9.663693356752649e-13 0 0)
(1.245117848517589e-12 0 0)
(1.382533940613133e-12 0 0)
(1.332414044021919e-12 0 0)
(1.320044273027461e-12 0 0)
(9.914132005955845e-13 0 0)
(9.738671793029475e-13 0 0)
(1.264831182786002e-12 0 0)
(1.238452960629762e-12 0 0)
(8.337034384218258e-13 0 0)
(9.566667427723761e-13 0 0)
(1.277042473458091e-12 0 0)
(1.485583991073183e-12 0 0)
(1.614925535404232e-12 0 0)
(1.235557140438668e-12 0 0)
(6.863474415122053e-13 0 0)
(4.639653358429976e-13 0 0)
(3.98108447012727e-13 0 0)
(3.596203296092349e-13 0 0)
(-6.713922054781962e-15 0 0)
(7.268723876992064e-14 0 0)
(-2.039346617252959e-13 0 0)
(-2.78177454922901e-13 0 0)
(-2.550373783910304e-13 0 0)
(-7.65222349354675e-13 0 0)
(-7.008236096560559e-13 0 0)
(-3.825971975037054e-13 0 0)
(-3.730385468135423e-13 0 0)
(-2.393748751913376e-13 0 0)
(-7.061954208060014e-14 0 0)
(-3.364824901967384e-14 0 0)
(2.076602709337918e-13 0 0)
(6.287281413156351e-14 0 0)
(1.513909255616771e-13 0 0)
(2.14845498073719e-13 0 0)
(-3.368970939598064e-14 0 0)
(-4.016973981876299e-13 0 0)
(-6.573948471016825e-13 0 0)
(-1.033249422001828e-12 0 0)
(-1.115465083638557e-12 0 0)
(-1.219960340486931e-12 0 0)
(-1.867440519260901e-12 0 0)
(-1.874444332498969e-12 0 0)
(-1.325172789640961e-12 0 0)
(-1.114510074233348e-12 0 0)
(-9.51831773463678e-13 0 0)
(-7.473381970210437e-13 0 0)
(-6.284570149308941e-13 0 0)
(-3.680260688631679e-13 0 0)
(-5.724503946650987e-14 0 0)
(3.086557150532228e-13 0 0)
(8.781942870269136e-13 0 0)
(1.005739828772601e-12 0 0)
(4.937333450998397e-13 0 0)
(7.681728225898918e-13 0 0)
(1.211579663852598e-12 0 0)
(1.29364451583423e-12 0 0)
(1.315327991900498e-12 0 0)
(1.267399612420772e-12 0 0)
(7.00084581617078e-13 0 0)
(1.952633048724945e-13 0 0)
(3.556145053716454e-13 0 0)
(8.096910754626647e-13 0 0)
(9.631208327460382e-13 0 0)
(8.147763152031394e-13 0 0)
(8.86312270716239e-13 0 0)
(1.164140237804126e-12 0 0)
(1.327251818015688e-12 0 0)
(1.604646125717185e-12 0 0)
(1.727062283373044e-12 0 0)
(1.151939674590248e-12 0 0)
(6.876927663330621e-13 0 0)
(4.072878014516284e-13 0 0)
(4.867710241603322e-13 0 0)
(5.070496641493018e-13 0 0)
(-3.837390276286208e-14 0 0)
(-2.867464227730347e-13 0 0)
(-5.084314436898889e-13 0 0)
(-7.707805390903596e-13 0 0)
(-1.213883854562043e-12 0 0)
(-1.455310130486624e-12 0 0)
(-1.500789187548151e-12 0 0)
(-1.743087483736069e-12 0 0)
(-1.687289003989175e-12 0 0)
(-1.655317375193217e-12 0 0)
(-1.816543279643463e-12 0 0)
(-2.001379216913247e-12 0 0)
(-2.293459014932953e-12 0 0)
(-2.275197810079693e-12 0 0)
(-1.777060612000788e-12 0 0)
(-1.567499253065673e-12 0 0)
(-1.389723628040292e-12 0 0)
(-1.766267881058152e-12 0 0)
(-2.031990716812238e-12 0 0)
(-1.460702398441604e-12 0 0)
(-9.715588518020995e-13 0 0)
(-4.436709596654402e-13 0 0)
(4.217385869194969e-14 0 0)
(3.90076426323374e-13 0 0)
(7.487203337491451e-13 0 0)
(8.429191553990066e-13 0 0)
(4.86450628197581e-14 0 0)
(-6.839060223141818e-13 0 0)
(-9.425266192853439e-14 0 0)
(1.915040126106765e-13 0 0)
(-3.040291053695531e-13 0 0)
(9.130007721511565e-14 0 0)
(6.000995927202e-13 0 0)
(5.912863096540565e-13 0 0)
(3.957555358400211e-13 0 0)
(3.837464402549562e-13 0 0)
(5.569724953989411e-13 0 0)
(6.668648401093827e-13 0 0)
(1.011608954990347e-12 0 0)
(1.143447087915184e-12 0 0)
(9.55077407540397e-13 0 0)
(5.077404865577504e-13 0 0)
(4.010002720193954e-13 0 0)
(-8.533466204133224e-15 0 0)
(-7.97381052080769e-14 0 0)
(6.377957160976333e-14 0 0)
(6.463522690231747e-13 0 0)
(1.025223599175431e-12 0 0)
(9.985474428672007e-13 0 0)
(6.273073314568318e-13 0 0)
(5.02968502437654e-14 0 0)
(1.393296948126216e-13 0 0)
(1.926442121807896e-13 0 0)
(1.541793020989163e-13 0 0)
(1.647998818041604e-13 0 0)
(4.16645446564533e-16 0 0)
(3.387681882832881e-14 0 0)
(2.170620619648434e-13 0 0)
(2.580488653702186e-13 0 0)
(-1.476358734657121e-13 0 0)
(2.152303428226754e-14 0 0)
(2.401164174154581e-13 0 0)
(4.234110729782214e-14 0 0)
(1.32914164653205e-13 0 0)
(1.708904479212304e-13 0 0)
(1.678354759871491e-14 0 0)
(2.295588364895116e-13 0 0)
(4.517605226411489e-13 0 0)
(5.542864934346584e-13 0 0)
(7.916038245769628e-13 0 0)
(1.246959153210869e-12 0 0)
(1.908768171512185e-12 0 0)
(2.246304971042658e-12 0 0)
(2.64279072268426e-12 0 0)
(2.439639970129455e-12 0 0)
(2.392135091408161e-12 0 0)
(3.139532748705189e-12 0 0)
(2.807826698792533e-12 0 0)
(2.243135655060515e-12 0 0)
(1.948553314360303e-12 0 0)
(1.309707233352838e-12 0 0)
(1.072492996655265e-12 0 0)
(1.101290736140767e-12 0 0)
(8.512420256694865e-13 0 0)
(9.600826391835943e-13 0 0)
(8.005919596989819e-13 0 0)
(2.805257070257097e-13 0 0)
(-7.065507009607084e-14 0 0)
(-1.864824861474508e-13 0 0)
(1.244267433387579e-13 0 0)
(2.333264657596515e-14 0 0)
(-3.372803932173802e-13 0 0)
(-3.544953778967668e-13 0 0)
(-4.739037606258975e-13 0 0)
(-7.530260265702392e-13 0 0)
(-6.144243298958384e-13 0 0)
(-3.813865054164534e-13 0 0)
(-5.820462430466361e-13 0 0)
(-9.172112250245456e-13 0 0)
(-8.956478171928531e-13 0 0)
(-4.247092701975444e-13 0 0)
(-9.182683034554252e-14 0 0)
(1.28120576276624e-13 0 0)
(7.039002844656867e-13 0 0)
(1.116874730774104e-12 0 0)
(1.422374044857468e-12 0 0)
(1.323225714670634e-12 0 0)
(1.260522748962786e-12 0 0)
(1.572753835047465e-12 0 0)
(1.837769755385592e-12 0 0)
(1.480482004753798e-12 0 0)
(9.534876083779965e-13 0 0)
(8.327775335861598e-13 0 0)
(4.360672294255924e-13 0 0)
(-2.064253987566414e-13 0 0)
(-6.59983544778655e-13 0 0)
(-7.839089896696334e-13 0 0)
(-1.040086418423957e-12 0 0)
(-8.552607811713399e-13 0 0)
(5.208953559319152e-14 0 0)
(1.871338545760915e-13 0 0)
(-3.324110263245822e-13 0 0)
(-9.049330269850606e-13 0 0)
(-1.697808333996209e-12 0 0)
(-2.281213393490152e-12 0 0)
(-2.615596013932131e-12 0 0)
(-2.878035715985297e-12 0 0)
(-3.136674507560892e-12 0 0)
(-3.836610328178213e-12 0 0)
(-4.079633990663112e-12 0 0)
(-4.291738642057467e-12 0 0)
(-4.404764333900465e-12 0 0)
(-3.539545321869933e-12 0 0)
(-3.123715612678832e-12 0 0)
(-3.143429272750255e-12 0 0)
(-2.756141323295028e-12 0 0)
(-2.369673425148219e-12 0 0)
(-1.566411116904374e-12 0 0)
(-1.31515106198744e-12 0 0)
(-1.098738347429589e-12 0 0)
(-3.14435058442583e-13 0 0)
(-1.942210887258974e-13 0 0)
(6.136470330084576e-14 0 0)
(4.103066788377048e-13 0 0)
(1.66947529046699e-14 0 0)
(-5.121101528019384e-13 0 0)
(-8.092592638493316e-13 0 0)
(-8.691943502615413e-13 0 0)
(-7.538507715094244e-13 0 0)
(-2.548936079154189e-13 0 0)
(-1.045716560454937e-13 0 0)
(-6.052374586599301e-13 0 0)
(-7.960488581724463e-13 0 0)
(-3.901015512529024e-13 0 0)
(2.672722306105616e-13 0 0)
(3.641083677069453e-13 0 0)
(6.639908745419575e-13 0 0)
(7.300087182931393e-13 0 0)
(7.607923210207928e-13 0 0)
(6.833748728258834e-13 0 0)
(4.675415000836482e-13 0 0)
(5.624635854177821e-13 0 0)
(5.030448684097879e-13 0 0)
(1.387916415934299e-13 0 0)
(-4.543782487573305e-13 0 0)
(-3.506022057827713e-13 0 0)
(1.010843797315975e-13 0 0)
(1.20616812608531e-13 0 0)
(-1.393204876930288e-13 0 0)
(-5.808499911610032e-13 0 0)
(-4.660862348301023e-13 0 0)
(-6.161485364326783e-13 0 0)
(-9.740220815164765e-13 0 0)
(-7.510270941740467e-13 0 0)
(-3.738911510868028e-13 0 0)
(-6.220412799441462e-14 0 0)
(2.120270009138935e-13 0 0)
(5.250249767767622e-13 0 0)
(4.466532911153983e-13 0 0)
(3.833671741473167e-13 0 0)
(5.977446189468396e-13 0 0)
(7.549551783967784e-13 0 0)
(8.691250422795057e-13 0 0)
(4.515246544381972e-13 0 0)
(-5.891463241021783e-14 0 0)
(-2.480216670719231e-13 0 0)
(-1.223431786734562e-13 0 0)
(1.921848844025632e-13 0 0)
(1.757856658126178e-13 0 0)
(4.057016532320571e-13 0 0)
(9.030166794133438e-13 0 0)
(7.950131910529534e-13 0 0)
(6.377809751472932e-13 0 0)
(5.103949804217868e-13 0 0)
(7.107071840707547e-14 0 0)
(2.714429997548083e-13 0 0)
(2.223508416480722e-13 0 0)
(2.284038681751562e-13 0 0)
(3.30245916589063e-13 0 0)
(5.51750774242643e-13 0 0)
(1.169934680674474e-12 0 0)
(1.281487390477538e-12 0 0)
(1.634653463863976e-12 0 0)
(1.556127687530208e-12 0 0)
(1.018915981209609e-12 0 0)
(9.07721083889402e-13 0 0)
(1.013177566846649e-12 0 0)
(1.315046976344448e-12 0 0)
(9.597228446682962e-13 0 0)
(3.307304912794424e-13 0 0)
(1.160675548528241e-13 0 0)
(2.571840244236746e-13 0 0)
(4.861699858883061e-13 0 0)
(2.056753352631121e-13 0 0)
(2.365051992900558e-13 0 0)
(3.575551284634339e-13 0 0)
(3.462065976545202e-13 0 0)
(4.832039640664754e-13 0 0)
(3.273229935371486e-13 0 0)
(3.272987386519551e-14 0 0)
(6.80343591639913e-14 0 0)
(4.200823940252557e-14 0 0)
(2.583485895152785e-13 0 0)
(9.82171042761619e-14 0 0)
(-7.126154441541245e-13 0 0)
(-1.023595579583713e-12 0 0)
(-1.123518334716776e-12 0 0)
(-9.635183434308022e-13 0 0)
(-5.928468130202571e-13 0 0)
(5.017347863113355e-14 0 0)
(8.137597493762935e-13 0 0)
(1.380686399628686e-12 0 0)
(1.58813793217174e-12 0 0)
(1.819836834170561e-12 0 0)
(1.600110699470344e-12 0 0)
(1.280743123635141e-12 0 0)
(1.208715170914535e-12 0 0)
(7.882802745674636e-13 0 0)
(1.890472311281767e-13 0 0)
(-5.638268713996168e-13 0 0)
(-6.482454864398391e-13 0 0)
(-5.414465649565192e-13 0 0)
(-6.136876771519812e-13 0 0)
(-5.582905213797494e-13 0 0)
(-8.472485905188294e-13 0 0)
(-9.726577884788668e-13 0 0)
(-6.287562358570636e-13 0 0)
(-2.652269545268835e-13 0 0)
(-8.535980275893892e-14 0 0)
(2.362357093126631e-13 0 0)
(4.352731309131019e-13 0 0)
(-8.123225064724142e-14 0 0)
(-6.284225467343658e-13 0 0)
(-1.097910575897922e-12 0 0)
(-1.431935641499804e-12 0 0)
(-1.688915858911038e-12 0 0)
(-1.809265499185918e-12 0 0)
(-1.72583738102193e-12 0 0)
(-1.698701306126213e-12 0 0)
(-1.825044915801147e-12 0 0)
(-1.851403043197313e-12 0 0)
(-1.504595419040048e-12 0 0)
(-1.075087252288452e-12 0 0)
(-6.329977655554785e-13 0 0)
(-3.239012958030264e-13 0 0)
(-1.31007864354114e-13 0 0)
(2.565135161854062e-13 0 0)
(3.9720082988732e-13 0 0)
(8.385128252809043e-13 0 0)
(1.151524111682012e-12 0 0)
(1.161028494029291e-12 0 0)
(1.481250098318814e-12 0 0)
(1.718616612452293e-12 0 0)
(1.387654594642063e-12 0 0)
(1.524458111273719e-12 0 0)
(1.776276295267782e-12 0 0)
(1.21393777835642e-12 0 0)
(6.859168983039895e-13 0 0)
(7.556517125469268e-13 0 0)
(1.323792279167432e-12 0 0)
(1.850940874940945e-12 0 0)
(2.022903535794349e-12 0 0)
(1.523778997001177e-12 0 0)
(1.177027234479189e-12 0 0)
(8.110833709045864e-13 0 0)
(6.335464787764248e-13 0 0)
(4.798601625985601e-13 0 0)
(6.283431592179292e-14 0 0)
(-5.014058701689611e-13 0 0)
(-9.396783204708137e-13 0 0)
(-6.731501328058649e-13 0 0)
(-8.598563683406919e-13 0 0)
(-1.416615816513468e-12 0 0)
(-1.502007425094778e-12 0 0)
(-1.356637815137509e-12 0 0)
(-9.779083790563759e-13 0 0)
(-9.856487028812718e-13 0 0)
(-1.312530946142313e-12 0 0)
(-1.39587129391272e-12 0 0)
(-1.47630673631115e-12 0 0)
(-1.24710219508675e-12 0 0)
(-1.23598293196235e-12 0 0)
(-1.223882626596302e-12 0 0)
(-1.035253958640468e-12 0 0)
(-9.376530253507604e-13 0 0)
(-6.075192769824973e-13 0 0)
(-4.933001623535652e-13 0 0)
(-6.085769942187584e-13 0 0)
(-7.593947786020653e-13 0 0)
(-7.105662084713956e-13 0 0)
(-5.888285120079156e-13 0 0)
(-7.635206340560826e-13 0 0)
(-1.045352723213853e-12 0 0)
(-7.99434280376937e-13 0 0)
(-7.619559292400378e-13 0 0)
(-3.960954089231909e-13 0 0)
(-8.493111339508621e-14 0 0)
(-2.914247243241107e-13 0 0)
(-4.708693887767985e-14 0 0)
(2.099965522474208e-13 0 0)
(4.337309370218861e-13 0 0)
(5.085125872042722e-13 0 0)
(3.909013961182178e-13 0 0)
(2.158608438371731e-13 0 0)
(1.51251890360964e-13 0 0)
(8.562879798165781e-14 0 0)
(-5.749615073058487e-14 0 0)
(-1.935251459234461e-13 0 0)
(-1.989231719560766e-13 0 0)
(1.341820199567493e-13 0 0)
(2.094078986990199e-13 0 0)
(4.267653584306502e-13 0 0)
(4.832711393044852e-13 0 0)
(8.664366027501759e-14 0 0)
(-1.294399499585659e-13 0 0)
(1.750584435954435e-13 0 0)
(3.464855664194163e-13 0 0)
(1.826970949215227e-13 0 0)
(2.941568036139151e-13 0 0)
(5.309959058963644e-13 0 0)
(8.531243935529227e-13 0 0)
(6.610333346831884e-13 0 0)
(1.796309304221234e-13 0 0)
(1.46644942316743e-13 0 0)
(4.833296821375965e-13 0 0)
(6.139342241109307e-13 0 0)
(4.745944849766139e-13 0 0)
(8.702296525864885e-13 0 0)
(1.21487757020798e-12 0 0)
(6.983566555926233e-13 0 0)
(5.753028673955141e-13 0 0)
(8.052997692160786e-13 0 0)
(8.801275650135909e-13 0 0)
(8.91059129811441e-13 0 0)
(9.710107371240213e-13 0 0)
(7.350896230436225e-13 0 0)
(5.628318869911185e-13 0 0)
(7.824006402774989e-13 0 0)
(2.790429442705334e-13 0 0)
(-1.580299313372463e-13 0 0)
(-2.82044450700967e-13 0 0)
(-3.547624341620556e-13 0 0)
(-4.784620425225029e-13 0 0)
(-3.735999081390651e-13 0 0)
(-2.881422046620586e-13 0 0)
(-3.173665614122969e-13 0 0)
(-4.608697104606393e-13 0 0)
(-3.141254970153203e-13 0 0)
(-1.508328451328173e-13 0 0)
(-1.090485475516028e-13 0 0)
(1.081797095420168e-13 0 0)
(6.861857115429059e-14 0 0)
(-1.000010421111045e-13 0 0)
(-1.178550294335772e-13 0 0)
(-4.618391426678652e-13 0 0)
(-6.773521661931287e-13 0 0)
(-2.860706299210017e-13 0 0)
(7.503026790863345e-14 0 0)
(-1.377451813712793e-13 0 0)
(-2.743008410890389e-14 0 0)
(4.855175345729766e-14 0 0)
(-2.235908043038421e-13 0 0)
(-6.486846342430216e-13 0 0)
(-9.54756165837258e-13 0 0)
(-5.153350480277825e-13 0 0)
(-3.556191003653366e-13 0 0)
(-2.508123517479789e-13 0 0)
(-2.461261024506322e-13 0 0)
(-1.768053660769053e-13 0 0)
(-3.57729397072739e-13 0 0)
(-8.543822752170749e-13 0 0)
(-1.394930181118367e-12 0 0)
(-1.556140298468477e-12 0 0)
(-1.52682337467105e-12 0 0)
(-1.433243588150549e-12 0 0)
(-1.214467881924104e-12 0 0)
(-1.430207561038576e-12 0 0)
(-1.755756161236312e-12 0 0)
(-1.790873470514732e-12 0 0)
(-1.484197429125269e-12 0 0)
(-9.826234568487652e-13 0 0)
(-4.438491128083197e-13 0 0)
(-1.443575544665345e-13 0 0)
(1.596395620133353e-13 0 0)
(6.254407711856048e-13 0 0)
(6.784961483739273e-13 0 0)
(7.468518637929395e-13 0 0)
(8.840947677906497e-13 0 0)
(1.109596125695506e-12 0 0)
(9.926837870008815e-13 0 0)
(1.00218615015582e-12 0 0)
(1.227174113465847e-12 0 0)
(1.2644290884875e-12 0 0)
(8.480010769220065e-13 0 0)
(5.836675266642988e-13 0 0)
(7.386640082625552e-13 0 0)
(7.904042584143456e-13 0 0)
(9.050821903861525e-13 0 0)
(1.007502610010935e-12 0 0)
(1.133188325637861e-12 0 0)
(8.500773416027403e-13 0 0)
(3.024040343005838e-13 0 0)
(-1.501905697779955e-13 0 0)
(-4.390798083495275e-13 0 0)
(-3.719669898721166e-13 0 0)
(-8.146492706385573e-14 0 0)
(-8.922326515685673e-14 0 0)
(-1.534273846536523e-13 0 0)
(1.90915486767034e-15 0 0)
(7.468721101601425e-14 0 0)
(1.194912512971278e-13 0 0)
(9.699927716344465e-14 0 0)
(7.902782852265899e-14 0 0)
(3.079364285010617e-13 0 0)
(5.618892203456235e-13 0 0)
(1.937132079700108e-13 0 0)
(-2.512954596741087e-13 0 0)
(-2.573127247843561e-13 0 0)
(2.491488952994191e-14 0 0)
(1.477805577397939e-13 0 0)
(3.277736183896412e-13 0 0)
(5.499177036038055e-13 0 0)
(3.817412297030085e-13 0 0)
(2.953979413014537e-14 0 0)
(-1.233115922212908e-13 0 0)
(-3.223110106731034e-13 0 0)
(-6.041482143544463e-13 0 0)
(-8.913487873859718e-13 0 0)
(-1.004888585769818e-12 0 0)
(-8.177732947266606e-13 0 0)
(-5.559798508452171e-13 0 0)
(-5.649412416046466e-13 0 0)
(-5.290509077776798e-13 0 0)
(-1.959754725538639e-13 0 0)
(-1.041920570154437e-13 0 0)
(1.030548125098176e-13 0 0)
(5.114687351554185e-13 0 0)
(4.808905911076168e-13 0 0)
(4.106095737305464e-13 0 0)
(4.84658072129569e-13 0 0)
(4.040854297883934e-13 0 0)
(3.051950389313032e-15 0 0)
(-1.13210533622446e-13 0 0)
(2.661134441082944e-13 0 0)
(1.881023772618741e-14 0 0)
(-1.898998207225089e-13 0 0)
(1.460729473506352e-13 0 0)
(1.938529785041502e-13 0 0)
(3.529825662486346e-13 0 0)
(6.754843735496888e-13 0 0)
(7.008149806949016e-13 0 0)
(5.883710702655743e-13 0 0)
(9.290957621357434e-14 0 0)
(-3.422173207397856e-13 0 0)
(-4.816371734623493e-13 0 0)
(-9.622244239578298e-13 0 0)
(-1.021397289721142e-12 0 0)
(-5.383554852047265e-13 0 0)
(-1.851071217650827e-13 0 0)
(-3.293241818723337e-14 0 0)
(1.117023492133644e-13 0 0)
(2.328981094779053e-13 0 0)
(-6.380870427502527e-14 0 0)
(1.011791837096871e-13 0 0)
(2.076917591031133e-13 0 0)
(5.542281577975093e-13 0 0)
(4.480374194657667e-13 0 0)
(-7.248531180558414e-14 0 0)
(-1.825134375749136e-14 0 0)
(1.982122312585393e-13 0 0)
(1.840930067213871e-13 0 0)
(3.265239524231095e-14 0 0)
(1.567540477953916e-13 0 0)
(2.249238230883538e-13 0 0)
(1.766825379562329e-13 0 0)
(2.296854206567498e-13 0 0)
(1.778700822399455e-13 0 0)
(-2.152715135090385e-13 0 0)
(-5.181883875231274e-13 0 0)
(-4.640232190369949e-13 0 0)
(-5.351285253788301e-13 0 0)
(-7.244852567707284e-13 0 0)
(-1.180223982320673e-12 0 0)
(-1.636672844501826e-12 0 0)
(-1.450171571347461e-12 0 0)
(-1.142918528865332e-12 0 0)
(-9.120413057713659e-13 0 0)
(-5.79876537759914e-13 0 0)
(-2.8723422865209e-14 0 0)
(2.890888912467257e-13 0 0)
(-5.569309365670713e-14 0 0)
(-3.385888094583173e-13 0 0)
(-1.514107740212025e-13 0 0)
(-2.78798584208282e-14 0 0)
(7.365774230401962e-14 0 0)
(-1.104136668691099e-13 0 0)
(-3.482787843769261e-13 0 0)
(-3.426807577784397e-13 0 0)
(-3.662122135479576e-13 0 0)
(-2.599484108578938e-13 0 0)
(-3.722828997141971e-13 0 0)
(-4.189377125355372e-13 0 0)
(-2.688107048188819e-13 0 0)
(-3.474151026263328e-13 0 0)
(-1.785684470962986e-13 0 0)
(-2.034158855657881e-14 0 0)
(-2.298795419902152e-13 0 0)
(-4.377174364160966e-13 0 0)
(-1.781500143729034e-13 0 0)
(2.324847884175162e-13 0 0)
(6.230353996438994e-13 0 0)
(7.779471587834528e-13 0 0)
(7.35758021782022e-13 0 0)
(9.325081521756023e-13 0 0)
(7.468116776977981e-13 0 0)
(3.970023472647556e-13 0 0)
(2.935054640876057e-13 0 0)
(5.243932874031693e-13 0 0)
(1.082352839364973e-12 0 0)
(7.844579385100328e-13 0 0)
(4.523544353146091e-13 0 0)
(8.72745700551977e-13 0 0)
(1.390988082896761e-12 0 0)
(8.568341769134843e-13 0 0)
(5.293806531307659e-13 0 0)
(8.143697328864107e-13 0 0)
(9.43143096724378e-13 0 0)
(4.011090888716659e-13 0 0)
(1.58342811652905e-13 0 0)
(2.87253907005566e-13 0 0)
(5.616164796042623e-14 0 0)
(-4.696110926854533e-13 0 0)
(-9.5923821711456e-13 0 0)
(-7.294290250861955e-13 0 0)
(-3.916919516663816e-13 0 0)
(-2.611575372042523e-13 0 0)
(-3.304290565339295e-13 0 0)
(-3.21305839722712e-14 0 0)
(-3.298191696997529e-14 0 0)
(-4.25623701022795e-13 0 0)
(-6.247609667370275e-13 0 0)
(-1.200140497169335e-12 0 0)
(-1.441514769351292e-12 0 0)
(-1.290900591659528e-12 0 0)
(-1.662471088364928e-12 0 0)
(-1.874513883631225e-12 0 0)
(-1.497808639849541e-12 0 0)
(-1.029637338674643e-12 0 0)
(-8.927213692221547e-13 0 0)
(-4.494624480910236e-13 0 0)
(1.641163511849811e-13 0 0)
(5.815611822735507e-13 0 0)
(3.914265420037095e-13 0 0)
(6.944450101647717e-14 0 0)
(3.31881034000568e-13 0 0)
(5.024839454292535e-13 0 0)
(5.676559458294156e-13 0 0)
(4.430635743431583e-13 0 0)
(6.71528628144228e-13 0 0)
(9.545525317624176e-13 0 0)
(1.196772971457765e-12 0 0)
(1.162278487677957e-12 0 0)
(1.090176619965928e-12 0 0)
(1.301005568635548e-12 0 0)
(1.274154256492693e-12 0 0)
(1.368589607772043e-12 0 0)
(9.068005525880749e-13 0 0)
(3.311899994961809e-13 0 0)
(1.527184087560253e-13 0 0)
(2.4883889911294e-13 0 0)
(2.49057038668488e-13 0 0)
(1.809791440842196e-13 0 0)
(3.00476113671961e-13 0 0)
(5.478149462949533e-13 0 0)
(1.143627976738526e-12 0 0)
(1.208408503302133e-12 0 0)
(7.663260973363636e-13 0 0)
(6.487555105700764e-14 0 0)
(-2.037805191808574e-13 0 0)
(-1.78179363152962e-13 0 0)
(-3.38420129650257e-13 0 0)
(-1.411836792638429e-13 0 0)
(1.469039930268824e-14 0 0)
(6.505287673144742e-15 0 0)
)
;

boundaryField
{
    inlet
    {
        type            calculated;
        value           uniform (-0.0002059795930214425 0 0);
    }
    outlet
    {
        type            calculated;
        value           uniform (6.505287673144742e-15 0 0);
    }
    frontAndBack
    {
        type            empty;
    }
}


// ************************************************************************* //
