/*--------------------------------*- C++ -*----------------------------------*\
| =========                 |                                                 |
| \\      /  F ield         | OpenFOAM: The Open Source CFD Toolbox           |
|  \\    /   O peration     | Version:  v2012                                 |
|   \\  /    A nd           | Website:  www.openfoam.com                      |
|    \\/     M anipulation  |                                                 |
\*---------------------------------------------------------------------------*/
FoamFile
{
    version     2.0;
    format      ascii;
    class       volScalarField;
    location    "0.0025";
    object      p;
}
// * * * * * * * * * * * * * * * * * * * * * * * * * * * * * * * * * * * * * //

dimensions      [1 -1 -2 0 0 0 0];


internalField   nonuniform List<scalar> 
1000
(
101339.0401814407
101336.4259347907
101343.1297175574
101348.3983447499
101354.238668759
101359.5103126581
101364.0678531108
101367.9588647064
101371.2587063708
101373.4565000259
101374.0381917486
101374.0259869094
101373.6634437201
101372.6652180743
101370.7056103799
101367.7151327938
101363.8037395899
101359.1524134137
101353.9104635184
101348.1778373197
101342.0355079851
101335.5729920535
101328.8970416706
101322.1313824221
101315.4136827984
101308.8843031724
101302.6632874611
101296.822277694
101291.3693689318
101286.2922934266
101281.7499149619
101278.3960089439
101276.9776665917
101276.8188145066
101276.8952757738
101277.1663438968
101277.9239508714
101279.3994969994
101281.7990348426
101285.2122337821
101289.5933718308
101294.7851197983
101300.5824299386
101306.7954542285
101313.2777707965
101319.9181448507
101326.6187280537
101333.2803045259
101339.8017915851
101346.0967487142
101352.1218441607
101357.880712743
101363.3279594694
101368.1066439969
101371.3384688875
101372.483659914
101372.5724398849
101372.5355680537
101372.2850038389
101371.6627036056
101370.4415927137
101368.4278403673
101365.4795652518
101361.5462144929
101356.6822624277
101351.0350839836
101344.8080354132
101338.2130934139
101331.4341366077
101324.6143563142
101317.8614818326
101311.2516050405
101304.8232442743
101298.5787186254
101292.5266634756
101286.8097581083
101281.9516157467
101278.9137863769
101277.9717034396
101277.9103068624
101277.9737688139
101278.1933513105
101278.7637208189
101279.8598195915
101281.664564561
101284.3235590818
101287.9193721827
101292.4495445952
101297.822685367
101303.8745286497
101310.3984544046
101317.1818223632
101324.0397911673
101330.8383302972
101337.5009936128
101344.0018740579
101350.3484555713
101356.5361376969
101362.4162534444
101367.4363881264
101370.5956163459
101371.5921380232
101371.6579035776
101371.6274279266
101371.4352731563
101370.9567041934
101370.0154533907
101368.4441786451
101366.0923731904
101362.852814793
101358.6822432959
101353.6162293932
101347.770590472
101341.324797233
101334.4908405703
101327.4775251613
101320.4584057138
101313.5474610215
101306.7897707976
101300.1825793581
101293.7483980083
101287.6935298669
101282.6581263753
101279.6513398285
101278.7779515642
101278.7249341132
101278.773561774
101278.9486441753
101279.4043546167
101280.2854518228
101281.7496468735
101283.9383777326
101286.9596885937
101290.8686636515
101295.6540062501
101301.2336213731
101307.461131555
101314.1455051285
101321.0832478253
101328.0947697242
101335.0516956791
101341.886287164
101348.5779839052
101355.0984552562
101361.2671523798
101366.4953457712
101369.7757504443
101370.8349825898
101370.9183956134
101370.8972462698
101370.7498678802
101370.3738606302
101369.6200925693
101368.3422150448
101366.3982512112
101363.6696339151
101360.0774486408
101355.5985534632
101350.2761926079
101344.2197179245
101337.5916957864
101330.5846472627
101323.3902309953
101316.1657391712
101309.0111858237
101301.9790736937
101295.1426341427
101288.7558341879
101283.4987901172
101280.3813431075
101279.4652658267
101279.4040117514
101279.4406969348
101279.5793590137
101279.9494274308
101280.6748727267
101281.8946029075
101283.7405565452
101286.3254777057
101289.7274224198
101293.9767772318
101299.0472001721
101304.8526181905
101311.2542388265
101318.0801635486
101325.1536529194
101332.3209113821
101339.4697498519
101346.5288249385
101353.4225576646
101359.9337318644
101365.4557746797
101368.9735825231
101370.1703782581
101370.2838376743
101370.2708262384
101370.1590021752
101369.8611648059
101369.2475107923
101368.1887423946
101366.5538282856
101364.2243002394
101361.1065803319
101357.1460766403
101352.3391246682
101346.7385393772
101340.4508004156
101333.6247657032
101326.4310663306
101319.0336839709
101311.5651164939
101304.1278110811
101296.851687424
101290.0469132192
101284.4451435264
101281.0947041109
101280.0736549296
101279.9939949868
101280.0217076799
101280.1307718069
101280.4330469604
101281.0370460378
101282.0671850204
101283.645551089
101285.8829291681
101288.8667111035
101292.6500955783
101297.242650313
101302.6038026122
101308.6432319492
101315.2313398539
101322.2178437789
101329.4530706131
101336.8066181667
101344.1729392954
101351.4357252105
101358.3410811193
101364.2584383428
101368.1379588149
101369.5578710124
101369.7231413618
101369.7168600722
101369.6317914208
101369.3957352165
101368.8929142943
101368.0075793037
101366.6186692447
101364.6116095109
101361.8876589283
101358.3753883993
101354.0414178856
101348.8975799942
101343.0030888315
101336.4608876642
101329.4058444878
101321.9844327473
101314.3346824386
101306.5861744318
101298.9092373869
101291.6563774696
101285.600051031
101281.8602596294
101280.6358651287
101280.5201338105
101280.540127976
101280.624169553
101280.8712937626
101281.3776710945
101282.255457554
101283.6170399187
101285.568809387
101288.2016018335
101291.5816778096
101295.7418189564
101300.6739476305
101306.32661751
101312.6098699859
101319.4063247375
101326.5857005644
101334.0199423379
101341.5895714866
101349.1543002643
101356.4400873641
101362.8128986332
101367.1878223681
101368.9570547345
101369.2143872158
101369.2144588541
101369.1518658447
101368.9658168663
101368.5529566626
101367.8087876049
101366.6215772458
101364.8820000594
101362.4903392507
101359.365985531
101355.4566287383
101350.745296219
101345.2546399973
101339.0476487016
101332.2219221235
101324.8964381414
101317.1977766473
101309.2617807784
101301.2760143421
101293.6069803429
101287.0347671579
101282.7544157275
101281.1945350696
101281.0075517309
101281.0203247077
101281.0814849412
101281.2801449196
101281.7025532421
101282.4518586997
101283.6320287104
101285.3441845809
101287.6790234577
101290.7094911033
101294.4830204785
101299.0145834132
101304.2829383362
101310.2317782868
101316.775508111
101323.8086485279
101331.2170073322
101338.8822439137
101346.6566609248
101354.2652394069
101361.0947524508
101366.0449477762
101368.2823034483
101368.6895707461
101368.697075134
101368.6544593608
101368.5089357595
101368.1692571287
101367.5396054592
101366.5173701233
101365.002282344
101362.9034087626
101360.1484958557
101356.6948563251
101352.5421594591
101347.7488729658
101342.4591945231
101336.9582178012
101331.7756690129
101327.7523752939
101325.6251636979
101325.0553743091
101325.0012535814
101325.000004779
101325.0000000025
101325.0000000002
101325.0000000002
101325.0000000002
101325.0000000003
101325.0000000003
101325.0000000004
101325.0000000004
101325.0000000004
101325.0000000004
101325.0000000003
101325.0000000004
101325.0000000004
101325.0000000004
101325.0000000004
101325.0000000005
101325.0000000005
101325.0000000005
101325.0000000005
101325.0000000005
101325.0000000006
101325.0000000006
101325.0000000007
101325.0000000007
101325.0000000007
101325.0000000007
101325.0000000006
101325.0000000006
101325.0000000007
101325.0000000007
101325.0000000007
101325.0000000008
101325.0000000007
101325.0000000007
101325.0000000007
101325.0000000006
101325.0000000005
101325.0000000005
101325.0000000005
101325.0000000005
101325.0000000004
101325.0000000004
101325.0000000004
101325.0000000004
101325.0000000004
101325.0000000003
101325.0000000003
101325.0000000004
101325.0000000003
101325.0000000003
101325.0000000003
101325.0000000003
101325.0000000003
101325.0000000003
101325.0000000004
101325.0000000003
101325.0000000003
101325.0000000003
101325.0000000002
101325.0000000003
101325.0000000002
101325.0000000002
101325.0000000002
101325.0000000003
101325.0000000002
101325.0000000002
101325.0000000002
101325.0000000002
101325.0000000002
101325.0000000002
101325.0000000002
101325.0000000002
101325.0000000002
101325.0000000002
101325.0000000002
101325.0000000002
101325.0000000002
101325.0000000002
101325.0000000002
101325.0000000003
101325.0000000002
101325.0000000002
101325.0000000002
101325.0000000003
101325.0000000003
101325.0000000003
101325.0000000003
101325.0000000003
101325.0000000002
101325.0000000002
101325.0000000002
101325.0000000001
101325.0000000002
101325.0000000002
101325.0000000001
101325.0000000002
101325.0000000002
101325.0000000002
101325.0000000002
101325.0000000002
101325.0000000002
101325.0000000003
101325.0000000003
101325.0000000003
101325.0000000003
101325.0000000002
101325.0000000002
101325.0000000004
101325.0000000004
101325.0000000004
101325.0000000004
101325.0000000005
101325.0000000005
101325.0000000005
101325.0000000005
101325.0000000005
101325.0000000005
101325.0000000005
101325.0000000005
101325.0000000005
101325.0000000005
101325.0000000005
101325.0000000005
101325.0000000005
101325.0000000006
101325.0000000005
101325.0000000006
101325.0000000006
101325.0000000006
101325.0000000006
101325.0000000007
101325.0000000007
101325.0000000007
101325.0000000007
101325.0000000007
101325.0000000007
101325.0000000007
101325.0000000007
101325.0000000006
101325.0000000007
101325.0000000007
101325.0000000007
101325.0000000007
101325.0000000006
101325.0000000006
101325.0000000006
101325.0000000006
101325.0000000007
101325.0000000006
101325.0000000006
101325.0000000006
101325.0000000006
101325.0000000005
101325.0000000005
101325.0000000004
101325.0000000004
101325.0000000004
101325.0000000004
101325.0000000004
101325.0000000004
101325.0000000003
101325.0000000003
101325.0000000003
101325.0000000003
101325.0000000002
101325.0000000002
101325.0000000003
101325.0000000004
101325.0000000004
101325.0000000004
101325.0000000005
101325.0000000004
101325.0000000004
101325.0000000004
101325.0000000004
101325.0000000004
101325.0000000003
101325.0000000003
101325.0000000003
101325.0000000002
101325.0000000002
101325.0000000002
101325.0000000003
101325.0000000003
101325.0000000003
101325.0000000004
101325.0000000004
101325.0000000004
101325.0000000004
101325.0000000004
101325.0000000005
101325.0000000005
101325.0000000005
101325.0000000005
101325.0000000005
101325.0000000005
101325.0000000005
101325.0000000005
101325.0000000005
101325.0000000005
101325.0000000005
101325.0000000005
101325.0000000005
101325.0000000005
101325.0000000005
101325.0000000004
101325.0000000004
101325.0000000005
101325.0000000006
101325.0000000006
101325.0000000005
101325.0000000005
101325.0000000005
101325.0000000005
101325.0000000005
101325.0000000005
101325.0000000005
101325.0000000005
101325.0000000006
101325.0000000006
101325.0000000005
101325.0000000005
101325.0000000006
101325.0000000006
101325.0000000006
101325.0000000006
101325.0000000006
101325.0000000006
101325.0000000006
101325.0000000007
101325.0000000007
101325.0000000007
101325.0000000007
101325.0000000007
101325.0000000007
101325.0000000007
101325.0000000007
101325.0000000007
101325.0000000007
101325.0000000008
101325.0000000007
101325.0000000007
101325.0000000007
101325.0000000007
101325.0000000007
101325.0000000006
101325.0000000006
101325.0000000006
101325.0000000006
101325.0000000006
101325.0000000005
101325.0000000005
101325.0000000005
101325.0000000004
101325.0000000004
101325.0000000004
101325.0000000004
101325.0000000004
101325.0000000004
101325.0000000004
101325.0000000003
101325.0000000003
101325.0000000003
101325.0000000003
101325.0000000003
101325.0000000003
101325.0000000003
101325.0000000004
101325.0000000004
101325.0000000005
101325.0000000004
101325.0000000005
101325.0000000005
101325.0000000005
101325.0000000006
101325.0000000006
101325.0000000006
101325.0000000006
101325.0000000006
101325.0000000005
101325.0000000006
101325.0000000006
101325.0000000006
101325.0000000006
101325.0000000006
101325.0000000006
101325.0000000005
101325.0000000005
101325.0000000005
101325.0000000005
101325.0000000005
101325.0000000004
101325.0000000004
101325.0000000005
101325.0000000005
101325.0000000005
101325.0000000005
101325.0000000005
101325.0000000006
101325.0000000007
101325.0000000006
101325.0000000006
101325.0000000005
101325.0000000006
101325.0000000006
101325.0000000006
101325.0000000006
101325.0000000006
101325.0000000006
101325.0000000006
101325.0000000006
101325.0000000006
101325.0000000006
101325.0000000007
101325.0000000007
101325.0000000007
101325.0000000007
101325.0000000007
101325.0000000007
101325.0000000007
101325.0000000007
101325.0000000007
101325.0000000007
101325.0000000007
101325.0000000007
101325.0000000007
101325.0000000007
101325.0000000007
101325.0000000007
101325.0000000007
101325.0000000006
101325.0000000007
101325.0000000006
101325.0000000006
101325.0000000006
101325.0000000006
101325.0000000006
101325.0000000006
101325.0000000006
101325.0000000006
101325.0000000006
101325.0000000006
101325.0000000006
101325.0000000006
101325.0000000006
101325.0000000006
101325.0000000006
101325.0000000006
101325.0000000006
101325.0000000006
101325.0000000007
101325.0000000007
101325.0000000007
101325.0000000007
101325.0000000007
101325.0000000007
101325.0000000006
101325.0000000007
101325.0000000007
101325.0000000007
101325.0000000007
101325.0000000007
101325.0000000006
101325.0000000006
101325.0000000006
101325.0000000006
101325.0000000006
101325.0000000006
101325.0000000006
101325.0000000006
101325.0000000006
101325.0000000006
101325.0000000006
101325.0000000006
101325.0000000006
101325.0000000006
101325.0000000006
101325.0000000006
101325.0000000006
101325.0000000006
101325.0000000006
101325.0000000006
101325.0000000006
101325.0000000006
101325.0000000006
101325.0000000006
101325.0000000006
101325.0000000007
101325.0000000006
101325.0000000007
101325.0000000007
101325.0000000007
101325.0000000008
101325.0000000009
101325.0000000009
101325.0000000009
101325.0000000009
101325.0000000009
101325.000000001
101325.000000001
101325.000000001
101325.0000000009
101325.0000000009
101325.0000000009
101325.000000001
101325.0000000009
101325.0000000008
101325.0000000008
101325.0000000007
101325.0000000008
101325.0000000007
101325.0000000006
101325.0000000006
101325.0000000007
101325.0000000007
101325.0000000007
101325.0000000007
101325.0000000007
101325.0000000007
101325.0000000007
101325.0000000007
101325.0000000007
101325.0000000006
101325.0000000006
101325.0000000006
101325.0000000006
101325.0000000006
101325.0000000006
101325.0000000006
101325.0000000006
101325.0000000006
101325.0000000006
101325.0000000006
101325.0000000006
101325.0000000006
101325.0000000006
101325.0000000006
101325.0000000005
101325.0000000006
101325.0000000006
101325.0000000006
101325.0000000006
101325.0000000006
101325.0000000006
101325.0000000006
101325.0000000006
101325.0000000006
101325.0000000005
101325.0000000006
101325.0000000005
101325.0000000005
101325.0000000006
101325.0000000006
101325.0000000006
101325.0000000006
101325.0000000006
101325.0000000005
101325.0000000005
101325.0000000006
101325.0000000006
101325.0000000005
101325.0000000005
101325.0000000005
101325.0000000005
101325.0000000005
101325.0000000005
101325.0000000005
101325.0000000004
101325.0000000004
101325.0000000004
101325.0000000004
101325.0000000004
101325.0000000003
101325.0000000002
101325.0000000002
101325.0000000002
101325.0000000001
101325.0000000001
101325.0000000001
101325.0000000001
101325.0000000001
101325
101324.9999999999
101324.9999999998
101324.9999999997
101324.9999999995
101324.9999999994
101324.9999999993
101324.9999999992
101324.9999999991
101324.999999999
101324.999999999
101324.9999999989
101324.9999999989
101324.9999999988
101324.9999999988
101324.9999999987
101324.9999999985
101324.9999999984
101324.9999999983
101324.9999999982
101324.999999998
101324.999999998
101324.9999999979
101324.9999999978
101324.9999999976
101324.9999999974
101324.9999999971
101324.9999999968
101324.9999999965
101324.9999999963
101324.9999999962
101324.9999999961
101324.9999999961
101324.999999996
101324.999999996
101324.9999999959
101324.9999999959
101324.9999999959
101324.9999999959
101324.9999999959
101324.9999999958
101324.9999999957
101324.9999999957
101324.9999999957
101324.9999999957
101324.9999999956
101324.9999999956
101324.9999999956
101324.9999999955
101324.9999999955
101324.9999999954
101324.9999999955
101324.9999999955
101324.9999999954
101324.9999999954
101324.9999999954
101324.9999999954
101324.9999999954
101324.9999999953
101324.9999999954
101324.9999999954
101324.9999999954
101324.9999999954
101324.9999999953
101324.9999999953
101324.9999999953
101324.9999999954
101324.9999999954
101324.9999999954
101324.9999999954
101324.9999999954
101324.9999999954
101324.9999999954
101324.9999999954
101324.9999999953
101324.9999999954
101324.9999999954
101324.9999999953
101324.9999999953
101324.9999999953
101324.9999999952
101324.9999999952
101324.9999999952
101324.9999999951
101324.9999999952
101324.9999999951
101324.999999995
101324.999999995
101324.9999999949
101324.9999999949
101324.9999999948
101324.9999999947
101324.9999999946
101324.9999999946
101324.9999999945
101324.9999999944
101324.9999999943
101324.9999999942
101324.9999999941
101324.999999994
101324.9999999938
101324.9999999936
101324.9999999933
101324.999999993
101324.9999999927
101324.9999999924
101324.9999999921
101324.9999999919
101324.9999999916
101324.9999999913
101324.9999999912
101324.999999991
101324.9999999908
101324.9999999905
101324.9999999903
101324.9999999901
101324.9999999898
101324.9999999896
101324.9999999894
101324.9999999891
101324.9999999889
101324.9999999886
101324.9999999884
101324.9999999883
101324.999999988
101324.9999999878
101324.9999999876
101324.9999999874
101324.9999999872
101324.999999987
101324.9999999869
101324.9999999866
101324.9999999865
101324.9999999865
101324.9999999864
101324.9999999862
101324.9999999861
101324.9999999859
101324.9999999856
101324.9999999855
101324.9999999853
101324.999999985
101324.9999999847
101324.9999999846
101324.9999999844
101324.9999999842
101324.999999984
101324.9999999837
101324.9999999835
101324.9999999832
101324.999999983
101324.999999983
101324.9999999828
101324.9999999827
101324.9999999826
101324.9999999824
101324.9999999821
101324.9999999819
101324.9999999816
101324.9999999814
101324.9999999812
101324.999999981
101324.9999999808
101324.9999999805
101324.9999999803
101324.9999999798
)
;

boundaryField
{
    inlet
    {
        type            uniformFixedValue;
        uniformValue    sine;
        uniformValueCoeffs
        {
            frequency       constant 3000;
            scale           constant 50;
            level           constant 101325;
        }
        value           uniform 101326.3578702043;
    }
    outlet
    {
        type            pressureOutletNSCBC;
        pInf            101325;
        gamma           1.4;
        etaAc           1;
        fieldInf        1;
        lInf            2.25;
        value           uniform 101324.9999999799;
    }
    frontAndBack
    {
        type            empty;
    }
}


// ************************************************************************* //
