/*--------------------------------*- C++ -*----------------------------------*\
| =========                 |                                                 |
| \\      /  F ield         | OpenFOAM: The Open Source CFD Toolbox           |
|  \\    /   O peration     | Version:  v2012                                 |
|   \\  /    A nd           | Website:  www.openfoam.com                      |
|    \\/     M anipulation  |                                                 |
\*---------------------------------------------------------------------------*/
FoamFile
{
    version     2.0;
    format      ascii;
    class       volScalarField;
    location    "0.0025";
    object      pMean;
}
// * * * * * * * * * * * * * * * * * * * * * * * * * * * * * * * * * * * * * //

dimensions      [1 -1 -2 0 0 0 0];


internalField   nonuniform List<scalar> 
1000
(
101327.0105417425
101327.0959984218
101327.0449229378
101327.0017156897
101326.9243831915
101326.8358835383
101326.7298278297
101326.6138828548
101326.4857390253
101326.3501103746
101326.2089753411
101326.0681832155
101325.9272517718
101325.7886263511
101325.6536416875
101325.5258289561
101325.4073545501
101325.301250149
101325.2089072199
101325.1324528353
101325.0727233934
101325.0312643181
101325.0084678929
101325.0051814009
101325.0211387046
101325.0563791467
101325.109924302
101325.1810876036
101325.2684396223
101325.371201838
101325.4880301441
101325.6170267425
101325.7534118322
101325.892095124
101326.0307044767
101326.1690342703
101326.3057293949
101326.4396715464
101326.5680009044
101326.688493429
101326.7977800337
101326.8937751359
101326.9738967244
101327.0371088982
101327.0818989192
101327.1080918048
101327.1148623645
101327.1026059599
101327.0711057195
101327.0213375464
101326.9535607276
101326.8689447137
101326.7678157433
101326.6518003898
101326.5233429615
101326.3882138932
101326.251172056
101326.1143214403
101325.9777681347
101325.8424108966
101325.7095390782
101325.5811198565
101325.4595757578
101325.3476767286
101325.2481686426
101325.1635693196
101325.0958710369
101325.0465137858
101325.0163349154
101325.0057111904
101325.0146213094
101325.0428044157
101325.0898060767
101325.1551148287
101325.2381912285
101325.3383996767
101325.4543293845
101325.5824461798
101325.7167306793
101325.8523194511
101325.9878330107
101326.1230584046
101326.2570937427
101326.389011918
101326.5167972201
101326.63853108
101326.7513724981
101326.8529161114
101326.9402950384
101327.0115579476
101327.0647196068
101327.0989504136
101327.1134452648
101327.1084112128
101327.0838421898
101327.0404319029
101326.9783621022
101326.8982955538
101326.800530295
101326.6867311404
101326.5602588464
101326.4274442851
101326.2930649422
101326.1588159611
101326.0248093585
101325.8917191341
101325.7605427347
101325.6328183467
101325.5105188185
101325.3960282921
101325.2919378255
101325.200898147
101325.1253323
101325.0672924282
101325.0282420894
101325.0090688282
101325.010060527
101325.0311253132
101325.0718924712
101325.1319566044
101325.2108691011
101325.3079922854
101325.4216405576
101325.5477079773
101325.6797578307
101325.8130076679
101325.946203518
101326.0791647766
101326.2111845322
101326.3414988163
101326.4684834406
101326.5905157962
101326.7051659576
101326.8101944667
101326.9028375249
101326.9808851088
101327.0420108953
101327.084789292
101327.1079338183
101327.1111336049
101327.0941254077
101327.057356697
101327.000982772
101326.9256069555
101326.8316484293
101326.7208934023
101326.5969905228
101326.4664496299
101326.3342355646
101326.202099958
101326.0701385784
101325.938896394
101325.8091713434
101325.6822376791
101325.5597475929
101325.4437745409
101325.3366497539
101325.2409030145
101325.1590157002
101325.093308434
101325.045686365
101325.0175864359
101325.0098488021
101325.0228530617
101325.0565553709
101325.1107288782
101325.1849447928
101325.2784589779
101325.3893199237
101325.5131046224
101325.6430989328
101325.774388993
101325.90564942
101326.0367275803
101326.16704717
101326.2959686424
101326.4221355857
101326.544146323
101326.6598946345
101326.7673360838
101326.8639085171
101326.947376147
101327.0153045682
101327.0659160852
101327.0975217565
101327.1092808809
101327.1004946754
101327.071201936
101327.0213521186
101326.9514234812
101326.8618976367
101326.7546328458
101326.6334481325
101326.5050210535
101326.3746781537
101326.2443552718
101326.1141514305
101325.9845157439
101325.8560983342
101325.7299777916
101325.6075645809
101325.4906739785
101325.3813949236
101325.2820762605
101325.1951293733
101325.1229481871
101325.067677041
101325.0311342084
101325.0146493714
101325.0191071247
101325.0449310668
101325.0922320166
101325.1607873045
101325.2498801698
101325.3574443655
101325.4787898991
101325.6068745235
101325.7364422344
101325.8660232317
101325.9954562254
101326.1242812996
101326.2519455891
101326.3773055747
101326.4991253321
101326.615567186
101326.7247651639
101326.8243742044
101326.9122144605
101326.9858717594
101327.0433750943
101327.082786454
101327.1028389574
101327.1024309286
101327.0811394713
101327.038596799
101326.9750032767
101326.8907451516
101326.7876010087
101326.6694406718
101326.5431109979
101326.4144530601
101326.2857305535
101326.1570903626
101326.028894443
101325.9016869761
101325.7763800569
101325.6542006041
101325.5367442067
101325.4258894769
101325.3237970734
101325.2327573049
101325.1551411758
101325.093192696
101325.0489703986
101325.024157874
101325.0200847571
101325.037628599
101325.07732749
101325.1392763803
101325.2229755285
101325.3264361458
101325.4449330675
101325.5710918804
101325.6991091795
101325.8271848701
101325.955156142
101326.0826268925
101326.2091456722
101326.3337043305
101326.455237802
101326.5720978627
101326.6826120334
101326.7846105351
101326.8760336078
101326.9545183568
101327.018029549
101327.0644717071
101327.0922907939
101327.1000461146
101327.0869055697
101327.0521468404
101326.9956282807
101326.9175086852
101326.8193148349
101326.7047458044
101326.5806770635
101326.4536080128
101326.3263297568
101326.1991118124
101326.0722305127
101325.9461596515
101325.8216567898
101325.69982035
101325.582033045
101325.4700202329
101325.3657289679
101325.2713518608
101325.1891449131
101325.1214165247
101325.0703073177
101325.0377924829
101325.0254886749
101325.0347223197
101325.0663854336
101325.1210047974
101325.1983531144
101325.2967970034
101325.4117871072
101325.5358431408
101325.6623599238
101325.7890617211
101325.9156601686
101326.0418899028
101326.1673129733
101326.2911045167
101326.4122679366
101326.529382584
101326.6408751186
101326.7448042061
101326.8391753315
101326.9217697258
101326.9904928658
101327.0432257331
101327.0781735823
101327.0936875122
101327.0885553404
101327.061762885
101327.0127829652
101326.9415015131
101326.8490518256
101326.7387813717
101326.617387125
101326.4920332254
101326.3662407008
101326.2404847314
101326.1149893333
101325.9901424108
101325.8666134459
101325.7453541509
101325.6276096942
101325.5149035287
101325.4089997278
101325.3118367772
101325.2254282115
101325.1517233362
101325.0924116368
101325.0486235834
101325.0204193882
101325.005972545
101325.0009732292
101325.00006394
101325.0000011408
101325.000000004
101325.0000000003
101325.0000000003
101325.0000000003
101325.0000000003
101325.0000000003
101325.0000000003
101325.0000000003
101325.0000000003
101325.0000000003
101325.0000000003
101325.0000000003
101325.0000000003
101325.0000000003
101325.0000000003
101325.0000000003
101325.0000000003
101325.0000000003
101325.0000000003
101325.0000000003
101325.0000000003
101325.0000000003
101325.0000000003
101325.0000000003
101325.0000000003
101325.0000000003
101325.0000000003
101325.0000000003
101325.0000000003
101325.0000000003
101325.0000000003
101325.0000000003
101325.0000000003
101325.0000000003
101325.0000000003
101325.0000000003
101325.0000000003
101325.0000000002
101325.0000000003
101325.0000000003
101325.0000000003
101325.0000000003
101325.0000000003
101325.0000000003
101325.0000000003
101325.0000000003
101325.0000000003
101325.0000000003
101325.0000000003
101325.0000000003
101325.0000000003
101325.0000000003
101325.0000000003
101325.0000000003
101325.0000000003
101325.0000000003
101325.0000000003
101325.0000000003
101325.0000000003
101325.0000000003
101325.0000000003
101325.0000000003
101325.0000000003
101325.0000000003
101325.0000000003
101325.0000000003
101325.0000000003
101325.0000000003
101325.0000000003
101325.0000000003
101325.0000000003
101325.0000000003
101325.0000000003
101325.0000000003
101325.0000000003
101325.0000000003
101325.0000000003
101325.0000000003
101325.0000000002
101325.0000000002
101325.0000000003
101325.0000000002
101325.0000000003
101325.0000000003
101325.0000000003
101325.0000000003
101325.0000000003
101325.0000000003
101325.0000000003
101325.0000000003
101325.0000000003
101325.0000000003
101325.0000000003
101325.0000000003
101325.0000000003
101325.0000000003
101325.0000000003
101325.0000000003
101325.0000000003
101325.0000000003
101325.0000000003
101325.0000000003
101325.0000000003
101325.0000000003
101325.0000000003
101325.0000000003
101325.0000000003
101325.0000000003
101325.0000000003
101325.0000000003
101325.0000000003
101325.0000000003
101325.0000000003
101325.0000000003
101325.0000000003
101325.0000000003
101325.0000000003
101325.0000000003
101325.0000000003
101325.0000000003
101325.0000000003
101325.0000000003
101325.0000000003
101325.0000000003
101325.0000000003
101325.0000000003
101325.0000000003
101325.0000000003
101325.0000000003
101325.0000000003
101325.0000000003
101325.0000000003
101325.0000000003
101325.0000000003
101325.0000000003
101325.0000000003
101325.0000000003
101325.0000000003
101325.0000000003
101325.0000000003
101325.0000000003
101325.0000000003
101325.0000000003
101325.0000000003
101325.0000000003
101325.0000000003
101325.0000000003
101325.0000000003
101325.0000000003
101325.0000000003
101325.0000000003
101325.0000000003
101325.0000000003
101325.0000000003
101325.0000000003
101325.0000000003
101325.0000000003
101325.0000000003
101325.0000000003
101325.0000000003
101325.0000000003
101325.0000000003
101325.0000000003
101325.0000000003
101325.0000000003
101325.0000000003
101325.0000000003
101325.0000000003
101325.0000000003
101325.0000000003
101325.0000000003
101325.0000000003
101325.0000000003
101325.0000000003
101325.0000000003
101325.0000000003
101325.0000000003
101325.0000000003
101325.0000000003
101325.0000000003
101325.0000000003
101325.0000000003
101325.0000000003
101325.0000000003
101325.0000000003
101325.0000000003
101325.0000000003
101325.0000000003
101325.0000000003
101325.0000000003
101325.0000000003
101325.0000000003
101325.0000000003
101325.0000000003
101325.0000000003
101325.0000000003
101325.0000000003
101325.0000000003
101325.0000000003
101325.0000000003
101325.0000000003
101325.0000000003
101325.0000000003
101325.0000000003
101325.0000000003
101325.0000000003
101325.0000000003
101325.0000000003
101325.0000000003
101325.0000000003
101325.0000000003
101325.0000000003
101325.0000000003
101325.0000000003
101325.0000000003
101325.0000000003
101325.0000000003
101325.0000000003
101325.0000000003
101325.0000000003
101325.0000000003
101325.0000000003
101325.0000000003
101325.0000000003
101325.0000000003
101325.0000000003
101325.0000000003
101325.0000000003
101325.0000000003
101325.0000000003
101325.0000000003
101325.0000000003
101325.0000000003
101325.0000000003
101325.0000000003
101325.0000000003
101325.0000000003
101325.0000000003
101325.0000000003
101325.0000000003
101325.0000000003
101325.0000000003
101325.0000000003
101325.0000000003
101325.0000000003
101325.0000000003
101325.0000000003
101325.0000000003
101325.0000000003
101325.0000000003
101325.0000000003
101325.0000000003
101325.0000000003
101325.0000000003
101325.0000000003
101325.0000000003
101325.0000000003
101325.0000000003
101325.0000000003
101325.0000000003
101325.0000000003
101325.0000000003
101325.0000000003
101325.0000000003
101325.0000000003
101325.0000000003
101325.0000000003
101325.0000000003
101325.0000000003
101325.0000000004
101325.0000000003
101325.0000000003
101325.0000000003
101325.0000000003
101325.0000000003
101325.0000000003
101325.0000000003
101325.0000000003
101325.0000000003
101325.0000000003
101325.0000000003
101325.0000000003
101325.0000000003
101325.0000000003
101325.0000000003
101325.0000000003
101325.0000000003
101325.0000000003
101325.0000000003
101325.0000000003
101325.0000000003
101325.0000000003
101325.0000000003
101325.0000000003
101325.0000000004
101325.0000000004
101325.0000000003
101325.0000000003
101325.0000000003
101325.0000000004
101325.0000000004
101325.0000000004
101325.0000000003
101325.0000000003
101325.0000000003
101325.0000000003
101325.0000000003
101325.0000000002
101325.0000000003
101325.0000000003
101325.0000000003
101325.0000000003
101325.0000000003
101325.0000000002
101325.0000000002
101325.0000000003
101325.0000000003
101325.0000000003
101325.0000000003
101325.0000000003
101325.0000000003
101325.0000000003
101325.0000000003
101325.0000000003
101325.0000000003
101325.0000000003
101325.0000000003
101325.0000000003
101325.0000000003
101325.0000000002
101325.0000000003
101325.0000000003
101325.0000000003
101325.0000000003
101325.0000000003
101325.0000000003
101325.0000000003
101325.0000000003
101325.0000000003
101325.0000000003
101325.0000000003
101325.0000000003
101325.0000000003
101325.0000000003
101325.0000000003
101325.0000000003
101325.0000000003
101325.0000000003
101325.0000000003
101325.0000000003
101325.0000000003
101325.0000000003
101325.0000000002
101325.0000000002
101325.0000000002
101325.0000000002
101325.0000000002
101325.0000000002
101325.0000000002
101325.0000000002
101325.0000000002
101325.0000000002
101325.0000000002
101325.0000000002
101325.0000000002
101325.0000000003
101325.0000000003
101325.0000000003
101325.0000000002
101325.0000000002
101325.0000000002
101325.0000000002
101325.0000000002
101325.0000000002
101325.0000000002
101325.0000000002
101325.0000000002
101325.0000000002
101325.0000000002
101325.0000000003
101325.0000000002
101325.0000000002
101325.0000000002
101325.0000000002
101325.0000000002
101325.0000000002
101325.0000000002
101325.0000000002
101325.0000000002
101325.0000000002
101325.0000000002
101325.0000000002
101325.0000000002
101325.0000000002
101325.0000000002
101325.0000000002
101325.0000000002
101325.0000000002
101325.0000000002
101325.0000000002
101325.0000000002
101325.0000000002
101325.0000000002
101325.0000000002
101325.0000000002
101325.0000000002
101325.0000000002
101325.0000000002
101325.0000000002
101325.0000000002
101325.0000000002
101325.0000000002
101325.0000000002
101325.0000000002
101325.0000000002
101325.0000000002
101325.0000000002
101325.0000000002
101325.0000000002
101325.0000000002
101325.0000000002
101325.0000000002
101325.0000000002
101325.0000000002
101325.0000000002
101325.0000000002
101325.0000000002
101325.0000000002
101325.0000000003
101325.0000000003
101325.0000000003
101325.0000000003
101325.0000000003
101325.0000000003
101325.0000000003
101325.0000000002
101325.0000000002
101325.0000000002
101325.0000000002
101325.0000000002
101325.0000000003
101325.0000000002
101325.0000000002
101325.0000000002
101325.0000000002
101325.0000000003
101325.0000000002
101325.0000000002
101325.0000000002
101325.0000000002
101325.0000000002
101325.0000000002
101325.0000000002
101325.0000000002
101325.0000000002
101325.0000000003
101325.0000000003
101325.0000000003
101325.0000000003
101325.0000000003
101325.0000000003
101325.0000000003
101325.0000000003
101325.0000000003
101325.0000000003
101325.0000000003
101325.0000000004
101325.0000000003
101325.0000000003
101325.0000000003
101325.0000000003
101325.0000000003
101325.0000000003
101325.0000000003
101325.0000000003
101325.0000000003
101325.0000000004
101325.0000000003
101325.0000000003
101325.0000000003
101325.0000000003
101325.0000000002
101325.0000000003
101325.0000000003
101325.0000000003
101325.0000000003
101325.0000000003
101325.0000000003
101325.0000000003
101325.0000000003
101325.0000000003
101325.0000000003
101325.0000000003
101325.0000000003
101325.0000000003
101325.0000000003
101325.0000000003
101325.0000000002
101325.0000000002
101325.0000000002
101325.0000000003
101325.0000000002
101325.0000000002
101325.0000000002
101325.0000000002
101325.0000000002
101325.0000000002
101325.0000000002
101325.0000000002
101325.0000000002
101325.0000000002
101325.0000000002
101325.0000000001
101325.0000000001
101325.0000000001
101325.0000000001
101325.0000000001
101325.0000000001
101325.0000000001
101325.0000000001
101325.0000000001
101325
101325
101325
101325
101325
101325
101325
101325
101325
101325
101324.9999999999
101324.9999999999
101324.9999999999
101324.9999999998
101324.9999999998
101324.9999999998
101324.9999999998
101324.9999999998
101324.9999999998
101324.9999999998
101324.9999999998
101324.9999999998
101324.9999999997
101324.9999999997
101324.9999999997
101324.9999999997
101324.9999999996
101324.9999999996
101324.9999999996
101324.9999999996
101324.9999999995
101324.9999999995
101324.9999999995
101324.9999999995
101324.9999999995
101324.9999999995
101324.9999999995
101324.9999999995
101324.9999999995
101324.9999999995
101324.9999999995
101324.9999999994
101324.9999999994
101324.9999999994
101324.9999999994
101324.9999999993
101324.9999999993
101324.9999999992
101324.9999999992
101324.9999999992
101324.9999999992
101324.9999999992
101324.9999999992
101324.9999999991
101324.9999999991
101324.9999999991
101324.9999999991
101324.999999999
101324.999999999
101324.999999999
101324.999999999
101324.999999999
101324.999999999
101324.9999999989
101324.9999999989
101324.9999999989
101324.9999999989
101324.9999999989
101324.9999999988
101324.9999999988
101324.9999999988
101324.9999999988
101324.9999999988
101324.9999999988
101324.9999999988
101324.9999999988
101324.9999999987
101324.9999999986
101324.9999999986
101324.9999999986
101324.9999999986
101324.9999999985
101324.9999999985
101324.9999999984
101324.9999999984
101324.9999999983
101324.9999999983
101324.9999999983
101324.9999999983
101324.9999999983
101324.9999999983
101324.9999999982
101324.9999999981
101324.999999998
101324.999999998
101324.9999999979
101324.9999999979
101324.9999999979
101324.9999999978
101324.9999999977
101324.9999999977
101324.9999999977
101324.9999999977
101324.9999999976
101324.9999999976
101324.9999999975
101324.9999999975
101324.9999999975
101324.9999999975
101324.9999999974
101324.9999999973
101324.9999999973
101324.9999999972
101324.9999999972
101324.9999999971
101324.9999999971
101324.999999997
101324.999999997
101324.9999999969
101324.9999999968
101324.9999999967
101324.9999999967
101324.9999999967
101324.9999999967
101324.9999999966
101324.9999999965
101324.9999999964
)
;

boundaryField
{
    inlet
    {
        type            calculated;
        value           uniform 101327.1219354512;
    }
    outlet
    {
        type            calculated;
        value           uniform 101324.9999999965;
    }
    frontAndBack
    {
        type            empty;
    }
}


// ************************************************************************* //
