/*--------------------------------*- C++ -*----------------------------------*\
| =========                 |                                                 |
| \\      /  F ield         | OpenFOAM: The Open Source CFD Toolbox           |
|  \\    /   O peration     | Version:  v2012                                 |
|   \\  /    A nd           | Website:  www.openfoam.com                      |
|    \\/     M anipulation  |                                                 |
\*---------------------------------------------------------------------------*/
FoamFile
{
    version     2.0;
    format      ascii;
    class       volScalarField;
    location    "0.0025";
    object      rho;
}
// * * * * * * * * * * * * * * * * * * * * * * * * * * * * * * * * * * * * * //

dimensions      [1 -3 0 0 0 0 0];


internalField   nonuniform List<scalar> 
1000
(
1.176533715424466
1.176510077035014
1.176562669898383
1.176604644607703
1.17665395382814
1.176698889593588
1.176736835414891
1.176768519623115
1.176795250161157
1.176813134097028
1.176817865426088
1.176817824465575
1.176814996209471
1.176806869956438
1.176790667598762
1.176765882125154
1.176733474027271
1.17669493343254
1.176651480691263
1.176603941621604
1.176552994552885
1.176499390501627
1.176444020705059
1.176387913254648
1.176332208866799
1.176278069195245
1.176226487417272
1.176178056018203
1.176132841178736
1.17609074071044
1.176053072174961
1.176025257964497
1.176013494322973
1.176012175542637
1.176012808179064
1.17601505504581
1.176021337914397
1.176033575048835
1.176053474717311
1.176081780285478
1.176118112294191
1.176161165750955
1.176209240035743
1.176260760680497
1.176314513411852
1.176369575795292
1.176425136438901
1.176480372650069
1.176534446303177
1.176586640730089
1.176636596737721
1.176684344566398
1.176729507956217
1.176769127691948
1.176795922229317
1.176805416761267
1.176806152806559
1.176805847101265
1.176803769726002
1.176798610373138
1.176788486385143
1.176771790685637
1.176747346835795
1.176714735507675
1.176674408083687
1.176627586171606
1.176575955572359
1.176521273652248
1.176465064912852
1.176408516593434
1.176352521971183
1.176297712047096
1.176244406295035
1.1761926240283
1.176142436939438
1.17609502832248
1.176054740588965
1.17602954813323
1.176021735479636
1.176021226317358
1.176021752603172
1.176023573593206
1.176028303648156
1.176037393539054
1.176052360137068
1.176074410817247
1.176104230144385
1.176141797487863
1.176186354689114
1.176236539275834
1.176290637620265
1.176346886279635
1.176403752443944
1.176460124730764
1.176515369308836
1.176569271435391
1.176621893236583
1.17667319664041
1.176721949122728
1.176763570813639
1.176789763536824
1.176798025515145
1.17679857076349
1.176798318094646
1.176796724977636
1.176792757257159
1.176784953519136
1.176771926322964
1.176752427760398
1.176725568723962
1.176690990337913
1.176648987253714
1.176600519434987
1.176547074642722
1.176490410361341
1.176432257775798
1.176374055910868
1.176316749892552
1.176260713588322
1.176205924220595
1.176152568539499
1.176102357450593
1.176060599821495
1.176035664856956
1.176028421902782
1.176027982230826
1.176028385496967
1.176029837447129
1.176033616631603
1.176040923515136
1.176053065953025
1.176071216808447
1.176096271956058
1.17612868801482
1.176168371062664
1.17621464003722
1.176266280822691
1.176321709075508
1.176379237212468
1.176437375984952
1.176495060915409
1.176551730377727
1.17660721395963
1.176661276836637
1.176712422157238
1.17675576898255
1.176782966431813
1.176791748351115
1.176792439912837
1.176792264566482
1.17679104267909
1.176787925271789
1.176781675910029
1.176771081217128
1.176754964029104
1.176732341218081
1.176702558349046
1.176665423330808
1.176621294434913
1.176571078029425
1.176516121735194
1.17645802162269
1.176398366722957
1.176338461221522
1.176279134444901
1.176220821803925
1.176164130638968
1.176111167130815
1.176067571598178
1.176041718996444
1.176034122040151
1.176033614063263
1.176033918290365
1.176035068205954
1.176038137159841
1.176044153223576
1.176054268328128
1.176069576577891
1.176091012854376
1.176119224319313
1.176154462761182
1.176196509486574
1.176244650455038
1.17629773447179
1.176354335878935
1.176412988971442
1.176472418398274
1.176531693891844
1.176590223927316
1.176647381910333
1.176701366974574
1.176747150251964
1.176776316058853
1.176786238515925
1.176787179188596
1.176787071311899
1.176786144196879
1.176783674877573
1.176778587170674
1.176769809072088
1.176756254180493
1.176736940214515
1.176711091202954
1.176678254344846
1.176638399022712
1.176591962859378
1.176539828420776
1.176483229685526
1.176423581242365
1.176362242644636
1.176300312484608
1.176238640255609
1.176178303341211
1.176121873958985
1.176075419839768
1.176047635127462
1.176039167664011
1.176038507049708
1.176038736868183
1.176039641328324
1.176042148073235
1.176047156986455
1.176055699822923
1.176068789002673
1.17608734318201
1.176112086974226
1.176143461380403
1.176181545528707
1.176226002712929
1.176276083682088
1.17633071350388
1.176388645789786
1.176448639288416
1.176509612630182
1.17657069061781
1.176630908900731
1.176688162471334
1.176737223495469
1.176769388319632
1.176781160627475
1.176782530858666
1.176782478780694
1.176781773489436
1.176779816384688
1.176775647572424
1.176768307380139
1.176756792078977
1.176740151687436
1.176717567453927
1.176688447015829
1.176652513418299
1.176609864519325
1.176560990997794
1.176506746108663
1.176448247849693
1.176386710517289
1.176323278483193
1.176259026150474
1.176195365917375
1.176135221044998
1.176084997593788
1.176053984126789
1.176043830360523
1.176042870611209
1.176043036420763
1.176043733370181
1.176045782750069
1.176049982090082
1.176057261477601
1.176068552896608
1.176084738582405
1.176106571732749
1.176134601698251
1.176169100145479
1.176209999863081
1.17625687397441
1.176308976241316
1.176365333066637
1.176424863934183
1.176486506860283
1.176549271056988
1.176611993284912
1.176672401437136
1.176725238895969
1.176761511194556
1.176776179703949
1.176778313212438
1.17677831380616
1.176777794856717
1.176776252352329
1.176772829387402
1.176766659578365
1.176756816544907
1.176742393838224
1.176722564638869
1.176696660499833
1.176664247548255
1.176625184843808
1.176579659938418
1.176528194805131
1.176471598401013
1.176410856980051
1.176347019893675
1.176281213385979
1.176214992688387
1.176151397049695
1.17609689575071
1.176061399625622
1.176048463738489
1.17604691310577
1.176047019030936
1.176047526227177
1.17604917369573
1.176052676685321
1.176058890589691
1.176068677577932
1.176082876194209
1.176102238503876
1.176127369321068
1.176158661840149
1.176196240017969
1.176239927470426
1.176289257014877
1.176343518605809
1.17640183734539
1.176463266140591
1.176526823569169
1.176591284881205
1.176654369787269
1.17671099410372
1.176752036116461
1.176770585832544
1.176773962436688
1.176774024654825
1.176773671333664
1.176772464817907
1.176769648587942
1.176764428223247
1.176755952975832
1.17674339149489
1.17672598980033
1.176703148748173
1.176674514285371
1.176640083500643
1.176600340966576
1.176556482079477
1.176510870540665
1.176467898618231
1.176434538422193
1.176416899944101
1.176412175329011
1.176411726566744
1.176411716211824
1.176411716172218
1.176411716172199
1.176411716172198
1.176411716172198
1.176411716172199
1.176411716172199
1.176411716172199
1.1764117161722
1.1764117161722
1.1764117161722
1.1764117161722
1.1764117161722
1.176411716172201
1.176411716172201
1.176411716172202
1.176411716172202
1.176411716172202
1.176411716172202
1.176411716172202
1.176411716172201
1.176411716172201
1.176411716172201
1.176411716172202
1.176411716172201
1.176411716172202
1.176411716172201
1.176411716172201
1.176411716172202
1.176411716172203
1.176411716172203
1.176411716172204
1.176411716172204
1.176411716172204
1.176411716172203
1.176411716172203
1.176411716172203
1.176411716172202
1.176411716172202
1.176411716172203
1.176411716172202
1.176411716172202
1.176411716172202
1.176411716172201
1.176411716172201
1.176411716172201
1.176411716172201
1.176411716172201
1.176411716172202
1.176411716172201
1.176411716172201
1.176411716172201
1.176411716172201
1.176411716172201
1.176411716172201
1.176411716172201
1.1764117161722
1.1764117161722
1.1764117161722
1.176411716172199
1.176411716172199
1.176411716172199
1.176411716172199
1.176411716172199
1.176411716172199
1.176411716172199
1.176411716172199
1.176411716172199
1.176411716172199
1.1764117161722
1.1764117161722
1.1764117161722
1.176411716172199
1.176411716172199
1.176411716172199
1.176411716172199
1.176411716172199
1.176411716172199
1.176411716172199
1.176411716172199
1.1764117161722
1.1764117161722
1.1764117161722
1.1764117161722
1.176411716172201
1.176411716172201
1.176411716172201
1.176411716172201
1.176411716172201
1.176411716172201
1.1764117161722
1.176411716172199
1.176411716172199
1.176411716172199
1.176411716172199
1.176411716172199
1.176411716172199
1.176411716172199
1.176411716172199
1.176411716172199
1.1764117161722
1.1764117161722
1.176411716172201
1.1764117161722
1.1764117161722
1.1764117161722
1.1764117161722
1.1764117161722
1.176411716172201
1.176411716172201
1.176411716172202
1.176411716172203
1.176411716172203
1.176411716172203
1.176411716172203
1.176411716172203
1.176411716172203
1.176411716172202
1.176411716172202
1.176411716172203
1.176411716172203
1.176411716172203
1.176411716172203
1.176411716172203
1.176411716172203
1.176411716172203
1.176411716172202
1.176411716172203
1.176411716172203
1.176411716172203
1.176411716172203
1.176411716172203
1.176411716172203
1.176411716172203
1.176411716172203
1.176411716172203
1.176411716172204
1.176411716172204
1.176411716172203
1.176411716172203
1.176411716172203
1.176411716172203
1.176411716172203
1.176411716172203
1.176411716172203
1.176411716172203
1.176411716172204
1.176411716172204
1.176411716172204
1.176411716172203
1.176411716172201
1.176411716172201
1.176411716172201
1.176411716172201
1.176411716172201
1.176411716172201
1.176411716172201
1.176411716172201
1.176411716172201
1.176411716172201
1.176411716172201
1.1764117161722
1.1764117161722
1.1764117161722
1.1764117161722
1.1764117161722
1.1764117161722
1.1764117161722
1.176411716172201
1.176411716172201
1.176411716172201
1.176411716172202
1.176411716172202
1.176411716172201
1.176411716172202
1.176411716172201
1.176411716172201
1.176411716172201
1.176411716172201
1.176411716172201
1.1764117161722
1.1764117161722
1.1764117161722
1.1764117161722
1.176411716172201
1.176411716172201
1.176411716172202
1.176411716172202
1.176411716172202
1.176411716172202
1.176411716172202
1.176411716172202
1.176411716172202
1.176411716172201
1.1764117161722
1.1764117161722
1.176411716172201
1.176411716172201
1.176411716172201
1.1764117161722
1.1764117161722
1.1764117161722
1.176411716172201
1.176411716172201
1.176411716172201
1.176411716172201
1.176411716172201
1.176411716172201
1.176411716172202
1.176411716172203
1.176411716172202
1.176411716172202
1.176411716172202
1.176411716172202
1.176411716172201
1.176411716172201
1.176411716172201
1.176411716172201
1.176411716172201
1.176411716172201
1.176411716172202
1.176411716172201
1.176411716172201
1.176411716172202
1.176411716172202
1.176411716172203
1.176411716172203
1.176411716172203
1.176411716172203
1.176411716172203
1.176411716172203
1.176411716172203
1.176411716172204
1.176411716172204
1.176411716172204
1.176411716172205
1.176411716172204
1.176411716172204
1.176411716172204
1.176411716172203
1.176411716172203
1.176411716172203
1.176411716172203
1.176411716172203
1.176411716172203
1.176411716172203
1.176411716172203
1.176411716172203
1.176411716172203
1.176411716172204
1.176411716172203
1.176411716172202
1.176411716172202
1.176411716172202
1.176411716172202
1.176411716172201
1.176411716172201
1.176411716172201
1.176411716172201
1.176411716172201
1.176411716172201
1.1764117161722
1.1764117161722
1.176411716172201
1.1764117161722
1.176411716172199
1.176411716172199
1.176411716172199
1.176411716172199
1.1764117161722
1.176411716172201
1.176411716172201
1.176411716172202
1.176411716172202
1.176411716172203
1.176411716172203
1.176411716172203
1.176411716172203
1.176411716172203
1.176411716172203
1.176411716172203
1.176411716172203
1.176411716172203
1.176411716172202
1.176411716172203
1.176411716172203
1.176411716172202
1.176411716172202
1.176411716172202
1.176411716172202
1.176411716172203
1.176411716172202
1.176411716172202
1.176411716172202
1.176411716172203
1.176411716172203
1.176411716172203
1.176411716172203
1.176411716172204
1.176411716172205
1.176411716172205
1.176411716172204
1.176411716172203
1.176411716172203
1.176411716172203
1.176411716172203
1.176411716172203
1.176411716172203
1.176411716172203
1.176411716172203
1.176411716172203
1.176411716172203
1.176411716172203
1.176411716172203
1.176411716172204
1.176411716172203
1.176411716172203
1.176411716172202
1.176411716172202
1.176411716172202
1.176411716172203
1.176411716172202
1.176411716172203
1.176411716172204
1.176411716172204
1.176411716172204
1.176411716172203
1.176411716172203
1.176411716172203
1.176411716172204
1.176411716172204
1.176411716172204
1.176411716172204
1.176411716172203
1.176411716172203
1.176411716172203
1.176411716172203
1.176411716172203
1.176411716172203
1.176411716172203
1.176411716172203
1.176411716172203
1.176411716172203
1.176411716172203
1.176411716172203
1.176411716172202
1.176411716172203
1.176411716172202
1.176411716172203
1.176411716172203
1.176411716172203
1.176411716172204
1.176411716172204
1.176411716172204
1.176411716172204
1.176411716172204
1.176411716172204
1.176411716172204
1.176411716172205
1.176411716172205
1.176411716172204
1.176411716172204
1.176411716172204
1.176411716172203
1.176411716172203
1.176411716172203
1.176411716172203
1.176411716172203
1.176411716172203
1.176411716172204
1.176411716172204
1.176411716172204
1.176411716172203
1.176411716172203
1.176411716172203
1.176411716172203
1.176411716172203
1.176411716172203
1.176411716172203
1.176411716172203
1.176411716172203
1.176411716172203
1.176411716172203
1.176411716172203
1.176411716172203
1.176411716172203
1.176411716172203
1.176411716172203
1.176411716172203
1.176411716172203
1.176411716172204
1.176411716172204
1.176411716172204
1.176411716172205
1.176411716172205
1.176411716172206
1.176411716172206
1.176411716172206
1.176411716172206
1.176411716172206
1.176411716172206
1.176411716172206
1.176411716172205
1.176411716172205
1.176411716172206
1.176411716172206
1.176411716172206
1.176411716172205
1.176411716172205
1.176411716172205
1.176411716172205
1.176411716172204
1.176411716172203
1.176411716172203
1.176411716172203
1.176411716172204
1.176411716172204
1.176411716172205
1.176411716172204
1.176411716172204
1.176411716172204
1.176411716172204
1.176411716172203
1.176411716172203
1.176411716172203
1.176411716172203
1.176411716172202
1.176411716172202
1.176411716172203
1.176411716172203
1.176411716172203
1.176411716172203
1.176411716172203
1.176411716172203
1.176411716172203
1.176411716172202
1.176411716172203
1.176411716172203
1.176411716172202
1.176411716172203
1.176411716172203
1.176411716172203
1.176411716172203
1.176411716172203
1.176411716172204
1.176411716172204
1.176411716172204
1.176411716172203
1.176411716172203
1.176411716172203
1.176411716172203
1.176411716172203
1.176411716172203
1.176411716172204
1.176411716172204
1.176411716172204
1.176411716172203
1.176411716172202
1.176411716172202
1.176411716172203
1.176411716172202
1.176411716172202
1.176411716172202
1.176411716172202
1.176411716172202
1.176411716172202
1.176411716172202
1.176411716172202
1.176411716172202
1.176411716172203
1.176411716172203
1.176411716172203
1.176411716172202
1.176411716172202
1.176411716172201
1.176411716172201
1.176411716172201
1.1764117161722
1.1764117161722
1.1764117161722
1.1764117161722
1.1764117161722
1.1764117161722
1.176411716172199
1.176411716172198
1.176411716172196
1.176411716172195
1.176411716172193
1.176411716172192
1.176411716172191
1.17641171617219
1.17641171617219
1.17641171617219
1.17641171617219
1.176411716172189
1.176411716172189
1.176411716172189
1.176411716172187
1.176411716172186
1.176411716172185
1.176411716172185
1.176411716172184
1.176411716172183
1.176411716172182
1.176411716172182
1.17641171617218
1.176411716172178
1.176411716172175
1.176411716172173
1.176411716172171
1.176411716172169
1.176411716172168
1.176411716172167
1.176411716172167
1.176411716172166
1.176411716172165
1.176411716172164
1.176411716172164
1.176411716172164
1.176411716172164
1.176411716172164
1.176411716172164
1.176411716172163
1.176411716172163
1.176411716172163
1.176411716172163
1.176411716172163
1.176411716172162
1.176411716172162
1.176411716172162
1.176411716172162
1.176411716172162
1.176411716172161
1.176411716172161
1.176411716172161
1.176411716172161
1.176411716172161
1.176411716172161
1.17641171617216
1.176411716172161
1.17641171617216
1.17641171617216
1.176411716172161
1.17641171617216
1.17641171617216
1.17641171617216
1.17641171617216
1.17641171617216
1.17641171617216
1.17641171617216
1.17641171617216
1.176411716172161
1.176411716172161
1.176411716172161
1.17641171617216
1.17641171617216
1.17641171617216
1.17641171617216
1.17641171617216
1.176411716172159
1.176411716172159
1.176411716172159
1.176411716172159
1.176411716172158
1.176411716172158
1.176411716172158
1.176411716172158
1.176411716172159
1.176411716172158
1.176411716172157
1.176411716172156
1.176411716172156
1.176411716172156
1.176411716172155
1.176411716172154
1.176411716172154
1.176411716172153
1.176411716172152
1.176411716172151
1.176411716172151
1.17641171617215
1.176411716172149
1.176411716172147
1.176411716172145
1.176411716172143
1.17641171617214
1.176411716172138
1.176411716172135
1.176411716172133
1.176411716172131
1.176411716172129
1.176411716172126
1.176411716172125
1.176411716172123
1.176411716172122
1.176411716172119
1.176411716172118
1.176411716172116
1.176411716172114
1.176411716172113
1.17641171617211
1.176411716172108
1.176411716172105
1.176411716172103
1.176411716172102
1.176411716172101
1.176411716172099
1.176411716172098
1.176411716172096
1.176411716172094
1.176411716172092
1.176411716172091
1.176411716172089
1.176411716172088
1.176411716172087
1.176411716172086
1.176411716172085
1.176411716172084
1.176411716172082
1.17641171617208
1.176411716172079
1.176411716172078
1.176411716172076
1.176411716172074
1.176411716172072
1.17641171617207
1.176411716172068
1.176411716172066
1.176411716172065
1.176411716172062
1.17641171617206
1.176411716172058
1.176411716172057
1.176411716172057
1.176411716172055
1.176411716172054
1.176411716172053
1.176411716172051
1.176411716172049
1.176411716172047
1.176411716172045
1.176411716172043
1.176411716172042
1.17641171617204
1.176411716172039
1.176411716172036
1.176411716172035
1.17641171617203
)
;

boundaryField
{
    inlet
    {
        type            calculated;
        value           uniform 1.176427481426743;
    }
    outlet
    {
        type            calculated;
        value           uniform 1.176411716172018;
    }
    frontAndBack
    {
        type            empty;
    }
}


// ************************************************************************* //
