/*--------------------------------*- C++ -*----------------------------------*\
| =========                 |                                                 |
| \\      /  F ield         | OpenFOAM: The Open Source CFD Toolbox           |
|  \\    /   O peration     | Version:  v2012                                 |
|   \\  /    A nd           | Website:  www.openfoam.com                      |
|    \\/     M anipulation  |                                                 |
\*---------------------------------------------------------------------------*/
FoamFile
{
    version     2.0;
    format      ascii;
    class       volScalarField;
    location    "0.0025";
    object      T;
}
// * * * * * * * * * * * * * * * * * * * * * * * * * * * * * * * * * * * * * //

dimensions      [0 0 0 1 0 0 0];


internalField   nonuniform List<scalar> 
1000
(
300.0104572945478
300.0087455562249
300.0151808457442
300.0200746072803
300.0247901693575
300.0289371405557
300.032752312262
300.0361908994294
300.039142558028
300.0410878284229
300.0416031912468
300.0415775112946
300.0412255663736
300.0403429294992
300.0386738834575
300.0361419568546
300.0328276026553
300.028886464347
300.0244492322584
300.0196010953346
300.0144086972415
300.0089454560601
300.0033000845429
299.9975766824015
299.9918919510362
299.9863652671541
299.9810988562895
299.9761538354504
299.9715373780487
299.9672392915868
299.9633940905974
299.9605551274576
299.9593548202178
299.9592207104652
299.9592858083175
299.9595155541637
299.9601568713771
299.9614058142569
299.9634368953816
299.9663260006487
299.9700343815148
299.9744288037973
299.9793356379816
299.9845941305441
299.9900803024607
299.9956999765831
300.001370326235
300.007007388624
300.0125256411856
300.0178519675025
300.0229497361423
300.027822054078
300.0324305439062
300.0364732700828
300.0392072870198
300.0401760665717
300.0402511723671
300.040219983023
300.040008018927
300.0394815806043
300.0384485691002
300.0367449954903
300.034250800301
300.0309231655865
300.0268081098799
300.0220302432806
300.0167615500364
300.011181331151
300.0054451407681
299.9996741303488
299.9939594636908
299.9883655466521
299.9829249963097
299.9776397962754
299.9725172758131
299.9676782271661
299.9635659173833
299.9609943860154
299.9601968982636
299.9601449255316
299.9601986478004
299.9603845282666
299.9608673533538
299.9617952089255
299.9633229225614
299.9655737212331
299.9686174553066
299.9724519829534
299.9769998755826
299.9821220242733
299.9876434888537
299.9933842610862
299.9991878895187
300.0049409485256
300.0105787596924
300.0160794186584
300.0214492760979
300.0266844567759
300.0316592030281
300.0359062135103
300.0385788240432
300.0394218376576
300.0394774724723
300.0394516918161
300.0392891375687
300.0388842880334
300.038088024431
300.0367587716655
300.0347691848634
300.0320285202409
300.028500126846
300.0242140303995
300.0192681428805
300.0138142398523
300.0080316344132
300.0020969740069
299.9961571089972
299.9903084992956
299.9845893110838
299.9789972301922
299.9735513276917
299.9684262487747
299.9641639135936
299.9616186717622
299.9608793387144
299.9608344589458
299.9608756230824
299.9610238323476
299.9614095949864
299.9621554472159
299.9633948835707
299.965247613073
299.967805062565
299.9711138123863
299.9751642388761
299.979886783812
299.9851574831014
299.990814594864
299.9966858561467
300.0026192639042
300.0085061812775
300.0142892992328
300.0199512365951
300.0254680405187
300.0306869819724
300.0351100411867
300.0378851801589
300.0387812489349
300.0388518129976
300.0388339217964
300.0387092457248
300.0383911577573
300.0377534955194
300.0366724464669
300.0350278879408
300.0327194884994
300.0296804461774
300.0258911262489
300.0213880459915
300.016263650017
300.0106554160564
300.0047261881417
299.998638109001
299.9925242690578
299.9864693092921
299.980517675198
299.974731365316
299.9693253725996
299.9648754539185
299.96223655245
299.9614610865346
299.9614092346006
299.961440289143
299.9615576677611
299.9618709325159
299.9624850228729
299.9635175186986
299.9650800926239
299.9672681578697
299.970147750366
299.9737445401357
299.9780361672096
299.9829497088504
299.9883676265262
299.9941443786205
300.0001303507314
300.0061953713704
300.0122445000418
300.018217374899
300.0240500619324
300.0295588095864
300.0342305047897
300.0372065000836
300.0382189474361
300.0383149299196
300.0383039230134
300.0382093241607
300.0379573640741
300.0374382320384
300.0365425416971
300.0351594338355
300.033188667404
300.030551044741
300.0272003348007
300.02313337749
300.018394787098
300.013074581176
300.0072986436508
300.0012113014507
299.9949512802277
299.9886306879711
299.9823362220356
299.9761778501453
299.9704181309998
299.9656764500602
299.9628403380322
299.9619760165072
299.9619085840868
299.9619320432268
299.9620243665901
299.9622802430981
299.9627915275802
299.9636635337476
299.9649995982271
299.9668934813941
299.9694191296792
299.9726215320418
299.9765087324671
299.9810463250578
299.9861577950165
299.9917333909557
299.9976458716333
300.0037685328905
300.0099910010376
300.0162239548906
300.0223689860582
300.0282113026208
300.0332174862455
300.0364995066074
300.0377007085536
300.0378405215913
300.0378352080359
300.0377632429339
300.0375635468477
300.0371381748769
300.0363892032254
300.0352142098678
300.0335162523637
300.0312117720518
300.0282403024568
300.0245735525114
300.0202214700284
300.0152340832216
300.0096984201534
300.0037285315707
299.997448306411
299.9909745106191
299.9844167827993
299.9779192730523
299.9717803626816
299.9666539667491
299.9634882934258
299.9624518438818
299.9623538770636
299.9623708022432
299.9624419435569
299.9626511339287
299.9630797804739
299.963822819737
299.964975379185
299.966627503944
299.9688560617756
299.971717105751
299.975238337337
299.9794128617207
299.9841970694369
299.9895147549772
299.9952665123996
300.001342032256
300.0076329077298
300.0140380098429
300.0204386237005
300.0266028969446
300.0319944660832
300.0356956221497
300.0371923460443
300.0374100411029
300.0374101017633
300.0373571499817
300.0371997578421
300.0368504890077
300.0362209389858
300.0352165792377
300.0337449113173
300.0317215565347
300.0290782891526
300.0257708110694
300.0217847071743
300.0171390761093
300.01188713927
300.0061114053211
299.9999124820731
299.9933974262389
299.9866811541732
299.9799223810685
299.9734313144935
299.9678683113116
299.9642450924784
299.9629246603448
299.9627663789017
299.9627771911809
299.962828963115
299.9629971279543
299.9633546940229
299.9639889738767
299.9649879696017
299.9664372683495
299.968413625054
299.9709787578238
299.9741727769633
299.9780083042932
299.9824673003915
299.9875020420047
299.9930400190252
299.9989919009745
300.0052609972423
300.0117471239942
300.0183252781457
300.0247627609312
300.0305407917816
300.0347286666274
300.0366214224195
300.0369659587851
300.036972307221
300.0369362553283
300.036813145992
300.0365257858986
300.0359931136565
300.0351283187485
300.033846567014
300.0320709147012
300.0297402116128
300.0268183100276
300.023304886981
300.0192493600007
300.014773684133
300.0101190479559
300.0057336816701
300.0023291394755
300.0005290354781
300.0000468597157
300.0000010608227
300.0000000040429
300.0000000000009
299.9999999999991
299.9999999999991
299.9999999999991
299.9999999999993
299.9999999999994
299.9999999999994
299.9999999999993
299.9999999999993
299.9999999999992
299.9999999999991
299.9999999999991
299.999999999999
299.999999999999
299.9999999999989
299.999999999999
299.999999999999
299.999999999999
299.9999999999991
299.9999999999993
299.9999999999995
299.9999999999996
299.9999999999997
299.9999999999997
299.9999999999997
299.9999999999997
299.9999999999995
299.9999999999995
299.9999999999993
299.9999999999993
299.9999999999993
299.9999999999993
299.9999999999993
299.9999999999993
299.9999999999993
299.9999999999993
299.9999999999991
299.999999999999
299.9999999999989
299.9999999999989
299.9999999999989
299.9999999999989
299.9999999999989
299.9999999999989
299.999999999999
299.9999999999989
299.9999999999988
299.9999999999987
299.9999999999987
299.9999999999987
299.9999999999987
299.9999999999987
299.9999999999987
299.9999999999989
299.9999999999989
299.9999999999989
299.9999999999989
299.999999999999
299.999999999999
299.9999999999991
299.9999999999991
299.9999999999991
299.999999999999
299.999999999999
299.9999999999989
299.999999999999
299.999999999999
299.999999999999
299.9999999999989
299.9999999999989
299.9999999999988
299.9999999999989
299.9999999999988
299.9999999999989
299.9999999999989
299.999999999999
299.9999999999989
299.999999999999
299.9999999999989
299.9999999999989
299.9999999999989
299.9999999999988
299.9999999999986
299.9999999999986
299.9999999999987
299.9999999999986
299.9999999999987
299.9999999999986
299.9999999999986
299.9999999999987
299.9999999999987
299.9999999999987
299.9999999999987
299.9999999999989
299.9999999999988
299.9999999999989
299.9999999999989
299.9999999999989
299.9999999999988
299.9999999999987
299.9999999999986
299.9999999999987
299.9999999999989
299.999999999999
299.9999999999989
299.9999999999989
299.9999999999989
299.999999999999
299.9999999999989
299.9999999999988
299.9999999999987
299.9999999999987
299.9999999999987
299.9999999999988
299.9999999999989
299.9999999999989
299.9999999999989
299.999999999999
299.999999999999
299.999999999999
299.999999999999
299.999999999999
299.999999999999
299.999999999999
299.9999999999991
299.999999999999
299.9999999999991
299.9999999999991
299.9999999999993
299.9999999999993
299.9999999999993
299.9999999999993
299.9999999999993
299.9999999999993
299.9999999999993
299.9999999999991
299.9999999999991
299.9999999999991
299.9999999999991
299.9999999999993
299.9999999999993
299.9999999999994
299.9999999999993
299.9999999999992
299.999999999999
299.9999999999989
299.9999999999989
299.9999999999991
299.9999999999992
299.9999999999994
299.9999999999995
299.9999999999995
299.9999999999993
299.9999999999991
299.999999999999
299.999999999999
299.999999999999
299.999999999999
299.999999999999
299.9999999999991
299.9999999999991
299.999999999999
299.999999999999
299.999999999999
299.9999999999989
299.9999999999988
299.9999999999988
299.9999999999989
299.9999999999988
299.9999999999989
299.999999999999
299.9999999999989
299.9999999999989
299.9999999999989
299.9999999999989
299.9999999999989
299.9999999999989
299.9999999999989
299.9999999999988
299.9999999999988
299.9999999999988
299.9999999999987
299.9999999999988
299.9999999999989
299.9999999999989
299.9999999999989
299.9999999999989
299.9999999999988
299.9999999999987
299.9999999999988
299.9999999999989
299.999999999999
299.9999999999993
299.9999999999995
299.9999999999995
299.9999999999994
299.9999999999993
299.9999999999994
299.9999999999995
299.9999999999996
299.9999999999995
299.9999999999995
299.9999999999993
299.9999999999992
299.9999999999992
299.9999999999991
299.9999999999991
299.9999999999991
299.9999999999992
299.9999999999991
299.9999999999991
299.999999999999
299.9999999999991
299.9999999999992
299.9999999999993
299.9999999999995
299.9999999999995
299.9999999999994
299.9999999999994
299.9999999999993
299.9999999999993
299.9999999999993
299.9999999999993
299.9999999999993
299.9999999999992
299.9999999999991
299.9999999999991
299.9999999999991
299.9999999999992
299.9999999999993
299.9999999999993
299.9999999999993
299.9999999999993
299.9999999999991
299.9999999999991
299.9999999999991
299.9999999999992
299.9999999999994
299.9999999999994
299.9999999999995
299.9999999999994
299.9999999999995
299.9999999999995
299.9999999999994
299.9999999999994
299.9999999999993
299.9999999999991
299.999999999999
299.9999999999989
299.9999999999989
299.999999999999
299.999999999999
299.999999999999
299.9999999999989
299.9999999999989
299.999999999999
299.999999999999
299.9999999999991
299.9999999999991
299.999999999999
299.999999999999
299.999999999999
299.9999999999989
299.999999999999
299.9999999999992
299.9999999999993
299.9999999999993
299.9999999999993
299.9999999999993
299.9999999999993
299.999999999999
299.999999999999
299.9999999999989
299.999999999999
299.999999999999
299.9999999999991
299.999999999999
299.9999999999991
299.9999999999991
299.999999999999
299.9999999999991
299.9999999999991
299.9999999999992
299.9999999999993
299.9999999999992
299.9999999999991
299.999999999999
299.999999999999
299.999999999999
299.999999999999
299.9999999999989
299.9999999999989
299.9999999999988
299.9999999999989
299.9999999999989
299.9999999999988
299.9999999999987
299.9999999999987
299.9999999999987
299.9999999999987
299.9999999999989
299.9999999999989
299.999999999999
299.9999999999991
299.999999999999
299.9999999999991
299.9999999999992
299.9999999999991
299.9999999999992
299.9999999999993
299.9999999999992
299.9999999999991
299.9999999999991
299.9999999999991
299.9999999999994
299.9999999999995
299.9999999999996
299.9999999999995
299.9999999999996
299.9999999999996
299.9999999999995
299.9999999999995
299.9999999999993
299.9999999999993
299.9999999999993
299.9999999999993
299.9999999999993
299.9999999999992
299.999999999999
299.999999999999
299.999999999999
299.999999999999
299.9999999999991
299.999999999999
299.9999999999991
299.9999999999991
299.9999999999991
299.9999999999991
299.999999999999
299.9999999999991
299.9999999999991
299.9999999999991
299.9999999999991
299.9999999999993
299.9999999999992
299.9999999999993
299.9999999999993
299.9999999999992
299.9999999999992
299.9999999999992
299.9999999999991
299.999999999999
299.999999999999
299.999999999999
299.999999999999
299.999999999999
299.9999999999989
299.9999999999989
299.9999999999989
299.999999999999
299.999999999999
299.9999999999991
299.9999999999991
299.9999999999991
299.9999999999991
299.9999999999991
299.9999999999991
299.9999999999991
299.999999999999
299.999999999999
299.999999999999
299.999999999999
299.999999999999
299.9999999999991
299.9999999999992
299.9999999999993
299.9999999999992
299.9999999999991
299.9999999999991
299.9999999999991
299.9999999999992
299.9999999999992
299.9999999999991
299.999999999999
299.9999999999991
299.9999999999992
299.9999999999993
299.9999999999993
299.9999999999992
299.9999999999992
299.9999999999992
299.9999999999993
299.9999999999993
299.9999999999993
299.9999999999993
299.9999999999993
299.9999999999993
299.9999999999993
299.9999999999994
299.9999999999993
299.9999999999994
299.9999999999995
299.9999999999995
299.9999999999994
299.9999999999994
299.9999999999994
299.9999999999993
299.9999999999991
299.999999999999
299.9999999999991
299.9999999999991
299.9999999999991
299.9999999999993
299.9999999999993
299.9999999999992
299.9999999999991
299.999999999999
299.999999999999
299.999999999999
299.9999999999991
299.9999999999991
299.9999999999991
299.9999999999992
299.9999999999992
299.9999999999993
299.9999999999994
299.9999999999993
299.9999999999992
299.9999999999991
299.9999999999991
299.9999999999992
299.9999999999992
299.9999999999993
299.9999999999992
299.9999999999992
299.9999999999992
299.9999999999991
299.999999999999
299.999999999999
299.9999999999991
299.999999999999
299.999999999999
299.999999999999
299.9999999999989
299.9999999999989
299.9999999999989
299.9999999999989
299.999999999999
299.9999999999991
299.9999999999989
299.9999999999989
299.9999999999989
299.9999999999989
299.9999999999988
299.9999999999989
299.999999999999
299.9999999999991
299.999999999999
299.9999999999991
299.9999999999991
299.999999999999
299.999999999999
299.999999999999
299.9999999999991
299.999999999999
299.999999999999
299.999999999999
299.9999999999987
299.9999999999986
299.9999999999987
299.9999999999986
299.9999999999986
299.9999999999985
299.9999999999985
299.9999999999985
299.9999999999985
299.9999999999984
299.9999999999984
299.9999999999984
299.9999999999984
299.9999999999984
299.9999999999983
299.9999999999982
299.9999999999982
299.9999999999981
299.999999999998
299.9999999999981
299.9999999999981
299.9999999999981
299.9999999999979
299.9999999999978
299.9999999999977
299.9999999999976
299.9999999999976
299.9999999999974
299.9999999999974
299.9999999999973
299.9999999999973
299.9999999999971
299.999999999997
299.9999999999968
299.9999999999966
299.9999999999966
299.9999999999966
299.9999999999966
299.9999999999966
299.9999999999965
299.9999999999963
299.999999999996
299.9999999999957
299.9999999999954
299.9999999999953
299.9999999999952
299.9999999999953
299.9999999999953
299.9999999999953
299.9999999999952
299.9999999999951
299.9999999999951
299.9999999999952
299.9999999999951
299.9999999999949
299.9999999999948
299.9999999999948
299.9999999999948
299.9999999999948
299.9999999999948
299.9999999999947
299.9999999999947
299.9999999999945
299.9999999999944
299.9999999999945
299.9999999999945
299.9999999999945
299.9999999999945
299.9999999999945
299.9999999999945
299.9999999999945
299.9999999999945
299.9999999999944
299.9999999999945
299.9999999999944
299.9999999999945
299.9999999999945
299.9999999999944
299.9999999999944
299.9999999999944
299.9999999999945
299.9999999999947
299.9999999999947
299.9999999999945
299.9999999999945
299.9999999999945
299.9999999999945
299.9999999999945
299.9999999999945
299.9999999999946
299.9999999999946
299.9999999999946
299.9999999999945
299.9999999999945
299.9999999999945
299.9999999999946
299.9999999999945
299.9999999999944
299.9999999999944
299.9999999999943
299.9999999999941
299.9999999999941
299.9999999999942
299.9999999999941
299.999999999994
299.9999999999939
299.9999999999939
299.999999999994
299.9999999999939
299.9999999999936
299.9999999999935
299.9999999999935
299.9999999999934
299.9999999999933
299.9999999999932
299.9999999999931
299.9999999999928
299.9999999999924
299.9999999999923
299.9999999999921
299.9999999999917
299.9999999999915
299.9999999999914
299.9999999999912
299.9999999999911
299.999999999991
299.9999999999908
299.9999999999905
299.9999999999903
299.9999999999901
299.9999999999899
299.9999999999897
299.9999999999895
299.9999999999894
299.9999999999893
299.9999999999891
299.9999999999889
299.9999999999887
299.9999999999883
299.9999999999882
299.9999999999881
299.9999999999878
299.9999999999876
299.9999999999876
299.9999999999875
299.9999999999872
299.9999999999871
299.999999999987
299.999999999987
299.999999999987
299.999999999987
299.9999999999868
299.9999999999865
299.9999999999862
299.999999999986
299.9999999999858
299.9999999999857
299.9999999999856
299.9999999999856
299.9999999999854
299.9999999999852
299.999999999985
299.9999999999848
299.9999999999846
299.9999999999843
299.9999999999843
299.9999999999842
299.9999999999842
299.9999999999841
299.999999999984
299.9999999999837
299.9999999999835
299.9999999999832
299.9999999999829
299.9999999999827
299.9999999999824
299.9999999999823
299.9999999999819
299.9999999999818
299.9999999999816
)
;

boundaryField
{
    inlet
    {
        type            fixedValue;
        value           uniform 300;
    }
    outlet
    {
        type            temperatureOutletNSCBC;
        pInf            101325;
        gamma           1.4;
        etaAc           1;
        fieldInf        1;
        lInf            2.25;
        value           uniform 299.9999999999852;
    }
    frontAndBack
    {
        type            empty;
    }
}


// ************************************************************************* //
