/*--------------------------------*- C++ -*----------------------------------*\
| =========                 |                                                 |
| \\      /  F ield         | OpenFOAM: The Open Source CFD Toolbox           |
|  \\    /   O peration     | Version:  v2012                                 |
|   \\  /    A nd           | Website:  www.openfoam.com                      |
|    \\/     M anipulation  |                                                 |
\*---------------------------------------------------------------------------*/
FoamFile
{
    version     2.0;
    format      ascii;
    class       volVectorField;
    location    "0.0025";
    object      U;
}
// * * * * * * * * * * * * * * * * * * * * * * * * * * * * * * * * * * * * * //

dimensions      [0 1 -1 0 0 0 0];


internalField   nonuniform List<vector> 
1000
(
(0.002902254864582486 0 0)
(0.03440618836399352 0 0)
(0.04253291488667629 0 0)
(0.05763060452119938 0 0)
(0.07150857929480514 0 0)
(0.08450027257310748 0 0)
(0.09560878771717639 0 0)
(0.1050879411349332 0 0)
(0.1131918137524933 0 0)
(0.1186271071207399 0 0)
(0.1200610374185719 0 0)
(0.1199018811339683 0 0)
(0.1191208545829011 0 0)
(0.1166423553724098 0 0)
(0.1118546926159532 0 0)
(0.1045384345090465 0 0)
(0.09496754764443224 0 0)
(0.08358296036653877 0 0)
(0.07075521310676218 0 0)
(0.05673059588331197 0 0)
(0.04169959861659656 0 0)
(0.0258764562487222 0 0)
(0.009532582701347695 0 0)
(-0.007019381371906645 0 0)
(-0.02345513716185642 0 0)
(-0.03944960976484033 0 0)
(-0.05469557030862664 0 0)
(-0.06898544967122264 0 0)
(-0.08230831826159095 0 0)
(-0.09474608123738287 0 0)
(-0.1059124929064574 0 0)
(-0.1141292233038816 0 0)
(-0.1175500718125587 0 0)
(-0.1179103602044598 0 0)
(-0.1178192211065649 0 0)
(-0.1170923313558863 0 0)
(-0.1152568072266446 0 0)
(-0.1116403767997716 0 0)
(-0.1057636094317349 0 0)
(-0.09740555851368989 0 0)
(-0.08668047676099609 0 0)
(-0.07396965357136376 0 0)
(-0.05977277488189182 0 0)
(-0.04456020796404424 0 0)
(-0.02869554818436417 0 0)
(-0.01244435083309614 0 0)
(0.003963024566414722 0 0)
(0.02027571740281689 0 0)
(0.03623039485443508 0 0)
(0.05162323139103737 0 0)
(0.06637450609542882 0 0)
(0.08048945807567867 0 0)
(0.09381613336666512 0 0)
(0.1054758674653489 0 0)
(0.1133773375059071 0 0)
(0.1162179410449675 0 0)
(0.1164592701160741 0 0)
(0.11629883031615 0 0)
(0.1157299931229342 0 0)
(0.1141938700690198 0 0)
(0.1112081358949587 0 0)
(0.1062816305522368 0 0)
(0.0990681016919379 0 0)
(0.08944165042478829 0 0)
(0.07753845221975172 0 0)
(0.06372141585788285 0 0)
(0.04848396941456398 0 0)
(0.03234013611890117 0 0)
(0.01574463662200848 0 0)
(-0.0009439862035485976 0 0)
(-0.01746703570706259 0 0)
(-0.03365204401659239 0 0)
(-0.04940116134790667 0 0)
(-0.06468627141237246 0 0)
(-0.07948472711808142 0 0)
(-0.09348082811409529 0 0)
(-0.1054031905537492 0 0)
(-0.1128537536538042 0 0)
(-0.1151307104224919 0 0)
(-0.1152532405413204 0 0)
(-0.1151566004445076 0 0)
(-0.1145855459264599 0 0)
(-0.113198586588807 0 0)
(-0.1105131900707188 0 0)
(-0.1060932607093358 0 0)
(-0.0995819495139252 0 0)
(-0.09077879766059302 0 0)
(-0.07968745233631155 0 0)
(-0.06652998752643709 0 0)
(-0.05171223871807298 0 0)
(-0.03574368453715649 0 0)
(-0.01914073161398832 0 0)
(-0.002349874836233633 0 0)
(0.01429588405278254 0 0)
(0.0305989436300924 0 0)
(0.04650047046224923 0 0)
(0.06203637773084972 0 0)
(0.07719349297664674 0 0)
(0.09158077889199508 0 0)
(0.1038427979572785 0 0)
(0.1115679009051116 0 0)
(0.1140316544343841 0 0)
(0.1142090008054887 0 0)
(0.1140887178132561 0 0)
(0.1136467955728255 0 0)
(0.11246733186402 0 0)
(0.110165489383056 0 0)
(0.106321404126264 0 0)
(0.1005672953344682 0 0)
(0.09263911277224859 0 0)
(0.08243297727150105 0 0)
(0.07003765437830502 0 0)
(0.05573346390033971 0 0)
(0.03995601023534657 0 0)
(0.02322742967783247 0 0)
(0.006064432906406738 0 0)
(-0.01111201307198903 0 0)
(-0.0280326749464903 0 0)
(-0.04458420138706446 0 0)
(-0.06075731135841776 0 0)
(-0.07649674075813449 0 0)
(-0.09132154522402215 0 0)
(-0.103670214646052 0 0)
(-0.1110402243984151 0 0)
(-0.1131572910239508 0 0)
(-0.1132688469121421 0 0)
(-0.1131907576018307 0 0)
(-0.1127383111063214 0 0)
(-0.1116294525640971 0 0)
(-0.1094709085503245 0 0)
(-0.1058849892429242 0 0)
(-0.1005253153834521 0 0)
(-0.09312857927053274 0 0)
(-0.08355788286916715 0 0)
(-0.07183969563125978 0 0)
(-0.05817823464264798 0 0)
(-0.04293460649198712 0 0)
(-0.02657277220143951 0 0)
(-0.009586553596281454 0 0)
(0.007579552913899575 0 0)
(0.02460333749992575 0 0)
(0.04132414477614756 0 0)
(0.05770537340602556 0 0)
(0.07367375918625538 0 0)
(0.08876564544778313 0 0)
(0.1015412442195298 0 0)
(0.1095666995310572 0 0)
(0.1121787568272629 0 0)
(0.1123944366335157 0 0)
(0.1123050182234396 0 0)
(0.1119690107154674 0 0)
(0.1110413404700981 0 0)
(0.1091981827642971 0 0)
(0.1060718065174309 0 0)
(0.1013155472536321 0 0)
(0.09463791869533034 0 0)
(0.08584737560521098 0 0)
(0.07488856079059365 0 0)
(0.06186478401339879 0 0)
(0.04704093628015169 0 0)
(0.03081758385926288 0 0)
(0.01366992605997146 0 0)
(-0.003936561562593608 0 0)
(-0.02162411561481207 0 0)
(-0.03914450732743822 0 0)
(-0.05635722538779582 0 0)
(-0.07308480264591775 0 0)
(-0.08872389069927931 0 0)
(-0.1016108884347286 0 0)
(-0.1092475462105989 0 0)
(-0.1114738237113704 0 0)
(-0.1116122104424729 0 0)
(-0.1115536466689858 0 0)
(-0.1111948692167984 0 0)
(-0.1102945957439311 0 0)
(-0.1085172440504934 0 0)
(-0.1055300978531866 0 0)
(-0.1010099383075608 0 0)
(-0.09468146356673053 0 0)
(-0.08635187982531177 0 0)
(-0.0759462145181088 0 0)
(-0.06353170666089428 0 0)
(-0.04932076069038382 0 0)
(-0.03364987890310919 0 0)
(-0.01693730007607895 0 0)
(0.000379471258111606 0 0)
(0.01791856454228374 0 0)
(0.03541115094188571 0 0)
(0.05269238750487738 0 0)
(0.06957115042741012 0 0)
(0.08549936154352944 0 0)
(0.09899819066531358 0 0)
(0.1076086465487148 0 0)
(0.1105530879085077 0 0)
(0.1108368212154338 0 0)
(0.1107744415940645 0 0)
(0.110522877451497 0 0)
(0.1097868633143404 0 0)
(0.1082865863998019 0 0)
(0.105696255824246 0 0)
(0.1016960905494914 0 0)
(0.0959951305328564 0 0)
(0.08836582960243376 0 0)
(0.07867550430283514 0 0)
(0.06691288368667021 0 0)
(0.05320517373502784 0 0)
(0.03781554444655056 0 0)
(0.02111122210524414 0 0)
(0.003506015698635484 0 0)
(-0.01460437346161453 0 0)
(-0.03289157577773281 0 0)
(-0.0510953454536798 0 0)
(-0.06890129564761859 0 0)
(-0.08556510764748217 0 0)
(-0.09929335028606114 0 0)
(-0.1074974677424038 0 0)
(-0.1099835855721427 0 0)
(-0.1101711090306724 0 0)
(-0.1101293460387047 0 0)
(-0.1098449429459041 0 0)
(-0.1091104017318471 0 0)
(-0.1076303613803213 0 0)
(-0.1051075081280258 0 0)
(-0.101242697211423 0 0)
(-0.09576512385397674 0 0)
(-0.0884591837969952 0 0)
(-0.07919443906977397 0 0)
(-0.06795009475852325 0 0)
(-0.05482647040575835 0 0)
(-0.0400414093527627 0 0)
(-0.02391068400967076 0 0)
(-0.006807333586136528 0 0)
(0.0108984194235383 0 0)
(0.02889391342601956 0 0)
(0.04692810769290594 0 0)
(0.06470818651957344 0 0)
(0.08159964610001996 0 0)
(0.09606879675600739 0 0)
(0.1055670630653795 0 0)
(0.1090546323640958 0 0)
(0.109462631999831 0 0)
(0.1094190857342365 0 0)
(0.1092332482900263 0 0)
(0.1086478393702082 0 0)
(0.1074190398315293 0 0)
(0.1052529377716055 0 0)
(0.1018546016285109 0 0)
(0.09694282813267299 0 0)
(0.09027728084832029 0 0)
(0.08168370421413447 0 0)
(0.0710783655381176 0 0)
(0.05848883277581714 0 0)
(0.04406241902305347 0 0)
(0.02805297325059364 0 0)
(0.01078673799116324 0 0)
(-0.007381999907957853 0 0)
(-0.02611095429287102 0 0)
(-0.04507575148368666 0 0)
(-0.0638645545667174 0 0)
(-0.08162649397999661 0 0)
(-0.09646524586812077 0 0)
(-0.1056200989350835 0 0)
(-0.1086065144536419 0 0)
(-0.1088852775462838 0 0)
(-0.1088592326435727 0 0)
(-0.108636812675993 0 0)
(-0.1080373335484566 0 0)
(-0.1067962120040861 0 0)
(-0.1046465676633905 0 0)
(-0.1013126752837666 0 0)
(-0.0965342287518282 0 0)
(-0.09008751557459946 0 0)
(-0.08181049994446075 0 0)
(-0.07162504001602162 0 0)
(-0.05955117754136727 0 0)
(-0.04571217920195463 0 0)
(-0.03032797640409068 0 0)
(-0.01369044029539905 0 0)
(0.003879639551617979 0 0)
(0.022074803989165 0 0)
(0.04060653377922093 0 0)
(0.05912306509691784 0 0)
(0.07694568877880743 0 0)
(0.09253369888529513 0 0)
(0.1032453381789487 0 0)
(0.1075834857284976 0 0)
(0.1082146502065814 0 0)
(0.1081913083486215 0 0)
(0.1080588113676902 0 0)
(0.1075957828048074 0 0)
(0.1065872689423459 0 0)
(0.1047665171361231 0 0)
(0.1018615898417696 0 0)
(0.09760438339998261 0 0)
(0.09175215490445768 0 0)
(0.08410779309353246 0 0)
(0.07454130073844395 0 0)
(0.06301042679653915 0 0)
(0.04957308889582735 0 0)
(0.03438436188347146 0 0)
(0.01767893224044928 0 0)
(-0.0002547767974994661 0 0)
(-0.0191016873349138 0 0)
(-0.0385242951931483 0 0)
(-0.05807064244611999 0 0)
(-0.07685288788315632 0 0)
(-0.0929522910478064 0 0)
(-0.1034279027187897 0 0)
(-0.1072377869941278 0 0)
(-0.107693480328308 0 0)
(-0.1076840460954863 0 0)
(-0.1075164412965685 0 0)
(-0.1070363710515801 0 0)
(-0.1060005770486743 0 0)
(-0.1041658061817271 0 0)
(-0.1012761341321318 0 0)
(-0.09708408801931867 0 0)
(-0.09136688553345179 0 0)
(-0.08394630432116762 0 0)
(-0.07470742233970483 0 0)
(-0.06361342875475386 0 0)
(-0.05071487093285038 0 0)
(-0.03615008748253158 0 0)
(-0.02013144386191782 0 0)
(-0.002917484421672757 0 0)
(0.01521600720924267 0 0)
(0.03398029230895375 0 0)
(0.05300799726920411 0 0)
(0.07162308122164419 0 0)
(0.08833291611547268 0 0)
(0.1004507977168205 0 0)
(0.1059309426462804 0 0)
(0.1069245602208254 0 0)
(0.1069305585586053 0 0)
(0.1068400885959307 0 0)
(0.1064782688231331 0 0)
(0.1056485180380192 0 0)
(0.1041075933734879 0 0)
(0.1016063454282303 0 0)
(0.09789906443472424 0 0)
(0.09276324255953851 0 0)
(0.08602199153122411 0 0)
(0.07757073976020964 0 0)
(0.0674085271349924 0 0)
(0.05567825847783446 0 0)
(0.04273264807917672 0 0)
(0.02926929717625523 0 0)
(0.0165846982564486 0 0)
(0.006737057447750478 0 0)
(0.001530241439353107 0 0)
(0.0001355424766587409 0 0)
(3.068454231690491e-06 0 0)
(1.169731461988005e-08 0 0)
(5.526435651013518e-12 0 0)
(4.699646065429514e-13 0 0)
(6.0921337885198e-13 0 0)
(7.919773925075234e-13 0 0)
(8.703048269314356e-13 0 0)
(8.703048269313956e-13 0 0)
(9.660383578939102e-13 0 0)
(1.053068840586999e-12 0 0)
(9.834444544324167e-13 0 0)
(8.703048269314377e-13 0 0)
(8.006804407768977e-13 0 0)
(7.049469098144436e-13 0 0)
(8.093834890462249e-13 0 0)
(9.225231165473256e-13 0 0)
(9.051170200087434e-13 0 0)
(7.571651994303437e-13 0 0)
(5.91807282313329e-13 0 0)
(5.221828961588741e-13 0 0)
(7.484621511610169e-13 0 0)
(9.138200682779201e-13 0 0)
(1.035662744048388e-12 0 0)
(1.026959695779128e-12 0 0)
(8.616017786621397e-13 0 0)
(6.87540813275818e-13 0 0)
(5.831042340440147e-13 0 0)
(5.134798478895455e-13 0 0)
(5.918072823134036e-13 0 0)
(6.092133788519505e-13 0 0)
(4.960737513509161e-13 0 0)
(4.177463169271083e-13 0 0)
(4.090432686577716e-13 0 0)
(4.612615582736526e-13 0 0)
(4.61261558273623e-13 0 0)
(4.699646065429515e-13 0 0)
(4.699646065429554e-13 0 0)
(3.829341238498045e-13 0 0)
(2.349823032714861e-13 0 0)
(2.610914480794498e-13 0 0)
(2.697944963487467e-13 0 0)
(1.827640136556191e-13 0 0)
(2.610914480794761e-14 0 0)
(-8.854554238711477e-27 0 0)
(1.305457240397189e-13 0 0)
(6.962438615451304e-14 0 0)
(8.703048269317188e-15 0 0)
(-2.597232845226553e-27 0 0)
(-5.221828961589709e-14 0 0)
(-1.740609653863275e-13 0 0)
(-2.697944963487621e-13 0 0)
(-2.523883998101554e-13 0 0)
(-2.610914480794792e-13 0 0)
(-1.827640136555964e-13 0 0)
(-2.784975446180829e-13 0 0)
(-2.87200592887413e-13 0 0)
(-2.872005928874033e-13 0 0)
(-1.827640136556304e-13 0 0)
(-2.872005928874141e-13 0 0)
(-2.697944963487575e-13 0 0)
(-2.262792550021682e-13 0 0)
(-2.001701101941925e-13 0 0)
(-1.740609653862827e-13 0 0)
(-3.742310755804591e-13 0 0)
(-4.177463169270524e-13 0 0)
(-4.699646065429362e-13 0 0)
(-4.525585100043214e-13 0 0)
(-5.395889926974229e-13 0 0)
(-6.092133788519703e-13 0 0)
(-5.221828961588337e-13 0 0)
(-5.656981375054606e-13 0 0)
(-5.831042340440496e-13 0 0)
(-4.699646065429446e-13 0 0)
(-3.829341238498159e-13 0 0)
(-3.307158342339409e-13 0 0)
(-2.436853515407668e-13 0 0)
(-2.610914480794044e-13 0 0)
(-2.610914480793991e-13 0 0)
(-2.610914480794418e-13 0 0)
(-2.61091448079414e-13 0 0)
(-3.655280273111928e-13 0 0)
(-4.960737513509063e-13 0 0)
(-5.656981375054339e-13 0 0)
(-5.134798478895517e-13 0 0)
(-4.786676548122784e-13 0 0)
(-6.179164271213046e-13 0 0)
(-7.571651994304269e-13 0 0)
(-7.049469098144573e-13 0 0)
(-8.354926338541668e-13 0 0)
(-7.919773925076273e-13 0 0)
(-8.528987303928202e-13 0 0)
(-8.703048269314568e-13 0 0)
(-7.223530063531019e-13 0 0)
(-6.875408132757853e-13 0 0)
(-6.788377650065655e-13 0 0)
(-6.00510330582663e-13 0 0)
(-6.266194753906227e-13 0 0)
(-5.831042340440165e-13 0 0)
(-5.918072823133914e-13 0 0)
(-7.223530063530812e-13 0 0)
(-8.180865373155526e-13 0 0)
(-8.267895855848304e-13 0 0)
(-6.962438615452171e-13 0 0)
(-6.179164271212985e-13 0 0)
(-6.788377650065059e-13 0 0)
(-5.569950892361369e-13 0 0)
(-5.134798478895878e-13 0 0)
(-4.699646065429825e-13 0 0)
(-4.873707030816019e-13 0 0)
(-4.873707030816084e-13 0 0)
(-3.394188825033041e-13 0 0)
(-3.829341238498414e-13 0 0)
(-4.00340220388472e-13 0 0)
(-4.090432686577901e-13 0 0)
(-2.436853515408195e-13 0 0)
(-1.305457240397079e-13 0 0)
(1.740609653863543e-14 0 0)
(4.351524134658785e-14 0 0)
(5.221828961590249e-14 0 0)
(8.703048269315867e-14 0 0)
(1.566548688476755e-13 0 0)
(2.262792550021905e-13 0 0)
(2.175762067328618e-13 0 0)
(1.827640136556306e-13 0 0)
(2.78497544618093e-13 0 0)
(3.394188825032951e-13 0 0)
(3.568249790419209e-13 0 0)
(3.916371721191449e-13 0 0)
(4.525585100043789e-13 0 0)
(3.481219307725879e-13 0 0)
(2.349823032714687e-13 0 0)
(2.175762067328677e-13 0 0)
(1.131396275010881e-13 0 0)
(-3.48121930772477e-14 0 0)
(-6.962438615450981e-14 0 0)
(-1.479518205783244e-13 0 0)
(-2.697944963487438e-13 0 0)
(-3.133097376953374e-13 0 0)
(-4.264493651963963e-13 0 0)
(-5.831042340440765e-13 0 0)
(-7.310560546224123e-13 0 0)
(-7.223530063530957e-13 0 0)
(-6.875408132758635e-13 0 0)
(-7.136499580837421e-13 0 0)
(-5.744011857747638e-13 0 0)
(-3.655280273112303e-13 0 0)
(-3.133097376953228e-13 0 0)
(-2.001701101942737e-13 0 0)
(-1.653579171170143e-13 0 0)
(-5.221828961591918e-14 0 0)
(1.21842675770359e-13 0 0)
(1.914670619248543e-13 0 0)
(3.307158342339291e-13 0 0)
(4.003402203884645e-13 0 0)
(2.784975446180477e-13 0 0)
(3.481219307725672e-13 0 0)
(3.829341238498307e-13 0 0)
(2.523883998101211e-13 0 0)
(1.740609653862989e-13 0 0)
(5.221828961590052e-14 0 0)
(2.663129898814972e-26 0 0)
(-2.610914480794078e-14 0 0)
(-3.481219307727399e-14 0 0)
(-2.00170110194264e-13 0 0)
(-3.742310755805487e-13 0 0)
(-3.655280273112379e-13 0 0)
(-2.872005928874272e-13 0 0)
(-3.481219307726019e-13 0 0)
(-3.829341238498763e-13 0 0)
(-1.827640136556282e-13 0 0)
(-6.962438615452839e-14 0 0)
(-1.305457240397128e-13 0 0)
(-1.218426757703932e-13 0 0)
(-1.5665486884765e-13 0 0)
(-1.740609653862602e-13 0 0)
(-1.305457240396583e-13 0 0)
(2.610914480800941e-14 0 0)
(2.349823032715448e-13 0 0)
(2.697944963487588e-13 0 0)
(1.914670619249444e-13 0 0)
(1.305457240397317e-13 0 0)
(6.962438615452883e-14 0 0)
(1.131396275010987e-13 0 0)
(1.566548688476705e-13 0 0)
(9.573353096247849e-14 0 0)
(4.351524134660014e-14 0 0)
(-1.827640136555626e-13 0 0)
(-1.392487723090058e-13 0 0)
(4.351524134658426e-14 0 0)
(1.39248772309054e-13 0 0)
(2.088731584635584e-13 0 0)
(1.218426757704064e-13 0 0)
(1.827640136556269e-13 0 0)
(2.175762067328826e-13 0 0)
(3.220127859646054e-13 0 0)
(3.916371721191378e-13 0 0)
(5.744011857747592e-13 0 0)
(6.875408132758283e-13 0 0)
(6.092133788520094e-13 0 0)
(4.612615582736018e-13 0 0)
(2.872005928873651e-13 0 0)
(1.653579171169764e-13 0 0)
(2.610914480793954e-14 0 0)
(-2.610914480794146e-14 0 0)
(2.523883998101167e-13 0 0)
(3.568249790419015e-13 0 0)
(4.177463169271003e-13 0 0)
(5.221828961588088e-13 0 0)
(5.744011857747297e-13 0 0)
(5.656981375054179e-13 0 0)
(4.786676548122452e-13 0 0)
(5.656981375054818e-13 0 0)
(5.395889926974369e-13 0 0)
(4.090432686577499e-13 0 0)
(2.001701101942231e-13 0 0)
(9.573353096245003e-14 0 0)
(9.778272467892061e-27 0 0)
(2.436853515408137e-13 0 0)
(3.133097376953224e-13 0 0)
(2.262792550021523e-13 0 0)
(1.218426757703805e-13 0 0)
(-4.35152413466001e-14 0 0)
(-8.703048269318461e-14 0 0)
(-2.349823032715034e-13 0 0)
(-2.87200592887422e-13 0 0)
(-2.262792550022209e-13 0 0)
(-2.001701101942854e-13 0 0)
(-2.088731584635853e-13 0 0)
(-4.525585100043261e-13 0 0)
(-4.090432686578244e-13 0 0)
(-4.177463169271163e-13 0 0)
(-4.177463169270592e-13 0 0)
(-5.656981375054184e-13 0 0)
(-5.569950892361195e-13 0 0)
(-4.786676548122811e-13 0 0)
(-3.829341238498332e-13 0 0)
(-3.742310755804741e-13 0 0)
(-4.960737513509131e-13 0 0)
(-4.003402203884381e-13 0 0)
(-3.829341238497663e-13 0 0)
(-3.916371721191038e-13 0 0)
(-3.742310755804809e-13 0 0)
(-3.046066894259374e-13 0 0)
(-2.349823032714295e-13 0 0)
(-1.305457240396293e-13 0 0)
(6.747394495828386e-26 0 0)
(1.218426757704533e-13 0 0)
(1.653579171170097e-13 0 0)
(4.351524134662544e-14 0 0)
(1.653579171170359e-13 0 0)
(2.175762067328867e-13 0 0)
(2.959036411567167e-13 0 0)
(2.088731584635479e-13 0 0)
(6.962438615452618e-14 0 0)
(1.914670619249226e-13 0 0)
(2.43685351540775e-13 0 0)
(2.610914480794609e-13 0 0)
(2.349823032715156e-13 0 0)
(2.959036411567143e-13 0 0)
(2.610914480794326e-13 0 0)
(1.566548688476422e-13 0 0)
(6.962438615450917e-14 0 0)
(-6.962438615451293e-14 0 0)
(-3.481219307726755e-14 0 0)
(-1.653579171169952e-13 0 0)
(-2.523883998101346e-13 0 0)
(-1.47951820578355e-13 0 0)
(-2.175762067328472e-13 0 0)
(-1.740609653862613e-13 0 0)
(-1.305457240397065e-13 0 0)
(-1.566548688476354e-13 0 0)
(-2.784975446180314e-13 0 0)
(-2.175762067328656e-13 0 0)
(-1.914670619249276e-13 0 0)
(-2.523883998101325e-13 0 0)
(-4.438554617350299e-13 0 0)
(-4.873707030815607e-13 0 0)
(-4.177463169270882e-13 0 0)
(-3.916371721191672e-13 0 0)
(-5.656981375053862e-13 0 0)
(-4.960737513509054e-13 0 0)
(-4.69964606542995e-13 0 0)
(-4.525585100043496e-13 0 0)
(-4.264493651964312e-13 0 0)
(-5.221828961588415e-13 0 0)
(-6.701347167372107e-13 0 0)
(-7.223530063531064e-13 0 0)
(-8.877109234700132e-13 0 0)
(-8.180865373155187e-13 0 0)
(-8.093834890462516e-13 0 0)
(-9.834444544324956e-13 0 0)
(-9.747414061632365e-13 0 0)
(-8.703048269313913e-13 0 0)
(-7.223530063530941e-13 0 0)
(-5.918072823133836e-13 0 0)
(-3.046066894259502e-13 0 0)
(-2.349823032714622e-13 0 0)
(2.337509560704245e-26 0 0)
(1.914670619249506e-13 0 0)
(3.65528027311247e-13 0 0)
(4.26449365196365e-13 0 0)
(6.701347167372476e-13 0 0)
(9.486322613552544e-13 0 0)
(1.06177188885628e-12 0 0)
(9.83444454432537e-13 0 0)
(1.105287130202933e-12 0 0)
(1.061771888856426e-12 0 0)
(1.018256647509781e-12 0 0)
(1.113990178472199e-12 0 0)
(1.113990178472255e-12 0 0)
(1.044365792317766e-12 0 0)
(9.834444544324815e-13 0 0)
(8.267895855849463e-13 0 0)
(7.397591028917636e-13 0 0)
(6.440255719293378e-13 0 0)
(6.092133788520405e-13 0 0)
(6.440255719292302e-13 0 0)
(5.74401185774798e-13 0 0)
(6.092133788520556e-13 0 0)
(6.092133788520107e-13 0 0)
(7.136499580838385e-13 0 0)
(6.527286201986687e-13 0 0)
(7.745712959690216e-13 0 0)
(9.225231165474052e-13 0 0)
(1.070474937125635e-12 0 0)
(1.061771888856371e-12 0 0)
(1.096584081933686e-12 0 0)
(1.079177985394933e-12 0 0)
(1.026959695779097e-12 0 0)
(9.225231165473305e-13 0 0)
(8.790078752007544e-13 0 0)
(9.138200682780606e-13 0 0)
(9.051170200086521e-13 0 0)
(8.441956821235458e-13 0 0)
(9.051170200086975e-13 0 0)
(8.267895855848296e-13 0 0)
(8.616017786622414e-13 0 0)
(8.616017786620908e-13 0 0)
(7.049469098144887e-13 0 0)
(6.52728620198637e-13 0 0)
(5.918072823133966e-13 0 0)
(6.266194753907061e-13 0 0)
(6.614316684679145e-13 0 0)
(6.005103305827283e-13 0 0)
(5.56995089236128e-13 0 0)
(6.179164271212765e-13 0 0)
(6.614316684678977e-13 0 0)
(7.484621511609871e-13 0 0)
(7.31056054622336e-13 0 0)
(7.745712959689615e-13 0 0)
(8.267895855848128e-13 0 0)
(8.354926338541423e-13 0 0)
(8.093834890462066e-13 0 0)
(8.267895855847548e-13 0 0)
(7.832743442383059e-13 0 0)
(7.65868247699629e-13 0 0)
(8.528987303927307e-13 0 0)
(6.701347167371867e-13 0 0)
(6.962438615451289e-13 0 0)
(5.56995089236113e-13 0 0)
(4.438554617350475e-13 0 0)
(4.525585100043343e-13 0 0)
(5.308859444281764e-13 0 0)
(6.092133788520135e-13 0 0)
(4.873707030815427e-13 0 0)
(5.656981375054329e-13 0 0)
(6.353225236599605e-13 0 0)
(6.179164271213372e-13 0 0)
(5.831042340440889e-13 0 0)
(5.744011857747214e-13 0 0)
(4.699646065430329e-13 0 0)
(4.177463169271366e-13 0 0)
(4.177463169271202e-13 0 0)
(4.873707030816639e-13 0 0)
(5.134798478896146e-13 0 0)
(4.786676548123422e-13 0 0)
(4.177463169271351e-13 0 0)
(4.960737513509451e-13 0 0)
(5.308859444281989e-13 0 0)
(4.525585100044148e-13 0 0)
(4.525585100043567e-13 0 0)
(4.873707030816649e-13 0 0)
(3.916371721191821e-13 0 0)
(4.438554617350645e-13 0 0)
(5.221828961589033e-13 0 0)
(5.13479847889523e-13 0 0)
(4.351524134657575e-13 0 0)
(4.09043268657769e-13 0 0)
(4.873707030815802e-13 0 0)
(5.65698137505433e-13 0 0)
(5.918072823133604e-13 0 0)
(4.960737513509341e-13 0 0)
(4.264493651964033e-13 0 0)
(3.220127859646025e-13 0 0)
(2.175762067328316e-13 0 0)
(6.962438615449054e-14 0 0)
(-1.044365792317937e-13 0 0)
(-6.092133788522986e-14 0 0)
(-2.610914480794487e-13 0 0)
(-1.740609653863046e-13 0 0)
(-6.9624386154543e-14 0 0)
(-1.131396275011068e-13 0 0)
(-1.392487723090695e-13 0 0)
(-2.349823032715121e-13 0 0)
(-2.001701101942464e-13 0 0)
(-1.740609653863142e-13 0 0)
(-1.827640136556355e-13 0 0)
(-3.742310755805449e-13 0 0)
(-4.177463169271272e-13 0 0)
(-6.005103305827192e-13 0 0)
(-5.74401185774773e-13 0 0)
(-7.310560546225292e-13 0 0)
(-8.441956821234528e-13 0 0)
(-9.834444544325764e-13 0 0)
(-9.747414061632484e-13 0 0)
(-1.009553599240503e-12 0 0)
(-1.026959695779174e-12 0 0)
(-1.035662744048308e-12 0 0)
(-1.122693226741703e-12 0 0)
(-1.192317612896013e-12 0 0)
(-1.218426757704013e-12 0 0)
(-1.253238950781275e-12 0 0)
(-1.218426757703994e-12 0 0)
(-1.244535902512005e-12 0 0)
(-1.261941999050566e-12 0 0)
(-1.314160288666412e-12 0 0)
(-1.253238950781186e-12 0 0)
(-1.183614564626835e-12 0 0)
(-1.166208468087969e-12 0 0)
(-1.235832854242603e-12 0 0)
(-1.166208468088124e-12 0 0)
(-1.026959695779103e-12 0 0)
(-1.140099323280148e-12 0 0)
(-9.834444544323732e-13 0 0)
(-9.312261648167145e-13 0 0)
(-8.267895855847956e-13 0 0)
(-8.180865373154747e-13 0 0)
(-8.964139717393415e-13 0 0)
(-9.573353096245957e-13 0 0)
(-8.790078752007295e-13 0 0)
(-7.571651994303337e-13 0 0)
(-8.180865373155264e-13 0 0)
(-7.484621511609691e-13 0 0)
(-8.61601778662196e-13 0 0)
(-9.573353096244972e-13 0 0)
(-8.964139717394325e-13 0 0)
(-8.964139717394114e-13 0 0)
(-8.616017786621397e-13 0 0)
(-9.747414061632839e-13 0 0)
(-9.747414061632615e-13 0 0)
(-1.044365792317784e-12 0 0)
(-9.486322613551744e-13 0 0)
(-8.09383489046303e-13 0 0)
(-7.832743442383275e-13 0 0)
(-7.310560546224287e-13 0 0)
(-6.78837765006574e-13 0 0)
(-5.134798478895972e-13 0 0)
(-6.092133788520454e-13 0 0)
(-5.482920409667381e-13 0 0)
(-5.308859444282322e-13 0 0)
(-5.047767996202736e-13 0 0)
(-5.395889926976398e-13 0 0)
(-4.873707030816477e-13 0 0)
(-4.612615582737164e-13 0 0)
(-4.43855461734977e-13 0 0)
(-3.74231075580534e-13 0 0)
(-4.525585100043661e-13 0 0)
(-3.394188825032732e-13 0 0)
(-4.003402203884535e-13 0 0)
(-3.307158342339592e-13 0 0)
(-2.088731584635653e-13 0 0)
(-1.21842675770395e-13 0 0)
(-1.653579171170072e-13 0 0)
(-4.351524134663076e-14 0 0)
(1.392487723089942e-13 0 0)
(2.697944963486747e-13 0 0)
(4.264493651963289e-13 0 0)
(4.003402203884181e-13 0 0)
(4.960737513508839e-13 0 0)
(5.744011857747272e-13 0 0)
(6.962438615450313e-13 0 0)
(7.397591028917351e-13 0 0)
(7.832743442382396e-13 0 0)
(9.399292130859274e-13 0 0)
(1.026959695779084e-12 0 0)
(1.375081626551655e-12 0 0)
(1.670985267708351e-12 0 0)
(1.992998053672602e-12 0 0)
(2.271495598291202e-12 0 0)
(2.61961752906366e-12 0 0)
(2.967739459836265e-12 0 0)
(3.167909570030457e-12 0 0)
(3.341970535416752e-12 0 0)
(3.498625404264513e-12 0 0)
(3.898965624652825e-12 0 0)
(4.081729638308714e-12 0 0)
(4.290602796771241e-12 0 0)
(4.525585100043548e-12 0 0)
(4.734458258507026e-12 0 0)
(4.87370703081635e-12 0 0)
(5.117392382356882e-12 0 0)
(5.274047251204471e-12 0 0)
(5.265344202935419e-12 0 0)
(5.622169181976318e-12 0 0)
(5.804933195632837e-12 0 0)
(6.083430740250921e-12 0 0)
(6.501177057178024e-12 0 0)
(7.110390436029936e-12 0 0)
(7.737009911420602e-12 0 0)
(8.08513184219333e-12 0 0)
(8.485472062582076e-12 0 0)
(9.033764103548703e-12 0 0)
(9.582056144513696e-12 0 0)
(9.921475027019286e-12 0 0)
(1.034792439221499e-11 0 0)
(1.06786402264493e-11 0 0)
(1.093102862625933e-11 0 0)
(1.092232557798976e-11 0 0)
(1.092232557799029e-11 0 0)
(1.119212007433705e-11 0 0)
(1.127044750876272e-11 0 0)
(1.147932066722606e-11 0 0)
(1.174911516357522e-11 0 0)
(1.186225479107589e-11 0 0)
(1.200150356338479e-11 0 0)
(1.215815843223336e-11 0 0)
(1.234962549415763e-11 0 0)
(1.237573463896594e-11 0 0)
(1.237573463896371e-11 0 0)
(1.23322193976191e-11 0 0)
(1.233221939761889e-11 0 0)
(1.241924988031224e-11 0 0)
(1.255849865262125e-11 0 0)
(1.270645047319965e-11 0 0)
(1.277607485935416e-11 0 0)
(1.28979175351225e-11 0 0)
(1.304586935570291e-11 0 0)
(1.321122727281968e-11 0 0)
(1.328085165897441e-11 0 0)
(1.3176415079743e-11 0 0)
(1.301105716262544e-11 0 0)
(1.293272972820189e-11 0 0)
(1.302846325916391e-11 0 0)
(1.301976021089523e-11 0 0)
(1.312419679012441e-11 0 0)
(1.315900898320417e-11 0 0)
(1.308938459704948e-11 0 0)
(1.302846325916428e-11 0 0)
(1.304586935570293e-11 0 0)
(1.287180839031669e-11 0 0)
(1.291532363166358e-11 0 0)
(1.295013582473899e-11 0 0)
(1.285440229377806e-11 0 0)
(1.297624496954846e-11 0 0)
(1.304586935570301e-11 0 0)
(1.309808764531776e-11 0 0)
(1.306327545224167e-11 0 0)
(1.297624496954855e-11 0 0)
(1.297624496954887e-11 0 0)
(1.282829314896873e-11 0 0)
(1.270645047320013e-11 0 0)
(1.269774742493022e-11 0 0)
(1.256720170089107e-11 0 0)
(1.261071694223599e-11 0 0)
(1.256720170089086e-11 0 0)
(1.270645047320018e-11 0 0)
(1.274996571454619e-11 0 0)
(1.294143277647055e-11 0 0)
(1.281088705243143e-11 0 0)
(1.300235411435666e-11 0 0)
(1.308068154878054e-11 0 0)
(1.333306994858947e-11 0 0)
(1.348972481743839e-11 0 0)
(1.356805225186222e-11 0 0)
(1.374211321724853e-11 0 0)
(1.387265894128826e-11 0 0)
(1.405542295494263e-11 0 0)
(1.409023514802118e-11 0 0)
(1.446446622360205e-11 0 0)
(1.472555767168086e-11 0 0)
(1.499535216802898e-11 0 0)
(1.539569238841815e-11 0 0)
(1.572640822265255e-11 0 0)
(1.62224819740035e-11 0 0)
(1.672725877362235e-11 0 0)
(1.747572092478497e-11 0 0)
(1.810234040017578e-11 0 0)
(1.885950559960618e-11 0 0)
(1.935557935095549e-11 0 0)
(2.016496284000352e-11 0 0)
(2.084380060501015e-11 0 0)
(2.155745056309451e-11 0 0)
(2.207963345925095e-11 0 0)
(2.268014378983513e-11 0 0)
(2.324584192734174e-11 0 0)
(2.366358824426767e-11 0 0)
(2.418577114042514e-11 0 0)
(2.468184489177827e-11 0 0)
(2.529105827063036e-11 0 0)
(2.586545945640516e-11 0 0)
(2.644856369044936e-11 0 0)
(2.685760695910544e-11 0 0)
(2.732757156564954e-11 0 0)
(2.801511237892692e-11 0 0)
(2.82675007787357e-11 0 0)
(2.868524709566101e-11 0 0)
(2.907688426778348e-11 0 0)
(2.965128545355682e-11 0 0)
(3.026049883240972e-11 0 0)
(3.076527563202726e-11 0 0)
(3.111339756280266e-11 0 0)
(3.151373778319122e-11 0 0)
(3.1948890196657e-11 0 0)
(3.190537495530754e-11 0 0)
(3.228830907916032e-11 0 0)
(3.270605539608749e-11 0 0)
(3.308898951993734e-11 0 0)
(3.346322059551581e-11 0 0)
(3.402021568475332e-11 0 0)
(3.463813211187561e-11 0 0)
(3.502976928399494e-11 0 0)
(3.570860704899922e-11 0 0)
(3.630041433131414e-11 0 0)
(3.713590696516939e-11 0 0)
(3.779733863363743e-11 0 0)
(3.838914591595092e-11 0 0)
(3.89113288121065e-11 0 0)
(3.934648122557586e-11 0 0)
(3.988607021827445e-11 0 0)
(4.012105252154401e-11 0 0)
(4.067804761077776e-11 0 0)
(4.126115184482648e-11 0 0)
(4.171371035483011e-11 0 0)
(4.215756581656417e-11 0 0)
(4.25666090852182e-11 0 0)
(4.313230722272976e-11 0 0)
(4.37241145050422e-11 0 0)
(4.421148520812401e-11 0 0)
(4.448127970446994e-11 0 0)
(4.496865040755345e-11 0 0)
(4.539509977275114e-11 0 0)
(4.592598571718056e-11 0 0)
(4.650908995121946e-11 0 0)
(4.699646065430422e-11 0 0)
(4.767529841931218e-11 0 0)
(4.81626691223926e-11 0 0)
(4.899816175624708e-11 0 0)
(4.965089037644708e-11 0 0)
(5.026010375529817e-11 0 0)
)
;

boundaryField
{
    inlet
    {
        type            zeroGradient;
    }
    outlet
    {
        type            velocityOutletNSCBCx;
        pInf            101325;
        gamma           1.4;
        etaAc           1;
        fieldInf        (-1 0 0);
        lInf            2.25;
        value           uniform (5.053382816359392e-11 0 0);
    }
    frontAndBack
    {
        type            empty;
    }
}


// ************************************************************************* //
