/*--------------------------------*- C++ -*----------------------------------*\
| =========                 |                                                 |
| \\      /  F ield         | OpenFOAM: The Open Source CFD Toolbox           |
|  \\    /   O peration     | Version:  v2012                                 |
|   \\  /    A nd           | Website:  www.openfoam.com                      |
|    \\/     M anipulation  |                                                 |
\*---------------------------------------------------------------------------*/
FoamFile
{
    version     2.0;
    format      ascii;
    class       volVectorField;
    location    "0.0025";
    object      UMean;
}
// * * * * * * * * * * * * * * * * * * * * * * * * * * * * * * * * * * * * * //

dimensions      [0 1 -1 0 0 0 0];


internalField   nonuniform List<vector> 
1000
(
(0.005258590037002233 0 0)
(0.00504751165896851 0 0)
(0.005027596732722995 0 0)
(0.004873847944967864 0 0)
(0.004704491508847487 0 0)
(0.004478039538395643 0 0)
(0.004224118741163779 0 0)
(0.003935842726783522 0 0)
(0.003625472098005733 0 0)
(0.003291100267899143 0 0)
(0.00294803110416029 0 0)
(0.002601532934650566 0 0)
(0.002258023220391759 0 0)
(0.001917770600365238 0 0)
(0.001588286083936393 0 0)
(0.001274716968701944 0 0)
(0.0009855074509696616 0 0)
(0.000725140152057741 0 0)
(0.0004997787743924741 0 0)
(0.0003120622635917165 0 0)
(0.0001664369584439588 0 0)
(6.446025963876596e-05 0 0)
(9.108698528265856e-06 0 0)
(6.400411657632173e-07 0 0)
(4.010595572446826e-05 0 0)
(0.0001260230751999198 0 0)
(0.0002574369484400771 0 0)
(0.0004312684613349103 0 0)
(0.0006454576418038576 0 0)
(0.0008967892122835621 0 0)
(0.001183077143811016 0 0)
(0.001498553945965984 0 0)
(0.001832680964335001 0 0)
(0.002172072727014236 0 0)
(0.002511753117638162 0 0)
(0.002849856601408761 0 0)
(0.00318518284134797 0 0)
(0.003512440553996955 0 0)
(0.003827262487314706 0 0)
(0.004121629019208348 0 0)
(0.004389796367132427 0 0)
(0.004624193538330209 0 0)
(0.004820930686781451 0 0)
(0.004975092728917203 0 0)
(0.005085322229964395 0 0)
(0.005148855953582203 0 0)
(0.00516599074241448 0 0)
(0.00513544224696144 0 0)
(0.005058911667485258 0 0)
(0.004936548840421688 0 0)
(0.004771167702766909 0 0)
(0.00456356770469753 0 0)
(0.004316621896408565 0 0)
(0.004032196494566985 0 0)
(0.003718249140700184 0 0)
(0.003387072740122989 0 0)
(0.003052199513660502 0 0)
(0.002716962603300091 0 0)
(0.002382920086110657 0 0)
(0.002051619723828006 0 0)
(0.001726471145782273 0 0)
(0.001412172202750522 0 0)
(0.001114742777624771 0 0)
(0.0008408663601790225 0 0)
(0.0005973514499155894 0 0)
(0.0003902779661967792 0 0)
(0.0002246131289185857 0 0)
(0.0001037948491217832 0 0)
(2.993891255536165e-05 0 0)
(3.915662021136843e-06 0 0)
(2.574687645593727e-05 0 0)
(9.473911844471309e-05 0 0)
(0.0002098027450785048 0 0)
(0.0003696428351736976 0 0)
(0.0005730334006708339 0 0)
(0.0008183865323977338 0 0)
(0.00110221861499094 0 0)
(0.001415819168010331 0 0)
(0.001744569956233968 0 0)
(0.002076548593774334 0 0)
(0.002408444846945678 0 0)
(0.002739233488884387 0 0)
(0.0030677266940062 0 0)
(0.003390338332240257 0 0)
(0.003703539140072713 0 0)
(0.004001218367059631 0 0)
(0.004277824262782994 0 0)
(0.004526066586632876 0 0)
(0.004740319900254608 0 0)
(0.004914437674477596 0 0)
(0.005044915858017933 0 0)
(0.005128370615676419 0 0)
(0.005164178485201078 0 0)
(0.00515153660864917 0 0)
(0.005091737631079287 0 0)
(0.004985159702135145 0 0)
(0.004833541604852984 0 0)
(0.004637277409609574 0 0)
(0.00439834759722533 0 0)
(0.004119538427835384 0 0)
(0.00381028564227395 0 0)
(0.003484948490867499 0 0)
(0.003156410655905178 0 0)
(0.002827655529354133 0 0)
(0.002499797966572756 0 0)
(0.002174057818265809 0 0)
(0.001853051973643723 0 0)
(0.001540459496891646 0 0)
(0.001241172817611183 0 0)
(0.0009609620809243791 0 0)
(0.000706230541910722 0 0)
(0.0004833988874871704 0 0)
(0.0002984782059284832 0 0)
(0.0001564071429656415 0 0)
(6.084568376405086e-05 0 0)
(1.388866546941443e-05 0 0)
(1.63470075962479e-05 0 0)
(6.789800483233704e-05 0 0)
(0.000167710007312039 0 0)
(0.0003147100350704657 0 0)
(0.0005079101787892115 0 0)
(0.0007456968003731537 0 0)
(0.001023937094926238 0 0)
(0.001332535823418499 0 0)
(0.001655821553307168 0 0)
(0.001982060693801256 0 0)
(0.002308250344234474 0 0)
(0.002633568328608756 0 0)
(0.002957036198719149 0 0)
(0.003275809551934904 0 0)
(0.003586964430679599 0 0)
(0.003885455593195899 0 0)
(0.004166410683262903 0 0)
(0.004423264186827904 0 0)
(0.004650328595216509 0 0)
(0.004841134031511238 0 0)
(0.004991030948016 0 0)
(0.005095488433151717 0 0)
(0.005152393892580663 0 0)
(0.005159981648778769 0 0)
(0.005118611394891231 0 0)
(0.005028358839918051 0 0)
(0.004890618607564783 0 0)
(0.0047058958277297 0 0)
(0.004476217930789484 0 0)
(0.004204905560190296 0 0)
(0.003901899318684551 0 0)
(0.003582176396891151 0 0)
(0.003258887714226491 0 0)
(0.002935326939897166 0 0)
(0.002612469451721955 0 0)
(0.002291247348618924 0 0)
(0.001973798980512162 0 0)
(0.001663133152991027 0 0)
(0.001363387435814059 0 0)
(0.001079542069210298 0 0)
(0.0008173909463101642 0 0)
(0.0005830369701224775 0 0)
(0.0003826489083375634 0 0)
(0.0002218092241877403 0 0)
(0.0001052722031192805 0 0)
(3.646538183391926e-05 0 0)
(1.75583220740982e-05 0 0)
(4.937166082788923e-05 0 0)
(0.0001318937327029375 0 0)
(0.0002644685826019043 0 0)
(0.0004461833784527893 0 0)
(0.0006751108288729149 0 0)
(0.0009465395268646748 0 0)
(0.001249538382286778 0 0)
(0.001567814427582404 0 0)
(0.001889235006404617 0 0)
(0.002210673049355734 0 0)
(0.002531418070368119 0 0)
(0.002850672661980983 0 0)
(0.003166089451553399 0 0)
(0.00347518553442858 0 0)
(0.003773681292638558 0 0)
(0.004057266062060374 0 0)
(0.004320084774090952 0 0)
(0.00455671676737662 0 0)
(0.004760841530002973 0 0)
(0.004927344239264354 0 0)
(0.005051023010769792 0 0)
(0.005128599727362058 0 0)
(0.005157179434980701 0 0)
(0.005135890604549008 0 0)
(0.005063974395438162 0 0)
(0.004942165843280498 0 0)
(0.004770815275898278 0 0)
(0.004551936600928679 0 0)
(0.00428920175121592 0 0)
(0.003992811808632196 0 0)
(0.003678308705022313 0 0)
(0.003359554741609374 0 0)
(0.003040446768274968 0 0)
(0.002721888697512724 0 0)
(0.002404593577653472 0 0)
(0.002090348081446562 0 0)
(0.001781669134695578 0 0)
(0.001482112389727242 0 0)
(0.001196021223743443 0 0)
(0.000928597717088494 0 0)
(0.0006855048804531019 0 0)
(0.0004727324764648942 0 0)
(0.0002960513458280398 0 0)
(0.0001607903276531381 0 0)
(7.13255246466409e-05 0 0)
(3.100088391042209e-05 0 0)
(4.190031812735645e-05 0 0)
(0.0001051258170144871 0 0)
(0.0002208893301417286 0 0)
(0.0003887354377968465 0 0)
(0.0006068441685736721 0 0)
(0.000870185737249511 0 0)
(0.001167228944672877 0 0)
(0.00148081925575494 0 0)
(0.001798035969282762 0 0)
(0.002115328424574532 0 0)
(0.002432090455754746 0 0)
(0.002747635446330517 0 0)
(0.003060023988633364 0 0)
(0.00336709332380845 0 0)
(0.003665171579617173 0 0)
(0.003950403914283492 0 0)
(0.004217572844853492 0 0)
(0.004461590971153567 0 0)
(0.004676469427262167 0 0)
(0.004856949628825129 0 0)
(0.004997546406418227 0 0)
(0.005094187496999919 0 0)
(0.005143112197445281 0 0)
(0.005142284714852318 0 0)
(0.005089994695515607 0 0)
(0.004986029834547526 0 0)
(0.004830225984084269 0 0)
(0.004624192672543382 0 0)
(0.004371577212997277 0 0)
(0.004082553212347026 0 0)
(0.003773223881843128 0 0)
(0.003458555241632908 0 0)
(0.003143383786500259 0 0)
(0.002828637880994616 0 0)
(0.002514878223213074 0 0)
(0.002203580929930723 0 0)
(0.001896902647572827 0 0)
(0.001597909846140609 0 0)
(0.001310438690776522 0 0)
(0.001039156775542691 0 0)
(0.0007892773999704373 0 0)
(0.0005664895361212082 0 0)
(0.0003765044399804028 0 0)
(0.0002249059574365935 0 0)
(0.0001166411146823602 0 0)
(5.594022129624139e-05 0 0)
(4.594742004024331e-05 0 0)
(8.891353232232513e-05 0 0)
(0.000186057778039624 0 0)
(0.0003377433275639092 0 0)
(0.0005426283204283163 0 0)
(0.0007959338640679672 0 0)
(0.00108599014078076 0 0)
(0.001394884924448522 0 0)
(0.001708285945169099 0 0)
(0.002021898886972116 0 0)
(0.002335080483898268 0 0)
(0.00264730968813119 0 0)
(0.002956891359903514 0 0)
(0.00326200005938205 0 0)
(0.003559375635674023 0 0)
(0.003845631097294222 0 0)
(0.004116025094682471 0 0)
(0.004365889307051688 0 0)
(0.004589545969597276 0 0)
(0.004781834338620113 0 0)
(0.004937152954434082 0 0)
(0.005050990620322581 0 0)
(0.005118945118176749 0 0)
(0.005138074929768981 0 0)
(0.005105761377809682 0 0)
(0.005020822176562848 0 0)
(0.004882364243470213 0 0)
(0.00469131069185838 0 0)
(0.004450847398920746 0 0)
(0.00417057452111866 0 0)
(0.003866826264967479 0 0)
(0.00355599147345914 0 0)
(0.003244391777586563 0 0)
(0.002933097738661371 0 0)
(0.002622582943924208 0 0)
(0.002314033960661141 0 0)
(0.002009359017959471 0 0)
(0.001711165487961985 0 0)
(0.001422926905745627 0 0)
(0.001148764809345356 0 0)
(0.0008935541652516093 0 0)
(0.0006625467642649546 0 0)
(0.0004613811956454711 0 0)
(0.0002955795886137427 0 0)
(0.0001705206464823118 0 0)
(9.090543176884046e-05 0 0)
(6.082844783403266e-05 0 0)
(8.338560535530244e-05 0 0)
(0.0001609278451041354 0 0)
(0.0002946021859191417 0 0)
(0.0004840039350724141 0 0)
(0.0007249513618137747 0 0)
(0.001006495984861813 0 0)
(0.00131017341732574 0 0)
(0.001619973774198149 0 0)
(0.00193013445989909 0 0)
(0.002240044614624803 0 0)
(0.002549146817718455 0 0)
(0.002856131483498196 0 0)
(0.00315927600818336 0 0)
(0.003455829404621286 0 0)
(0.003742623851845458 0 0)
(0.004015496591096277 0 0)
(0.004270005981530277 0 0)
(0.004500959172766556 0 0)
(0.004703230777307638 0 0)
(0.004871386285992936 0 0)
(0.005000551103183861 0 0)
(0.005086024922264881 0 0)
(0.005124076752629946 0 0)
(0.005111432773150027 0 0)
(0.005045931502502705 0 0)
(0.004925978534609803 0 0)
(0.004751597734365513 0 0)
(0.004525246879320619 0 0)
(0.004255449779462867 0 0)
(0.003958290201322833 0 0)
(0.003651600884263671 0 0)
(0.003343666656455354 0 0)
(0.003035947655019247 0 0)
(0.002728809804972135 0 0)
(0.002423274586858608 0 0)
(0.002120960986337783 0 0)
(0.001824201501020594 0 0)
(0.001536042361823822 0 0)
(0.0012602115266082 0 0)
(0.001001025820003918 0 0)
(0.0007632291329270135 0 0)
(0.0005517493746707725 0 0)
(0.0003713577432449415 0 0)
(0.0002261901126113053 0 0)
(0.0001190147330050313 0 0)
(4.998072946578466e-05 0 0)
(1.461920477709092e-05 0 0)
(2.382218201286693e-06 0 0)
(1.565082691138298e-07 0 0)
(2.791557275004522e-09 0 0)
(8.9480177591449e-12 0 0)
(-1.061571242210467e-13 0 0)
(-4.220100581543015e-14 0 0)
(-5.150097785652844e-14 0 0)
(-4.957978622128374e-14 0 0)
(-3.868968951080202e-14 0 0)
(-1.702988407743797e-14 0 0)
(-2.047097405596611e-14 0 0)
(-3.609633161153153e-14 0 0)
(9.229745714990656e-15 0 0)
(-4.956473772283812e-14 0 0)
(-2.538681688243465e-14 0 0)
(-3.63371075867032e-14 0 0)
(-2.9138909162222e-14 0 0)
(-2.750363899749183e-14 0 0)
(-2.727791152076766e-14 0 0)
(-4.728739829096415e-14 0 0)
(-5.051279312506415e-14 0 0)
(-6.170887597067371e-14 0 0)
(-6.874655707836228e-14 0 0)
(-6.621339317288273e-14 0 0)
(-5.79016058632331e-14 0 0)
(-7.498165160214947e-14 0 0)
(-6.914283420417701e-14 0 0)
(-8.204942970673556e-14 0 0)
(-7.539297722646179e-15 0 0)
(-9.791556323748005e-14 0 0)
(-3.784697359768591e-14 0 0)
(-5.505743965648585e-14 0 0)
(-4.508028518520575e-14 0 0)
(-6.000337947985267e-14 0 0)
(-6.806937464817671e-14 0 0)
(-7.867354988814004e-14 0 0)
(-9.03862978471323e-14 0 0)
(-5.163641434255052e-14 0 0)
(-1.058661865843804e-13 0 0)
(-8.385023335437577e-14 0 0)
(-9.466508757261426e-14 0 0)
(-1.0657346601144e-13 0 0)
(-1.177444680262861e-13 0 0)
(-1.158935027171404e-13 0 0)
(-1.2103005685418e-13 0 0)
(-1.263622414710741e-13 0 0)
(-1.069998401341578e-13 0 0)
(-1.595291320512902e-13 0 0)
(-1.433018345577954e-13 0 0)
(-1.5506976034443e-13 0 0)
(-1.567200790076136e-13 0 0)
(-1.649766884896335e-13 0 0)
(-1.729373441688127e-13 0 0)
(-1.282734007740268e-13 0 0)
(-1.915222397525863e-13 0 0)
(-1.575076170930659e-13 0 0)
(-1.806973532020413e-13 0 0)
(-1.605223329489217e-13 0 0)
(-2.194171397097308e-13 0 0)
(-1.793229236770872e-13 0 0)
(-1.76754646608574e-13 0 0)
(-1.619168271384574e-13 0 0)
(-1.754955889050435e-13 0 0)
(-1.903735377043212e-13 0 0)
(-1.479167074153156e-13 0 0)
(-1.870979812087222e-13 0 0)
(-1.52481418611306e-13 0 0)
(-1.638480511059824e-13 0 0)
(-1.668627669618109e-13 0 0)
(-1.741562725431107e-13 0 0)
(-1.86596364593787e-13 0 0)
(-1.617161804924665e-13 0 0)
(-1.992120224597036e-13 0 0)
(-1.680215013423468e-13 0 0)
(-1.840381198575657e-13 0 0)
(-1.885727340566818e-13 0 0)
(-1.889338980194452e-13 0 0)
(-1.845497688047986e-13 0 0)
(-1.809832746725378e-13 0 0)
(-1.890743506716129e-13 0 0)
(-1.854075332163862e-13 0 0)
(-1.661855845316311e-13 0 0)
(-1.564090767063381e-13 0 0)
(-1.52476402445157e-13 0 0)
(-1.499031092104883e-13 0 0)
(-1.528124855771766e-13 0 0)
(-1.66326037183821e-13 0 0)
(-9.3872533321009e-14 0 0)
(-2.00456031664775e-13 0 0)
(-8.193405788529598e-14 0 0)
(-1.546985640493673e-13 0 0)
(-9.166040404910258e-14 0 0)
(-1.404125228557093e-13 0 0)
(-1.015021220343407e-13 0 0)
(-1.024301127719848e-13 0 0)
(-1.037945099646268e-13 0 0)
(-1.011710550684747e-13 0 0)
(-1.012513137268564e-13 0 0)
(-9.998723985719221e-14 0 0)
(-1.016676555172529e-13 0 0)
(-1.032126346913003e-13 0 0)
(-1.090313874246738e-13 0 0)
(-1.157430177326588e-13 0 0)
(-1.179952763337643e-13 0 0)
(-1.070951472909992e-13 0 0)
(-6.521015994299123e-14 0 0)
(-9.794566023437316e-14 0 0)
(-3.219375434724878e-14 0 0)
(-1.044666762286817e-13 0 0)
(-7.896950369096451e-14 0 0)
(-8.262628881392058e-14 0 0)
(-7.000561478188251e-14 0 0)
(-7.124962398695474e-14 0 0)
(-6.865124992152933e-14 0 0)
(-7.918018266924386e-14 0 0)
(-7.437469549805993e-14 0 0)
(-8.201431654369028e-14 0 0)
(-7.911497250929288e-14 0 0)
(-7.708844138491464e-14 0 0)
(-6.747746704254988e-14 0 0)
(-4.245683028903298e-14 0 0)
(-2.650040576758939e-14 0 0)
(-1.69696900836181e-14 0 0)
(-1.721548222494357e-14 0 0)
(-8.231528651258262e-15 0 0)
(-1.225951006926927e-14 0 0)
(3.310669658792487e-16 0 0)
(2.583325566985077e-15 0 0)
(1.061922373842196e-14 0 0)
(1.548992106954674e-14 0 0)
(1.035336693249676e-14 0 0)
(5.231861293892515e-15 0 0)
(8.753209930811118e-15 0 0)
(1.896612421111514e-14 0 0)
(9.159519388919076e-15 0 0)
(-1.198863709713528e-15 0 0)
(7.173117593733387e-15 0 0)
(1.362390726194063e-14 0 0)
(1.813845679645309e-14 0 0)
(6.380563342106408e-15 0 0)
(1.329284029605831e-14 0 0)
(2.627969445702314e-14 0 0)
(3.105508463131764e-14 0 0)
(2.171999942716833e-14 0 0)
(2.491028109821453e-14 0 0)
(2.51360085749441e-14 0 0)
(2.698697388409986e-14 0 0)
(3.099990680366394e-14 0 0)
(3.658289972800539e-14 0 0)
(3.343776355229627e-14 0 0)
(1.460205966106892e-14 0 0)
(1.689444759137712e-14 0 0)
(1.433620285514725e-14 0 0)
(1.711014273579481e-14 0 0)
(2.69568768871973e-14 0 0)
(3.144634559097721e-14 0 0)
(2.66559069182448e-14 0 0)
(2.353585157327475e-14 0 0)
(2.574296467903765e-14 0 0)
(2.042081239446197e-14 0 0)
(2.266303866327145e-14 0 0)
(1.619218433046956e-14 0 0)
(2.449393930783261e-14 0 0)
(2.18102904178602e-14 0 0)
(2.797014244938561e-14 0 0)
(3.497271039403522e-14 0 0)
(4.663529669153226e-14 0 0)
(4.138337073304394e-14 0 0)
(3.758111679174627e-14 0 0)
(4.920858992618798e-14 0 0)
(6.619834467442582e-14 0 0)
(6.603281119149619e-14 0 0)
(6.791387349753957e-14 0 0)
(8.264635347851746e-14 0 0)
(9.593417760844385e-14 0 0)
(1.016927363480285e-13 0 0)
(1.072105191124403e-13 0 0)
(1.1439868520462e-13 0 0)
(1.276062506761676e-13 0 0)
(1.345285599624134e-13 0 0)
(1.343730588117607e-13 0 0)
(1.47053926837608e-13 0 0)
(1.608333352501726e-13 0 0)
(1.732132333070443e-13 0 0)
(1.832154686090671e-13 0 0)
(1.861850389695389e-13 0 0)
(1.907146370025153e-13 0 0)
(1.975316067996326e-13 0 0)
(2.032400038777001e-13 0 0)
(2.136886779670442e-13 0 0)
(2.274931672103513e-13 0 0)
(2.241373520563729e-13 0 0)
(2.173855924191881e-13 0 0)
(2.151533984826592e-13 0 0)
(2.172250751024133e-13 0 0)
(2.080053617197022e-13 0 0)
(2.303172687524719e-13 0 0)
(2.349221092776926e-13 0 0)
(2.192917355559814e-13 0 0)
(2.15745306088303e-13 0 0)
(2.203952921088537e-13 0 0)
(2.148173153506268e-13 0 0)
(2.130516248660501e-13 0 0)
(2.009877452765959e-13 0 0)
(2.092042254294002e-13 0 0)
(2.086725118175714e-13 0 0)
(2.033353110345526e-13 0 0)
(2.040124934647277e-13 0 0)
(2.017301378667284e-13 0 0)
(2.047097405594792e-13 0 0)
(1.886780735458133e-13 0 0)
(1.864007341139564e-13 0 0)
(1.791323093633792e-13 0 0)
(2.241223035579294e-13 0 0)
(1.820517180623618e-13 0 0)
(2.117725024979284e-13 0 0)
(1.944516807838473e-13 0 0)
(1.96387920917526e-13 0 0)
(2.022869323093155e-13 0 0)
(1.981385629037033e-13 0 0)
(1.935939163722972e-13 0 0)
(1.818912007455906e-13 0 0)
(2.09424936739977e-13 0 0)
(1.534595710104447e-13 0 0)
(1.706449562385051e-13 0 0)
(1.598852798478894e-13 0 0)
(1.582449935170365e-13 0 0)
(1.600658618292809e-13 0 0)
(1.43276753727042e-13 0 0)
(1.645503143669046e-13 0 0)
(1.258957380191517e-13 0 0)
(1.458299822971233e-13 0 0)
(1.334801812371488e-13 0 0)
(1.348094652667584e-13 0 0)
(1.404777330156572e-13 0 0)
(1.246517288141118e-13 0 0)
(1.206187312299363e-13 0 0)
(1.206939737221902e-13 0 0)
(1.513628135599816e-13 0 0)
(1.000022883556602e-13 0 0)
(1.27706573999133e-13 0 0)
(1.15261465782317e-13 0 0)
(1.174083848942961e-13 0 0)
(1.129088838582388e-13 0 0)
(1.175689022110829e-13 0 0)
(1.179250500077e-13 0 0)
(1.041556739274242e-13 0 0)
(1.373024998430724e-13 0 0)
(7.136499580839979e-14 0 0)
(1.169268329439414e-13 0 0)
(1.093825190551676e-13 0 0)
(1.030521173745505e-13 0 0)
(1.02801309067063e-13 0 0)
(8.492369291038349e-14 0 0)
(1.041657062597021e-13 0 0)
(4.548659464331662e-14 0 0)
(7.691287556968734e-14 0 0)
(7.639119429013235e-14 0 0)
(7.823714343315341e-14 0 0)
(8.425654281250569e-14 0 0)
(8.850021937494628e-14 0 0)
(8.329845507794524e-14 0 0)
(7.090852468877259e-14 0 0)
(8.846510621189321e-14 0 0)
(2.474474761529127e-14 0 0)
(5.554400777297009e-14 0 0)
(5.16213658440996e-14 0 0)
(5.743008624517147e-14 0 0)
(5.419967524492864e-14 0 0)
(6.132764734331518e-14 0 0)
(7.594475550283463e-14 0 0)
(5.81423818384086e-14 0 0)
(1.220834517455834e-13 0 0)
(1.972858146582902e-14 0 0)
(8.301253360742229e-14 0 0)
(5.711406777776195e-14 0 0)
(5.792668669397768e-14 0 0)
(5.369304246383308e-14 0 0)
(6.810448781122915e-14 0 0)
(6.600271419460845e-14 0 0)
(6.075078823612802e-14 0 0)
(6.716144857513286e-14 0 0)
(8.073519417558066e-14 0 0)
(8.727125866832847e-14 0 0)
(9.343612686601073e-14 0 0)
(1.03011988045333e-13 0 0)
(1.009403114255934e-13 0 0)
(8.365460287456138e-14 0 0)
(1.083692534929605e-13 0 0)
(4.715196180494083e-14 0 0)
(8.734650116056999e-14 0 0)
(7.253376252121447e-14 0 0)
(7.547825205094658e-14 0 0)
(8.244069066639328e-14 0 0)
(9.552786815031393e-14 0 0)
(1.15286546613058e-13 0 0)
(1.161844403538178e-13 0 0)
(1.731179261501758e-13 0 0)
(5.984787832922823e-14 0 0)
(1.23001410150936e-13 0 0)
(1.045369025547728e-13 0 0)
(9.708287965667595e-14 0 0)
(9.267868577742939e-14 0 0)
(9.181590519973903e-14 0 0)
(8.748193764659434e-14 0 0)
(9.687220067837696e-14 0 0)
(9.930504126087731e-14 0 0)
(1.118003111391858e-13 0 0)
(1.017729950064216e-13 0 0)
(9.069730014840267e-14 0 0)
(1.037694291338864e-13 0 0)
(1.182561169735394e-13 0 0)
(1.007948426072774e-13 0 0)
(1.236735764149562e-13 0 0)
(6.583216454553361e-14 0 0)
(1.003484038199718e-13 0 0)
(8.261124031548318e-14 0 0)
(8.020849672988308e-14 0 0)
(6.561646940109061e-14 0 0)
(4.952460839362923e-14 0 0)
(6.655449247105523e-14 0 0)
(6.412165188856643e-14 0 0)
(1.366503982436273e-13 0 0)
(3.256495064231651e-14 0 0)
(1.031022790360294e-13 0 0)
(9.692737850604551e-14 0 0)
(1.054949902893083e-13 0 0)
(9.119891676334814e-14 0 0)
(8.370476453606152e-14 0 0)
(7.526255690650598e-14 0 0)
(7.184153159257113e-14 0 0)
(7.05874900552085e-14 0 0)
(7.028652008624388e-14 0 0)
(6.882179957061104e-14 0 0)
(6.02090422919798e-14 0 0)
(6.158347181693563e-14 0 0)
(5.384854361446262e-14 0 0)
(5.927603538817499e-14 0 0)
(6.077586906687293e-14 0 0)
(5.949674669875517e-14 0 0)
(5.507248815493602e-14 0 0)
(4.869192481283267e-14 0 0)
(5.04024374698001e-14 0 0)
(5.431504706637591e-14 0 0)
(4.353028984502712e-14 0 0)
(4.480941221314358e-14 0 0)
(4.634937522102197e-14 0 0)
(4.636943988560776e-14 0 0)
(3.159181440929396e-14 0 0)
(4.511539834823382e-14 0 0)
(-1.153718214545878e-16 0 0)
(2.80754819385105e-14 0 0)
(1.143685882075083e-14 0 0)
(1.806823047033972e-14 0 0)
(2.585833650045821e-14 0 0)
(3.256495064228904e-14 0 0)
(3.874988350457761e-14 0 0)
(4.195019750793205e-14 0 0)
(1.085147223112703e-13 0 0)
(-7.022632609345823e-16 0 0)
(6.562650173338425e-14 0 0)
(4.560698263089031e-14 0 0)
(4.72021234664288e-14 0 0)
(4.620892256883386e-14 0 0)
(5.412443275267726e-14 0 0)
(5.559918560061286e-14 0 0)
(4.073628529975507e-14 0 0)
(3.197304303665761e-14 0 0)
(3.65277219003704e-14 0 0)
(4.183984185264905e-14 0 0)
(5.114984622605024e-14 0 0)
(5.415452974957281e-14 0 0)
(5.064321344496246e-14 0 0)
(3.573015148261814e-14 0 0)
(7.354702808340339e-14 0 0)
(3.389925083807152e-14 0 0)
(6.37755364242589e-14 0 0)
(6.073072357153337e-14 0 0)
(6.532553176444138e-14 0 0)
(5.918574439749692e-14 0 0)
(5.218317645284647e-14 0 0)
(5.452070987850452e-14 0 0)
(6.947390117019595e-15 0 0)
(5.183706098854253e-14 0 0)
(-5.061311644805046e-14 0 0)
(1.35938102651227e-15 0 0)
(-6.95742244929459e-15 0 0)
(-1.898117270955308e-14 0 0)
(-4.120780491781518e-14 0 0)
(-5.114483005990034e-14 0 0)
(-4.303870556237015e-14 0 0)
(-4.706167081423891e-14 0 0)
(-5.062314878035887e-14 0 0)
(-6.082603072836575e-14 0 0)
(-7.068279721205817e-14 0 0)
(-6.656954096949072e-14 0 0)
(-6.22155087517653e-14 0 0)
(-6.089625705446683e-14 0 0)
(-8.207952670362866e-14 0 0)
(-5.605064055408654e-14 0 0)
(-1.195302231755083e-13 0 0)
(-8.813905541218227e-14 0 0)
(-9.081267196985124e-14 0 0)
(-1.000524500171483e-13 0 0)
(-1.134807267992709e-13 0 0)
(-1.345887539561895e-13 0 0)
(-1.276814931683788e-13 0 0)
(-1.473699453050228e-13 0 0)
(-9.65461498786846e-14 0 0)
(-2.040476066277762e-13 0 0)
(-1.515333632090748e-13 0 0)
(-1.722651779047959e-13 0 0)
(-1.559977510820948e-13 0 0)
(-1.649516076589089e-13 0 0)
(-1.694511086949354e-13 0 0)
(-1.746779538226906e-13 0 0)
(-1.778180738322544e-13 0 0)
(-1.792426650187028e-13 0 0)
(-1.848055932784608e-13 0 0)
(-2.148474123475427e-13 0 0)
(-2.131168350260279e-13 0 0)
(-1.995129924286516e-13 0 0)
(-1.933882535601661e-13 0 0)
(-1.933982858924647e-13 0 0)
(-1.708506190506336e-13 0 0)
(-2.290531948828384e-13 0 0)
(-2.011031170980291e-13 0 0)
(-2.068566596714522e-13 0 0)
(-2.018555420204361e-13 0 0)
(-2.082009921995337e-13 0 0)
(-2.121085856299184e-13 0 0)
(-2.049655650331031e-13 0 0)
(-2.213985253387391e-13 0 0)
(-1.770305357467601e-13 0 0)
(-2.98637451708132e-13 0 0)
(-2.315211486283228e-13 0 0)
(-2.382277627702031e-13 0 0)
(-2.309442895211425e-13 0 0)
(-2.276436521947966e-13 0 0)
(-2.304928345677018e-13 0 0)
(-2.401740352361781e-13 0 0)
(-2.652348013188733e-13 0 0)
(-2.02507643619867e-13 0 0)
(-3.152309293305521e-13 0 0)
(-2.554231803305136e-13 0 0)
(-2.660875495643156e-13 0 0)
(-2.761549950262369e-13 0 0)
(-2.842109578623113e-13 0 0)
(-2.845671056589211e-13 0 0)
(-2.476481227988831e-13 0 0)
(-3.129987353940758e-13 0 0)
(-2.216844468092863e-13 0 0)
(-3.242800930642085e-13 0 0)
(-2.692978958999274e-13 0 0)
(-2.737873646037427e-13 0 0)
(-2.761700435247301e-13 0 0)
(-2.624307644413474e-13 0 0)
(-2.834836137706441e-13 0 0)
(-2.211878463604895e-13 0 0)
(-3.252632616295013e-13 0 0)
(-2.543948662698726e-13 0 0)
(-2.651344779959201e-13 0 0)
(-2.649839930114309e-13 0 0)
(-2.819235860982165e-13 0 0)
(-2.90736990022758e-13 0 0)
(-2.716454616579235e-13 0 0)
(-2.731452953365457e-13 0 0)
(-2.703412584590427e-13 0 0)
(-2.807447870530278e-13 0 0)
(-2.252960864368902e-13 0 0)
(-3.22529451078024e-13 0 0)
(-2.588642703090706e-13 0 0)
(-2.66443697360916e-13 0 0)
(-2.596768892252431e-13 0 0)
(-2.52378367477832e-13 0 0)
(-2.455513653484271e-13 0 0)
(-2.475929449712611e-13 0 0)
(-2.57459743787245e-13 0 0)
(-1.863907017816887e-13 0 0)
(-2.813868563201802e-13 0 0)
(-2.154292876209119e-13 0 0)
(-2.235905899460761e-13 0 0)
(-2.2152894565861e-13 0 0)
(-2.367981554176186e-13 0 0)
(-2.452303307148541e-13 0 0)
(-2.060691215860193e-13 0 0)
(-2.509236792945061e-13 0 0)
(-2.107391722711713e-13 0 0)
(-2.0506087218998e-13 0 0)
(-1.973259439874667e-13 0 0)
(-1.814196811275645e-13 0 0)
(-1.662206976946835e-13 0 0)
(-1.447364580765504e-13 0 0)
(-1.460657421061578e-13 0 0)
(-7.568391486306986e-14 0 0)
(-1.658043559042891e-13 0 0)
(-8.497385457187352e-14 0 0)
(-8.930280595886898e-14 0 0)
(-5.683316247339777e-14 0 0)
(-4.167430836974299e-14 0 0)
(-2.20560825592037e-14 0 0)
(-4.925875158798998e-15 0 0)
(-2.884295535963191e-15 0 0)
(7.349185025572627e-14 0 0)
(-1.177795811895159e-14 0 0)
(6.451792901433269e-14 0 0)
(7.935574848444672e-14 0 0)
(1.148350916595895e-13 0 0)
(1.385665737126892e-13 0 0)
(1.451477837007727e-13 0 0)
(1.951238470478552e-13 0 0)
(1.711616213518814e-13 0 0)
(2.074535834432435e-13 0 0)
(2.158055000820961e-13 0 0)
(2.48019319093889e-13 0 0)
(2.726035493924617e-13 0 0)
(3.08408943367288e-13 0 0)
(3.452376352366343e-13 0 0)
(3.597494039070223e-13 0 0)
(4.615625282426213e-13 0 0)
(3.955196847188399e-13 0 0)
(4.913886521672492e-13 0 0)
(5.184157553806339e-13 0 0)
(5.639775925161789e-13 0 0)
(5.968284646290131e-13 0 0)
(6.273117063192628e-13 0 0)
(6.732196589191185e-13 0 0)
(6.970464481291116e-13 0 0)
(7.985736509941639e-13 0 0)
(7.365136433930543e-13 0 0)
(8.429968184136565e-13 0 0)
(8.759630623480455e-13 0 0)
(9.149135924985953e-13 0 0)
(9.369847235562356e-13 0 0)
(9.495953652559768e-13 0 0)
(1.01380730813523e-12 0 0)
(9.877132118257295e-13 0 0)
(1.065845015769559e-12 0 0)
(1.097236183533057e-12 0 0)
(1.132575074055993e-12 0 0)
(1.164698602077159e-12 0 0)
(1.192588485868194e-12 0 0)
(1.226959256324247e-12 0 0)
(1.235883015904162e-12 0 0)
(1.327518339122473e-12 0 0)
(1.25640415162163e-12 0 0)
(1.368660933880152e-12 0 0)
(1.374484702779939e-12 0 0)
(1.419670327454264e-12 0 0)
(1.470258363071572e-12 0 0)
(1.500561022780473e-12 0 0)
(1.543484356521424e-12 0 0)
(1.565680891732833e-12 0 0)
(1.661615069341033e-12 0 0)
(1.59947480308171e-12 0 0)
(1.694355585798763e-12 0 0)
(1.727652896698889e-12 0 0)
(1.7828608213397e-12 0 0)
(1.816664765021079e-12 0 0)
(1.853603812545714e-12 0 0)
(1.923162988540341e-12 0 0)
(1.904046379344481e-12 0 0)
(1.961330996771606e-12 0 0)
(1.988438358643187e-12 0 0)
(2.026185008917985e-12 0 0)
(2.055213562424634e-12 0 0)
(2.102480896051248e-12 0 0)
(2.145971056567131e-12 0 0)
(2.149567647696187e-12 0 0)
(2.250668476438487e-12 0 0)
(2.179960598395782e-12 0 0)
(2.282962554108881e-12 0 0)
(2.313064567171802e-12 0 0)
(2.366837868293817e-12 0 0)
(2.403079668723891e-12 0 0)
(2.437209663204824e-12 0 0)
(2.485119066098321e-12 0 0)
(2.517362982107057e-12 0 0)
(2.622752632906997e-12 0 0)
(2.570037742842555e-12 0 0)
(2.676887097992298e-12 0 0)
(2.700668741706762e-12 0 0)
(2.748934292396778e-12 0 0)
(2.802110669747318e-12 0 0)
(2.828861883822476e-12 0 0)
(2.931312061259076e-12 0 0)
(2.864817762781581e-12 0 0)
(2.992429029624126e-12 0 0)
(3.007191606602003e-12 0 0)
(3.126435908306989e-12 0 0)
(3.080658376026747e-12 0 0)
(3.208746178653505e-12 0 0)
(3.262594722267971e-12 0 0)
(3.334396124531432e-12 0 0)
(3.397835577823287e-12 0 0)
(3.459283613154397e-12 0 0)
(3.582821753083503e-12 0 0)
(3.553326696124483e-12 0 0)
(3.699251985578235e-12 0 0)
(3.768053720484564e-12 0 0)
(3.841811427546233e-12 0 0)
(3.928255018799883e-12 0 0)
(4.017091321306856e-12 0 0)
(4.098343180595565e-12 0 0)
(4.168203326559259e-12 0 0)
(4.305390454581098e-12 0 0)
(4.283640358156808e-12 0 0)
(4.444072400114748e-12 0 0)
(4.523413100101293e-12 0 0)
(4.613729171622082e-12 0 0)
(4.704421455604474e-12 0 0)
(4.808150755408748e-12 0 0)
(4.91412729764884e-12 0 0)
(5.002988680986537e-12 0 0)
(5.165773304868843e-12 0 0)
(5.159131900886508e-12 0 0)
(5.323195647137389e-12 0 0)
(5.419666554523821e-12 0 0)
(5.521645212342362e-12 0 0)
(5.620288119671171e-12 0 0)
(5.704930907277372e-12 0 0)
(5.880752546982296e-12 0 0)
(5.872581212324856e-12 0 0)
(6.04308069974466e-12 0 0)
(6.132604217014315e-12 0 0)
(6.256669054389117e-12 0 0)
(6.362204174007636e-12 0 0)
(6.472424392809745e-12 0 0)
(6.596709941494377e-12 0 0)
(6.69627582339564e-12 0 0)
(6.880810543702197e-12 0 0)
(6.890250968395124e-12 0 0)
(7.093746796746041e-12 0 0)
(7.189174341574196e-12 0 0)
(7.326200952278882e-12 0 0)
(7.461351516843603e-12 0 0)
(7.591806949891966e-12 0 0)
(7.709225367119676e-12 0 0)
(7.821948652830168e-12 0 0)
(8.021556952415702e-12 0 0)
(8.040819030429138e-12 0 0)
(8.250494775476884e-12 0 0)
(8.377403779058511e-12 0 0)
(8.509118269811286e-12 0 0)
(8.660571374360953e-12 0 0)
(8.791041855908986e-12 0 0)
(9.000602229135311e-12 0 0)
(9.037691761644156e-12 0 0)
(9.257851293944015e-12 0 0)
(9.406655862768079e-12 0 0)
(9.565512828555112e-12 0 0)
)
;

boundaryField
{
    inlet
    {
        type            calculated;
        value           uniform (0.005258590037002233 0 0);
    }
    outlet
    {
        type            calculated;
        value           uniform (9.62769358499625e-12 0 0);
    }
    frontAndBack
    {
        type            empty;
    }
}


// ************************************************************************* //
