/*--------------------------------*- C++ -*----------------------------------*\
| =========                 |                                                 |
| \\      /  F ield         | OpenFOAM: The Open Source CFD Toolbox           |
|  \\    /   O peration     | Version:  v2012                                 |
|   \\  /    A nd           | Website:  www.openfoam.com                      |
|    \\/     M anipulation  |                                                 |
\*---------------------------------------------------------------------------*/
FoamFile
{
    version     2.0;
    format      ascii;
    class       volScalarField;
    location    "0.01";
    object      p;
}
// * * * * * * * * * * * * * * * * * * * * * * * * * * * * * * * * * * * * * //

dimensions      [1 -1 -2 0 0 0 0];


internalField   nonuniform List<scalar> 
1000
(
101318.1622389955
101324.3346814971
101315.7351386197
101302.8077002105
101290.3785671941
101283.8906515433
101283.397103042
101285.1004329551
101283.7726764815
101278.4058462851
101273.2985869013
101272.0849065235
101273.8930730792
101278.6606121044
101279.6834781237
101280.7512157594
101281.4742944878
101283.2557841307
101289.4641491702
101300.6563256826
101314.5533312838
101324.8102564329
101331.8598951627
101330.7991952323
101327.9601688936
101329.490993329
101336.4780276875
101349.8064024019
101363.1262085897
101372.4170081838
101374.4183070575
101370.512085238
101367.6240268065
101370.8708177661
101377.7112114719
101385.6500164899
101386.1561833713
101378.2134578497
101363.8948710235
101352.0062960847
101347.9027313344
101350.3757428028
101355.8225683039
101356.4586401527
101349.5757104024
101334.7836331221
101314.8928078733
101300.8290090905
101300.6307026155
101304.6691693972
101307.1291900049
101303.2902485736
101293.2309266064
101281.1240860502
101268.4218264713
101264.0856699445
101266.6817085262
101274.5884565912
101281.5560508653
101288.3787559891
101288.4355820366
101281.7544059249
101273.6815176644
101271.2816998558
101277.4219219163
101294.4873113258
101316.4023419833
101333.9641359138
101337.9726157029
101330.214368856
101318.3774377959
101312.5548524858
101318.081951064
101337.2289444877
101365.0227001736
101388.5182112533
101398.249484597
101393.0805101515
101379.1550785719
101364.5460171661
101356.2220909547
101357.6700998629
101367.9325511129
101378.9187966087
101386.3850904586
101384.4680360123
101373.6707501492
101359.74735317
101344.1196418559
101330.9188626917
101328.8386216469
101330.9704580188
101333.195508646
101328.6757086392
101320.4682485598
101311.0779569677
101305.5010765381
101295.1238604389
101280.3242603269
101270.3806773211
101268.69895221
101264.4549361294
101265.4005671501
101271.7167053389
101277.9019882825
101283.8001828792
101284.0156855298
101280.7435313537
101275.4696357745
101273.9360898712
101278.1470736598
101288.0501336557
101301.7636846959
101315.2989529653
101323.7470252458
101325.4040510702
101326.3010591364
101331.1286757765
101342.0208211798
101356.0579828646
101367.1620195045
101370.3102791666
101368.0126333939
101366.0530546142
101369.5841651804
101376.0662657406
101382.7198699063
101385.8789026057
101383.0742117791
101376.0658322502
101369.1612175041
101363.320398359
101362.0884987139
101362.0626591208
101359.1496597305
101353.4875518656
101348.0568205374
101340.2274640582
101323.9633046411
101311.4817422292
101308.5734998838
101304.2723392174
101300.7253052698
101297.1979874122
101298.1964504959
101292.9171733314
101280.3714897231
101269.5820234158
101263.7133258302
101260.2005886995
101263.4987056741
101271.0994793094
101279.83474784
101284.9948399409
101285.3419664108
101281.2944744779
101278.1971240515
101284.1719965828
101302.0803295096
101321.3289611783
101332.0042031166
101333.5796926961
101327.4587793879
101318.1649990198
101313.8039265744
101320.3757339807
101339.3085293072
101369.8688519863
101394.5084232585
101398.1472188748
101393.1237266688
101384.6514238441
101375.9447953954
101368.8588207938
101366.3777047745
101368.0033708618
101366.5467078194
101366.1533782539
101367.7746841753
101368.0895617273
101370.3675071774
101362.3515831054
101344.210775446
101329.9324842654
101323.3294235071
101321.5418449048
101322.1589162532
101322.5022041151
101314.6041934846
101294.7676255714
101273.8773609845
101267.5601137244
101270.0743620792
101275.4580935735
101279.2579785731
101279.06755041
101274.5770073431
101269.8635996096
101267.7767873625
101269.5673961142
101274.0831303275
101278.2609410152
101278.6799672888
101281.5138202906
101291.5801932268
101305.7573150958
101315.0370113771
101318.9401889902
101322.6514070854
101327.3321854613
101334.6335271148
101346.3518942861
101363.2873058613
101370.9338714289
101371.4556767264
101370.6797942349
101373.7158734463
101381.2450453658
101386.1612759292
101388.4069841588
101385.5121061879
101378.2369633819
101372.9264703555
101370.5530477983
101371.3794155537
101372.0000893625
101369.6715459123
101363.9037610058
101356.6899904674
101347.8557279616
101338.5613953732
101328.6225463392
101310.6110114418
101294.8924766506
101289.2573039931
101288.7588497164
101286.466793602
101283.1554844398
101280.4571126125
101277.0029251987
101270.8364937442
101266.6181701617
101265.5358894385
101268.0924428484
101272.9003040908
101276.5579060575
101276.7219289846
101273.8028744519
101272.5943934176
101279.8279350914
101298.1883576396
101317.7385679408
101327.0651770044
101327.4723168413
101322.8454520297
101317.2475741525
101316.3693082002
101323.6356500364
101341.4642589327
101368.158469815
101386.932999345
101389.9810861043
101385.7868784006
101377.6651057795
101370.552902703
101366.9694687471
101369.1493613725
101375.2489203489
101381.9582068383
101385.2879588806
101384.3147690309
101378.4874972475
101372.0530633379
101367.2007737422
101360.2010114987
101344.7612332829
101330.746510027
101324.2913995725
101319.1647136293
101311.1289679588
101302.0515158087
101291.0207201458
101279.1638878315
101275.7430780833
101276.0683970969
101276.5916944611
101273.3750562848
101268.470864285
101264.1642688331
101263.6959384822
101265.0623706709
101267.6628400533
101270.7371140865
101272.9666206534
101280.4105767223
101292.7161810994
101300.5458756952
101302.4244034405
101304.3123356648
101305.6858792339
101305.8753139662
101310.9401023327
101325.651056632
101352.3564912931
101372.6939775529
101376.071198635
101375.1098705866
101375.5197631298
101374.5997204596
101373.0978256571
101371.5407458005
101370.8354609302
101375.0574906311
101382.8078294323
101387.4385259699
101388.3607007346
101386.1911043804
101382.6345429153
101379.5615182554
101370.7057197102
101353.3757778526
101336.4220998433
101329.704456809
101328.0212942631
101328.7829424483
101324.8734186323
101309.8243993148
101285.1006666572
101272.3595711187
101270.2466067246
101271.8781577499
101274.7493393438
101277.1629994596
101277.3365792625
101274.7423358362
101270.7891839537
101266.1211000554
101263.6266343105
101263.7984446187
101265.4587892797
101266.0232390366
101269.3064994641
101279.9556606328
101299.6032288704
101316.5339519025
101323.0154812518
101325.8195200684
101328.3401847502
101335.4005778328
101350.3060945845
101362.6484778853
101365.27033685
101366.7361982367
101366.4573114467
101365.4680265686
101363.7990246038
101364.3919308346
101369.1610457581
101379.9495041688
101390.2269501788
101393.0561280523
101392.6027248824
101390.9847527749
101389.6087581226
101386.0641250233
101377.1076790145
101361.2003650108
101344.6724284657
101334.4529976032
101328.0783757564
101320.5598378969
101307.3205771179
101291.7555302888
101285.2430235107
101284.5298425065
101284.1267212159
101282.2311327543
101279.0689513008
101271.9084750625
101266.0514582397
101264.9420415902
101264.8957169275
101266.4162735698
101268.7194861286
101274.881177211
101279.8676046022
101280.8720093025
101281.0655583696
101281.0019011879
101281.0075561044
101281.3828820585
101282.3178922426
101287.4625000789
101302.6872267807
101337.5231291981
101370.3915342672
101377.6065503491
101377.6542447152
101377.3050670032
101376.9792334935
101376.0970465627
101375.6275759549
101375.8955690277
101376.9837971256
101377.8889992356
101379.9837151434
101381.8720132606
101382.7040412614
101383.2102918619
101383.5295599168
101383.0724885814
101382.1272516006
101381.2396466177
101377.0138835473
101364.7727118198
101335.1755960634
101297.9982319886
101284.8918936486
101283.9860024105
101283.9249870767
101283.628124988
101283.4020369848
101283.6254813055
101282.9498757352
101280.286287664
101273.9309521999
101267.6112294909
101265.9102481819
101265.7504654574
101266.1798594206
101266.9937102316
101267.6531545075
101269.0499644051
101272.4893760033
101278.4656553265
101285.3848538221
101291.7430463684
101298.7293239632
101310.3840543171
101332.5372809076
101353.9116142706
101360.1834715103
101361.7726181338
101362.6161806803
101362.4541632258
101361.1751610824
101359.9489488201
101361.012905547
101366.4626398035
101376.983790292
101386.0718300837
101388.5498473426
101387.5661543259
101385.7748078599
101385.1623946224
101385.93680295
101386.8773343085
101386.4321906006
101383.1562406701
101376.5090073619
101358.4578673228
101323.1033633677
101293.9791015626
101288.6629120032
101288.6382402436
101288.6549463565
101288.6953450237
101288.3973709791
101287.0962160172
101283.9805899461
101278.0560393255
101271.5642293314
101269.1891726242
101268.9125743471
101268.7874067377
101269.3083553699
101270.0528685081
101272.0285924542
101276.463527953
101281.0972828712
101283.0241155671
101282.7589969689
101283.2005843474
101285.2013383904
101288.7020878185
101301.5267060974
101331.1021939875
101362.5565706197
101370.6769917675
101371.026080508
101371.2018199144
101370.82278451
101370.4674996526
101370.0101522179
101370.4589549058
101371.710736317
101373.030520657
101376.0342671179
101380.7002313983
101383.4778973891
101384.0631982457
101383.9828020716
101383.4888955094
101383.1165187395
101382.7178627925
101380.8423218184
101376.0902845245
101362.0565742515
101328.537173751
101290.6056951644
101279.1521942925
101278.4588799277
101278.6509040324
101279.0673378608
101279.2546125516
101279.249267373
101279.1333086091
101279.1593736331
101278.3476092872
101276.4213914301
101272.2187822621
101268.1072191718
101267.0240525934
101266.8266134463
101267.0603723203
101267.4331066019
101267.5827264726
101267.9209366808
101269.0915706336
101271.4852465075
101278.734776816
101300.8448091095
101342.6193321386
101372.2779438456
101376.6533566919
101376.8350831732
101377.0462826578
101376.7097660444
101376.0329945618
101375.5799435104
101375.3572304258
101375.0884120287
101374.5580387666
101374.8498013092
101375.720083141
101376.7375091711
101377.131058201
101377.1159671411
101377.4372858633
101377.3211992066
101376.4021493072
101374.7209908385
101373.8311000647
101370.1274387188
101355.7902293489
101321.7975704012
101288.7340429606
101280.4792341675
101277.1441200321
101277.0588708411
101277.68988551
101280.2016646285
101281.8190624879
101280.315188364
101276.7370763433
101272.2537103184
101267.7982707906
101267.0121932917
101267.7786877605
101271.941926881
101278.0364848154
101281.2067636114
101280.6397282258
101276.4320763686
101271.5848102665
101270.486644835
101278.3359195675
101301.5583196237
101340.6160573935
101366.6277442218
101374.496473725
101372.463715046
101364.2682450857
101355.4766691364
101351.7964610234
101355.0632784035
101363.4510857378
101375.2943536517
101385.1170645747
101389.8895269152
101389.3327532372
101379.6267746896
101368.8547490938
101362.4262906076
101362.1290438214
101366.803684932
101381.1079677434
101392.7692412671
101395.7261829291
101386.4763405093
101358.6707311991
101312.5444146582
101274.7106490409
101256.970718415
101256.8994872272
101261.7314445049
101284.8248427302
101313.4071978547
101326.2561567088
101324.3295799039
101316.6629846929
101309.1597470227
101276.9639972194
101238.4756069674
101218.2523651516
101211.2733572252
101207.1143525363
101211.74533793
101238.0731473386
101265.5389257324
101280.8657794926
101286.8064393445
101295.9728758702
101292.6885815761
101283.9643145031
101280.4093374927
101296.4441810113
101316.8249919931
101319.1277506639
101318.308974913
101324.5145280048
101356.8179716767
101391.2718659355
101413.6778550747
101427.3095492375
101435.6011271175
101438.8202886238
101436.7961770673
101437.8244459045
101430.5928375132
101398.8571914221
101358.9553961529
101333.5403545901
101322.6428594473
101329.6410766175
101353.12849376
101395.9574356034
101425.9882691003
101427.1688999445
101402.0141978102
101355.5274865203
101322.9243549951
101273.2194640247
101251.3459801304
101252.9296147112
101259.2797306993
101263.5402013001
101266.1078261703
101264.5666258708
101253.266459109
101237.2333845044
101227.2768489536
101225.5978258914
101237.0044747094
101270.2686031735
101298.0145702071
101309.8235368068
101308.4249979036
101300.8538747221
101277.3376289437
101256.3563552438
101257.1605257285
101280.2324663154
101313.3354868131
101335.0017690174
101363.0344044465
101373.3997605881
101367.1528071187
101358.9442642382
101358.4600653383
101363.4645889441
101375.6943575136
101403.6423733695
101428.1874687026
101443.6719360659
101451.4191690614
101445.5383502053
101408.7729486094
101363.9264408005
101338.9522185001
101337.1991214908
101344.4620885201
101383.2161173773
101422.5532044175
101435.0968599492
101411.7332805362
101360.7955760024
101317.4473313941
101269.3813678007
101242.2632461569
101243.8115159006
101260.5668234486
101265.408822109
101266.0299266678
101259.3123170251
101245.5978410595
101231.5851161076
101225.5479952494
101223.0339873604
101224.2199473919
101240.6629370683
101273.8757448155
101297.8809891308
101326.2902261455
101335.9593626995
101336.8017990731
101313.5162632522
101286.7112777172
101271.0859220481
101269.808023705
101286.0136647382
101322.9234617736
101360.7231472102
101380.3990538035
101381.6588483539
101369.9422949104
101359.4457695788
101359.2634402039
101380.1565662142
101415.4503457228
101448.9165286641
101462.7935793218
101452.8630535739
101423.1473118687
101370.8320468783
101332.994097197
101320.4795136443
101334.1983917763
101355.235487488
101401.6119435473
101431.3332839984
101425.823214658
101387.6346590543
101332.6581621079
101289.4770997657
101244.8807803214
101232.9766259611
101246.5791568759
101263.004175499
101271.9789907455
101277.7408088608
101277.4663581811
101262.1769840733
101238.8247732143
101222.9712544496
101217.3558806826
101228.2489583193
101265.5189227621
101303.2915239953
101319.7637050309
101312.2231458268
101302.5164701392
101262.4980839384
101230.8155958776
101229.4716188834
101259.7729895623
101315.7999697839
101349.9831697484
101395.382503264
101409.0737803871
101395.5370134405
101370.9046966379
101362.3009031275
101360.7316193392
101374.683454907
101395.3561151001
101424.1307842578
101435.5048583613
101436.0428831827
101428.4502670656
101398.1936032428
101361.8703584558
101342.8522382265
101345.9946220292
101347.5470154784
101380.8470317749
101413.1605891631
101415.3420976659
101382.9813533061
101328.0639104001
101303.8741285336
101255.9173127518
101230.8474432403
101235.0762696633
101257.3691194205
101267.6222735544
101277.179582797
101273.7042940854
101260.6131636874
101239.5340575926
101214.8584765367
101204.6258517684
101214.8276047794
101239.7725411214
101283.4461652564
101309.7836134429
101312.4870003199
101297.3562214726
101267.1477477717
101226.5184488857
101208.2667229496
101226.7352568107
101281.097379678
101342.6971546356
101394.8244384328
101426.9565447267
101424.7911846239
101397.4700781343
101363.1532107222
101347.5635618208
101346.1134768027
101369.2774401876
101400.8251006347
101435.5798245489
101445.6055520053
101432.2576619078
101409.5932608129
101362.8848725417
101327.4367716444
101315.036717614
101330.4056853385
101348.0297907664
101397.4982122716
101433.3160838139
101436.9752681582
101401.9739036762
101330.2518877301
101276.1113404363
101213.1401235398
101185.3641278667
101190.0700442052
101220.3371411845
101254.6276012679
101271.1575099545
101271.0691820371
101247.1060829959
101222.7712037389
101202.559853528
101203.9492451518
101223.3553353003
101253.6674440079
101283.4279464223
101293.951377879
101284.5739711432
101276.220633632
101244.4565574729
101221.4575190085
101232.9533301912
101276.5210171425
101329.2033637396
101347.6343744407
101386.6164925843
101405.881126473
101399.4362197923
101377.4476877456
101366.0707537281
101359.6496994142
101368.7849063118
101390.3663655638
101399.6840090575
101407.7150855496
101397.2039617373
101384.9450208402
101356.8501606311
101335.9229881491
101328.0256837159
101340.0252699703
101348.9628995408
101384.9499709772
101411.5840683913
101406.4568314099
101363.4194570843
101295.2086443841
101250.7609162557
101204.3858595247
101174.3734244063
101172.6651786862
101196.431369701
101232.5984757403
101246.1735833761
101260.7234186983
101257.9612883632
101238.4239870655
101210.0852618558
101195.4544375062
101189.5414613789
101205.8096952711
101227.0699372854
101252.0096164376
101261.2839739974
101251.0426923246
101240.2269762011
101211.5560894343
101194.766508155
101215.6974859435
101274.8533922731
101340.7403533412
101368.5277705327
101405.702666775
101418.4580967351
101402.4423467741
101368.9488792831
101339.9314445849
101332.3481526513
101331.5454924981
101347.2674308738
101370.5358678938
101382.7803525303
101381.6532202515
101364.6030049004
101338.0748193771
101313.2119123815
101302.5997575571
101309.0450345209
101323.6836441088
101359.3455781982
101382.6076786449
101370.0882079454
101315.9389378107
101236.0417643715
101199.874683226
101152.667954023
101134.2317359147
101145.853452279
101178.2912952648
101213.4763142944
101222.0608015162
101230.3287821614
101219.9091227115
101198.5115285335
101182.4638676049
101172.3417688441
101174.5528848814
101188.4476379771
101204.797938519
101216.9614871649
101214.3524717881
101202.6184925961
101181.5047317044
101165.756647083
101180.2883879952
101232.1607314559
101303.8379212919
101339.6880111734
101371.8499002445
101390.7164731357
101381.1778167192
101348.7600542012
101314.1635034503
101306.0102529284
101294.8960621394
101300.4484671017
101317.8085455361
101336.6244714481
101340.4625637672
101344.7260337258
101332.8585043032
101315.3033442381
101300.5446344531
101296.0494134077
101307.0154244062
101320.306925498
101339.6008045597
101335.3887128976
101294.7991182493
101221.2282097537
101175.3915551026
101140.4703168696
101119.0358302648
101125.1375330294
101154.102130821
101188.1200477647
101201.2806795619
101208.9012040083
101201.1458344539
101179.3677558731
101157.6426478168
101148.0876480645
101147.4871816974
101160.1366454186
101177.2402005527
101187.1301432464
101188.5686019977
101180.5929192149
101170.4335159327
101158.2158371659
101156.0805721017
101187.1156645786
101257.6829108126
101314.3270740584
)
;

boundaryField
{
    inlet
    {
        type            uniformFixedValue;
        uniformValue    sine;
        uniformValueCoeffs
        {
            frequency       constant 3000;
            scale           constant 50;
            level           constant 101325;
        }
        value           uniform 101325;
    }
    outlet
    {
        type            waveTransmissive;
        gamma           1.4;
        fieldInf        101325;
        lInf            2.25;
        value           uniform 101317.6848253535;
    }
    frontAndBack
    {
        type            empty;
    }
}


// ************************************************************************* //
