/*--------------------------------*- C++ -*----------------------------------*\
| =========                 |                                                 |
| \\      /  F ield         | OpenFOAM: The Open Source CFD Toolbox           |
|  \\    /   O peration     | Version:  v2012                                 |
|   \\  /    A nd           | Website:  www.openfoam.com                      |
|    \\/     M anipulation  |                                                 |
\*---------------------------------------------------------------------------*/
FoamFile
{
    version     2.0;
    format      ascii;
    class       volScalarField;
    location    "0.01";
    object      pMean;
}
// * * * * * * * * * * * * * * * * * * * * * * * * * * * * * * * * * * * * * //

dimensions      [1 -1 -2 0 0 0 0];


internalField   nonuniform List<scalar> 
1000
(
101325.0359444022
101325.003695795
101325.0248268157
101325.0206173188
101325.0487532338
101325.0800950385
101325.085006187
101325.109042402
101325.1665376069
101325.1876307137
101325.2108805265
101325.2445978763
101325.3103987181
101325.3182820557
101325.3818275468
101325.4086300622
101325.4334420948
101325.4378889367
101325.4897424671
101325.489614573
101325.502584236
101325.5201228903
101325.5653556272
101325.5434766094
101325.4905678309
101325.5180179403
101325.514757689
101325.4896906073
101325.4548799401
101325.4573629561
101325.449038471
101325.3767556829
101325.368918009
101325.3310823999
101325.2517923355
101325.2456465439
101325.2216991329
101325.1834872868
101325.1242557939
101325.1138690844
101325.0877466792
101325.0674612601
101325.0279534787
101325.0275132285
101324.9986139968
101324.9913241996
101325.0059764181
101324.9834279713
101325.0258127023
101325.0128206543
101325.083516683
101325.0592909205
101325.0935613797
101325.0989532214
101325.1605774921
101325.150570401
101325.2054230737
101325.2509128937
101325.3212237103
101325.3285778394
101325.3595376077
101325.4261871934
101325.4171363316
101325.4436097531
101325.4739876021
101325.5177865815
101325.508023496
101325.5423496594
101325.5585163428
101325.5528540683
101325.5347896589
101325.54191299
101325.5309851611
101325.4931692014
101325.4975362854
101325.4833101949
101325.4423569184
101325.4060016303
101325.3864804244
101325.3122025397
101325.2824361193
101325.2532095406
101325.2299256202
101325.157057167
101325.1761617804
101325.1429640825
101325.0630530756
101325.0431344092
101325.0443515663
101324.9797409546
101324.9877321258
101325.0054376471
101325.0182059468
101324.9989667192
101325.0034033737
101325.0011063399
101325.0122174047
101325.0238363205
101325.0351197003
101325.0733232919
101325.1413253853
101325.193123524
101325.1963827226
101325.2396422459
101325.2782987849
101325.3368118877
101325.3317326591
101325.3690187717
101325.4316778492
101325.4630588063
101325.4475706009
101325.5192730788
101325.5546513576
101325.5375980479
101325.5480211771
101325.5802122508
101325.5766237683
101325.5135596568
101325.5384782127
101325.543103235
101325.517159777
101325.448718809
101325.4517562993
101325.4281390222
101325.3888239715
101325.3023374056
101325.3155743048
101325.2722496353
101325.2132745812
101325.1722089409
101325.1456843
101325.1214586744
101325.0751118519
101325.0664982723
101325.0439904645
101325.008389224
101324.9867436208
101324.9682216962
101324.9669441454
101324.9737571312
101324.985640241
101325.0079118822
101325.0090962302
101325.0360708319
101325.0612169759
101325.0245138194
101325.0945921262
101325.1651189535
101325.1578465662
101325.2038898548
101325.2761024475
101325.3005970843
101325.3028573794
101325.365498118
101325.4201864447
101325.438991746
101325.4498493368
101325.5107861788
101325.5124192911
101325.5148795863
101325.5043654338
101325.5447457354
101325.5484190814
101325.5130232944
101325.5323566745
101325.5492656743
101325.5306126769
101325.4953082487
101325.494391086
101325.4287741582
101325.3841050794
101325.3435005683
101325.2712476986
101325.2459236446
101325.2349556723
101325.1977480139
101325.1586952468
101325.1473606903
101325.119337708
101325.0501968365
101325.0281319268
101325.0126757218
101324.9971621157
101324.9734961518
101324.9784648245
101325.0033098384
101324.9750692955
101324.966060432
101324.9999651777
101325.0200402501
101325.0127820186
101325.0482806037
101325.1209819464
101325.1501812757
101325.1616716132
101325.2240767623
101325.2688502345
101325.2819502116
101325.3051509136
101325.362125196
101325.3978692138
101325.4335528298
101325.4783237868
101325.5158504492
101325.5428294392
101325.5498910702
101325.5537457432
101325.5674554351
101325.5507162503
101325.5632892168
101325.5699038403
101325.5510711945
101325.5480780172
101325.5251867001
101325.4686001071
101325.4327805269
101325.4032558953
101325.3595063076
101325.3173366209
101325.2907107979
101325.2595137677
101325.2124295884
101325.1469284267
101325.1205958542
101325.081968403
101325.0370105292
101325.0004528171
101325.0125512174
101324.9786732246
101324.9443935264
101324.9354288681
101324.9240113336
101324.9043154855
101324.9273582626
101324.966357994
101324.9788095484
101325.0108418977
101325.0586644866
101325.067394885
101325.096651953
101325.1461727352
101325.1819153015
101325.2140898955
101325.2600605023
101325.2980291923
101325.3424244636
101325.3836494618
101325.418708336
101325.4481671308
101325.4758528761
101325.5115424044
101325.5135683215
101325.522823418
101325.5354012797
101325.5423810889
101325.535732784
101325.5396373678
101325.5256607616
101325.5251159795
101325.5164387995
101325.4716077552
101325.4407157978
101325.4043226586
101325.3591501126
101325.3091438397
101325.2749920659
101325.2373667541
101325.2059517824
101325.1725476971
101325.1437245934
101325.1043836078
101325.0645473898
101325.0237697127
101324.9849523827
101324.9359624573
101324.9238103126
101324.929768952
101324.9245393286
101324.9253920733
101324.9502845541
101324.9453592015
101324.9579196662
101324.9810144907
101325.0184699291
101325.0576846452
101325.1113233241
101325.1319075792
101325.1769035627
101325.2191397584
101325.2563675938
101325.2872140173
101325.3411896251
101325.3911594904
101325.430902111
101325.4634864226
101325.4897708194
101325.5153475418
101325.531148088
101325.5377699925
101325.5545376051
101325.5808332862
101325.5930837589
101325.587552983
101325.5907685041
101325.5708970776
101325.5308852747
101325.4853403251
101325.4517968807
101325.422767566
101325.3857259547
101325.3535521766
101325.3193304309
101325.2877755364
101325.2452658585
101325.1977244331
101325.1607696472
101325.1195274655
101325.0685958808
101325.0251246033
101324.9968883651
101324.9617248321
101324.9502769337
101324.9421183426
101324.9350645477
101324.9345202041
101324.9360568718
101324.9402543492
101324.9617152715
101324.9921053664
101325.0283307711
101325.0672836199
101325.1007176557
101325.1404526945
101325.1790105971
101325.2126196689
101325.2491165031
101325.2885553081
101325.3287203998
101325.3738574706
101325.4202270865
101325.4635922215
101325.5066929344
101325.5408546298
101325.5685780603
101325.5820721265
101325.5863923813
101325.5869243256
101325.5919400152
101325.5853149587
101325.5743577745
101325.550673635
101325.5254918541
101325.4878862922
101325.4688699637
101325.4379737757
101325.4104071945
101325.375063016
101325.3532143204
101325.3134737812
101325.2725002395
101325.2225454099
101325.1815983978
101325.1270466837
101325.080394349
101325.032415676
101324.9941118632
101324.9571036819
101324.9381496994
101324.9249204346
101324.9195106143
101324.917682257
101324.9253299398
101324.9397866063
101324.9686209317
101324.9946044295
101325.0266785396
101325.054589307
101325.0871134316
101325.1222824395
101325.1618561221
101325.2047100757
101325.2492681754
101325.2916933711
101325.3340953919
101325.3718708616
101325.4064130038
101325.4381588278
101325.4700167049
101325.5029149117
101325.5348907296
101325.5665712633
101325.5971552762
101325.627329921
101325.6498399464
101325.658126269
101325.6378359133
101325.6033287668
101325.5644128884
101325.5280620142
101325.4889474507
101325.4528905047
101325.4140450974
101325.3794783188
101325.3408122451
101325.3064085893
101325.2655144745
101325.2268603575
101325.1823624669
101325.1425540353
101325.0979966737
101325.0583185146
101325.0150640453
101324.9757724748
101324.9355220584
101324.9006499733
101324.8776874384
101324.8824874971
101324.9057769946
101324.9352424724
101324.9638313578
101324.9946759208
101325.0221543453
101325.0527531502
101325.0815896525
101325.1143028934
101325.146248611
101325.1861543675
101325.2264180485
101325.2696301935
101325.309818191
101325.3542424309
101325.3941156998
101325.4374741808
101325.4741754645
101325.5132561754
101325.5414308159
101325.5728486504
101325.5920282175
101325.613990738
101325.6132304694
101325.6051924045
101325.5749941579
101325.5555184571
101325.5232313158
101325.505590529
101325.4735458479
101325.4529051283
101325.4177817409
101325.3957762159
101325.357369315
101325.324514414
101325.2761356747
101325.237391878
101325.1863106923
101325.1479408546
101325.0956547562
101325.057669355
101325.010547782
101324.9725112834
101324.9300283898
101324.8965194913
101324.8794572047
101324.892076585
101324.9162101999
101324.9420882739
101324.9683546103
101324.9954375342
101325.0221930397
101325.0466154505
101325.0751894685
101325.1038653568
101325.1421570817
101325.1788102337
101325.2240708661
101325.2601172047
101325.3047318124
101325.3393743759
101325.3821060888
101325.4150980829
101325.4522957367
101325.4817796785
101325.5157330299
101325.5411447378
101325.5719009508
101325.5984668339
101325.6223635644
101325.6308047529
101325.617616664
101325.5861550922
101325.5524762965
101325.5200018815
101325.4859830681
101325.4540314441
101325.4195058362
101325.3887523021
101325.3525149991
101325.3225844346
101325.2839769194
101325.2489191452
101325.2039057589
101325.1651522614
101325.1198468741
101325.0813895744
101325.0348575428
101324.9968946258
101324.9529885014
101324.9161905607
101324.8797987312
101324.8645032631
101324.8719476422
101324.9035591464
101324.9344442361
101324.9698594973
101325.0009231174
101325.0359981472
101325.0676816507
101325.101998069
101325.1339914715
101325.1686051359
101325.2012945943
101325.2381452975
101325.2771801862
101325.3184931303
101325.360429484
101325.4026938974
101325.4443225735
101325.486260074
101325.5266089135
101325.5684874071
101325.6071145165
101325.6453911866
101325.6717570975
101325.6795809399
101325.6552892904
101325.6200639532
101325.5820060277
101325.5452167593
101325.5076414308
101325.4711088219
101325.4339741996
101325.3985420182
101325.3621307847
101325.3268250404
101325.2899071436
101325.2539289194
101325.2169170937
101325.1806099623
101325.1429771651
101325.1063193823
101325.0678496804
101325.0304533884
101324.9919176648
101324.954232252
101324.9201780944
101324.8922066588
101324.8821867348
101324.8964296734
101324.9278132591
101324.9576873973
101324.9875063809
101325.0170469289
101325.0497587244
101325.0848356671
101325.1204386517
101325.1605674818
101325.1992108925
101325.2347570507
101325.2686540516
101325.3030968291
101325.340178536
101325.3756138552
101325.415396398
101325.4574455119
101325.5022544217
101325.5350690337
101325.5617251829
101325.5889109404
101325.6123412504
101325.6179128101
101325.6032704752
101325.5824839893
101325.5613211967
101325.5308854076
101325.5013318268
101325.4699284682
101325.4370690082
101325.3995300497
101325.3688381196
101325.3478809407
101325.3198034636
101325.2835191788
101325.2391002189
101325.206614886
101325.1615375976
101325.105549596
101325.056912594
101325.0168936894
101325.0037662071
101324.9719994233
101324.9572066956
101324.9380293081
101324.9412156814
101324.9380196536
101324.9339282571
101324.9388651457
101324.9496022502
101324.9647170725
101324.9854177602
101325.0478181477
101325.1098432881
101325.1895624371
101325.2554028041
101325.3152857067
101325.3444153021
101325.3607642711
101325.348188306
101325.3564310984
101325.3412597193
101325.3512843563
101325.3824407937
101325.4350972041
101325.5069549883
101325.5756161669
101325.6062456492
101325.6493116586
101325.6162738134
101325.5730388496
101325.4860157304
101325.3745214086
101325.2557710501
101325.1537746406
101325.0864873848
101325.0438333472
101325.0241958734
101325.0132847915
101324.995955645
101325.0047636401
101325.0190866703
101325.0400326648
101325.0552236159
101325.0541822524
101325.0123963025
101324.9442587941
101324.8724206155
101324.8138657054
101324.7550481448
101324.7107306394
101324.7041765575
101324.7297211036
101324.8172105721
101324.8924012269
101324.9965563436
101325.0636493402
101325.1358085452
101325.1791346051
101325.2218115152
101325.2575854845
101325.2869893585
101325.3164942935
101325.3224177126
101325.3215937717
101325.325259687
101325.3197178291
101325.319442477
101325.3578278976
101325.382161664
101325.4306744546
101325.5038357902
101325.571790818
101325.6065702171
101325.6344657729
101325.5883893144
101325.5321455401
101325.4448678033
101325.3652244557
101325.28317488
101325.2240436173
101325.1547350005
101325.1786801099
101325.1511080977
101325.114256602
101325.09033674
101325.0620459351
101325.0634165577
101325.0996378296
101325.1004439892
101325.0911080167
101325.0749599935
101325.0262521978
101324.9510564273
101324.888292056
101324.7776461403
101324.7659687489
101324.7328786117
101324.7289265568
101324.7988850447
101324.8618225976
101324.9850048205
101325.0802886714
101325.1549429586
101325.1896413217
101325.2703477071
101325.2877314741
101325.3306031561
101325.3680217067
101325.3790462464
101325.3989820688
101325.4184042489
101325.4242123603
101325.4096851937
101325.4355814294
101325.4573466849
101325.5379408786
101325.5827298516
101325.6340320015
101325.7050393028
101325.667439927
101325.6243457
101325.5486221499
101325.489001553
101325.4087749497
101325.3778166454
101325.312622862
101325.2698030462
101325.2507272867
101325.208784783
101325.2039469663
101325.174819718
101325.1537685393
101325.1182189735
101325.1567114435
101325.1520853303
101325.1424822994
101325.139188522
101325.1164272341
101325.0703205351
101324.9976242326
101324.9298379504
101324.8845147269
101324.8178513218
101324.8114950478
101324.8614444182
101324.9163922794
101325.0308682532
101325.1326727465
101325.215154845
101325.2846010899
101325.3385940186
101325.3419574848
101325.4023864217
101325.4281043603
101325.4235079478
101325.4448204813
101325.454574649
101325.4395167064
101325.4425939726
101325.4317852647
101325.4516507496
101325.4712830926
101325.5401202605
101325.6050456572
101325.7094918391
101325.7333985506
101325.752175997
101325.7311497518
101325.6617954588
101325.5785891946
101325.4732549061
101325.369876806
101325.3124121955
101325.2678828177
101325.2140219147
101325.2289284351
101325.2007173559
101325.165313859
101325.1425733445
101325.1294707729
101325.1518195835
101325.1747324256
101325.1737309205
101325.1621193577
101325.1261261991
101325.0537737432
101324.9631221339
101324.8716713515
101324.7980226619
101324.7600312964
101324.7909627486
101324.8523463191
101324.9724196128
101325.0904338225
101325.2061019738
101325.2734842702
101325.3534308082
101325.3029179819
101325.3472577083
101325.3489146912
101325.3525408404
101325.393830707
101325.3571834396
101325.3933166161
101325.4023691426
101325.4086350358
101325.3892754374
101325.4306175299
101325.4676040336
101325.518980422
101325.6014126099
101325.6496420941
101325.6822360373
101325.6805829829
101325.6366980027
101325.5560193456
101325.4436462121
101325.3521812148
101325.2478942366
101325.1950325306
101325.0939342721
101325.1120947801
101325.0730646798
101325.0523035608
101325.0367894527
101324.973909497
101324.9939791436
101325.0013282111
101325.0049557901
101324.9668837407
101324.9865270069
101324.9303805053
101324.865737582
101324.7969086872
101324.7065044845
101324.6534287145
101324.6310360766
101324.6394800095
101324.6896288508
101324.7917010636
101324.9173235226
101325.0045014545
101325.074611953
101325.1382514827
101325.1370266297
101325.1553179188
101325.1580559429
101325.1292584678
101325.1667803615
101325.1546317572
101325.1796457895
101325.1889080951
101325.1828208443
101325.1941870133
101325.2127320499
101325.2634730237
101325.302561847
101325.3808312317
101325.4176801274
101325.4471935354
101325.4081129351
101325.3177919477
101325.1960350605
101325.0390541324
101324.9197158163
101324.7993840409
101324.7869925745
101324.7216376822
101324.7558207892
101324.7464021023
101324.7462403568
101324.7097046051
101324.6714549581
101324.6676220701
101324.6495963681
101324.629686845
101324.5822192046
101324.5513010317
101324.4466060772
101324.3592928489
101324.241679264
101324.1816110319
101324.1157536488
101324.0939658033
101324.1291476099
101324.2183770528
101324.3474438572
101324.4565494801
101324.5445445942
101324.6304426593
101324.6054708648
101324.601033282
101324.5453690389
101324.5198905339
101324.496143517
101324.4943724822
101324.492403041
101324.5196310736
101324.529030311
101324.5274891875
101324.5404393319
101324.5324474634
101324.5498535545
101324.5657189548
101324.6187491488
101324.6363291809
101324.6247079831
101324.5721532404
101324.4819313874
101324.3516755494
101324.1897208875
101324.0496547607
101323.9332408824
101323.8591042642
101323.8003769787
101323.7970812623
101323.7933111722
101323.7838699896
101323.7630895999
101323.7123800903
101323.6768386086
101323.6068292921
101323.5408262608
101323.4651325102
101323.399438603
101323.3048847879
101323.2224651837
101323.1387570537
101323.0854981981
101323.014141464
101322.9883903447
101323.015980457
101323.084497879
101323.1849322456
101323.249588082
101323.2970260458
101323.356627122
101323.3017058903
101323.2753442657
101323.2149731495
101323.152914147
101323.1382852334
101323.0919650686
101323.0868384927
101323.078171834
101323.0642867967
101323.0355583872
101323.0383829094
101323.0003796449
101323.0088699038
101322.9976380086
101323.0353758961
101322.9926440445
101322.9541112267
101322.8672651167
101322.7259440503
101322.5661333609
101322.3933346804
101322.2320414398
101322.1324425978
101322.0401539351
101321.9765857434
101321.9655180667
101321.9126537593
101321.8906288457
101321.7927513145
101321.7276028623
101321.6365321365
101321.5505520934
101321.4455134756
101321.3905519542
101321.3020801554
101321.2253414848
101321.1263985179
101321.0564282116
101320.9731261032
101320.9107693635
101320.8840313338
101320.900904702
101320.9834152491
101321.0276425956
101321.0645226192
101321.1018495989
101321.0836776105
101321.0344969111
101320.9720009438
101320.9007416713
101320.8456676826
101320.8079557128
101320.7658087657
101320.747212028
101320.7193113454
101320.6754364623
101320.6305329864
101320.5930099068
101320.5470810438
101320.5056069931
101320.4809174431
101320.4696157266
101320.4027857511
101320.3373097699
101320.2278852949
101319.9679064623
)
;

boundaryField
{
    inlet
    {
        type            calculated;
        value           uniform 101324.9999999998;
    }
    outlet
    {
        type            calculated;
        value           uniform 101319.9733972052;
    }
    frontAndBack
    {
        type            empty;
    }
}


// ************************************************************************* //
