/*--------------------------------*- C++ -*----------------------------------*\
| =========                 |                                                 |
| \\      /  F ield         | OpenFOAM: The Open Source CFD Toolbox           |
|  \\    /   O peration     | Version:  v2012                                 |
|   \\  /    A nd           | Website:  www.openfoam.com                      |
|    \\/     M anipulation  |                                                 |
\*---------------------------------------------------------------------------*/
FoamFile
{
    version     2.0;
    format      ascii;
    class       volScalarField;
    location    "0.01";
    object      rho;
}
// * * * * * * * * * * * * * * * * * * * * * * * * * * * * * * * * * * * * * //

dimensions      [1 -3 0 0 0 0 0];


internalField   nonuniform List<scalar> 
1000
(
1.176353941972177
1.176407835532847
1.176341141316173
1.176236374860346
1.176131106487361
1.176074385904352
1.176068929185678
1.176082852341763
1.176071895181778
1.176027440370744
1.175984879948841
1.175974578852133
1.175989293044931
1.176028416181954
1.176036619139209
1.176045356578695
1.176051287171846
1.176065984448637
1.176117385582019
1.176210106980762
1.176325290657976
1.176410313660298
1.176468749420974
1.176459936745052
1.176436379572553
1.176449066698359
1.176506996274028
1.176617503971825
1.176727937834638
1.17680496604583
1.1768215586304
1.176789173657125
1.176765229930551
1.17679214933277
1.176848862015255
1.176914679821187
1.176918876438294
1.176853027147547
1.176734314816769
1.176635745396968
1.176601721756264
1.176622226384095
1.176667387469032
1.176672661281644
1.176615593307731
1.176492945085948
1.176328012288116
1.176211391450514
1.17620974744892
1.176243236549667
1.176263636039851
1.176231802305663
1.176148385854059
1.176047986842717
1.175942646132799
1.175906685716935
1.175928215774739
1.175993788158926
1.176051570431071
1.176108149844912
1.17610862137082
1.176053216060101
1.175986267943009
1.175966366077724
1.176017287189016
1.176158807108538
1.176340533572136
1.176486153378045
1.176519390528548
1.176455061613619
1.176356911259926
1.176308629761461
1.176354460527493
1.176513224028602
1.176743668885387
1.176938461517073
1.177019136319532
1.176976284213489
1.17686083619659
1.176739715219231
1.176670700600641
1.176682706080175
1.176767792079497
1.176858876090627
1.176920775352228
1.176904881876701
1.176815366205383
1.176699928817739
1.176570355154798
1.176460899530195
1.176443651243315
1.176461328555284
1.176479778287823
1.176442301459741
1.176374246759922
1.176296382049778
1.17625013708891
1.176164084098089
1.176041354843657
1.175958892954395
1.175944946943012
1.175909751029564
1.175917593980574
1.175969975605938
1.176021271168162
1.176070185086672
1.176071972725842
1.176044837672747
1.176001102088445
1.175988384737439
1.176023306893868
1.176105432334698
1.176219153483577
1.176331391550533
1.176401443666126
1.176415184249223
1.176422622417614
1.176462652549312
1.176552966802521
1.176669353731775
1.176761418207922
1.176787520770064
1.176768472267884
1.176752226596457
1.1767815034048
1.176835246224658
1.176890409970315
1.176916600732709
1.17689334915481
1.17683524658858
1.176778002968882
1.176729578085451
1.17671936549726
1.17671915203045
1.176695000959227
1.176648057004186
1.176603030373062
1.176538114514565
1.176403257159121
1.176299760860874
1.176275646105305
1.176239980296842
1.176210567823934
1.176181318371531
1.176189598561639
1.176145819775333
1.176041781416109
1.17595230421254
1.175903633578394
1.175874501072704
1.175901853124674
1.175964887567946
1.1760373290353
1.176080120412682
1.176082998038149
1.176049431285454
1.176023743827678
1.176073291240466
1.176221796101066
1.176381407806531
1.176469922910494
1.1764829846121
1.176432229536566
1.176355163294586
1.176318999335704
1.176373491782578
1.176530476491108
1.176783854204984
1.176988126449179
1.177018291297561
1.176976644048737
1.17690640281904
1.1768342173786
1.176775467943588
1.176754895976361
1.176768372026735
1.176756292714109
1.176753030078673
1.176766471035784
1.176769080364131
1.176787965039175
1.176721503871658
1.176571092698747
1.176452702023306
1.176397949512419
1.176383125950283
1.176388241549608
1.176391086656098
1.176325594582425
1.176161100854633
1.175987860109475
1.175935469882958
1.175956320380009
1.176000967112289
1.176032478101823
1.176030898024004
1.175993657216613
1.175954566750668
1.175937259179409
1.175952108032835
1.175989556548981
1.176024202185485
1.176027675934302
1.176051175708076
1.176134652519027
1.176252215144274
1.176329163849282
1.176361528340904
1.176392300549868
1.176431111994233
1.176491652099369
1.176588813992913
1.17672922653884
1.176792623225574
1.176796948822263
1.176790515414682
1.176815686173493
1.176878107103229
1.176918864013131
1.176937480961467
1.176913480356469
1.176853164869698
1.176809136591347
1.17678945798798
1.17679630833546
1.176801453681958
1.176782147476293
1.176734326439482
1.17667451581907
1.176601268119437
1.176524203827275
1.176441792875259
1.176292438849489
1.176162094142668
1.176115363362755
1.1761112294019
1.17609222138812
1.176064760571858
1.176042382573282
1.176013736511679
1.17596259726354
1.175927613401407
1.175918637331496
1.175939838810742
1.175979710267182
1.176010042161821
1.176011401835364
1.175987193511405
1.175977170859985
1.176037158034823
1.176189414867245
1.176351530274479
1.176428865845702
1.17643224176132
1.176393876303111
1.176347458588446
1.176340175716158
1.17640042792597
1.176548257198941
1.176769582845693
1.176925236080911
1.176950506174596
1.176915734549631
1.176848400608881
1.176789435101154
1.176759725284906
1.176777798473106
1.176828368666865
1.176883992891951
1.176911598162987
1.176903529957246
1.176855218891851
1.176801873208882
1.176761643658567
1.17670360863369
1.176575593123218
1.176459389418604
1.176405865172336
1.176363355069911
1.176296722270758
1.176221449470678
1.176129975922918
1.176031649276459
1.176003281009893
1.176005979229166
1.176010319127413
1.175983643545167
1.175942972693817
1.175907257209974
1.175903373269408
1.17591470560253
1.175936272182985
1.175961767731603
1.175980257069801
1.176041989336743
1.176144036592472
1.176208964504822
1.176224541732639
1.176240196788269
1.176251586169208
1.176253156465145
1.176295154605141
1.176417137778602
1.176638565184776
1.176807184014822
1.176835183851777
1.17682721335163
1.176830611161287
1.176822983091666
1.176810531065537
1.176797621369995
1.17679177376098
1.176826777449019
1.176891032422372
1.176929423085299
1.176937068291662
1.176919081426348
1.176889595851554
1.176864118763219
1.176790697740616
1.176647014246796
1.176506444158534
1.176450743786782
1.176436787329435
1.176443102659927
1.176410685448039
1.176285898032428
1.176080875250153
1.175975214871022
1.175957691986954
1.175971222796101
1.17599503397089
1.176015050678856
1.176016490252092
1.175994976206349
1.175962192381375
1.175923479016538
1.17590279174214
1.175904216653497
1.175917986453923
1.175922667657004
1.175949896476473
1.176038210372403
1.176201141089468
1.176341535358796
1.176395280445499
1.176418531292746
1.176439432222379
1.176497974920399
1.176621563046631
1.176723895900986
1.176745633906466
1.176757787329139
1.176755475177146
1.176747273180899
1.176733435631262
1.176738351412512
1.176777891663916
1.17686733543908
1.176952540351236
1.176975995215279
1.176972236290215
1.176958822668164
1.176947415079182
1.176918028470236
1.17684377417037
1.176711888173153
1.176574850509847
1.176490115222534
1.176437258026874
1.176374914410936
1.176265131652684
1.176136058150088
1.17608205165084
1.176076137181497
1.176072793930756
1.176057073894293
1.176030850081569
1.175971467827695
1.175922894570273
1.175913693906366
1.175913309694284
1.175925920056186
1.175945021092257
1.175996120742836
1.176037473264985
1.176045802784476
1.176047407920193
1.176046880072241
1.176046927032581
1.176050039645176
1.176057793635529
1.176100456948974
1.176226708842032
1.176515565285066
1.176788085181473
1.176847904367554
1.176848299675542
1.176845404476758
1.17684270280388
1.176835388604461
1.176831496164698
1.176833717813556
1.176842739780193
1.176850244381807
1.176867610791717
1.176883265859594
1.176890163821641
1.176894360906936
1.176897007813986
1.176893218492154
1.176885382004579
1.176878023205983
1.176842988877395
1.176741499243782
1.176496098655376
1.176187820203284
1.176079135850143
1.17607162345373
1.17607111736558
1.176068655403983
1.176066780360781
1.176068633297674
1.176063030578702
1.176040941712429
1.175988236818133
1.175935826448609
1.175921719870401
1.175920394774511
1.175923955902471
1.175930705463293
1.17593617447783
1.175947758585677
1.17597628217829
1.176025843658766
1.1760832237102
1.176135950371891
1.176193884352091
1.176290528879715
1.176474220949209
1.17665144545377
1.176703446740336
1.176716622333235
1.176723616184205
1.176722272774434
1.176711668395499
1.176701501678788
1.176710322828584
1.176755506270639
1.176842734545533
1.17691807932802
1.176938623087151
1.176930467763061
1.176915616586906
1.176910539323156
1.176916959494384
1.176924756917143
1.176921066446007
1.176893907247535
1.176838797699725
1.176689137189682
1.176395992211679
1.176154487730461
1.176110403444184
1.17611019891043
1.176110337490799
1.176110672541495
1.176108201575557
1.17609741143681
1.176071574096079
1.176022442155302
1.17596860515063
1.17594890835609
1.175946614311191
1.175945576125882
1.175949896249522
1.175956070366981
1.175972455098308
1.176009234103151
1.176047661423908
1.176063640264386
1.176061441572297
1.176065103509765
1.176081695363452
1.176110726179138
1.176217075185784
1.17646231581652
1.176723116124875
1.176790443226149
1.176793337492452
1.176794794507615
1.176791651996461
1.176788706392144
1.176784914600348
1.176788635511827
1.17679901371813
1.17680995563542
1.176834858713327
1.176873542380125
1.17689657063785
1.176901422955849
1.176900756340116
1.176896661481438
1.176893574162117
1.176890269013572
1.176874719699164
1.176835322268488
1.176718970535012
1.176441045069181
1.176126508399816
1.176031528778257
1.176025779274344
1.176027371763082
1.176030825338539
1.176032378494728
1.176032334269243
1.176031372740133
1.176031588954675
1.176024857050228
1.176008882938071
1.175974030407164
1.175939932600702
1.175930949710938
1.175929312316061
1.175931250926274
1.175934342064742
1.175935582856024
1.175938387682178
1.175948095993774
1.175967947173636
1.176028067805619
1.176211419050916
1.176557808250902
1.176803714341232
1.176839990723199
1.176841497387687
1.17684324838696
1.176840458447948
1.176834847548876
1.176831091416549
1.176829244941005
1.176827016200961
1.176822618969846
1.176825037829942
1.176832253006636
1.176840688070321
1.176843950763619
1.176843825599293
1.17684648951393
1.176845527061954
1.176837907553151
1.176823969685091
1.176816591967295
1.17678588568266
1.176667015606261
1.176385161399085
1.176110988236842
1.176042533862758
1.176014875889752
1.176014168813763
1.176019401725659
1.176040231721039
1.176053644591204
1.176041173010046
1.176011499727942
1.175974318738227
1.175937369024994
1.175930849915057
1.175937206640027
1.175971733046351
1.176022275574548
1.176048566561352
1.176043864270279
1.17600897044106
1.175968771844425
1.17595966454373
1.176024758832767
1.176217335020802
1.176541198517147
1.176756868038264
1.176822106691297
1.176805253761842
1.176737306439194
1.176664415316924
1.176633902111696
1.176660988068952
1.176730532209002
1.176828723143507
1.176910159456794
1.17694972540348
1.176945109754243
1.176864642680609
1.176775335037083
1.176722037647266
1.176719573768619
1.176758331133477
1.176876924968589
1.176973602273369
1.176998116152434
1.176921431367711
1.176690901715649
1.176308438766506
1.175994697288588
1.175847575602308
1.17584698547373
1.175887058783424
1.176078573888782
1.176315593310144
1.176422138072597
1.176406164522059
1.176342594106449
1.176280375408794
1.176013386925503
1.175694189773369
1.175526458125058
1.175468572692406
1.175434075698328
1.175472486394757
1.175690854617849
1.175918646094039
1.176045754838077
1.176095022188724
1.176171035373979
1.176143797467277
1.176071448823943
1.176041968002619
1.176174939175225
1.17634394278771
1.176363039311023
1.176356250935556
1.176407706145386
1.176675553376469
1.176961206036709
1.177146955401474
1.177259959110149
1.177328693074319
1.177355378825607
1.177338601225365
1.177347125123614
1.177287178567202
1.177024096317347
1.176693290383701
1.176482566194811
1.176392207685783
1.176450236836413
1.176644980298745
1.177000063922583
1.177249015058745
1.177258800094413
1.177050269720763
1.17666486134334
1.176394531896677
1.175982358271225
1.175800956562176
1.175814092475977
1.175866758929029
1.175902094772895
1.175923389723131
1.175910608066825
1.175816889813789
1.175683914389579
1.175601332826935
1.175587405996294
1.175682011699418
1.175957890666294
1.176187985714378
1.176285913438542
1.176274318891994
1.176211534539923
1.176016518916043
1.175842514343696
1.175849181340136
1.176040519521905
1.176315026864644
1.176494680591039
1.176727108822612
1.176813047781392
1.176761257379996
1.176693202846626
1.17668918996763
1.176730683644243
1.176832078053346
1.177063776989869
1.177267249611799
1.17739560405424
1.177459820381846
1.17741107372666
1.177106308622161
1.176734517741558
1.176527453428117
1.17651292022406
1.176573140171871
1.176894447347428
1.177220555931713
1.177324537473073
1.177130855717734
1.176708549738207
1.176349125946262
1.175950533276144
1.175725631785586
1.175738475075593
1.175877437054209
1.175917595908801
1.175922748008744
1.17586703676342
1.175753293673658
1.175637072241793
1.175586998789065
1.175566146694759
1.175575982706517
1.175712360421906
1.175987816027037
1.176186891409471
1.176422466396794
1.176502639404855
1.176509624202032
1.176316543109357
1.176094267400171
1.175964685811338
1.175954086608575
1.176088478315618
1.176394546293166
1.176707962457367
1.176871094039365
1.176881541516066
1.176784404432732
1.176697379915581
1.17669586820775
1.17686908946161
1.177161680001797
1.17743909170168
1.177554113963263
1.177471800288701
1.177225477000102
1.176791775265962
1.176478055986975
1.17637429339231
1.17648805241589
1.1766624795797
1.17704697123025
1.177293351359973
1.177247670254691
1.176931082759953
1.176475266805821
1.176117198949575
1.175747355443135
1.175648626692814
1.175761446310809
1.175897672196107
1.175972106721065
1.176019892882908
1.176017617746022
1.17589081923534
1.175697143396606
1.175565650524672
1.175519073093458
1.175609420916452
1.175918526645291
1.176231772726747
1.176368369535758
1.176305849160906
1.176225359084537
1.175893492116758
1.175630726509079
1.175619578229309
1.175870885574855
1.176335494224974
1.176618928104318
1.176995326551184
1.177108830508552
1.176996611489799
1.176792401507955
1.176721073389468
1.176708067141337
1.176823743888406
1.176995129505765
1.177233669169804
1.177327951751266
1.177332408690295
1.177269467423223
1.177018644103678
1.17671750547726
1.176559829128689
1.176585893070493
1.176598765790011
1.176874852557345
1.177142739670355
1.177160824466202
1.176892544185643
1.176437206910071
1.176236621173809
1.175838919551615
1.175630996876868
1.175666071923998
1.175850964041849
1.175936002853877
1.176015266018865
1.175986447398337
1.175877881946089
1.17570305976513
1.175498394828339
1.175413517346275
1.17549813484838
1.175705029056327
1.176067231855884
1.176285639768803
1.176308062960544
1.176182598706524
1.175932086726497
1.175595123936489
1.175443738096067
1.175596917639913
1.176047766294859
1.176558563310673
1.176990739491031
1.177257109200765
1.177239157660826
1.177012668131664
1.176728163738855
1.176598910257425
1.176586890140593
1.176778947987488
1.177040493703704
1.177328601875399
1.177411705600478
1.177301059898054
1.177113177307472
1.176725945447535
1.176432033429072
1.176329216274075
1.176456657645593
1.176602789504352
1.177012926514525
1.177309852722162
1.177340187038765
1.177050031316152
1.17645537410131
1.176006420388906
1.175484158839083
1.175253764174153
1.175292799431424
1.175543854694592
1.17582826165907
1.175965353614349
1.175964623660831
1.175765888358458
1.175564055296611
1.17539641172897
1.175407935023024
1.175568896900466
1.175820300737597
1.176067110922389
1.176154379448144
1.176076615860144
1.176007342792034
1.175743910872856
1.175553158654466
1.17564850748348
1.176009837575416
1.176446697355351
1.176599517657183
1.176922714799417
1.17708242253699
1.177028992529896
1.176846696584143
1.176752376498345
1.176699143516116
1.176774887415913
1.17695381454001
1.177031063674598
1.177097643711618
1.177010505644352
1.176908873927663
1.176675946119561
1.176502430699337
1.176436948024683
1.176536443368614
1.176610547594553
1.176908915189033
1.177129722489938
1.17708721951121
1.176730415631033
1.176164818394233
1.175796212470057
1.175411567096437
1.175162608840847
1.175148435922914
1.175345577182007
1.175645560586503
1.175758152900543
1.175878824081533
1.175855917682261
1.175693882967265
1.175458835736886
1.175337477288512
1.175288429433148
1.1754233716848
1.175599713215037
1.17580655830689
1.175883471853853
1.175798532528618
1.17570882746567
1.17547102801923
1.175331768213458
1.175505385719152
1.175996011057238
1.176542364613109
1.176772756993994
1.177080954968674
1.177186695774428
1.1770539222376
1.17677623922035
1.176535648603522
1.176472771182646
1.176466117527638
1.176596479507635
1.176789402056624
1.176890919288689
1.176881576276722
1.17674021775716
1.176520263860943
1.176314099611923
1.176226095745997
1.176279536481284
1.176400914028074
1.176696604748273
1.176889471470985
1.176785678632568
1.176336703461008
1.175674108619273
1.175374130801621
1.174982539843281
1.174829592922743
1.174926004939779
1.175195092539542
1.1754869444901
1.175558148293421
1.175626726017427
1.175540305448826
1.175362824235449
1.175229712954253
1.175145749741497
1.175164093693051
1.175279354482156
1.175414975955753
1.175515863321284
1.175494218030345
1.175396884448511
1.175221742054378
1.175091104976673
1.175211651233472
1.175641912510542
1.176236345302465
1.176533621652831
1.176800282205346
1.17695669659831
1.176877613593124
1.176608834402509
1.176321963515484
1.17625435245348
1.176162186956747
1.176208230258087
1.17635218656232
1.176508208035033
1.17654003564464
1.176575389395298
1.176476991094
1.176331426190643
1.176209040090563
1.176171760147303
1.17626269159609
1.176372902598902
1.176532883864205
1.176497960238948
1.176161387585053
1.175551229612972
1.175171027765869
1.174881318361055
1.174703478419313
1.174754086771377
1.174994348430234
1.175276501991865
1.175385643446373
1.1754488463376
1.175384547884692
1.17520404716831
1.175024172863314
1.174945211368995
1.174940558249034
1.175046264259252
1.175189651328846
1.175273112572538
1.175286894702253
1.175222393199965
1.175137573604099
1.17503420526332
1.175011236200831
1.175262395282333
1.175838093753816
1.176296697978592
)
;

boundaryField
{
    inlet
    {
        type            calculated;
        value           uniform 1.176411716172193;
    }
    outlet
    {
        type            calculated;
        value           uniform 1.176325498667266;
    }
    frontAndBack
    {
        type            empty;
    }
}


// ************************************************************************* //
