/*--------------------------------*- C++ -*----------------------------------*\
| =========                 |                                                 |
| \\      /  F ield         | OpenFOAM: The Open Source CFD Toolbox           |
|  \\    /   O peration     | Version:  v2012                                 |
|   \\  /    A nd           | Website:  www.openfoam.com                      |
|    \\/     M anipulation  |                                                 |
\*---------------------------------------------------------------------------*/
FoamFile
{
    version     2.0;
    format      ascii;
    class       volVectorField;
    location    "0.01";
    object      UMean;
}
// * * * * * * * * * * * * * * * * * * * * * * * * * * * * * * * * * * * * * //

dimensions      [0 1 -1 0 0 0 0];


internalField   nonuniform List<vector> 
1000
(
(-6.814959369653186e-06 0 0)
(-2.955894683394167e-06 0 0)
(3.528577634719534e-05 0 0)
(3.58613269695741e-05 0 0)
(9.835198284565529e-05 0 0)
(0.0001077399698535346 0 0)
(0.0002274782395798326 0 0)
(0.000332084279923811 0 0)
(0.0003308545047254309 0 0)
(0.0004052489579809822 0 0)
(0.0005592857177650155 0 0)
(0.0006026653282557883 0 0)
(0.000705614815066879 0 0)
(0.0007774247116439938 0 0)
(0.0008988045476545869 0 0)
(0.000915467725154488 0 0)
(0.001048616709999223 0 0)
(0.001117370260806591 0 0)
(0.001166255393824744 0 0)
(0.001187273700101778 0 0)
(0.001331590606048785 0 0)
(0.001278160345953833 0 0)
(0.001201196477885372 0 0)
(0.001257176519925666 0 0)
(0.001317172516616383 0 0)
(0.001280004608342594 0 0)
(0.001150781928453213 0 0)
(0.00123492488741417 0 0)
(0.001210690048281936 0 0)
(0.001046663577111514 0 0)
(0.001007326490300143 0 0)
(0.0009388259193256345 0 0)
(0.0008348487044376178 0 0)
(0.0007622130980599689 0 0)
(0.0007201111714974385 0 0)
(0.000616555373076311 0 0)
(0.0004182459773743509 0 0)
(0.0003905224141359071 0 0)
(0.0003344124225211297 0 0)
(0.0002652405822182244 0 0)
(0.0001627703770901304 0 0)
(0.000188277954074758 0 0)
(8.837533844580089e-05 0 0)
(6.423707012446479e-05 0 0)
(1.604343508833668e-05 0 0)
(-6.085085607977233e-05 0 0)
(-1.958521175026818e-05 0 0)
(-4.369110984091932e-05 0 0)
(9.653004065129342e-05 0 0)
(2.595215340914461e-05 0 0)
(0.0001210164745572389 0 0)
(9.189739934504604e-05 0 0)
(0.0002459179431284533 0 0)
(0.0002166696810568076 0 0)
(0.0003280313973191248 0 0)
(0.0004000941913591778 0 0)
(0.0006037795227087565 0 0)
(0.0005866216698770358 0 0)
(0.0006874891654144016 0 0)
(0.0008171886187931912 0 0)
(0.0008589586635987289 0 0)
(0.0009013331011385724 0 0)
(0.0009874742547635064 0 0)
(0.001152298318275155 0 0)
(0.001169092605878767 0 0)
(0.001246050189711818 0 0)
(0.00130852632458579 0 0)
(0.001332584372581279 0 0)
(0.001248377017856764 0 0)
(0.001273599863812736 0 0)
(0.001293937685128813 0 0)
(0.001264857828465549 0 0)
(0.001298327202012852 0 0)
(0.001332247572295153 0 0)
(0.001280029600978181 0 0)
(0.00114606816112856 0 0)
(0.001061065910801389 0 0)
(0.0009390403815265736 0 0)
(0.0008004856287200329 0 0)
(0.00074375541353458 0 0)
(0.0007399901555294346 0 0)
(0.0005499661319109623 0 0)
(0.000582925793415351 0 0)
(0.0004981679016033653 0 0)
(0.0003552907054001928 0 0)
(0.0002077247920468997 0 0)
(0.0002190118862128783 0 0)
(0.0001005548066909273 0 0)
(-7.258641578483087e-06 0 0)
(1.891078194754008e-05 0 0)
(6.743105230316257e-05 0 0)
(-5.239863380844826e-05 0 0)
(-2.985501174764093e-05 0 0)
(-1.587168257898146e-05 0 0)
(-3.28430940533137e-05 0 0)
(-4.554858027335997e-06 0 0)
(2.835636397779759e-06 0 0)
(1.650876002411209e-05 0 0)
(0.0001473723728794886 0 0)
(0.000235150290515356 0 0)
(0.0002466811203911418 0 0)
(0.0003767028127765256 0 0)
(0.0005036752761847636 0 0)
(0.000655755507545857 0 0)
(0.0006464489726339551 0 0)
(0.000717369811265924 0 0)
(0.0008533552102768858 0 0)
(0.0009582421586243988 0 0)
(0.0009365548498325989 0 0)
(0.001075566229802155 0 0)
(0.001213726038000479 0 0)
(0.00123963771979841 0 0)
(0.001236767893412603 0 0)
(0.001376895642471895 0 0)
(0.001406569917835826 0 0)
(0.001274891023235706 0 0)
(0.001341109959315941 0 0)
(0.001389640726776899 0 0)
(0.001347430615688562 0 0)
(0.001207685671627828 0 0)
(0.001218027182850266 0 0)
(0.001182159792667338 0 0)
(0.001091044693154199 0 0)
(0.0008998956226885967 0 0)
(0.0009335002937329558 0 0)
(0.0008452897591949891 0 0)
(0.0007366805942924614 0 0)
(0.000562831209291012 0 0)
(0.0005497468866051898 0 0)
(0.0004553938282301792 0 0)
(0.0003088545857387156 0 0)
(0.0002662809988861532 0 0)
(0.0002051957003613144 0 0)
(0.0001248786602318207 0 0)
(5.990053581271822e-05 0 0)
(2.030389738390271e-05 0 0)
(-3.626359063248736e-05 0 0)
(-8.487284629742527e-05 0 0)
(-9.956604327716256e-05 0 0)
(-8.165359356773228e-05 0 0)
(-6.955906509004441e-05 0 0)
(-2.638442480941642e-05 0 0)
(4.741814774956763e-05 0 0)
(1.051593725725331e-05 0 0)
(8.164192483057061e-05 0 0)
(0.000202051264912801 0 0)
(0.0002226913937047698 0 0)
(0.00021535037216623 0 0)
(0.0004318074117047023 0 0)
(0.0005702760484559418 0 0)
(0.0005508697688815323 0 0)
(0.0007007431714082926 0 0)
(0.0008645087936371798 0 0)
(0.0008843960011328004 0 0)
(0.000898761115538268 0 0)
(0.001050613221334073 0 0)
(0.001128845598600102 0 0)
(0.001199553243926031 0 0)
(0.00120144956408773 0 0)
(0.001318275925766796 0 0)
(0.001320925732479185 0 0)
(0.001237478465737835 0 0)
(0.00121636362695193 0 0)
(0.00133333158558686 0 0)
(0.001297585064992839 0 0)
(0.001239585555897983 0 0)
(0.001328190902418132 0 0)
(0.001260462802271147 0 0)
(0.001151197286208196 0 0)
(0.001030526228106071 0 0)
(0.0009056515371458543 0 0)
(0.0007812110751400552 0 0)
(0.0007086179283631119 0 0)
(0.000624296146238334 0 0)
(0.0004917610146638921 0 0)
(0.0004656412597145584 0 0)
(0.0004213863533796491 0 0)
(0.0002814719189559725 0 0)
(0.0002240287714575892 0 0)
(0.0001826975243487554 0 0)
(0.0001029164058614874 0 0)
(-1.706372701207127e-05 0 0)
(-6.392587243071649e-05 0 0)
(-2.912875616250805e-05 0 0)
(-6.654399891448171e-05 0 0)
(-0.0001114649415344955 0 0)
(-5.366390043021222e-05 0 0)
(-7.258944410508633e-06 0 0)
(-8.068274472102295e-05 0 0)
(-5.887542268773241e-05 0 0)
(9.453467842415888e-05 0 0)
(0.0001837646687740781 0 0)
(0.000187180907819882 0 0)
(0.0003334362807770614 0 0)
(0.0004675712928582323 0 0)
(0.0004891504098945145 0 0)
(0.000539914654278283 0 0)
(0.0007008156615665643 0 0)
(0.0007890528840968291 0 0)
(0.0008705305652400225 0 0)
(0.000949457583061865 0 0)
(0.001060631627432462 0 0)
(0.001147331455505681 0 0)
(0.001204525049394763 0 0)
(0.001283424446668005 0 0)
(0.001340037458212645 0 0)
(0.001352676812200337 0 0)
(0.001377539724137678 0 0)
(0.001380301709763522 0 0)
(0.001380019318056094 0 0)
(0.001352776208681479 0 0)
(0.001361539151274387 0 0)
(0.001299253624797001 0 0)
(0.001195894823913933 0 0)
(0.001165778507555588 0 0)
(0.001079156443552411 0 0)
(0.0009454045691969775 0 0)
(0.0008931993963587714 0 0)
(0.0008089848202010253 0 0)
(0.0006664568677048565 0 0)
(0.000533389065860556 0 0)
(0.0004697713675368286 0 0)
(0.0003847175999077809 0 0)
(0.0002885134144429235 0 0)
(0.0001634004635265489 0 0)
(0.0001349709909945199 0 0)
(5.623644700390361e-05 0 0)
(-7.808609734278986e-05 0 0)
(-0.0001219878227403369 0 0)
(-0.0001210107565620336 0 0)
(-0.0002082428639172904 0 0)
(-0.0002243926892512291 0 0)
(-0.0001877235945498813 0 0)
(-0.0001838452862625155 0 0)
(-0.0001309707300853358 0 0)
(-4.266463692059042e-05 0 0)
(1.789574688570008e-05 0 0)
(5.136323885396069e-05 0 0)
(0.0001613069527444194 0 0)
(0.0002545008268699331 0 0)
(0.0003034054599744324 0 0)
(0.0004228681977650695 0 0)
(0.0005286165370731331 0 0)
(0.0006338787287950547 0 0)
(0.0007176349635477584 0 0)
(0.0008207147025139209 0 0)
(0.0008877120278574157 0 0)
(0.0009878804334489614 0 0)
(0.001092156660069705 0 0)
(0.001170302276719709 0 0)
(0.001228169426754063 0 0)
(0.00127133628738248 0 0)
(0.001283309441838125 0 0)
(0.00126536145329235 0 0)
(0.001260712035283744 0 0)
(0.00127876222147838 0 0)
(0.001294118125075581 0 0)
(0.001314540436598827 0 0)
(0.001298638434219871 0 0)
(0.001230725133446245 0 0)
(0.001159548584650228 0 0)
(0.00106157107510645 0 0)
(0.0009156284085425829 0 0)
(0.0008275488814304767 0 0)
(0.000761064961310139 0 0)
(0.0006670263654419765 0 0)
(0.0005849567880511536 0 0)
(0.000517460146558591 0 0)
(0.0004172351209281677 0 0)
(0.0003034059609924808 0 0)
(0.0002200921441455145 0 0)
(0.0001122038526595599 0 0)
(2.350736060653122e-05 0 0)
(-6.111741647409025e-05 0 0)
(-0.0001087582121472419 0 0)
(-0.0001809184920509212 0 0)
(-0.0002188048382521125 0 0)
(-0.0002065355740508115 0 0)
(-0.0001880956421310542 0 0)
(-0.0001970265358995856 0 0)
(-0.0001609884121726138 0 0)
(-9.061609615336019e-05 0 0)
(-3.976518648513251e-05 0 0)
(4.192091098394512e-05 0 0)
(0.0001353356503690314 0 0)
(0.0002044243897352965 0 0)
(0.0003200261245469955 0 0)
(0.0004136561879515398 0 0)
(0.000489045518512834 0 0)
(0.0006098308752654836 0 0)
(0.0007442649483062494 0 0)
(0.0008238270391593644 0 0)
(0.0009211319051326675 0 0)
(0.001012523286791955 0 0)
(0.001126486774004779 0 0)
(0.001186591050074893 0 0)
(0.001232153566096844 0 0)
(0.001263245261492081 0 0)
(0.001335007070863326 0 0)
(0.001360570977233425 0 0)
(0.001382233227251279 0 0)
(0.001412005191265631 0 0)
(0.001456924575667441 0 0)
(0.001427460665385977 0 0)
(0.001348418965176707 0 0)
(0.001270521914538651 0 0)
(0.001203658678426791 0 0)
(0.001089264050993381 0 0)
(0.001015460479963546 0 0)
(0.0009138347859703298 0 0)
(0.0008595835387420157 0 0)
(0.0007590455510902343 0 0)
(0.000678424467558262 0 0)
(0.0005838325686319934 0 0)
(0.0004906511779899958 0 0)
(0.0003663955532669243 0 0)
(0.0002518545827744604 0 0)
(0.0001579764163584334 0 0)
(6.624982848262245e-05 0 0)
(-4.686256061292318e-05 0 0)
(-0.000106671703582049 0 0)
(-0.0001393739586958081 0 0)
(-0.0001607329161565922 0 0)
(-0.0001660956528899984 0 0)
(-0.0001725736670103847 0 0)
(-0.000185475330049484 0 0)
(-0.000157541195083693 0 0)
(-0.0001269175650948097 0 0)
(-3.802236295380525e-05 0 0)
(5.580713825878573e-05 0 0)
(0.0001442498998641456 0 0)
(0.0002498102841411791 0 0)
(0.0003278045031414123 0 0)
(0.0004037217157909195 0 0)
(0.0005044651077952885 0 0)
(0.0005912110273792308 0 0)
(0.0006858109110358142 0 0)
(0.0007997227172797944 0 0)
(0.0009000833962501182 0 0)
(0.001010015035721751 0 0)
(0.001112164743230396 0 0)
(0.001218367089916067 0 0)
(0.001313271133929544 0 0)
(0.001373099595088536 0 0)
(0.001412253956441618 0 0)
(0.001418336939379416 0 0)
(0.001430403674336942 0 0)
(0.001410509736025703 0 0)
(0.001421247531667807 0 0)
(0.001388891742801884 0 0)
(0.001334159037971484 0 0)
(0.001257990901825717 0 0)
(0.001203204760936517 0 0)
(0.001120869719536771 0 0)
(0.001047448133481272 0 0)
(0.0009776677623512422 0 0)
(0.0009233876640642619 0 0)
(0.000831278989153182 0 0)
(0.0007588082722070258 0 0)
(0.0006488120712428939 0 0)
(0.0005403626363279006 0 0)
(0.000404595282279275 0 0)
(0.0003013747804203198 0 0)
(0.0001792476175520929 0 0)
(7.075005911333066e-05 0 0)
(-4.126704741580904e-05 0 0)
(-0.0001107478695275721 0 0)
(-0.0001762498760801673 0 0)
(-0.0001979743508769823 0 0)
(-0.0002157772237037118 0 0)
(-0.0002158048532084731 0 0)
(-0.0002052427949654869 0 0)
(-0.0001567111437170053 0 0)
(-9.88334586665404e-05 0 0)
(-2.589453418929128e-05 0 0)
(4.282173110024407e-05 0 0)
(0.0001221467645034037 0 0)
(0.0001926919488874376 0 0)
(0.0002834712236446736 0 0)
(0.000379630300230148 0 0)
(0.0004871629440383967 0 0)
(0.0005901318174097471 0 0)
(0.0006977477027818277 0 0)
(0.0007997152638552561 0 0)
(0.0008949034477404287 0 0)
(0.000977474469322454 0 0)
(0.001056642467397194 0 0)
(0.001136122093349342 0 0)
(0.001212982702150324 0 0)
(0.001291401280859049 0 0)
(0.001368038676149779 0 0)
(0.00144678454228997 0 0)
(0.001517616014544151 0 0)
(0.00157813357320722 0 0)
(0.001592372000360676 0 0)
(0.001545842720197394 0 0)
(0.001457434882163678 0 0)
(0.001367990044183047 0 0)
(0.001271346966891233 0 0)
(0.001182773627852149 0 0)
(0.001088296295770232 0 0)
(0.001003899019732157 0 0)
(0.0009091155118611819 0 0)
(0.0008233637007924112 0 0)
(0.0007257491795885762 0 0)
(0.0006375404792584865 0 0)
(0.0005320398162355049 0 0)
(0.0004362267008864462 0 0)
(0.0003284501272951613 0 0)
(0.0002312454606313647 0 0)
(0.0001217641320896191 0 0)
(2.555715182781493e-05 0 0)
(-7.990563102780544e-05 0 0)
(-0.0001738690780085172 0 0)
(-0.0002621774564958559 0 0)
(-0.0003127057131731987 0 0)
(-0.0003061412658692945 0 0)
(-0.0002450969259053323 0 0)
(-0.0001756052132985953 0 0)
(-0.0001018857143166911 0 0)
(-3.369936248158612e-05 0 0)
(4.159862944303345e-05 0 0)
(0.0001120455550390395 0 0)
(0.00018729920156737 0 0)
(0.000258335154187323 0 0)
(0.0003439227143935117 0 0)
(0.0004361042461602341 0 0)
(0.000541043268577999 0 0)
(0.0006407333094936242 0 0)
(0.0007492206450836374 0 0)
(0.0008470019353669852 0 0)
(0.0009533046071279212 0 0)
(0.001047649933435084 0 0)
(0.001151733690144256 0 0)
(0.001232968183895941 0 0)
(0.001318568612692904 0 0)
(0.001377195505727426 0 0)
(0.001442519198244349 0 0)
(0.001471609396107597 0 0)
(0.001497846758263128 0 0)
(0.001452040573048568 0 0)
(0.001411535678686707 0 0)
(0.001331373890494553 0 0)
(0.001283714431692556 0 0)
(0.001199476423132111 0 0)
(0.001150301887545984 0 0)
(0.001071979471844492 0 0)
(0.001029791770993355 0 0)
(0.0009426363874770866 0 0)
(0.0008808137747875481 0 0)
(0.0007634765072073269 0 0)
(0.0006725130361073124 0 0)
(0.0005455312601210147 0 0)
(0.0004522384338102028 0 0)
(0.0003317664811350755 0 0)
(0.0002362007708901997 0 0)
(0.0001204358172263101 0 0)
(1.963594479324094e-05 0 0)
(-9.45864395309615e-05 0 0)
(-0.0001869950982597879 0 0)
(-0.0002724002473990577 0 0)
(-0.0003020885184002384 0 0)
(-0.0002813540728132892 0 0)
(-0.0002210747332327379 0 0)
(-0.0001558229168231429 0 0)
(-9.231752570866867e-05 0 0)
(-2.928652928268599e-05 0 0)
(3.273392509162021e-05 0 0)
(0.0001032061758511034 0 0)
(0.0001659378656526495 0 0)
(0.0002443561863031253 0 0)
(0.0003293187435185743 0 0)
(0.0004310319422646275 0 0)
(0.0005202763086836833 0 0)
(0.0006296019489873856 0 0)
(0.0007195181449925514 0 0)
(0.0008260561098857385 0 0)
(0.0009125688980360454 0 0)
(0.001011705349996961 0 0)
(0.001083862849088385 0 0)
(0.001169821290512491 0 0)
(0.00123460943832415 0 0)
(0.001316790473047835 0 0)
(0.001382216049590853 0 0)
(0.001452545569289209 0 0)
(0.001506739082184178 0 0)
(0.001531900757364653 0 0)
(0.001493745558895796 0 0)
(0.001419862646755278 0 0)
(0.001339856161203052 0 0)
(0.001254094341367369 0 0)
(0.001176872534152992 0 0)
(0.001091056768518142 0 0)
(0.001017263904883318 0 0)
(0.0009318064938908512 0 0)
(0.0008556344353661101 0 0)
(0.0007651952528947306 0 0)
(0.0006869843884073361 0 0)
(0.0005847213068835941 0 0)
(0.0004933148188849987 0 0)
(0.0003822822258975913 0 0)
(0.0002862183114533643 0 0)
(0.0001748778654104096 0 0)
(8.009325416907586e-05 0 0)
(-3.020277891417024e-05 0 0)
(-0.0001239581441725133 0 0)
(-0.0002273250105654727 0 0)
(-0.000300237015369478 0 0)
(-0.0003529377731271168 0 0)
(-0.0003232041889117484 0 0)
(-0.0002565806497539048 0 0)
(-0.0001692850246129534 0 0)
(-9.39181850355063e-05 0 0)
(-8.033121626119757e-06 0 0)
(6.959031932635803e-05 0 0)
(0.0001538108165792614 0 0)
(0.0002324978398073042 0 0)
(0.0003163346272277468 0 0)
(0.0003945497393077989 0 0)
(0.0004808542664639535 0 0)
(0.0005669780518186695 0 0)
(0.0006636306547688077 0 0)
(0.0007649036239675525 0 0)
(0.0008675512519310431 0 0)
(0.0009707197483700267 0 0)
(0.001073653808668779 0 0)
(0.001174076714880395 0 0)
(0.001277568789974972 0 0)
(0.001374158760351167 0 0)
(0.001473969382253877 0 0)
(0.001561643025898841 0 0)
(0.00163446609465961 0 0)
(0.001645088079288954 0 0)
(0.001591348607305701 0 0)
(0.001502290032581286 0 0)
(0.001412274107688919 0 0)
(0.001318801353618279 0 0)
(0.001228634689113173 0 0)
(0.001138384813175482 0 0)
(0.001048839403076711 0 0)
(0.0009595282320745635 0 0)
(0.0008727369060274144 0 0)
(0.0007842409059455583 0 0)
(0.0006983836967340058 0 0)
(0.0006083468088698873 0 0)
(0.0005183966147258224 0 0)
(0.0004255526731812285 0 0)
(0.0003344257416012252 0 0)
(0.0002404319362751043 0 0)
(0.0001503073462156918 0 0)
(5.783643123648727e-05 0 0)
(-2.912289519620943e-05 0 0)
(-0.0001164380547377708 0 0)
(-0.000204355434056559 0 0)
(-0.0002769717325089421 0 0)
(-0.0003071018179360992 0 0)
(-0.0002755419341221454 0 0)
(-0.0002039968007385572 0 0)
(-0.0001247352674193832 0 0)
(-3.661862452966178e-05 0 0)
(4.546987217663509e-05 0 0)
(0.0001262816356576801 0 0)
(0.0002004852792332678 0 0)
(0.0002814745992684366 0 0)
(0.000359164637501511 0 0)
(0.0004476141276403541 0 0)
(0.0005470057278537517 0 0)
(0.0006512355750614878 0 0)
(0.0007473646657387339 0 0)
(0.0008423500246974591 0 0)
(0.0009320450654607043 0 0)
(0.001016433980179333 0 0)
(0.001089003237189099 0 0)
(0.001160811416693208 0 0)
(0.00126216168831864 0 0)
(0.001362263865904426 0 0)
(0.001460849397129636 0 0)
(0.001508314397904541 0 0)
(0.001534067106831968 0 0)
(0.001479398081696278 0 0)
(0.001409161449997292 0 0)
(0.001310462278062501 0 0)
(0.00125136784668956 0 0)
(0.001178203151415868 0 0)
(0.001136945103404764 0 0)
(0.001068192451063061 0 0)
(0.001042027363961594 0 0)
(0.0009414294776916778 0 0)
(0.0008568515225666317 0 0)
(0.0007132852694893521 0 0)
(0.0006454719662759991 0 0)
(0.0005218175772069766 0 0)
(0.0004422047780288835 0 0)
(0.0003386857464129455 0 0)
(0.0003067957225315779 0 0)
(0.0002457409081619358 0 0)
(0.0001404474615999391 0 0)
(2.229019953677884e-05 0 0)
(-0.0001179093387957502 0 0)
(-0.0001977663562122079 0 0)
(-0.0002999648061257049 0 0)
(-0.0003273034227677745 0 0)
(-0.0002798811194914482 0 0)
(-0.000155900207566621 0 0)
(-3.87504828743076e-05 0 0)
(6.332817884866383e-05 0 0)
(0.0001587737771584346 0 0)
(0.0001906696991976707 0 0)
(0.0002296657386641811 0 0)
(0.0001820778572898592 0 0)
(0.0001936377109821993 0 0)
(0.0002259054663938573 0 0)
(0.0002750453070622331 0 0)
(0.0004286583381623864 0 0)
(0.0005729777656923381 0 0)
(0.0007730202115232387 0 0)
(0.0009737786256484909 0 0)
(0.001193761464333547 0 0)
(0.001362095816587164 0 0)
(0.001510938649540416 0 0)
(0.001543834459306338 0 0)
(0.001631544531545905 0 0)
(0.00166982897526299 0 0)
(0.001753032542102462 0 0)
(0.00186767103620037 0 0)
(0.001925213822223523 0 0)
(0.001983462910043814 0 0)
(0.002048208314446007 0 0)
(0.00203959874959458 0 0)
(0.002077159708462362 0 0)
(0.002073641542671459 0 0)
(0.002073193814243986 0 0)
(0.001913635766357284 0 0)
(0.001783954896990557 0 0)
(0.0016179466456273 0 0)
(0.001427440575253484 0 0)
(0.001253764301765787 0 0)
(0.001028472600382546 0 0)
(0.0008201115214750979 0 0)
(0.0006083146929343721 0 0)
(0.0004905039012938412 0 0)
(0.0003941929608872282 0 0)
(0.0003799512100365103 0 0)
(0.0003686644573029664 0 0)
(0.0003680993316971181 0 0)
(0.0003148692676518887 0 0)
(0.0002334368264153484 0 0)
(6.768759969972409e-05 0 0)
(-8.706760067673566e-05 0 0)
(-0.0003112191515085837 0 0)
(-0.0004210089298100004 0 0)
(-0.0004341629154153806 0 0)
(-0.0003650790340501455 0 0)
(-0.0002288359175315764 0 0)
(-8.619156621777201e-05 0 0)
(1.089013617272925e-05 0 0)
(0.0001189738877137731 0 0)
(0.0002085269833079599 0 0)
(0.0003289117900419627 0 0)
(0.0004587399368711153 0 0)
(0.0006046900134111377 0 0)
(0.0007950956494592298 0 0)
(0.0009337162948412006 0 0)
(0.001086602917791533 0 0)
(0.001226753015734554 0 0)
(0.00132697986703446 0 0)
(0.001290589272596839 0 0)
(0.001360356459900542 0 0)
(0.001382576174769843 0 0)
(0.001439257810247977 0 0)
(0.001595864200660366 0 0)
(0.001692945780603926 0 0)
(0.00181444880842564 0 0)
(0.001880869313158791 0 0)
(0.001860405699850341 0 0)
(0.001828822924972824 0 0)
(0.001768771989620763 0 0)
(0.00165753943937214 0 0)
(0.001590246932323027 0 0)
(0.001510128737784577 0 0)
(0.00140292123089035 0 0)
(0.001431188335429017 0 0)
(0.001294255023082688 0 0)
(0.00112686917327678 0 0)
(0.0009105904417397838 0 0)
(0.0006577882657286728 0 0)
(0.000472626915931187 0 0)
(0.0003228579634391385 0 0)
(0.0001753792320750407 0 0)
(0.0001720180210982599 0 0)
(0.0001774690372505539 0 0)
(0.000118896947951797 0 0)
(3.190139197099504e-05 0 0)
(-0.0001075965526684867 0 0)
(-0.0003143085144171596 0 0)
(-0.0004991241418632923 0 0)
(-0.0006145955225754122 0 0)
(-0.0006602399519269951 0 0)
(-0.000558904808416206 0 0)
(-0.0004762193245594227 0 0)
(-0.0002555186629932254 0 0)
(-0.0001389276119073459 0 0)
(-5.91824579779656e-05 0 0)
(-2.610329914024422e-05 0 0)
(0.0001915372658369683 0 0)
(0.0002890065151648661 0 0)
(0.0004753696616124272 0 0)
(0.000632424680876812 0 0)
(0.0007518220925213384 0 0)
(0.0009831303259827953 0 0)
(0.001172862184742432 0 0)
(0.001237097123896838 0 0)
(0.001325529054005195 0 0)
(0.001349255684352943 0 0)
(0.001333346482375456 0 0)
(0.001332869059062229 0 0)
(0.001318280557082225 0 0)
(0.001376547023231362 0 0)
(0.001522674111141318 0 0)
(0.00156297519173958 0 0)
(0.001668737608264757 0 0)
(0.001687164809179338 0 0)
(0.00162856475800495 0 0)
(0.001596636823075058 0 0)
(0.001505287894533092 0 0)
(0.001362529981033052 0 0)
(0.001278868158333269 0 0)
(0.001264519714760735 0 0)
(0.001160898035242796 0 0)
(0.001077754671290018 0 0)
(0.000850240894900433 0 0)
(0.0005645909680848903 0 0)
(0.000382706760097137 0 0)
(0.0001783040663693827 0 0)
(5.657603027528289e-05 0 0)
(3.162817499353585e-05 0 0)
(2.471696475793046e-05 0 0)
(1.675906646507256e-05 0 0)
(7.129080316167869e-06 0 0)
(-0.0001213773268359215 0 0)
(-0.0003137063953666107 0 0)
(-0.0004554393639185444 0 0)
(-0.0006723046383932273 0 0)
(-0.0007440414266730093 0 0)
(-0.0006390188910685411 0 0)
(-0.0006149959576268393 0 0)
(-0.0004176543258122498 0 0)
(-0.0002424375672646558 0 0)
(-0.0001553113958718052 0 0)
(1.388180434024676e-05 0 0)
(4.196794746084825e-08 0 0)
(0.000107075367988921 0 0)
(0.0002421764299153572 0 0)
(0.0004019126498182165 0 0)
(0.0004830337323577723 0 0)
(0.0007150026393110101 0 0)
(0.0009168410619891731 0 0)
(0.001034403779301595 0 0)
(0.001167213520493071 0 0)
(0.001082146401533597 0 0)
(0.001124548170683436 0 0)
(0.00116067216168829 0 0)
(0.001238806520274943 0 0)
(0.001363518735931314 0 0)
(0.00162826835648839 0 0)
(0.001733040496549964 0 0)
(0.001828938258833403 0 0)
(0.001848142576763647 0 0)
(0.001641918279115357 0 0)
(0.001578240162207869 0 0)
(0.001445590585124891 0 0)
(0.001293437697209786 0 0)
(0.001280687450129791 0 0)
(0.001133720214249573 0 0)
(0.001089369676906227 0 0)
(0.00100757097205276 0 0)
(0.0008893832086140174 0 0)
(0.0006163948432328409 0 0)
(0.0004421270409940932 0 0)
(0.0002712252577042907 0 0)
(0.0001267153916279065 0 0)
(3.602347886829947e-05 0 0)
(-2.537337227955392e-05 0 0)
(-2.167105507437163e-05 0 0)
(-5.817048782307301e-05 0 0)
(-0.0001535657670482111 0 0)
(-0.0003302710043333659 0 0)
(-0.0004212842522821042 0 0)
(-0.0006291756851289024 0 0)
(-0.0007045630467706596 0 0)
(-0.0006447427422309922 0 0)
(-0.0005993114061110638 0 0)
(-0.0004226645870165361 0 0)
(-0.0002323551569690004 0 0)
(-0.0001031942213196305 0 0)
(2.524210357439572e-05 0 0)
(0.0001069657597397025 0 0)
(0.0001255603147995582 0 0)
(0.0003004226663619432 0 0)
(0.0004659547997521586 0 0)
(0.0005459904447525696 0 0)
(0.0008607228932482849 0 0)
(0.0009397886139749694 0 0)
(0.001172578339821198 0 0)
(0.001300871368231648 0 0)
(0.001313171423097515 0 0)
(0.001319512124719748 0 0)
(0.001368404684094064 0 0)
(0.001458140244557745 0 0)
(0.001574777886361369 0 0)
(0.001872026371103773 0 0)
(0.001998928769871606 0 0)
(0.002166887691762218 0 0)
(0.002176885301809126 0 0)
(0.002104713670410979 0 0)
(0.001938457918983096 0 0)
(0.00174431754086437 0 0)
(0.001597164897520435 0 0)
(0.001471638888846216 0 0)
(0.001451851295408818 0 0)
(0.001370319279633848 0 0)
(0.001357782261892707 0 0)
(0.00125412676126171 0 0)
(0.001060880604348152 0 0)
(0.0009079577079227397 0 0)
(0.0005774077916237868 0 0)
(0.0004976917877654259 0 0)
(0.0003846675530174477 0 0)
(0.0003572153071466618 0 0)
(0.0003110978053030247 0 0)
(0.0004274747815543148 0 0)
(0.000377167005210262 0 0)
(0.0002495768518146286 0 0)
(0.0001014522385956902 0 0)
(-9.771496432089429e-05 0 0)
(-0.0003012393956974315 0 0)
(-0.000439925468697835 0 0)
(-0.0003017527494678907 0 0)
(-0.0002179225739211083 0 0)
(1.785696928656999e-05 0 0)
(0.0003153345640439806 0 0)
(0.0004763583906980352 0 0)
(0.0007250805778584429 0 0)
(0.0007530727577375575 0 0)
(0.0008288000190905633 0 0)
(0.0009602130434438702 0 0)
(0.00117223909343697 0 0)
(0.00129652916634316 0 0)
(0.001568237907034467 0 0)
(0.001753644710235213 0 0)
(0.001912767129981049 0 0)
(0.001988584910899769 0 0)
(0.002065504565986809 0 0)
(0.002092867944430362 0 0)
(0.002183353617844759 0 0)
(0.00232086404215344 0 0)
(0.002504523748445271 0 0)
(0.002677820065990079 0 0)
(0.002825188968116203 0 0)
(0.002874016444997873 0 0)
(0.002872462468060463 0 0)
(0.002756519077270932 0 0)
(0.002594272035246273 0 0)
(0.002497164794640727 0 0)
(0.002343274192337769 0 0)
(0.002236908241205245 0 0)
(0.002211074614958888 0 0)
(0.002122720785395697 0 0)
(0.002050747420329448 0 0)
(0.001923590982724205 0 0)
(0.00177996167076456 0 0)
(0.001618121185813065 0 0)
(0.001514551887334666 0 0)
(0.001450528882292101 0 0)
(0.00140939076355006 0 0)
(0.001356563715957718 0 0)
(0.001458320282026011 0 0)
(0.001377004575875894 0 0)
(0.001297377305302317 0 0)
(0.001136948609393662 0 0)
(0.0009754401740036208 0 0)
(0.0008789865898908601 0 0)
(0.000815788746871532 0 0)
(0.0008946350716868074 0 0)
(0.001111820002729432 0 0)
(0.001409831452757939 0 0)
(0.001590099330379484 0 0)
(0.001911383293938223 0 0)
(0.002100813833309953 0 0)
(0.002276475140171974 0 0)
(0.002339507496205063 0 0)
(0.002466317222983863 0 0)
(0.002611285434358847 0 0)
(0.002778168529849224 0 0)
(0.002992278020973368 0 0)
(0.003239677545871648 0 0)
(0.00346244609300062 0 0)
(0.003678218405929922 0 0)
(0.003735433634821682 0 0)
(0.004001159114555641 0 0)
(0.003989907532584634 0 0)
(0.004202253388575951 0 0)
(0.004370802738953566 0 0)
(0.004599209290696032 0 0)
(0.004792844840376533 0 0)
(0.004985174722926104 0 0)
(0.005008145115013649 0 0)
(0.004985319807500829 0 0)
(0.004859166011343918 0 0)
(0.004622734765432579 0 0)
(0.004551795065074188 0 0)
(0.004378150562361447 0 0)
(0.004365115455784797 0 0)
(0.004248420512365026 0 0)
(0.004332800129972902 0 0)
(0.004277824606935065 0 0)
(0.004234051730778187 0 0)
(0.004125443399459045 0 0)
(0.004030640235693991 0 0)
(0.003960089045859241 0 0)
(0.003936737417457004 0 0)
(0.003862239214145751 0 0)
(0.003956914404040328 0 0)
(0.004000965891167814 0 0)
(0.004021592499504499 0 0)
(0.003988217304648855 0 0)
(0.003842759993214663 0 0)
(0.003799757845603961 0 0)
(0.003733614143964881 0 0)
(0.003758206966557581 0 0)
(0.00397299945809529 0 0)
(0.004248410087549069 0 0)
(0.004603665750111301 0 0)
(0.004914555151941572 0 0)
(0.005236252990645031 0 0)
(0.005511383027829255 0 0)
(0.005614320897513494 0 0)
(0.00579658366901605 0 0)
(0.005973906910967 0 0)
(0.006192282967963432 0 0)
(0.006414192215123271 0 0)
(0.006693476814925453 0 0)
(0.006931063983264981 0 0)
(0.00720827037953347 0 0)
(0.007414935997547351 0 0)
(0.007633736755181428 0 0)
(0.007849989403531848 0 0)
(0.008019327543198871 0 0)
(0.008270047802013384 0 0)
(0.008555719082061647 0 0)
(0.008802113496828535 0 0)
(0.009065229952569523 0 0)
(0.009151661624069841 0 0)
(0.00917783470758235 0 0)
(0.009133306628992657 0 0)
(0.008989469330758792 0 0)
(0.008889749139363584 0 0)
(0.008802347250747885 0 0)
(0.008790923279466853 0 0)
(0.008781696175816317 0 0)
(0.008843053457032039 0 0)
(0.008898321043051808 0 0)
(0.00895373095600541 0 0)
(0.008928118391071342 0 0)
(0.008922423223451378 0 0)
(0.008847047765287205 0 0)
(0.008875994499553747 0 0)
(0.008860377868904229 0 0)
(0.008879523842969816 0 0)
(0.008933022879666947 0 0)
(0.009011524905424152 0 0)
(0.00901051172786629 0 0)
(0.008984163295938406 0 0)
(0.008931875384462166 0 0)
(0.008976984750046647 0 0)
(0.009044267196790762 0 0)
(0.00927314272369348 0 0)
(0.009578549682687431 0 0)
(0.009968770861510176 0 0)
(0.01027116332942158 0 0)
(0.01063295515248272 0 0)
(0.01092578869193325 0 0)
(0.01117407192101386 0 0)
(0.01132429371237795 0 0)
(0.01155022576105168 0 0)
(0.01178008812112229 0 0)
(0.0120636564395604 0 0)
(0.01240682246414837 0 0)
(0.01262742861069218 0 0)
(0.01299917158873103 0 0)
(0.01329434664851421 0 0)
(0.01349770730670484 0 0)
(0.01380168029747879 0 0)
(0.01399488687558434 0 0)
(0.01429576828917696 0 0)
(0.01455118755564805 0 0)
(0.01488986509028564 0 0)
(0.01509999031785512 0 0)
(0.01545921690385631 0 0)
(0.01545755076407021 0 0)
)
;

boundaryField
{
    inlet
    {
        type            calculated;
        value           uniform (-6.814959369653186e-06 0 0);
    }
    outlet
    {
        type            calculated;
        value           uniform (0.01545755076407021 0 0);
    }
    frontAndBack
    {
        type            empty;
    }
}


// ************************************************************************* //
