/*--------------------------------*- C++ -*----------------------------------*\
| =========                 |                                                 |
| \\      /  F ield         | OpenFOAM: The Open Source CFD Toolbox           |
|  \\    /   O peration     | Version:  v2012                                 |
|   \\  /    A nd           | Website:  www.openfoam.com                      |
|    \\/     M anipulation  |                                                 |
\*---------------------------------------------------------------------------*/
FoamFile
{
    version     2.0;
    format      ascii;
    class       volScalarField;
    location    "0.0055";
    object      p;
}
// * * * * * * * * * * * * * * * * * * * * * * * * * * * * * * * * * * * * * //

dimensions      [1 -1 -2 0 0 0 0];


internalField   nonuniform List<scalar> 
1000
(
101339.0477311575
101336.4367430433
101343.1359392758
101348.3958608985
101354.2283271425
101359.5006808737
101364.0671304045
101367.9638316661
101371.2524819925
101373.4489874837
101374.0477199637
101374.0272266816
101373.6691780226
101372.6642836768
101370.7033510694
101367.7141393214
101363.8045509681
101359.1543092205
101353.9131901512
101348.1812144278
101342.0386041315
101335.5746160801
101328.8969738246
101322.1304401081
101315.4123368259
101308.8819740854
101302.6597333353
101296.819155208
101291.368964066
101286.2943841695
101281.7516263218
101278.3956324056
101276.9772788246
101276.8197164714
101276.8925451201
101277.1650885012
101277.9217454603
101279.3977990976
101281.7985761939
101285.2134257785
101289.5958866242
101294.7882376
101300.5854694274
101306.7979519785
101313.2795019032
101319.9191387958
101326.6191310253
101333.2800500221
101339.8005461571
101346.094429707
101352.1190925687
101357.8785731143
101363.3271253383
101368.1070142558
101371.3389471325
101372.4833560412
101372.5718215675
101372.5342626668
101372.2844495965
101371.6623895472
101370.4418399948
101368.4286137479
101365.4807148773
101361.5475189515
101356.6835621677
101351.0363249082
101344.8091989473
101338.2140993628
101331.4348202144
101324.6145273842
101317.8610102504
101311.2504962231
101304.8216812287
101298.5770154217
101292.5251141986
101286.8084934508
101281.9507089362
101278.9133835969
101277.9717053295
101277.9104235988
101277.9737553932
101278.1933489753
101278.7636268022
101279.8596729418
101281.6644626395
101284.3236757329
101287.919905424
101292.4506363416
101297.824331033
101303.8765283934
101310.4004510144
101317.1834169955
101324.0406740515
101330.838368248
101337.5002632812
101344.0006492656
101350.3471361389
101356.5351072909
101362.4156912139
101367.4361030291
101370.5951537733
101371.5913910844
101371.6571017804
101371.6266062927
101371.4345256449
101370.9560761687
101370.0150604391
101368.4441355455
101366.092773219
101362.8536940359
101358.6835570857
101353.6178468416
101347.7723103172
101341.3263806825
101334.4920526037
101327.4781760333
101320.458386568
101313.5467674426
101306.788506398
101300.1809361551
101293.7466275979
101287.6919314001
101282.6570266686
101279.6508942562
101278.7778694054
101278.7248959011
101278.7735317726
101278.9486339827
101279.4043606319
101280.2854788932
101281.7497163222
101283.9385370261
101286.9600097919
101290.8692278715
101295.6548730923
101301.2347911795
101307.4625180733
101314.146937185
101321.0845073091
101328.0956561192
101335.052092847
101341.8862018061
101348.5775334904
101355.0978067142
101361.2664366463
101366.4945888264
101369.7749006196
101370.8340590095
101370.9174626728
101370.8963131996
101370.7489667564
101370.3730301145
101369.6194025677
101368.3417529382
101366.3981106026
101363.6698930226
101360.078144753
101355.5996596194
101350.2776053054
101344.2212627711
101337.5931525573
101330.5857893634
101323.3908689534
101316.165754988
101309.0105480423
101301.9778360415
101295.1409408153
101288.753963614
101283.4972116153
101280.3804894449
101279.4649350851
101279.4037687554
101279.4404643196
101279.5791667399
101279.9493037019
101280.674849868
101281.8947147279
101283.7408385061
101286.3259654878
101289.7281472595
101293.977755817
101299.0484198215
101304.8540220622
101311.2557186663
101318.0815662435
101325.1548023597
101332.3216410012
101339.4699358296
101346.5284102582
101353.421570299
101359.932323041
101365.4542852791
101368.9724480833
101370.1696435818
101370.2832016972
101370.2701981617
101370.1584053786
101369.8606346139
101369.2470905548
101368.1884809955
101366.5537746083
101364.224495806
101361.1070494963
101357.1468151635
101352.3400897924
101346.7396453215
101340.4519220826
101333.625751891
101326.4317616824
101319.0339549921
101311.5648742466
101304.1270286855
101296.8504260289
101290.0453811708
101284.4437569439
101281.0938784317
101280.0732681565
101279.9936866302
101280.0214110887
101280.1305137417
101280.432850978
101281.036939975
101282.0671969645
101283.6457105355
101285.8832651073
101288.8672478233
101292.6508455832
101297.2436055199
101302.6049264282
101308.6444554265
101315.2325639358
101322.2189478581
101329.4539264895
101336.8071076623
101344.1729737462
101351.4352694213
101358.3401943151
101364.2573337048
101368.1369614919
101369.5570953456
101369.7224336003
101369.7161605214
101369.6311156893
101369.3951104033
101368.8923727394
101368.0071606663
101366.6184185413
101364.6115732479
101361.887877228
101358.3758842488
101354.0421857649
101348.8985758917
101343.0042235256
101336.4620262908
101329.4068153912
101321.9850457906
101314.3347552278
101306.5855696529
101298.9079266699
101291.6545586991
101285.5982814303
101281.8592198066
101280.6355108343
101280.519932474
101280.5399386784
101280.6240127155
101280.8711980837
101281.3776653324
101282.2555654055
101283.617278163
101285.5691869716
101288.2021203861
101291.5823317956
101295.7425949573
101300.674823189
101306.3275597567
101312.6108340988
101319.4072534735
101326.586526824
101334.0205946983
101341.5899803956
101349.1544050353
101356.4398505686
101362.8123363985
101367.1870367911
101368.9561912804
101369.2135178457
101369.2135885716
101369.1510079836
101368.9649858285
101368.5521809752
101367.8081044741
101366.6210322979
101364.8816429857
101362.4902179539
101359.3661389012
101355.4570777938
101350.7460339551
101345.2556229654
101339.0487940533
101332.2231103797
101324.8975195296
101317.1985827404
101309.2621481783
101301.2758267291
101293.6062366126
101287.0336727822
101282.7533532978
101281.1936819887
101281.0067688623
101281.0195596053
101281.0807169462
101281.279439958
101281.7019115247
101282.4513173609
101283.6316675774
101285.3440689297
101287.6791677598
101290.7099243399
101294.4838097673
101299.0156939565
101304.2841086167
101310.23258953
101316.7754064456
101323.8066395082
101331.2113923139
101338.8710661954
101346.6389240338
101354.2429258867
101361.0766340727
101366.0479256533
101368.3138162535
101368.7338134149
101368.7429092794
101368.7003072259
101368.5574693262
101368.221551937
101367.597124111
101366.5802311773
101365.0671075748
101362.9595664026
101360.1726698398
101356.6422460807
101352.3312501772
101347.2349404414
101341.3839601748
101334.8424171696
101327.700050335
101320.0641732045
101312.0633522497
101303.8831173457
101295.8759164373
101288.7866673434
101283.8481837807
101281.7913623046
101281.4686340177
101281.4732734911
101281.5140682342
101281.6705244841
101282.0191958295
101282.6565794984
101283.679977052
101285.1857502542
101287.2631167604
101289.9882227428
101293.4175581325
101297.5818099491
101302.481847809
101308.0878001725
101314.3412246886
101321.1605560306
101328.4489354133
101336.0974146363
101343.9648100977
101351.7983287054
101359.0480065897
101364.6623733364
101367.5728676699
101368.2606538943
101368.2919715288
101368.2665569734
101368.1614286687
101367.8932264227
101367.3733325289
101366.5041859851
101365.1869432631
101363.3259354745
101360.8347104945
101357.6419920216
101353.6971932283
101348.9757502847
101343.4832473519
101337.2557520959
101330.355979926
101322.8697824744
101314.9110898333
101306.6507037516
101298.4074492181
101290.8554150261
101285.2027355605
101282.4832117044
101281.9229592075
101281.9080761671
101281.9331943681
101282.0526218727
101282.3360534094
101282.8741016067
101283.7587528182
101285.0823283958
101286.9322080482
101289.3861205147
101292.5063739134
101296.3343659774
101300.8869785598
101306.1549406776
101312.1025198016
101318.6696724299
101325.7774868745
101333.3309369833
101341.2025214514
101349.1680410505
101356.7497003029
101362.9880451031
101366.6645472638
101367.7721177432
101367.8647167721
101367.8472162628
101367.7746263568
101367.5639006261
101367.1350778636
101366.3953219101
101365.2503303792
101363.607042077
101361.37871058
101358.4896595016
101354.8801995875
101350.5116720103
101345.370602248
101339.4703728365
101332.8505127258
101325.5762818998
101317.7435344241
101309.5012427221
101301.1254166462
101293.2006532213
101286.8501006879
101283.3362862
101282.3958807682
101282.3348054528
101282.3495198931
101282.435547
101282.6598501068
101283.1075842419
101283.8664436569
101285.0256892488
101286.6711816224
101288.8812335739
101291.7217081602
101295.2414739164
101299.469101266
101304.4105329644
101310.0476042074
101316.3388155532
101323.2227352963
101330.6190612692
101338.4156987001
101346.4203787823
101354.2343507958
101361.0244442353
101365.5254286505
101367.223676749
101367.446774423
101367.4389348417
101367.3908992386
101367.2294991623
101366.8804712865
101366.2553804429
101365.2639432805
101363.8155985349
101361.8238427039
101359.2103296416
101355.909287529
101351.8719257567
101347.0702986718
101341.500046929
101335.1818598838
101328.1625524549
101320.519264878
101312.3773164912
101303.9686738397
101295.7820017925
101288.8066606743
101284.4132087789
101282.912491714
101282.748282824
101282.7559008545
101282.8139601747
101282.9873223352
101283.3549940086
101284.0014913148
101285.0131968299
101286.4743655286
101288.4632060399
101291.0479276232
101294.2829393615
101298.2054779063
101302.8329066399
101308.1611217997
101314.1645715136
101320.7974527358
101327.9933497406
101335.6562439767
101343.6255380577
101351.5761061053
101358.8091428971
101364.1109073838
101366.5509651676
101367.015990461
101367.0258151493
101366.9968794232
101366.8795973996
101366.6026076616
101366.0825718544
101365.2317595442
101363.9615962426
101362.1861814725
101359.8255454188
101356.8094791966
101353.0819607006
101348.6049328308
101343.3606712976
101337.3539204215
101330.6150663731
101323.2048697361
101315.2269315609
101306.8709644326
101298.5336357489
101291.0503482517
101285.7743136705
101283.5317223841
101283.159322381
101283.1529609129
101283.1922033416
101283.3210775978
101283.6185953702
101284.1640964346
101285.0418729279
101286.33470532
101288.1207927755
101290.4699226257
101293.4403040002
101297.0757762216
101301.4028672154
101306.4283953212
101312.1390580806
101318.5023722789
101325.4655270962
101332.9475272838
101340.8142835315
101348.8053269854
101356.3580756275
101362.3905603857
101365.7029888821
101366.5769563957
101366.6318795998
101366.6180873834
101366.5340639739
101366.3180773289
101365.8883917667
101365.1613570516
101364.0504167855
101362.4704830692
101360.3409127553
101357.5889144473
101354.1530865179
101349.9869013949
101345.061914376
101339.3706064146
101332.9291269133
101325.781468449
101318.0104822314
101309.7710915068
101301.3817961386
101293.5247370112
101287.4411828137
101284.3226342533
101283.5956074065
101283.5611456499
101283.5814368212
101283.6734799374
101283.9067492905
101284.3589845595
101285.1121879809
101286.2481708151
101287.8450802231
101289.9742042601
101292.6968993263
101296.0617062256
101300.1017911904
101304.8329826967
101310.2526262659
101316.339049587
101323.0505397732
101330.3205631671
101338.0397872475
101346.0004315649
101353.7556600413
101360.3883066448
101364.6046110686
101366.0703991976
101366.2361620663
101366.2294833646
101366.175361583
101366.0124306523
101365.6650065029
101365.0514580569
101364.0872140296
101362.6879765569
101360.7727090928
101358.2667479661
101355.1050147755
101351.2351074561
101346.6203103915
101341.2427427927
101335.1066078501
101328.2420890655
101320.71382704
101312.6457582947
101304.2901474542
101296.1905906615
101289.4195082608
101285.3469579194
101284.0727642122
101283.9547180618
101283.9656606038
101284.0268363692
101284.2054525593
101284.5753526433
101285.2166524825
101286.2099154836
101287.6330030098
101289.5579750818
101292.048559034
101295.1574409438
101298.923430888
101303.3694098329
101308.5014051958
101314.3076938869
101320.7568399376
101327.7938517274
101335.3285575407
101343.1959802322
101351.0470902606
101358.1347384076
101363.2126825331
101365.4422756187
101365.8343769657
101365.8416653744
101365.8077908759
101365.6894460179
101365.4127760609
101364.9004660587
101364.0697069748
101362.8374312363
101361.1225827185
101358.8490140285
101355.9484035965
101352.3632777248
101348.0501143284
101342.9824828125
101337.1542261686
101330.5833143871
101323.3190120737
101315.4602436498
101307.2060455874
101298.9827269037
101291.6766411627
101286.6640660906
101284.64832233
101284.3462830128
101284.3464286576
101284.3849426857
101284.5178416978
101284.8152968444
101285.3551242234
101286.2167231759
101287.4778904221
101289.2117720185
101291.484088815
101294.3505323858
101297.8543828207
101302.0245534543
101306.8741101171
101312.3990569061
101318.5770059608
101325.3644586881
101332.6879420794
101340.415349896
101348.275619472
101355.6791792746
101361.5180655647
101364.6345186147
101365.4161599122
101365.4604470139
101365.4427436616
101365.360461032
101365.1460443098
101364.7245026488
101364.0151664233
101362.9358517112
101361.4056126245
101359.3474272004
101356.6908621912
101353.3748203768
101349.3505067083
101344.5845554703
101339.0621478988
101332.7905904148
101325.8053883108
101318.1842413058
101310.0838590936
101301.8360664171
101294.1518195471
101288.296190955
101285.3971035595
101284.7630530883
101284.7379914617
101284.7586042343
101284.8522491938
101285.0850331552
101285.5322315543
101286.2720624126
101287.3820600323
101288.9359579432
101291.0010893451
101293.6358937183
101296.8876367741
101300.7904113045
101305.3634309429
101310.6095727915
101316.5139934206
101323.0418932633
101330.1321231382
101337.6772779168
101345.4668803857
101353.0490177951
101359.5099998071
101363.5888930742
101364.9951362036
101365.1543038219
101365.1484982405
101365.1023866261
101364.9614901236
101364.6610717138
101364.1318284717
101363.3043971551
101362.1130541758
101360.499678357
101358.4178268629
101355.8370852087
101352.7477586286
101349.1662247969
101345.1423284494
101340.7733212675
101336.2359936583
101331.8561333383
101328.1966449228
101325.9260103252
101325.1207011388
101325.0047086586
101325.0000359074
101325.0000000166
101324.9999999805
101324.9999999804
101324.9999999805
101324.9999999805
101324.9999999806
101324.9999999808
101324.9999999809
101324.9999999811
101324.9999999812
101324.9999999813
101324.9999999814
101324.9999999814
101324.9999999814
101324.9999999813
101324.9999999813
101324.9999999813
101324.9999999812
101324.9999999812
101324.9999999812
101324.9999999812
101324.9999999812
101324.9999999811
101324.999999981
101324.999999981
101324.999999981
101324.999999981
101324.999999981
101324.999999981
101324.999999981
101324.999999981
101324.999999981
101324.999999981
101324.999999981
101324.9999999809
101324.9999999809
101324.9999999809
101324.9999999808
101324.9999999808
101324.9999999807
101324.9999999806
101324.9999999805
101324.9999999804
101324.9999999803
101324.9999999802
101324.9999999802
101324.9999999801
101324.9999999801
101324.9999999801
101324.99999998
101324.99999998
101324.9999999801
101324.99999998
101324.99999998
101324.9999999801
101324.9999999801
101324.9999999801
101324.99999998
101324.99999998
101324.99999998
101324.99999998
101324.99999998
101324.99999998
101324.9999999799
101324.9999999799
101324.9999999799
101324.9999999799
101324.9999999799
101324.9999999799
101324.99999998
101324.99999998
101324.99999998
101324.99999998
101324.99999998
101324.99999998
101324.99999998
101324.9999999801
101324.9999999801
101324.9999999801
101324.9999999801
101324.9999999802
101324.9999999802
101324.9999999802
101324.9999999801
101324.9999999802
101324.9999999801
101324.9999999801
101324.9999999801
101324.9999999801
101324.9999999801
101324.99999998
101324.99999998
101324.9999999799
101324.9999999799
101324.9999999799
101324.9999999799
101324.9999999799
101324.99999998
101324.9999999799
101324.99999998
101324.99999998
101324.99999998
101324.9999999801
101324.9999999801
101324.9999999801
101324.99999998
101324.9999999801
101324.9999999801
101324.9999999801
101324.9999999801
101324.9999999801
101324.9999999801
101324.9999999801
101324.9999999801
101324.99999998
101324.99999998
101324.99999998
101324.9999999799
101324.9999999799
101324.9999999799
101324.9999999798
101324.9999999798
101324.9999999798
101324.9999999798
101324.9999999796
101324.9999999795
101324.9999999794
101324.9999999794
101324.9999999793
101324.9999999792
101324.9999999791
101324.9999999791
101324.9999999792
101324.9999999791
101324.999999979
101324.999999979
101324.999999979
101324.9999999789
101324.9999999789
101324.9999999789
101324.9999999788
101324.9999999789
101324.9999999788
101324.9999999788
101324.9999999788
101324.9999999788
101324.9999999788
101324.9999999789
101324.9999999788
101324.9999999788
101324.9999999788
101324.9999999788
101324.9999999787
101324.9999999787
101324.9999999787
101324.9999999788
101324.9999999788
101324.9999999789
101324.9999999789
101324.9999999789
101324.9999999789
101324.9999999789
101324.9999999789
101324.9999999789
101324.9999999789
101324.9999999789
101324.9999999789
101324.9999999789
101324.999999979
101324.999999979
101324.999999979
101324.999999979
101324.9999999791
101324.9999999791
101324.9999999791
101324.9999999792
101324.9999999792
101324.9999999792
101324.9999999792
101324.9999999792
101324.9999999792
101324.9999999791
101324.9999999791
101324.9999999791
101324.9999999792
101324.9999999791
101324.999999979
101324.999999979
101324.9999999789
101324.9999999788
101324.9999999787
101324.9999999785
101324.9999999783
101324.9999999781
101324.9999999779
101324.9999999777
101324.9999999776
101324.9999999775
101324.9999999774
101324.9999999774
101324.9999999774
101324.9999999773
101324.9999999772
101324.999999977
101324.9999999768
101324.9999999766
101324.9999999765
101324.9999999763
101324.9999999763
101324.9999999763
101324.9999999763
101324.9999999764
101324.9999999764
101324.9999999765
101324.9999999766
101324.9999999765
101324.9999999765
101324.9999999765
101324.9999999764
101324.9999999763
101324.9999999763
101324.9999999762
101324.9999999761
101324.9999999761
101324.9999999761
101324.9999999761
101324.9999999761
101324.9999999761
101324.9999999762
)
;

boundaryField
{
    inlet
    {
        type            uniformFixedValue;
        uniformValue    sine;
        uniformValueCoeffs
        {
            frequency       constant 3000;
            scale           constant 50;
            level           constant 101325;
        }
        value           uniform 101326.3578702043;
    }
    outlet
    {
        type            pressureOutletNSCBC;
        pInf            101325;
        gamma           1.4;
        etaAc           1;
        fieldInf        1;
        lInf            2.25;
        value           uniform 101324.9999999762;
    }
    frontAndBack
    {
        type            empty;
    }
}


// ************************************************************************* //
