/*--------------------------------*- C++ -*----------------------------------*\
| =========                 |                                                 |
| \\      /  F ield         | OpenFOAM: The Open Source CFD Toolbox           |
|  \\    /   O peration     | Version:  v2012                                 |
|   \\  /    A nd           | Website:  www.openfoam.com                      |
|    \\/     M anipulation  |                                                 |
\*---------------------------------------------------------------------------*/
FoamFile
{
    version     2.0;
    format      ascii;
    class       volScalarField;
    location    "0.0055";
    object      pMean;
}
// * * * * * * * * * * * * * * * * * * * * * * * * * * * * * * * * * * * * * //

dimensions      [1 -1 -2 0 0 0 0];


internalField   nonuniform List<scalar> 
1000
(
101325.9245717242
101325.9519158156
101325.9293478958
101325.9105217975
101325.8752577013
101325.8350942716
101325.7860585413
101325.7336847197
101325.6752832833
101325.6139130492
101325.5498746525
101325.4858231591
101325.4217822838
101325.3587467554
101325.297432206
101325.239309441
101325.1854912848
101325.1372383444
101325.0952777445
101325.0605071673
101325.0333684956
101325.0145105566
101325.0041548514
101325.002654908
101325.0099185527
101325.0259327851
101325.0502798785
101325.0826255222
101325.1223402483
101325.1690442707
101325.2221494759
101325.2807750134
101325.3427755328
101325.4058090524
101325.4688208748
101325.5316884577
101325.5938357037
101325.6547114974
101325.7130542431
101325.7678123881
101325.8174933461
101325.8611140411
101325.8975366809
101325.9262591344
101325.9466223466
101325.9585183134
101325.96159933
101325.9560209111
101325.9417085129
101325.9190839747
101325.8882835436
101325.8498212632
101325.8038585491
101325.7511196394
101325.692729887
101325.6313037842
101325.5690157969
101325.5068100163
101325.4447414279
101325.3832160261
101325.3228188759
101325.2644448497
101325.2091940879
101325.1583298425
101325.1130961537
101325.0746406225
101325.0438656842
101325.0214292454
101325.0077097224
101325.0028803682
101325.0069280312
101325.019739721
101325.0411038969
101325.0707929888
101325.1085549901
101325.1541074065
101325.2068016504
101325.2650392172
101325.3260754026
101325.3877086432
101325.4493019381
101325.5107696561
101325.5716921097
101325.6316571105
101325.6897384825
101325.7450741234
101325.7963621355
101325.8425196854
101325.8822321937
101325.9146246461
101325.9387826583
101325.9543425197
101325.9609258671
101325.9586397308
101325.9474686668
101325.9277406303
101325.8995251569
101325.8631359688
101325.818693875
101325.7669708314
101325.709478986
101325.6491133797
101325.5880275853
101325.5270104244
101325.4660941879
101325.4056047502
101325.3459750135
101325.2879223386
101325.2323269787
101325.1802889306
101325.13296845
101325.0915891895
101325.0572328781
101325.0308537435
101325.0130950473
101325.0043842011
101325.0048268833
101325.0144084411
101325.0329332658
101325.0602431486
101325.0961088177
101325.1402632364
101325.1919180248
101325.2492266642
101325.3092438349
101325.3698167113
101325.4303534012
101325.4907960104
101325.5507971023
101325.610037246
101325.6677488061
101325.7232247392
101325.775329554
101325.8230767941
101325.8651784219
101325.9006601398
101325.9284354983
101325.9478845312
101325.9583959117
101325.9598550392
101325.9521159195
101325.9354082597
101325.9097759844
101325.8755212709
101325.8328045779
101325.7824696639
101325.7261409209
101325.6668136135
101325.6067078878
101325.5466557812
101325.4866651266
101325.4270184895
101325.368044386
101325.3103555472
101325.2546696485
101325.2019620327
101325.1532593735
101325.1097443629
101325.0725123662
101325.0426507101
101325.0209925161
101325.0082256071
101325.0046963832
101325.0106155854
101325.0259246199
101325.050559118
101325.0842848687
101325.1268023084
101325.1771853876
101325.2334614639
101325.2925399387
101325.3522263046
101325.4118796873
101325.4714697172
101325.5306952872
101325.5893048177
101325.6466425496
101325.7021103799
101325.7547121008
101325.8035568518
101325.8474415067
101325.8853887921
101325.9162525761
101325.9392648522
101325.9536178514
101325.9589704604
101325.9549638441
101325.9416578578
101325.9189869811
101325.8872118684
101325.8465076825
101325.7977627904
101325.742668367
101325.6843035696
101325.6250454045
101325.5658183751
101325.5066235765
101325.4477090369
101325.3893266899
101325.3320094803
101325.2763559931
101325.2232328417
101325.1735484996
101325.1284122214
101325.0888777599
101325.0560768092
101325.0309394636
101325.0143382769
101325.006830975
101325.0088673009
101325.0205921363
101325.0421040114
101325.0732534576
101325.1137628859
101325.1626447239
101325.2178140459
101325.2760225924
101325.3349281362
101325.3938167251
101325.4526606174
101325.5112057871
101325.5692452897
101325.6262154467
101325.6815979479
101325.7345132308
101325.7841584897
101325.8294215315
101325.8693586873
101325.9028245428
101325.9289721982
101325.9468711555
101325.9559958272
101325.9557953875
101325.9461280491
101325.9267765725
101325.8978819922
101325.8595703199
101325.8126994948
101325.7589784833
101325.7015684725
101325.6430755309
101325.5845774617
101325.5260925947
101325.4678338408
101325.410000055
101325.3530544595
101325.2975056718
101325.2441282471
101325.1937264438
101325.1473318371
101325.1059357909
101325.0706661187
101325.0424926481
101325.0224018177
101325.0111084115
101325.0092678119
101325.0172281106
101325.0352853243
101325.0634312925
101325.1014905122
101325.1485067699
101325.2023832794
101325.2597154245
101325.3179176928
101325.3761204798
101325.4343016992
101325.4922294124
101325.5497503395
101325.606354085
101325.6616088678
101325.7147128074
101325.7649585826
101325.8113068548
101325.8528745632
101325.8885344607
101325.9174146828
101325.9385096555
101325.9511660751
101325.9546763238
101325.9487148969
101325.9329011669
101325.9072229867
101325.871700642
101325.827079723
101325.7749902968
101325.7186087791
101325.6608376561
101325.6029975502
101325.545158476
101325.4874991607
101325.4301813037
101325.3736031945
101325.3182096624
101325.2646839
101325.2137550793
101325.1663633571
101325.1234499899
101325.086095923
101325.0552948303
101325.0320755844
101325.0172801827
101325.0116996922
101325.015881141
101325.0302862988
101325.0550987703
101325.0902712585
101325.1350054808
101325.1872886755
101325.2436649982
101325.3011870268
101325.3587660351
101325.4163250126
101325.473689524
101325.5307140659
101325.5869702005
101325.6420582059
101325.695278973
101325.745970672
101325.7931971746
101325.8361056799
101325.8736335633
101325.9048835445
101325.9288375133
101325.9447359999
101325.9517746216
101325.949460672
101325.937277996
101325.9150467519
101325.8826577796
101325.8406792679
101325.7905565448
101325.7353721542
101325.6783276726
101325.6211053479
101325.5638695856
101325.5067776495
101325.4499506562
101325.3937426451
101325.3385333896
101325.2849427624
101325.2336189915
101325.1854366573
101325.1412652422
101325.1021510849
101325.069064231
101325.043068924
101325.0250646632
101325.0159632543
101325.0164417348
101325.0271342301
101325.0483786196
101325.0803133119
101325.1223301197
101325.1726635341
101325.2279017385
101325.2847470497
101325.3417276216
101325.3987066754
101325.4555248482
101325.5120797234
101325.5679782559
101325.6228834968
101325.6761490462
101325.72718668
101325.7751187746
101325.8191565295
101325.8582746394
101325.8915977395
101325.9180924895
101325.9369522255
101325.9472893426
101325.9484982022
101325.9399368081
101325.9212834736
101325.8922827312
101325.853300016
101325.8055133247
101325.7517765949
101325.6955215187
101325.6388932767
101325.5822369466
101325.5256931554
101325.4693467626
101325.4135140169
101325.3585182043
101325.3049245374
101325.2533126306
101325.2044953755
101325.1592784321
101325.1186631609
101325.0835897861
101325.0551273107
101325.0342094178
101325.0218227366
101325.0187459961
101325.0257447873
101325.043301327
101325.0717293683
101325.1106522286
101325.1586351821
101325.2124805309
101325.2685915692
101325.3249962304
101325.3814149364
101325.437704556
101325.4937950905
101325.5493309231
101325.6040263276
101325.6572842329
101325.7085792948
101325.7570865845
101325.802078103
101325.8425654308
101325.8777076391
101325.9064665999
101325.9280204973
101325.9414188289
101325.945985516
101325.9409667977
101325.925935807
101325.9004861622
101325.8647961895
101325.8197141598
101325.7677575046
101325.7124135294
101325.6563772157
101325.6002721082
101325.5442579734
101325.4883883832
101325.4329357532
101325.3781853314
101325.3246405277
101325.2728328872
101325.2235063867
101325.177419876
101325.1355154778
101325.0987100977
101325.0680491646
101325.0444918377
101325.0290562877
101325.0226058021
101325.0259922902
101325.0398331123
101325.064586202
101325.1001240017
101325.1453695006
101325.1975006335
101325.2527490521
101325.3085789541
101325.3644387116
101325.4202096357
101325.475823015
101325.5309907889
101325.5854395904
101325.6386511225
101325.6901206614
101325.7391062369
101325.7848990433
101325.8265839979
101325.8633209241
101325.8941161015
101325.9181101321
101325.9343510303
101325.9420783737
101325.9404933815
101325.9290458971
101325.9072374429
101325.875033606
101325.8329955081
101325.7831777943
101325.7289669926
101325.6735378774
101325.6179764048
101325.5624781646
101325.5070876558
101325.4520256726
101325.3975514
101325.3441043151
101325.2921795156
101325.2424514244
101325.195640638
101325.1526266287
101325.1143031007
101325.0816797448
101325.0557274963
101325.0374731536
101325.0278398751
101325.0277384237
101325.0378940834
101325.0588864152
101325.0908160225
101325.1329696071
101325.1830060173
101325.2371986432
101325.2924372226
101325.3477570024
101325.4030183837
101325.4581565825
101325.5129458294
101325.5671227528
101325.6202427902
101325.6718185534
101325.7211860502
101325.7676536753
101325.8103780922
101325.8485234558
101325.8811460616
101325.9073608721
101325.9262293996
101325.9369271976
101325.9386298461
101325.9306838824
101325.9125175743
101325.883909545
101325.8451614829
101325.7978422312
101325.7450551704
101325.690320748
101325.635311636
101325.5803401404
101325.5254416832
101325.4707982808
101325.4166319313
101325.3633362279
101325.3113595821
101325.261325953
101325.2139079491
101325.1699386545
101325.1302739756
101325.0958954541
101325.0677635475
101325.0469102643
101325.0342869999
101325.0308510253
101325.0374034641
101325.0546299616
101325.0828180701
101325.1215919666
101325.169133068
101325.2219879257
101325.2765753196
101325.3313675995
101325.3861176075
101325.4407896905
101325.4951739929
101325.5490647327
101325.602037463
101325.6536694892
101325.7033217263
101325.7503667658
101325.7939826963
101325.8333868901
101325.8676419798
101325.8958928545
101325.9171795108
101325.9306741237
101325.9354986118
101325.9309617865
101325.9163961722
101325.8914645208
101325.8562039153
101325.8117520733
101325.7607341111
101325.7068354419
101325.6523541809
101325.5978906549
101325.5434704499
101325.4892437549
101325.435404085
101325.3822939718
101325.3303278806
101325.2800721624
101325.232162764
101325.1873769382
101325.146541099
101325.1105948744
101325.0804884423
101325.0572397162
101325.0418224948
101325.0352179965
101325.0382888638
101325.0518008438
101325.0762020194
101325.1114054729
101325.1560966567
101325.2072616879
101325.2610593251
101325.3153087617
101325.3695401929
101325.4237161142
101325.477680497
101325.5312364123
101325.5840262902
101325.6356425512
101325.685513828
101325.7330294902
101325.7774302904
101325.8179447362
101325.8536838471
101325.8837872156
101325.9073199562
101325.923424771
101325.931218475
101325.9299495313
101325.9189067093
101325.8976298847
101325.8659686736
101325.8246468375
101325.7757794795
101325.7229377485
101325.669034865
101325.615081471
101325.5611506654
101325.5073668763
101325.4538802786
101325.401004825
101325.3491022811
101325.2987054831
101325.250396141
101325.2049178778
101325.1630484802
101325.1257024407
101325.0937974797
101325.0683457364
101325.0503159499
101325.040713228
101325.0404333969
101325.0503125342
101325.0709170838
101325.1024060802
101325.1439220999
101325.1930065018
101325.2458201635
101325.2995143291
101325.3532369905
101325.4069280363
101325.4604581914
101325.5136678596
101325.566232685
101325.6177881051
101325.6678004574
101325.7157017963
101325.7607692634
101325.8022672447
101325.8393343023
101325.871130502
101325.8967302715
101325.9152741159
101325.9258648917
101325.9277214216
101325.920085384
101325.9024134623
101325.8743958778
101325.8364244173
101325.790081281
101325.7386061692
101325.6853557899
101325.6319144893
101325.5784815771
101325.525149627
101325.4720524817
101325.41944825
101325.3676772975
101325.317210529
101325.2686043118
101325.2225413162
101325.1797767024
101325.1411729638
101325.1076367411
101325.0801468276
101325.0596819374
101325.0472411593
101325.0437601885
101325.0501118541
101325.0669708582
101325.0946767693
101325.1327729063
101325.1793729189
101325.2309164293
101325.2839962567
101325.3372194172
101325.3904206973
101325.443511582
101325.49634592
101325.5486553226
101325.6000938634
101325.6501876753
101325.6983872316
101325.7440280681
101325.7863871102
101325.8246537757
101325.8579883461
101325.8855028256
101325.9063188443
101325.9195564596
101325.9243908252
101325.9200535544
101325.905911926
101325.881553679
101325.8470743467
101325.8035921466
101325.7538350178
101325.701381702
101325.6484447108
101325.5955051139
101325.5426272463
101325.4899299702
101325.437623189
101325.3860213193
101325.3355417907
101325.2867128363
101325.2401625471
101325.1966207548
101325.1569002949
101325.1218919519
101325.0925378615
101325.0698189093
101325.0547198146
101325.0482058011
101325.0511716277
101325.0643790516
101325.0883051024
101325.1228242472
101325.1665851236
101325.2164997408
101325.2688313653
101325.3215374112
101325.3742335522
101325.4268594022
101325.4792877733
101325.5312955377
101325.5825639616
101325.6326671734
101325.6810845583
101325.7271974871
101325.7703085451
101325.8096450506
101325.8443838993
101325.8736607567
101325.8965992268
101325.9123240513
101325.9199938174
101325.918821148
101325.9081239067
101325.8874010213
101325.8565366127
101325.8162218484
101325.7685922947
101325.7171120262
101325.6646316702
101325.6120841411
101325.5595705831
101325.5071700881
101325.4550399224
101325.4034244434
101325.3526589991
101325.3031679535
101325.2554577872
101325.2101050034
101325.1677385823
101325.1290165931
101325.0945964244
101325.0650972326
101325.041050116
101325.0228223992
101325.0104824607
101325.0035559189
101325.0007378206
101325.0000702257
101325.0000021023
101325.0000000069
101324.9999999936
101324.9999999936
101324.9999999936
101324.9999999935
101324.9999999934
101324.9999999934
101324.9999999935
101324.9999999934
101324.9999999934
101324.9999999934
101324.9999999934
101324.9999999934
101324.9999999934
101324.9999999933
101324.9999999933
101324.9999999933
101324.9999999932
101324.9999999932
101324.9999999932
101324.9999999932
101324.9999999932
101324.9999999932
101324.9999999931
101324.9999999932
101324.999999993
101324.999999993
101324.999999993
101324.9999999931
101324.999999993
101324.999999993
101324.999999993
101324.9999999929
101324.999999993
101324.9999999929
101324.9999999929
101324.9999999928
101324.9999999928
101324.9999999928
101324.9999999927
101324.9999999927
101324.9999999927
101324.9999999927
101324.9999999927
101324.9999999926
101324.9999999926
101324.9999999926
101324.9999999926
101324.9999999926
101324.9999999926
101324.9999999926
101324.9999999926
101324.9999999927
101324.9999999926
101324.9999999926
101324.9999999926
101324.9999999926
101324.9999999926
101324.9999999925
101324.9999999925
101324.9999999924
101324.9999999924
101324.9999999924
101324.9999999923
101324.9999999924
101324.9999999923
101324.9999999923
101324.9999999922
101324.9999999922
101324.9999999922
101324.9999999922
101324.9999999921
101324.9999999921
101324.9999999921
101324.9999999921
101324.999999992
101324.999999992
101324.999999992
101324.9999999919
101324.9999999919
101324.9999999918
101324.9999999917
101324.9999999917
101324.9999999917
101324.9999999916
101324.9999999916
101324.9999999915
101324.9999999915
101324.9999999915
101324.9999999915
101324.9999999915
101324.9999999914
101324.9999999914
101324.9999999914
101324.9999999914
101324.9999999913
101324.9999999913
101324.9999999913
101324.9999999913
101324.9999999913
101324.9999999912
101324.9999999912
101324.9999999912
101324.9999999911
101324.9999999911
101324.9999999911
101324.999999991
101324.9999999911
101324.999999991
101324.999999991
101324.9999999909
101324.9999999909
101324.9999999909
101324.9999999909
101324.9999999909
101324.9999999909
101324.9999999908
101324.9999999908
101324.9999999908
101324.9999999907
101324.9999999907
101324.9999999907
101324.9999999907
101324.9999999907
101324.9999999907
101324.9999999906
101324.9999999906
101324.9999999906
101324.9999999905
101324.9999999904
101324.9999999904
101324.9999999904
101324.9999999904
101324.9999999904
101324.9999999903
101324.9999999902
101324.9999999902
101324.9999999902
101324.9999999902
101324.9999999901
101324.9999999901
101324.9999999901
101324.99999999
101324.99999999
101324.99999999
101324.99999999
101324.9999999899
101324.9999999899
101324.9999999899
101324.9999999899
101324.9999999898
101324.9999999898
101324.9999999897
101324.9999999897
101324.9999999897
101324.9999999896
101324.9999999896
101324.9999999897
101324.9999999896
101324.9999999896
101324.9999999896
101324.9999999895
101324.9999999895
101324.9999999894
101324.9999999894
101324.9999999894
101324.9999999893
101324.9999999893
101324.9999999893
101324.9999999892
101324.9999999892
101324.9999999892
101324.9999999892
101324.9999999891
101324.9999999891
101324.9999999891
101324.999999989
101324.999999989
101324.999999989
101324.999999989
101324.9999999889
101324.9999999889
101324.9999999889
101324.9999999888
101324.9999999887
101324.9999999887
101324.9999999887
101324.9999999886
101324.9999999886
101324.9999999885
101324.9999999885
101324.9999999885
101324.9999999885
101324.9999999885
101324.9999999884
101324.9999999884
101324.9999999883
101324.9999999883
101324.9999999883
101324.9999999883
101324.9999999883
101324.9999999883
101324.9999999882
101324.9999999882
101324.9999999882
101324.9999999882
101324.9999999881
101324.9999999881
101324.9999999881
101324.9999999881
101324.9999999881
101324.9999999881
101324.999999988
101324.9999999879
101324.9999999879
101324.9999999878
101324.9999999878
101324.9999999877
101324.9999999877
101324.9999999876
101324.9999999876
101324.9999999876
101324.9999999875
101324.9999999874
101324.9999999874
101324.9999999874
101324.9999999874
101324.9999999873
101324.9999999873
101324.9999999873
)
;

boundaryField
{
    inlet
    {
        type            calculated;
        value           uniform 101325.9645161139;
    }
    outlet
    {
        type            calculated;
        value           uniform 101324.9999999873;
    }
    frontAndBack
    {
        type            empty;
    }
}


// ************************************************************************* //
