/*--------------------------------*- C++ -*----------------------------------*\
| =========                 |                                                 |
| \\      /  F ield         | OpenFOAM: The Open Source CFD Toolbox           |
|  \\    /   O peration     | Version:  v2012                                 |
|   \\  /    A nd           | Website:  www.openfoam.com                      |
|    \\/     M anipulation  |                                                 |
\*---------------------------------------------------------------------------*/
FoamFile
{
    version     2.0;
    format      ascii;
    class       volScalarField;
    location    "0.0055";
    object      rho;
}
// * * * * * * * * * * * * * * * * * * * * * * * * * * * * * * * * * * * * * //

dimensions      [1 -3 0 0 0 0 0];


internalField   nonuniform List<scalar> 
1000
(
1.176535793665195
1.176512246635298
1.176564818009922
1.176606606804631
1.176655632411106
1.176700298279665
1.176737997729224
1.176769381162532
1.176795685658517
1.176813252639465
1.176817928277055
1.176817613134721
1.176814607148681
1.176806379961838
1.176790205031153
1.176765497210716
1.176733197344371
1.176694775333153
1.176651437619083
1.17660399563897
1.176553111962512
1.176499531427267
1.176444154487479
1.176388023253338
1.176332283741659
1.176278097975607
1.176226469885394
1.17617801306965
1.176132801784625
1.176090714103681
1.176053044275109
1.176025220760585
1.176013469216999
1.176012172420137
1.176012785970534
1.176015053769419
1.176021329832843
1.176033569365815
1.176053476647398
1.176081792616614
1.176118132318972
1.176161188171289
1.176209260194676
1.176260775744448
1.176314522341748
1.176369579370836
1.176425136092107
1.176480367777502
1.176534433905318
1.176586619809308
1.176636572307992
1.176684325058606
1.176729498996479
1.176769128414471
1.176795923582767
1.176805411461165
1.176806144822163
1.176805833402037
1.176803762320004
1.176798605071204
1.176788485820285
1.176771794530237
1.176747353819348
1.176714743769257
1.176674416282145
1.17662759385034
1.176575962578442
1.176521279327759
1.176465067901017
1.176408515325842
1.176352515374984
1.176297700169982
1.176244390654282
1.176192607226051
1.176142421411515
1.176095015149905
1.17605473037696
1.176029542093761
1.176021732789101
1.176021224572886
1.17602174977304
1.176023570850276
1.176028300142264
1.176037389593643
1.176052356559033
1.176074409048042
1.176104231825901
1.176141803796704
1.176186365587044
1.176236553105553
1.176290651419678
1.176346896741637
1.176403757000218
1.176460122277326
1.176515360481605
1.176569258505044
1.17662187951832
1.176673185315305
1.176721941676098
1.176763565661361
1.176789756909698
1.176798016527312
1.176798561318445
1.176798308481928
1.176796715975866
1.176792749243403
1.176784947451659
1.176771923153257
1.176752428261859
1.176725573195896
1.176690998410113
1.176648997841107
1.176600530868973
1.176547084943431
1.176490417580068
1.176432260339127
1.176374052915995
1.17631674130264
1.176260700262345
1.176205907750708
1.176152551012007
1.176102341346156
1.176060587850293
1.176035658307766
1.176028418364793
1.176027979054794
1.176028382386114
1.176029834497571
1.176033613813999
1.176040920869542
1.17605306365614
1.176071215253883
1.176096271741357
1.176128689812576
1.176168375367002
1.17621464685083
1.176266289430198
1.176321718057408
1.176379244760154
1.176437380435825
1.176495061306607
1.176551726764966
1.176607207317007
1.176661268548267
1.176712413308783
1.176755759789287
1.176782956465178
1.17679173776998
1.17679242925167
1.176792253900874
1.176791032274584
1.176787915449764
1.176781667249959
1.176771074443275
1.176754959917498
1.176732340417262
1.176702561168237
1.176665429546572
1.176621303189195
1.176571087876368
1.176516130848831
1.176458028124116
1.176398369040953
1.176338458377424
1.176279126177595
1.17622080855869
1.176164113611342
1.176111148629469
1.176067555514968
1.176041708920553
1.176034116296887
1.176033609044397
1.176033913353867
1.176035063599502
1.176038133118232
1.176044150014852
1.176054266232423
1.176069575889214
1.176091013868569
1.176119227295322
1.176154467837277
1.176196516557459
1.17624465904922
1.176297743691473
1.176354344454414
1.176412995442419
1.176472421383688
1.176531692365173
1.17659021741597
1.176647370646415
1.176701352212118
1.176747134817085
1.176776303562322
1.176786229329304
1.176787170817057
1.176787063001556
1.176786136140451
1.17678366736929
1.176778580569963
1.17676980378391
1.176756250610062
1.176736938706123
1.176711091958571
1.176678257329391
1.176638403881742
1.176591968881719
1.176539834569227
1.176483234706383
1.176423583847401
1.17636224172682
1.176300307306303
1.176238630593754
1.176178289702715
1.17612185807131
1.176075405153557
1.176047625088151
1.176039161259653
1.176038501291506
1.176038731202822
1.176039635976884
1.176042143232179
1.176047152886646
1.176055696697067
1.176068787095351
1.176087342733601
1.176112088186041
1.176143464356014
1.176181550200976
1.176226008778331
1.176276090568836
1.176330720390542
1.176388651676276
1.176448643111751
1.176509613410555
1.176570687620171
1.17663090183341
1.176688151825584
1.176737211038718
1.176769376747437
1.176781150888044
1.1767825216786
1.176782469663737
1.176781764563907
1.176779807876858
1.176775639750459
1.176768300572548
1.176756786658973
1.176740148040669
1.176717565913101
1.17668844777158
1.176652516424915
1.17660986941196
1.176560997036742
1.176506752175753
1.176448252521634
1.176386712217457
1.176323275699054
1.176259017743221
1.176195351651526
1.176135202561178
1.176084979512778
1.176053972093015
1.176043824006584
1.176042865521791
1.176043031426895
1.176043728639805
1.176045778522359
1.176049978603735
1.176057258928847
1.176068551424528
1.176084738261195
1.176106572575875
1.176134603659771
1.176169103114071
1.176210003652473
1.176256878311997
1.176308980755397
1.176365337282539
1.176424867295536
1.176486508774912
1.176549270948248
1.176611990649718
1.176672395965315
1.176725230721212
1.176761501163203
1.176776169022169
1.176778302478432
1.17677830306027
1.17677778420808
1.176776241921936
1.176772819411993
1.176766650366108
1.176756808474017
1.176742387320733
1.17672256007198
1.176696658206042
1.176664247701911
1.17662518738694
1.176579664510898
1.176528200720139
1.176471604667959
1.176410862357098
1.176347022984209
1.176281212835003
1.176214987531181
1.176151387276823
1.176096883065959
1.176061387201693
1.176048453046063
1.176046902992378
1.176047009061439
1.176047516228743
1.176049164216057
1.176052667726524
1.176058882459489
1.176068670938248
1.176082871586379
1.176102236047895
1.176127369257232
1.176158664724982
1.176196245562824
1.176239933506609
1.176289260069779
1.176343514086784
1.176401817006885
1.176463215898571
1.176526727200827
1.176591134126435
1.176654181085951
1.176710840183783
1.176752057101672
1.17677084339349
1.176774325535983
1.176774400945517
1.176774047734044
1.176772863481596
1.176770078432895
1.176764901375952
1.176756470419895
1.176743925222726
1.176726451665156
1.176703345435118
1.176674074342474
1.176638331054499
1.176596076020002
1.176547563036882
1.176493323354486
1.176434100754222
1.176370784778238
1.176304441259315
1.176236608478113
1.176170209035534
1.176111420447197
1.176070466717574
1.176053409803022
1.176050733454296
1.176050771926896
1.176051110230223
1.176052407702981
1.176055299194004
1.176060584937366
1.176069071827428
1.176081558946757
1.176098786105464
1.176121384677658
1.176149822988998
1.176184355342735
1.176224988735186
1.176271475210111
1.176323329878069
1.176379876117538
1.176440310524067
1.176503729501046
1.176568962242023
1.176633912659673
1.176694020988881
1.176740569854828
1.17676470057025
1.176770402930627
1.176770662579737
1.176770451868796
1.176769580261402
1.176767356628639
1.176763046247467
1.17675584023943
1.176744919077759
1.176729489532063
1.176708834753328
1.176682363671407
1.176649656703286
1.176610509974256
1.176564969527739
1.176513334124857
1.176456123465061
1.176394049098503
1.176328055439052
1.176259558565656
1.176191202166738
1.176128576270562
1.176081700096204
1.176059147555893
1.176054501456549
1.176054378032256
1.176054586332977
1.176055576730123
1.176057927193242
1.176062389157255
1.176069725441351
1.176080701628111
1.176096042296863
1.176116391961583
1.176142267217147
1.176174011210446
1.1762117637431
1.176255447705504
1.176304766532418
1.176359222057629
1.176418159670729
1.176480791175391
1.176546059159503
1.176612104544992
1.176674965822178
1.176726688389595
1.176757170133357
1.176766352899982
1.176767120627768
1.176766975532235
1.176766373696857
1.176764626593698
1.176761071270684
1.176754938024896
1.176745444985123
1.176731820550789
1.176713345447484
1.17668939214364
1.176659465611011
1.176623245135904
1.176580618762933
1.17653169717518
1.176476807820279
1.176416491490952
1.1763515426801
1.176283196397605
1.176213741206328
1.176148024885029
1.176095361722068
1.176066222367687
1.176058423727818
1.176057917238071
1.176058039262453
1.176058752673966
1.176060612790842
1.17606432578966
1.176070618898202
1.176080232324285
1.176093878058377
1.176112205470975
1.176135760654468
1.176164948729275
1.176200006447156
1.176240982877484
1.176287727145871
1.176339894860194
1.176396976344702
1.176458305467875
1.176522952523465
1.17658932312193
1.176654111034553
1.176710408536767
1.176747726188826
1.176761806245252
1.176763655926697
1.176763590929345
1.176763192671099
1.1767618545204
1.176758960766168
1.176753778195423
1.176745558262536
1.176733550101277
1.176717036463222
1.176695367698425
1.176667998368507
1.176634523779085
1.176594712014019
1.176548526670292
1.176496138996128
1.17643793684009
1.176374559502634
1.176307045819974
1.176237319063754
1.176169431372118
1.176111587390986
1.176075153530272
1.176062708340424
1.176061346580365
1.176061409755619
1.176061891233793
1.176063328902843
1.176066377952359
1.176071739256112
1.176080129156438
1.176092246335694
1.17610873931138
1.176130173647141
1.176157000427637
1.176189528290417
1.176227901030249
1.176272084388601
1.17632186622379
1.176376866453408
1.176436534078006
1.176500072663538
1.176566150376792
1.176632071350312
1.176692041754088
1.176735998886986
1.17675622929442
1.176760084781832
1.176760166237567
1.176759926334492
1.176758953961109
1.176756657465917
1.176752345894387
1.176745291870112
1.176734761005185
1.176720041060654
1.176700468938753
1.176675462431266
1.176644556907806
1.176607436638445
1.176563954427658
1.176514149331044
1.176458272981658
1.176396828855387
1.176330675674919
1.176261386279448
1.176192249819614
1.176130194049428
1.176086441350119
1.176067843975804
1.176064755722938
1.176064702968477
1.176065028400637
1.176066097136674
1.176068564407896
1.176073088162706
1.176080367410897
1.176091088612795
1.176105900216477
1.176125380884799
1.176150013231113
1.176180160664977
1.176216042997694
1.176257716558986
1.176305070796039
1.176357836082359
1.176415574226154
1.176477613346907
1.176542841370851
1.17660909845891
1.176671720104096
1.176721735948764
1.176749199236593
1.176756445245353
1.17675690060954
1.176756786259859
1.176756089629833
1.176754298903997
1.176750736416244
1.176744708621125
1.176735497867392
1.176722398661185
1.17670474233402
1.176681925281857
1.176653438291555
1.176618895424475
1.17657806062043
1.176530871272674
1.176477460981046
1.176418194186858
1.176353757542138
1.176285435368877
1.176215868540815
1.176150713718642
1.176100264763395
1.176074403331378
1.17606837422697
1.17606808844158
1.176068256713556
1.176069020013551
1.176070954480448
1.176074704794204
1.1760809509773
1.176090371457333
1.17610361425877
1.176121270500513
1.176143848909406
1.176171751899459
1.176205254348773
1.176244487321126
1.176289428575444
1.176339898141225
1.176395549853527
1.176455831737395
1.176519836970132
1.176585842523293
1.176650143460982
1.176705135643514
1.176740093095391
1.176752245878895
1.176753620207926
1.176753564835701
1.176753116116923
1.176751765270081
1.176748884802875
1.176743797912325
1.176735803409463
1.176724202357231
1.176708322835553
1.176687545731104
1.176661331363662
1.17662924510835
1.176590982350001
1.176546394588858
1.176495516388437
1.176438597697806
1.176376174164924
1.176309273142859
1.176239986200311
1.176172820981331
1.176116670929945
1.176082898307591
1.17607233166879
1.176071352733045
1.176071443478109
1.176071950799335
1.176073432034661
1.176076499553885
1.176081817737934
1.176090054669982
1.176101856010811
1.176117819290437
1.176138472909699
1.176164253673212
1.176195483278263
1.176232351288955
1.176274907474009
1.176323054376912
1.176376531056502
1.176434881241662
1.176497356971523
1.176562590084806
1.176627686506318
1.176686451569146
1.176728553094994
1.176747038602133
1.176750289493461
1.17675034992153
1.176750069070928
1.176749087882633
1.176746794031207
1.176742546499639
1.176735658712646
1.176725441938955
1.17671122410481
1.176692373807519
1.176668324493267
1.176638599506309
1.176602837818073
1.176560820060048
1.176512494912523
1.17645801106708
1.176397776679551
1.176332611688703
1.176264166238863
1.176195975272515
1.17613538905714
1.17609382124662
1.176077105122358
1.176074600367293
1.176074601575405
1.17607492096607
1.176076023075154
1.176078489818736
1.176082966507517
1.176090111574338
1.176100570149273
1.176114948776678
1.176133792400081
1.176157562761475
1.176186618642165
1.176221199646843
1.176261413926295
1.176307228114523
1.176358456308817
1.17641473754141
1.176475462306283
1.176539534968099
1.176604707841179
1.176666092631868
1.176714503442697
1.176740341972582
1.176746822530619
1.176747189712867
1.176747042935759
1.17674636073602
1.176744583020314
1.176741088041382
1.176735206963971
1.176726258387574
1.176713571159639
1.176696506636882
1.17667448077135
1.176646986881333
1.176613620238567
1.176574103993871
1.176528315028697
1.176476313632548
1.176418393880766
1.176355199713115
1.17628803026397
1.176219636897851
1.176155915223367
1.176107356485006
1.17608331506135
1.176078057009713
1.176077849178595
1.176078020116799
1.176078796697855
1.176080727132882
1.17608443566421
1.176090570930608
1.176099775890417
1.176112661966753
1.1761297874837
1.176151636983293
1.176178602312926
1.176210966044461
1.176248887325523
1.176292389798517
1.176341350132705
1.176395479499937
1.176454270580549
1.176516832537199
1.176581419981279
1.176644285878676
1.17669785488589
1.176731673148708
1.176743332280655
1.176744651932607
1.176744603798952
1.17674422149031
1.176743053325364
1.176740562571722
1.176736174637996
1.176729314426229
1.176719437004127
1.176706060455771
1.17668879967131
1.176667402411013
1.176641788203009
1.176612092729524
1.176578729150052
1.176542503703494
1.176504882163731
1.176468565821096
1.176438222225816
1.176419394521305
1.176412717010737
1.176411755215823
1.176411716469938
1.176411716172336
1.176411716172037
1.176411716172036
1.176411716172036
1.176411716172035
1.176411716172036
1.176411716172037
1.176411716172039
1.176411716172041
1.176411716172042
1.176411716172042
1.176411716172042
1.176411716172043
1.176411716172042
1.176411716172041
1.176411716172041
1.176411716172041
1.176411716172041
1.176411716172042
1.176411716172042
1.176411716172043
1.176411716172043
1.176411716172042
1.176411716172042
1.176411716172041
1.176411716172041
1.176411716172041
1.176411716172041
1.176411716172041
1.17641171617204
1.17641171617204
1.176411716172041
1.176411716172041
1.176411716172041
1.176411716172041
1.176411716172041
1.176411716172041
1.17641171617204
1.17641171617204
1.176411716172039
1.176411716172038
1.176411716172037
1.176411716172035
1.176411716172034
1.176411716172033
1.176411716172033
1.176411716172032
1.176411716172032
1.176411716172033
1.176411716172032
1.176411716172033
1.176411716172033
1.176411716172033
1.176411716172033
1.176411716172033
1.176411716172033
1.176411716172033
1.176411716172033
1.176411716172032
1.176411716172032
1.176411716172032
1.176411716172032
1.176411716172032
1.176411716172031
1.176411716172031
1.17641171617203
1.176411716172029
1.176411716172029
1.17641171617203
1.176411716172031
1.176411716172031
1.176411716172031
1.176411716172031
1.176411716172031
1.176411716172031
1.176411716172032
1.176411716172033
1.176411716172033
1.176411716172033
1.176411716172033
1.176411716172032
1.176411716172033
1.176411716172033
1.176411716172032
1.176411716172032
1.176411716172031
1.176411716172031
1.176411716172032
1.176411716172032
1.176411716172032
1.176411716172032
1.176411716172032
1.176411716172032
1.176411716172032
1.176411716172032
1.176411716172032
1.176411716172032
1.176411716172032
1.176411716172032
1.176411716172032
1.176411716172033
1.176411716172033
1.176411716172033
1.176411716172034
1.176411716172034
1.176411716172033
1.176411716172033
1.176411716172034
1.176411716172033
1.176411716172033
1.176411716172033
1.176411716172033
1.176411716172033
1.176411716172033
1.176411716172032
1.176411716172033
1.176411716172032
1.176411716172032
1.176411716172032
1.176411716172032
1.176411716172031
1.176411716172031
1.176411716172031
1.176411716172031
1.176411716172029
1.176411716172028
1.176411716172027
1.176411716172027
1.176411716172026
1.176411716172026
1.176411716172026
1.176411716172026
1.176411716172025
1.176411716172024
1.176411716172024
1.176411716172024
1.176411716172024
1.176411716172024
1.176411716172024
1.176411716172024
1.176411716172023
1.176411716172024
1.176411716172023
1.176411716172023
1.176411716172023
1.176411716172023
1.176411716172023
1.176411716172023
1.176411716172022
1.176411716172022
1.176411716172022
1.176411716172022
1.176411716172021
1.176411716172021
1.176411716172022
1.176411716172022
1.176411716172022
1.176411716172023
1.176411716172023
1.176411716172024
1.176411716172024
1.176411716172023
1.176411716172023
1.176411716172023
1.176411716172023
1.176411716172023
1.176411716172023
1.176411716172023
1.176411716172024
1.176411716172024
1.176411716172024
1.176411716172025
1.176411716172025
1.176411716172026
1.176411716172026
1.176411716172026
1.176411716172025
1.176411716172025
1.176411716172026
1.176411716172026
1.176411716172025
1.176411716172025
1.176411716172025
1.176411716172026
1.176411716172026
1.176411716172025
1.176411716172025
1.176411716172024
1.176411716172023
1.176411716172022
1.176411716172021
1.17641171617202
1.176411716172018
1.176411716172016
1.176411716172014
1.176411716172013
1.176411716172012
1.176411716172012
1.176411716172011
1.176411716172011
1.17641171617201
1.17641171617201
1.176411716172009
1.176411716172007
1.176411716172006
1.176411716172004
1.176411716172002
1.176411716172002
1.176411716172002
1.176411716172001
1.176411716172002
1.176411716172003
1.176411716172003
1.176411716172003
1.176411716172003
1.176411716172002
1.176411716172002
1.176411716172001
1.176411716172001
1.176411716172001
1.176411716172001
1.176411716172001
1.176411716172001
1.176411716172001
1.176411716172001
1.176411716172001
1.176411716172001
1.176411716172001
1.176411716172002
)
;

boundaryField
{
    inlet
    {
        type            calculated;
        value           uniform 1.176427481426743;
    }
    outlet
    {
        type            calculated;
        value           uniform 1.176411716171986;
    }
    frontAndBack
    {
        type            empty;
    }
}


// ************************************************************************* //
