/*--------------------------------*- C++ -*----------------------------------*\
| =========                 |                                                 |
| \\      /  F ield         | OpenFOAM: The Open Source CFD Toolbox           |
|  \\    /   O peration     | Version:  v2012                                 |
|   \\  /    A nd           | Website:  www.openfoam.com                      |
|    \\/     M anipulation  |                                                 |
\*---------------------------------------------------------------------------*/
FoamFile
{
    version     2.0;
    format      ascii;
    class       volScalarField;
    location    "0.0055";
    object      T;
}
// * * * * * * * * * * * * * * * * * * * * * * * * * * * * * * * * * * * * * //

dimensions      [0 0 0 1 0 0 0];


internalField   nonuniform List<scalar> 
1000
(
300.0099497046768
300.0082243096278
300.0146515121344
300.0195669185348
300.0243315498521
300.028549450586
300.0324538179363
300.0359859377185
300.0390130994563
300.0410353694458
300.0416153678725
300.0416350616517
300.0413417336389
300.040465093659
300.0387851342162
300.0362371567012
300.0329005504158
300.0289323875882
300.0244682861587
300.0195973187737
300.014387924324
300.0089143278446
300.0032657680133
299.9975458409626
299.9918688708344
299.9863510306205
299.9810928029589
299.9761555423856
299.9715462264798
299.9672522696586
299.9634062752055
299.9605635015902
299.9593600753839
299.9592241783219
299.9592833853488
299.9595121615347
299.9601524008051
299.9614022350662
299.9634350447278
299.9663263857394
299.9700367217587
299.974432318655
299.9793394974415
299.9845976849606
299.9900831509423
299.9957020077024
300.0013716077638
300.0070078776643
300.012525115559
300.0178504370671
300.0229478200471
300.0278206946421
300.0324303593802
300.0364741817821
300.0392083574513
300.0401765184977
300.0402513779989
300.0402196121436
300.0400082667359
300.0394820028498
300.0384494450265
300.0367463043493
300.0342524225161
300.0309249203102
300.0268098668204
300.0220319587391
300.0167632080211
300.01118286201
300.005446402679
299.9996749601018
299.9939597495398
299.9883652923723
299.9829243567651
299.9776390378085
299.9725166480728
299.9676778415154
299.9635658363767
299.9609947335311
299.9601975901182
299.9601457162274
299.9601993299149
299.960385220971
299.9608679691229
299.9617957809132
299.963323533315
299.9655745179567
299.9686186056485
299.9724536070485
299.9770019695239
299.9821244188661
299.9876458817207
299.9933863146534
299.9991893416402
300.004941686527
300.0105788484768
300.0160790899545
300.0214488682171
300.02668429432
300.0316594375173
300.035906683316
300.0385791445881
300.0394219184305
300.0394775074478
300.039451710829
300.0392892201992
300.038884472412
300.0380884083504
300.0367594522639
300.034770241056
300.0320299825645
300.0285019575309
300.0242161187322
300.0192703185972
300.0138163009113
300.0080333819314
300.0020982473804
299.9961578160546
299.9903086362454
299.9845889655629
299.9789965646673
299.9735505550839
299.9684256223227
299.9641637099991
299.9616190225506
299.9608799977904
299.9608351558589
299.9608763276886
299.9610245544811
299.9614103314651
299.9621562021782
299.9633956750972
299.9652484813431
299.9678060685745
299.9711150247967
299.9751657081301
299.9798885101877
299.9851593935834
299.9908165445737
299.9966876605033
300.0026207532439
300.0085072573606
300.0142899677722
300.0199515970269
300.0254682341138
300.030687119515
300.0351101446908
300.0378852059557
300.0387812131113
300.0388517698748
300.0388338794222
300.0387092313334
300.0383912038388
300.037753661238
300.036672805796
300.0350285200811
300.0327204596338
300.0296817878727
300.0258928157225
300.0213899957033
300.0162657124405
300.0106574048669
300.0047279115981
299.9986394067469
299.9925250411994
299.9864695291664
299.9805173882326
299.974730693518
299.9693245516481
299.9648748811138
299.9622365941221
299.961461571858
299.9614097950355
299.9614408593142
299.9615582732304
299.9618715969249
299.9624857735914
299.9635183844027
299.96508110334
299.9672693437994
299.9701491379498
299.9737461434963
299.9780379756072
299.982951674169
299.9883696571423
299.9941463449591
300.0001321037752
300.0061967701978
300.0122454399196
300.0182178076371
300.0240500112532
300.0295584034702
300.0342300316926
300.0372063284914
300.0382191151792
300.0383151819795
300.0383041828539
300.0382096118455
300.0379577091387
300.0374386711503
300.0365431162966
300.0351601853014
300.0331896308671
300.0305522408127
300.0272017599088
300.0231349954782
300.0183965254102
300.0130763339811
300.0073002830125
300.0012126958932
299.9949523167531
299.9886312912734
299.982336369315
299.9761775931084
299.970417645998
299.9656760893483
299.9628404532573
299.9619765045016
299.9619091395188
299.9619326098242
299.9620249672213
299.9622808974205
299.9627922591533
299.9636643664002
299.9650005569256
299.966894590676
299.9694204101122
299.9726229942177
299.9765103695403
299.981048106042
299.9861596615393
299.9917352591708
299.9976476394739
300.0037700918831
300.0099922512059
300.0162248212517
300.0223694388783
300.028211392034
300.0332173926749
300.0364995051808
300.0377008959152
300.0378407673243
300.0378354619808
300.0377635185722
300.0375638666964
300.0371385662843
300.0363896998189
300.0352148497374
300.0335170748436
300.031212811088
300.0282415775089
300.0245750589286
300.020223170597
300.0152359024717
300.009700243982
300.0037302147205
299.9974496879595
299.9909754361704
299.9844171360797
299.9779190299819
299.9717796907297
299.9666533375699
299.9634882831392
299.9624524152089
299.9623545788763
299.9623715153402
299.9624426855844
299.9626519288785
299.9630806526355
299.9638237892388
299.9649764602423
299.9666287041223
299.9688573824474
299.9717185422259
299.9752398782484
299.9794144880499
299.9841987533522
299.9895164585341
299.9952681871475
300.0013436214111
300.0076343508601
300.0140392481148
300.0204396057899
300.0266035912014
300.0319948862134
300.0356958545952
300.0371925138316
300.0374102046972
300.0374102656866
300.0373573258743
300.0371999574816
300.0368507364689
300.0362212658206
300.0352170240636
300.0337455161649
300.0317223619282
300.0290793279975
300.0257721011548
300.021786242584
300.0171408200949
300.0118890217445
300.0061133251925
299.9999143126008
299.9933990248748
299.9866823825956
299.9799231407819
299.9734316045299
299.9678683055422
299.9642451147583
299.9629248609987
299.9627666398127
299.9627774680083
299.9628292387564
299.9629974579666
299.9633550784914
299.9639894442945
299.9649885935584
299.9664381010898
299.9684146788169
299.9709800571292
299.9741743786046
299.9780101787944
299.9824692263901
299.9875036650718
299.9930408704492
299.9989911392842
300.0052571852137
300.0117386062951
300.0183112121781
300.0247448246475
300.0305264066366
300.0347321303179
300.0366490268088
300.0370043329514
300.0370120285743
300.0369759893462
300.0368551530113
300.0365709757276
300.0360427237952
300.0351824497051
300.0339023610787
300.0321193775644
300.029761617255
300.0267747540008
300.0231273981849
300.0188154776871
300.0138648493811
300.0083296808029
300.0022858299258
299.9958240355793
299.9890530375274
299.982129808171
299.9753526347988
299.969352076987
299.9651718081409
299.9634307288388
299.9631575407287
299.9631614685471
299.9631960019044
299.9633284417758
299.9636235898114
299.9641631286026
299.965029418757
299.9663040207129
299.968062440604
299.9703691105906
299.9732718134406
299.9767964793613
299.9809437896116
299.9856883983674
299.990980775231
299.9967518225858
300.0029195082265
300.0093915824958
300.0160485374125
300.0226764594838
300.0288100652908
300.0335598902317
300.0360221264061
300.0366039764098
300.0366304707168
300.0366089711648
300.0365200356409
300.0362931428829
300.0358533232756
300.0351180391448
300.0340036639155
300.0324292505746
300.0303216407248
300.0276205036937
300.0242829997645
300.0202882926334
300.0156410416257
300.0103716900891
300.0045332261247
299.9981982184668
299.9914630069108
299.9844720808001
299.9774952457086
299.9711030771405
299.9663183234401
299.9640162892977
299.9635420391282
299.9635294409898
299.9635507037713
299.9636517985001
299.9638917207211
299.9643471720082
299.9650960145648
299.96621639038
299.9677822526155
299.9698593770923
299.9725004766277
299.9757405532724
299.9795938469783
299.9840524522584
299.9890860608691
299.9946437873985
300.0006587816965
300.0070505653483
300.0137111942824
300.0204509302358
300.0268655219145
300.0321433158155
300.0352536125428
300.0361905934582
300.0362689301998
300.0362541253769
300.0361927161374
300.0360144465875
300.0356516704155
300.0350258477288
300.0340571950986
300.0326669740498
300.0307817809372
300.0283375675862
300.025283799386
300.02158772128
300.0172378729984
300.0122455071262
300.0066439924709
300.0004884688403
299.9938599701714
299.9868844972598
299.9797955971592
299.973088065348
299.9677126695298
299.9647383076591
299.9639422635241
299.963890563851
299.9639030196371
299.9639758407963
299.9641657107482
299.9645447113912
299.9651870723598
299.9661683463535
299.967561202896
299.9694319155235
299.9718362105613
299.9748154188681
299.9783936792806
299.9825759679454
299.987346848462
299.9926711303031
299.998496753611
300.0047556936394
300.0113530329867
300.0181260354024
300.0247373028012
300.0304819825193
300.0342898292106
300.0357265188778
300.0359152547248
300.0359086226519
300.0358679855212
300.0357314439927
300.0354361721043
300.0349073535615
300.0340686060621
300.0328433079997
300.0311582642825
300.0289471723223
300.0261543567955
300.0227384966324
300.0186758937684
300.0139627939731
300.0086166274617
300.0026769252149
299.9962088799261
299.9893184650192
299.9822019343349
299.9752728565261
299.9693687084331
299.9656497955485
299.9643794597495
299.9642404585883
299.9642469071675
299.9642960536183
299.9644428022052
299.9647540303757
299.9653012779819
299.9661576623161
299.9673944955907
299.9690779659313
299.9712657893901
299.9740039912063
299.9773240506157
299.9812406151452
299.9857501532788
299.9908309737019
299.9964442426544
300.0025336833742
300.0090179752139
300.0157611686029
300.0224881376725
300.0286076717123
300.0330930407106
300.0351573044356
300.0355507070704
300.0355590185359
300.0355345393546
300.0354353205595
300.0352009911709
300.0347610470171
300.0340412663624
300.032966709962
300.0314646953874
300.029467549984
300.0269158491788
300.0237621591583
300.0199742326184
300.015537012579
300.0104544415299
300.0047521503431
299.9984814690755
299.9917299853824
299.9846581795376
299.9776017300321
299.971267754439
299.9668018238272
299.9649035153444
299.9645882834469
299.9645828984889
299.9646161165198
299.9647252063926
299.9649770498239
299.9654388052882
299.9661818213722
299.9672761636374
299.9687880145089
299.970776429034
299.9732906530651
299.976367759219
299.9800301568002
299.9842835629283
299.9891166567921
299.9945018787347
300.0003944642806
300.0067258015428
300.0133823624986
300.0201437115021
300.0265338583569
300.0316375053317
300.0344398122414
300.0351791753725
300.0352256394073
300.0352139713039
300.0351428885375
300.0349601664469
300.0345966568744
300.0339815904918
300.0330417365784
300.0317051022005
300.0299034480848
300.02757516885
300.0246682843583
300.0211433862831
300.0169763527153
300.0121607545772
300.0067101792644
300.0006617681328
299.994085545767
299.9871125405867
299.980012252981
299.9733620382571
299.9682126564676
299.9655728915637
299.9649574749431
299.9649283035025
299.9649454795198
299.9650233922002
299.9652208500224
299.965603657221
299.9662412246557
299.9672027986942
299.9685545196947
299.9703567157834
299.9726613003984
299.9755093298909
299.9789288369254
299.9829331691872
299.9875200216293
299.9926709865303
299.9983506919297
300.0045027617983
300.0110346109006
300.017770371705
300.024331957145
300.0299434515664
300.0335104765879
300.0347505178122
300.0348907507137
300.0348851005236
300.0348393139952
300.0347014760473
300.03440755822
300.0338884998175
300.0330727504945
300.0318889873861
300.0302686409697
300.0281485254039
300.0254735543079
300.0221993543611
300.0182948112575
300.0137447339001
300.0085526055402
300.0027438846247
299.9963731843782
299.9895453036223
299.982473669865
299.9756183419098
299.9698871041317
299.9664398417219
299.9653612626099
299.9652613385053
299.9652706010628
299.9653223849678
299.9654735796188
299.9657866913185
299.966329534612
299.9671703005636
299.9683748892415
299.9700042846033
299.972112410147
299.9747438348089
299.9779313726442
299.9816943449806
299.9860377989238
299.990951750257
299.9964095259471
300.0023645169326
300.0087403482578
300.0153973610134
300.022040200764
300.0280367530352
300.032332789882
300.0342190158324
300.0345507288573
300.0345568946795
300.0345282370671
300.0344281182324
300.0341940573627
300.0337606454778
300.0330578238484
300.0320153118397
300.030564525571
300.0286410270589
300.0261869901223
300.0231537553823
300.0195044550367
300.0152166692701
300.0102851198591
300.0047249337108
299.9985777133681
299.9919270874122
299.9849414243544
299.9779814881041
299.9717975216328
299.9675546198218
299.9658483452228
299.9655926748596
299.9655927980669
299.9656253992179
299.9657378950231
299.9659896833087
299.9664466322599
299.9671759483684
299.9682434783535
299.9697111275236
299.9716345095937
299.9740607409732
299.9770264232902
299.9805559879961
299.9846604435361
299.9893363491904
299.9945646919669
300.000308589778
300.0065057965372
300.0130444610597
300.0196951818069
300.0259591309701
300.0308990149366
300.0335355449952
300.0341968068423
300.0342342732388
300.0342192962639
300.0341496856234
300.0339682901894
300.0336116673604
300.033011568921
300.0320984629412
300.0308038606468
300.0290625868281
300.0268150323159
300.0240094764406
300.0206045951192
300.0165721060448
300.0118994070813
300.0065926060923
300.0006816646173
299.9942322486825
299.9873768982704
299.980396390316
299.9738924683267
299.9689360380164
299.9664820575656
299.9659453483104
299.9659241341537
299.9659415823055
299.9660208503097
299.9662178956637
299.9665964361706
299.9672226789723
299.968162249794
299.9694775529977
299.9712255695651
299.9734557450329
299.9762080583332
299.9795113289793
299.98338177299
299.9878217704717
299.992818696474
299.9983430324632
300.0043429609258
300.01072752858
300.0173185861143
300.0237337497762
300.0292000394496
300.0326508369242
300.033840512733
300.0339751672531
300.0339702557393
300.033931245512
300.0338120476363
300.0335578944774
300.0331101548213
300.0324101447766
300.0314022569071
300.0300373116173
300.0282760044555
300.026092585787
300.023478830147
300.0204485664303
300.0170439374482
300.0133471999002
300.0095079209696
300.0058017662279
300.0027050868784
300.0007836212824
300.0001021415991
300.00000398463
300.0000000303847
300.0000000000126
299.999999999982
299.999999999982
299.9999999999822
299.9999999999824
299.9999999999826
299.9999999999827
299.9999999999827
299.9999999999828
299.9999999999829
299.999999999983
299.9999999999831
299.9999999999831
299.9999999999831
299.9999999999832
299.9999999999832
299.9999999999831
299.9999999999829
299.9999999999828
299.9999999999827
299.9999999999826
299.9999999999825
299.9999999999824
299.9999999999823
299.9999999999824
299.9999999999824
299.9999999999825
299.9999999999825
299.9999999999824
299.9999999999825
299.9999999999825
299.9999999999824
299.9999999999823
299.9999999999822
299.9999999999821
299.999999999982
299.999999999982
299.999999999982
299.999999999982
299.9999999999821
299.999999999982
299.999999999982
299.9999999999821
299.9999999999822
299.9999999999822
299.9999999999822
299.999999999982
299.9999999999819
299.9999999999818
299.9999999999816
299.9999999999816
299.9999999999817
299.9999999999816
299.9999999999816
299.9999999999816
299.9999999999817
299.9999999999818
299.9999999999816
299.9999999999816
299.9999999999815
299.9999999999816
299.9999999999815
299.9999999999816
299.9999999999816
299.9999999999818
299.9999999999819
299.999999999982
299.999999999982
299.999999999982
299.999999999982
299.999999999982
299.999999999982
299.999999999982
299.999999999982
299.999999999982
299.9999999999819
299.9999999999818
299.9999999999818
299.9999999999818
299.9999999999819
299.9999999999821
299.9999999999822
299.9999999999822
299.9999999999821
299.9999999999822
299.9999999999822
299.9999999999822
299.9999999999821
299.999999999982
299.999999999982
299.9999999999819
299.9999999999817
299.9999999999815
299.9999999999815
299.9999999999815
299.9999999999815
299.9999999999815
299.9999999999816
299.9999999999815
299.9999999999815
299.9999999999816
299.9999999999815
299.9999999999816
299.9999999999816
299.9999999999815
299.9999999999816
299.9999999999816
299.9999999999816
299.9999999999816
299.9999999999816
299.9999999999816
299.9999999999817
299.9999999999817
299.9999999999818
299.9999999999817
299.9999999999816
299.9999999999817
299.9999999999815
299.9999999999815
299.9999999999814
299.9999999999812
299.9999999999814
299.9999999999815
299.9999999999814
299.9999999999812
299.9999999999811
299.9999999999811
299.9999999999811
299.999999999981
299.9999999999809
299.9999999999808
299.9999999999808
299.999999999981
299.9999999999809
299.9999999999809
299.9999999999809
299.9999999999808
299.9999999999807
299.9999999999806
299.9999999999806
299.9999999999804
299.9999999999804
299.9999999999805
299.9999999999805
299.9999999999806
299.9999999999806
299.9999999999806
299.9999999999807
299.9999999999806
299.9999999999807
299.9999999999806
299.9999999999807
299.9999999999806
299.9999999999806
299.9999999999806
299.9999999999807
299.9999999999807
299.9999999999808
299.9999999999806
299.9999999999807
299.9999999999807
299.9999999999807
299.9999999999808
299.9999999999808
299.9999999999808
299.9999999999808
299.9999999999808
299.9999999999808
299.9999999999809
299.9999999999808
299.9999999999808
299.9999999999807
299.9999999999807
299.9999999999807
299.9999999999808
299.999999999981
299.999999999981
299.999999999981
299.999999999981
299.999999999981
299.999999999981
299.9999999999809
299.9999999999809
299.9999999999808
299.9999999999808
299.9999999999807
299.9999999999807
299.9999999999808
299.9999999999807
299.9999999999807
299.9999999999806
299.9999999999804
299.9999999999803
299.9999999999802
299.9999999999799
299.9999999999797
299.9999999999797
299.9999999999796
299.9999999999795
299.9999999999795
299.9999999999795
299.9999999999794
299.9999999999793
299.9999999999792
299.999999999979
299.9999999999788
299.9999999999788
299.9999999999786
299.9999999999785
299.9999999999785
299.9999999999783
299.9999999999785
299.9999999999786
299.9999999999787
299.999999999979
299.999999999979
299.9999999999791
299.9999999999791
299.999999999979
299.9999999999787
299.9999999999786
299.9999999999783
299.9999999999782
299.9999999999781
299.9999999999781
299.9999999999781
299.9999999999781
299.9999999999781
299.9999999999782
)
;

boundaryField
{
    inlet
    {
        type            fixedValue;
        value           uniform 300;
    }
    outlet
    {
        type            temperatureOutletNSCBC;
        pInf            101325;
        gamma           1.4;
        etaAc           1;
        fieldInf        1;
        lInf            2.25;
        value           uniform 299.9999999999822;
    }
    frontAndBack
    {
        type            empty;
    }
}


// ************************************************************************* //
