/*--------------------------------*- C++ -*----------------------------------*\
| =========                 |                                                 |
| \\      /  F ield         | OpenFOAM: The Open Source CFD Toolbox           |
|  \\    /   O peration     | Version:  v2012                                 |
|   \\  /    A nd           | Website:  www.openfoam.com                      |
|    \\/     M anipulation  |                                                 |
\*---------------------------------------------------------------------------*/
FoamFile
{
    version     2.0;
    format      ascii;
    class       volVectorField;
    location    "0.0055";
    object      U;
}
// * * * * * * * * * * * * * * * * * * * * * * * * * * * * * * * * * * * * * //

dimensions      [0 1 -1 0 0 0 0];


internalField   nonuniform List<vector> 
1000
(
(0.002908128853496943 0 0)
(0.03441710864986043 0 0)
(0.04255381639873744 0 0)
(0.05763212145639711 0 0)
(0.07147931643623691 0 0)
(0.08446502847722681 0 0)
(0.09560795669229476 0 0)
(0.1051207540304336 0 0)
(0.1131835323723549 0 0)
(0.1185932728159281 0 0)
(0.1200648003825446 0 0)
(0.1199317268044725 0 0)
(0.1191255393377484 0 0)
(0.1166423556534046 0 0)
(0.1118493282470221 0 0)
(0.1045360572785392 0 0)
(0.09496958477859975 0 0)
(0.0835881902305457 0 0)
(0.07076253755727431 0 0)
(0.05673871049342389 0 0)
(0.04170673496511433 0 0)
(0.02588110314171158 0 0)
(0.009533806813621445 0 0)
(-0.007021748968305951 0 0)
(-0.02345997580842567 0 0)
(-0.03945516614938555 0 0)
(-0.0547014010172682 0 0)
(-0.06899183468397305 0 0)
(-0.08231265601869805 0 0)
(-0.09474337542539729 0 0)
(-0.1059036778965346 0 0)
(-0.1141248001948237 0 0)
(-0.1175539114197601 0 0)
(-0.1179156911725931 0 0)
(-0.1178181485478385 0 0)
(-0.1170976747549076 0 0)
(-0.1152614131413916 0 0)
(-0.1116442842692128 0 0)
(-0.1057645165635057 0 0)
(-0.09740247799005337 0 0)
(-0.08667399088714749 0 0)
(-0.07396161784170491 0 0)
(-0.05976515719833356 0 0)
(-0.04455406106902344 0 0)
(-0.02869097628388133 0 0)
(-0.01244131040257518 0 0)
(0.003964235719317729 0 0)
(0.02027483751734659 0 0)
(0.03622753802639943 0 0)
(0.05161855658260175 0 0)
(0.06636831597970516 0 0)
(0.08048346047612626 0 0)
(0.09381366471633232 0 0)
(0.1054782549390472 0 0)
(0.1133800532999241 0 0)
(0.1162165654568522 0 0)
(0.1164560951348961 0 0)
(0.1162977944309005 0 0)
(0.1157282534885891 0 0)
(0.1141935021885698 0 0)
(0.1112089906538734 0 0)
(0.1062837833055862 0 0)
(0.09907116286343333 0 0)
(0.08944510994595747 0 0)
(0.07754191364509502 0 0)
(0.0637247095848735 0 0)
(0.04848705289586812 0 0)
(0.03234286414709465 0 0)
(0.01574661045830199 0 0)
(-0.0009433038482238802 0 0)
(-0.01746798572519379 0 0)
(-0.0336545126861269 0 0)
(-0.04940463875822725 0 0)
(-0.06469012119176708 0 0)
(-0.07948836655243173 0 0)
(-0.0934837865679089 0 0)
(-0.1054050458995329 0 0)
(-0.1128542667481982 0 0)
(-0.1151304789202883 0 0)
(-0.1152529858689432 0 0)
(-0.11515614863574 0 0)
(-0.1145853562655008 0 0)
(-0.1131985385254556 0 0)
(-0.1105132833317772 0 0)
(-0.1060932471131167 0 0)
(-0.09958140344913309 0 0)
(-0.09077722379417306 0 0)
(-0.07968450688541263 0 0)
(-0.06652569611116933 0 0)
(-0.05170708721310954 0 0)
(-0.03573852720295906 0 0)
(-0.01913654683181977 0 0)
(-0.002347450169226162 0 0)
(0.01429621982481031 0 0)
(0.03059742027644006 0 0)
(0.04649777279266145 0 0)
(0.06203342670386159 0 0)
(0.07719119152980716 0 0)
(0.09157963977353485 0 0)
(0.103842422385687 0 0)
(0.1115670942729791 0 0)
(0.1140300548868327 0 0)
(0.1142072214608686 0 0)
(0.1140870581289139 0 0)
(0.1136452062463102 0 0)
(0.112466068779945 0 0)
(0.1101647948799324 0 0)
(0.1063215670924499 0 0)
(0.1005685428527031 0 0)
(0.09264153310900508 0 0)
(0.08243646038115465 0 0)
(0.07004188008432288 0 0)
(0.05573794124334188 0 0)
(0.0399601556619783 0 0)
(0.02323066625736857 0 0)
(0.00606629425746049 0 0)
(-0.01111179206467041 0 0)
(-0.0280341022371837 0 0)
(-0.04458702474373864 0 0)
(-0.06076106604212858 0 0)
(-0.07650081061290029 0 0)
(-0.09132518929063747 0 0)
(-0.1036726295148997 0 0)
(-0.1110410421527609 0 0)
(-0.1131572313584651 0 0)
(-0.1132686745182895 0 0)
(-0.1131905521171638 0 0)
(-0.1127380686842482 0 0)
(-0.1116291664259957 0 0)
(-0.1094705711525127 0 0)
(-0.10588454863145 0 0)
(-0.1005246549891061 0 0)
(-0.09312752126493358 0 0)
(-0.08355622923496819 0 0)
(-0.07183730251641117 0 0)
(-0.05817510063654911 0 0)
(-0.04293093970683366 0 0)
(-0.02656899215165296 0 0)
(-0.009583198907393569 0 0)
(0.007581991119199966 0 0)
(0.02460458185924634 0 0)
(0.04132421391389025 0 0)
(0.05770454534097761 0 0)
(0.07367243667841653 0 0)
(0.08876416150748632 0 0)
(0.1015396742449859 0 0)
(0.1095649035367611 0 0)
(0.1121767641065838 0 0)
(0.1123924117764951 0 0)
(0.1123030242122124 0 0)
(0.1119670745488056 0 0)
(0.1110395833944879 0 0)
(0.1091967680390033 0 0)
(0.1060709495216215 0 0)
(0.1013154773924737 0 0)
(0.09463882739104429 0 0)
(0.08584935335656289 0 0)
(0.07489154164945439 0 0)
(0.06186851576666834 0 0)
(0.04704499229808847 0 0)
(0.03082142379881088 0 0)
(0.01367299496810171 0 0)
(-0.003934725585460887 0 0)
(-0.02162380061352479 0 0)
(-0.03914579299155708 0 0)
(-0.05635998200216086 0 0)
(-0.07308867378270953 0 0)
(-0.08872819138398365 0 0)
(-0.1016144749166714 0 0)
(-0.1092493677399459 0 0)
(-0.111474358312832 0 0)
(-0.1116125297173122 0 0)
(-0.1115539367934257 0 0)
(-0.1111950657998661 0 0)
(-0.1102946219372075 0 0)
(-0.1085170235767879 0 0)
(-0.1055295475525988 0 0)
(-0.1010089716117299 0 0)
(-0.09467999273802984 0 0)
(-0.08634982822509653 0 0)
(-0.07594354183581256 0 0)
(-0.06352844418438924 0 0)
(-0.04931704673878985 0 0)
(-0.03364597811437964 0 0)
(-0.01693358867771138 0 0)
(0.0003825612231034792 0 0)
(0.0179206273164925 0 0)
(0.03541188546775875 0 0)
(0.05269165202126199 0 0)
(0.06956901003904147 0 0)
(0.08549618892403679 0 0)
(0.09899482650522323 0 0)
(0.1076061540039308 0 0)
(0.1105515672131824 0 0)
(0.1108355410228193 0 0)
(0.110773184338071 0 0)
(0.1105216964596393 0 0)
(0.1097858450685289 0 0)
(0.1082858371989598 0 0)
(0.105695895032776 0 0)
(0.1016962384381791 0 0)
(0.09599588863728685 0 0)
(0.08836725670138508 0 0)
(0.07867759019100587 0 0)
(0.06691552516673219 0 0)
(0.05320816108834595 0 0)
(0.03781856961169185 0 0)
(0.0211139143393118 0 0)
(0.003507997256114756 0 0)
(-0.01460342793133928 0 0)
(-0.03289188758359028 0 0)
(-0.05109698378827442 0 0)
(-0.06890410660035806 0 0)
(-0.0855685747730324 0 0)
(-0.09929645915659192 0 0)
(-0.1074992118559005 0 0)
(-0.1099842584793745 0 0)
(-0.1101715837970325 0 0)
(-0.1101297854744177 0 0)
(-0.1098452973646756 0 0)
(-0.1091106004032548 0 0)
(-0.1076303401864915 0 0)
(-0.1051071976855061 0 0)
(-0.1012420257643379 0 0)
(-0.09576401997095429 0 0)
(-0.08845758764528625 0 0)
(-0.07919232065344446 0 0)
(-0.06794747454991605 0 0)
(-0.05482343739784926 0 0)
(-0.040038131544765 0 0)
(-0.02390740486557641 0 0)
(-0.006804349863787085 0 0)
(0.01090079493862575 0 0)
(0.02889539417357662 0 0)
(0.04692847640970449 0 0)
(0.06470735348095592 0 0)
(0.08159775561972406 0 0)
(0.09606637560627714 0 0)
(0.1055649090683501 0 0)
(0.109053019391873 0 0)
(0.1094611821516014 0 0)
(0.1094176544807134 0 0)
(0.1092318798551449 0 0)
(0.108646593529913 0 0)
(0.1074179979725188 0 0)
(0.1052521968078943 0 0)
(0.1018542721842203 0 0)
(0.09694302337047764 0 0)
(0.09027809838406395 0 0)
(0.08168520102900424 0 0)
(0.07108052892670721 0 0)
(0.05849155421682707 0 0)
(0.04406547923156667 0 0)
(0.02805604347546569 0 0)
(0.01078939974580719 0 0)
(-0.007380213703242465 0 0)
(-0.0261104930487816 0 0)
(-0.04507694989721764 0 0)
(-0.06386747786760044 0 0)
(-0.08163065897061904 0 0)
(-0.09646929471764691 0 0)
(-0.1056223652095617 0 0)
(-0.1086070993863894 0 0)
(-0.1088854816235259 0 0)
(-0.1088594112545562 0 0)
(-0.1086369128039921 0 0)
(-0.1080372824693 0 0)
(-0.1067959410422825 0 0)
(-0.104646018672295 0 0)
(-0.1013118069209143 0 0)
(-0.09653301869983064 0 0)
(-0.09008596032842346 0 0)
(-0.08180861366195567 0 0)
(-0.07162285493538952 0 0)
(-0.05954874775689843 0 0)
(-0.04570958608379148 0 0)
(-0.03032533123323733 0 0)
(-0.01368788215849653 0 0)
(0.00388194895476043 0 0)
(0.02207668880914862 0 0)
(0.04060781972429413 0 0)
(0.05912360440150743 0 0)
(0.07694539632771538 0 0)
(0.09253261472629602 0 0)
(0.1032437040637069 0 0)
(0.1075816551026598 0 0)
(0.108212803873243 0 0)
(0.1081894742539381 0 0)
(0.1080569959586834 0 0)
(0.1075940367805604 0 0)
(0.1065856579822442 0 0)
(0.1047651332849234 0 0)
(0.1018605434953382 0 0)
(0.09760379607005092 0 0)
(0.09175214536223275 0 0)
(0.0841084569659178 0 0)
(0.07454268719154221 0 0)
(0.06301251759119236 0 0)
(0.04957578121606473 0 0)
(0.03438745574888619 0 0)
(0.01768213041342754 0 0)
(-0.0002518466432143269 0 0)
(-0.0190994313550608 0 0)
(-0.03852310243645726 0 0)
(-0.05807080440825015 0 0)
(-0.07685442677961837 0 0)
(-0.0929546993692197 0 0)
(-0.103430216404252 0 0)
(-0.1072395710507195 0 0)
(-0.1076950941484257 0 0)
(-0.1076856734401889 0 0)
(-0.1075179762947086 0 0)
(-0.1070378643277312 0 0)
(-0.1060018689378977 0 0)
(-0.104166777575077 0 0)
(-0.1012767262713697 0 0)
(-0.09708418186719968 0 0)
(-0.09136624790128227 0 0)
(-0.08394480473003768 0 0)
(-0.074705185167805 0 0)
(-0.06361064938201232 0 0)
(-0.05071177010224765 0 0)
(-0.03614747087271345 0 0)
(-0.02013126407963082 0 0)
(-0.002922609819581103 0 0)
(0.01520223728696924 0 0)
(0.03395391475184917 0 0)
(0.05296552088067673 0 0)
(0.07156790810172631 0 0)
(0.08828763609424037 0 0)
(0.1004589856741308 0 0)
(0.10601017968742 0 0)
(0.107033190154342 0 0)
(0.1070404800039153 0 0)
(0.1069542966116619 0 0)
(0.1065967132620644 0 0)
(0.105776736122006 0 0)
(0.1042488691876297 0 0)
(0.1017605726588083 0 0)
(0.09805757426776014 0 0)
(0.09290077017050578 0 0)
(0.0860820577548773 0 0)
(0.07744261307846372 0 0)
(0.06689175010527333 0 0)
(0.0544201873404808 0 0)
(0.04010279969792805 0 0)
(0.02409238918537712 0 0)
(0.006607458766810488 0 0)
(-0.01208388640989218 0 0)
(-0.03166461483635351 0 0)
(-0.05168884606756161 0 0)
(-0.07129938480172859 0 0)
(-0.08866139772805037 0 0)
(-0.100746890973586 0 0)
(-0.1057760978983784 0 0)
(-0.1065654701218994 0 0)
(-0.1065757013984719 0 0)
(-0.1064560294241813 0 0)
(-0.1060805093218751 0 0)
(-0.1052248507006789 0 0)
(-0.1036643160243278 0 0)
(-0.1011585457500556 0 0)
(-0.09747169005235008 0 0)
(-0.09238486012677187 0 0)
(-0.08571217514868495 0 0)
(-0.07731605615610458 0 0)
(-0.06712085772696286 0 0)
(-0.05512366087234245 0 0)
(-0.04139869217184667 0 0)
(-0.0260908506108018 0 0)
(-0.009398993200953229 0 0)
(0.008442135583978572 0 0)
(0.02716458427824512 0 0)
(0.04641855399042044 0 0)
(0.06558605152318212 0 0)
(0.08332736498295587 0 0)
(0.09707027000640799 0 0)
(0.1041930186085372 0 0)
(0.1058704203902385 0 0)
(0.1059438858542283 0 0)
(0.1058909200778243 0 0)
(0.1056279627116826 0 0)
(0.1049733646252009 0 0)
(0.1037012348975234 0 0)
(0.1015743614149639 0 0)
(0.09835081343097139 0 0)
(0.09379739751397086 0 0)
(0.08770198733299907 0 0)
(0.0798887678091847 0 0)
(0.07023447823590087 0 0)
(0.05868083830757684 0 0)
(0.0452405068496677 0 0)
(0.02999831527133408 0 0)
(0.01310815355737133 0 0)
(-0.005215134382622408 0 0)
(-0.0246929696739204 0 0)
(-0.04491507146994406 0 0)
(-0.06510256834752669 0 0)
(-0.08359425225852334 0 0)
(-0.09742725533343319 0 0)
(-0.1040811866731515 0 0)
(-0.1054603974468396 0 0)
(-0.1055079933055435 0 0)
(-0.1054289290096907 0 0)
(-0.1051453834375366 0 0)
(-0.1044488437991277 0 0)
(-0.1031316685252631 0 0)
(-0.1009658086373146 0 0)
(-0.09772504749257709 0 0)
(-0.09319494020739327 0 0)
(-0.08718629651773527 0 0)
(-0.07954734142842081 0 0)
(-0.07017532108613135 0 0)
(-0.05902788308692213 0 0)
(-0.04613009809503714 0 0)
(-0.03157180322678071 0 0)
(-0.01549727204540988 0 0)
(0.001903891539487147 0 0)
(0.02039509019223713 0 0)
(0.03965743004197386 0 0)
(0.0591463562858265 0 0)
(0.07770349335498268 0 0)
(0.09297743907656471 0 0)
(0.1019716888000063 0 0)
(0.1046715913333338 0 0)
(0.1048940861565532 0 0)
(0.1048706829376533 0 0)
(0.1046793174403094 0 0)
(0.1041680809937511 0 0)
(0.1031180268827238 0 0)
(0.1013078917384684 0 0)
(0.09850605738306749 0 0)
(0.09448532447171978 0 0)
(0.08903285296782146 0 0)
(0.08196284841926287 0 0)
(0.07312983374558948 0 0)
(0.06243990719317722 0 0)
(0.04985890348704415 0 0)
(0.0354178693569633 0 0)
(0.0192145565173126 0 0)
(0.001410874920840573 0 0)
(-0.01776033285357541 0 0)
(-0.03793874114629858 0 0)
(-0.05844741572170627 0 0)
(-0.07784872425057414 0 0)
(-0.09339293782069585 0 0)
(-0.1019965825700593 0 0)
(-0.1043050877536602 0 0)
(-0.1044578307911868 0 0)
(-0.1044112799468415 0 0)
(-0.1042074691147016 0 0)
(-0.1036560194276418 0 0)
(-0.1025600855128324 0 0)
(-0.1007021628226672 0 0)
(-0.09786361379174198 0 0)
(-0.09383409026530033 0 0)
(-0.0884227848408245 0 0)
(-0.08146862309282921 0 0)
(-0.07285076724003663 0 0)
(-0.06249913680446316 0 0)
(-0.05040130609965977 0 0)
(-0.03660265260560309 0 0)
(-0.02120215979067173 0 0)
(-0.004348907191031809 0 0)
(0.01375622796902341 0 0)
(0.03283546112428866 0 0)
(0.05242360229376818 0 0)
(0.07155072627198393 0 0)
(0.08817121336955848 0 0)
(0.09918070702342231 0 0)
(0.1033297829720636 0 0)
(0.103874459592498 0 0)
(0.1038708870957883 0 0)
(0.1037401621165626 0 0)
(0.1033499401937586 0 0)
(0.1024948513260531 0 0)
(0.1009654878146862 0 0)
(0.0985395041955887 0 0)
(0.09499553893750307 0 0)
(0.090121783701469 0 0)
(0.08372643757003895 0 0)
(0.07564853478587266 0 0)
(0.06576857175233386 0 0)
(0.0540178474758303 0 0)
(0.0403853955810791 0 0)
(0.02492176589560175 0 0)
(0.007741381459703403 0 0)
(-0.01096748530799787 0 0)
(-0.03089858925165072 0 0)
(-0.05148396687650688 0 0)
(-0.07152692606036878 0 0)
(-0.08860527990101841 0 0)
(-0.09936309827576194 0 0)
(-0.1030381651658737 0 0)
(-0.1034403496142988 0 0)
(-0.103420780190308 0 0)
(-0.103279377937959 0 0)
(-0.1028545701383118 0 0)
(-0.1019543685627136 0 0)
(-0.1003713837046858 0 0)
(-0.09789409034768522 0 0)
(-0.09431626134774056 0 0)
(-0.08944658985609628 0 0)
(-0.08311804018288432 0 0)
(-0.07519727239648673 0 0)
(-0.06559337231376668 0 0)
(-0.05426434813127801 0 0)
(-0.04122030985321472 0 0)
(-0.02652348230922111 0 0)
(-0.01028635534747268 0 0)
(0.007327362899184422 0 0)
(0.02608241750180582 0 0)
(0.04558689920810808 0 0)
(0.06504527178102125 0 0)
(0.08274565436669296 0 0)
(0.09571759790784873 0 0)
(0.1016873924910462 0 0)
(0.1028263996031956 0 0)
(0.1028525812999141 0 0)
(0.1027784770642651 0 0)
(0.1024932784100497 0 0)
(0.1018150947366195 0 0)
(0.1005424110114036 0 0)
(0.09846064170238711 0 0)
(0.09535303776778112 0 0)
(0.09100850009212283 0 0)
(0.08523141585431054 0 0)
(0.07785115447174371 0 0)
(0.06873038224507654 0 0)
(0.05777388169392998 0 0)
(0.04493802797658245 0 0)
(0.03023710392576344 0 0)
(0.01374569805733538 0 0)
(-0.004392163429490351 0 0)
(-0.02392474565656501 0 0)
(-0.04438148850491559 0 0)
(-0.06478786368592206 0 0)
(-0.08310698974097629 0 0)
(-0.09603071959528554 0 0)
(-0.1015278313650593 0 0)
(-0.1024375379406089 0 0)
(-0.1024391144904618 0 0)
(-0.1023578290977427 0 0)
(-0.1020360905624453 0 0)
(-0.1013091963681914 0 0)
(-0.09997336979868772 0 0)
(-0.09782383664870413 0 0)
(-0.09465805673672596 0 0)
(-0.09028515100444265 0 0)
(-0.08453361705160102 0 0)
(-0.07726024093271343 0 0)
(-0.06835876426566391 0 0)
(-0.05776565519646559 0 0)
(-0.04546309913529965 0 0)
(-0.03148176873884886 0 0)
(-0.01590309473275546 0 0)
(0.001139873814965409 0 0)
(0.01945054203968285 0 0)
(0.03870625187998358 0 0)
(0.05826766499011881 0 0)
(0.07674918970173768 0 0)
(0.09150404772052755 0 0)
(0.09960879833146138 0 0)
(0.1017551208233399 0 0)
(0.1018941575124482 0 0)
(0.1018461545560725 0 0)
(0.1016494678647563 0 0)
(0.1011183731855802 0 0)
(0.10006748497574 0 0)
(0.09828842318757813 0 0)
(0.09557005521813697 0 0)
(0.09170400783562167 0 0)
(0.08649294148106504 0 0)
(0.07975870056497084 0 0)
(0.07135088299558956 0 0)
(0.06115541094942323 0 0)
(0.04910253118302819 0 0)
(0.03517371594716958 0 0)
(0.01940815998072475 0 0)
(0.001913073908009853 0 0)
(-0.0171089832809264 0 0)
(-0.03727878998974831 0 0)
(-0.05781687587097781 0 0)
(-0.07705355206783075 0 0)
(-0.09194926164052777 0 0)
(-0.09958527834684154 0 0)
(-0.1013651799924422 0 0)
(-0.1014493195678759 0 0)
(-0.1014002295390976 0 0)
(-0.1011744897025276 0 0)
(-0.1006034222782983 0 0)
(-0.09949606218227998 0 0)
(-0.09765176022976481 0 0)
(-0.09487022962698217 0 0)
(-0.0909601675411756 0 0)
(-0.08574700774639318 0 0)
(-0.0790805762107169 0 0)
(-0.07084222250603317 0 0)
(-0.06095091634803067 0 0)
(-0.04936793775935649 0 0)
(-0.03609991672398467 0 0)
(-0.02120033971270744 0 0)
(-0.004771707897946297 0 0)
(0.01302315013781263 0 0)
(0.03191666588696095 0 0)
(0.05139973677399787 0 0)
(0.07037826952198917 0 0)
(0.08660850898907357 0 0)
(0.09692594146139012 0 0)
(0.1005130983105876 0 0)
(0.1009188204993326 0 0)
(0.1009013276075638 0 0)
(0.100769868317407 0 0)
(0.1003708176618141 0 0)
(0.09952075746902762 0 0)
(0.09801951936912885 0 0)
(0.09566010319725667 0 0)
(0.09223611853321613 0 0)
(0.08754944691000692 0 0)
(0.08141745376298171 0 0)
(0.07368047125344067 0 0)
(0.06420988809828114 0 0)
(0.05291615735398398 0 0)
(0.0397557625680079 0 0)
(0.02473804907404546 0 0)
(0.007935749586151838 0 0)
(-0.01049228837936421 0 0)
(-0.03024143038590919 0 0)
(-0.05069549749000583 0 0)
(-0.07052636981310469 0 0)
(-0.08710695752424288 0 0)
(-0.0970781224788337 0 0)
(-0.1001955221969519 0 0)
(-0.1004836014776927 0 0)
(-0.1004618995457701 0 0)
(-0.1003083443811862 0 0)
(-0.09987234073963455 0 0)
(-0.09896630174782234 0 0)
(-0.09739586774976271 0 0)
(-0.09496390219136845 0 0)
(-0.09147969453929634 0 0)
(-0.08676621851193345 0 0)
(-0.08066769232469762 0 0)
(-0.07305612993000171 0 0)
(-0.06383641675864682 0 0)
(-0.05295127949256212 0 0)
(-0.04038631014946706 0 0)
(-0.02617259303988073 0 0)
(-0.01038741088162332 0 0)
(0.006837670358029276 0 0)
(0.02528241816323142 0 0)
(0.0445379605550187 0 0)
(0.06374799879871723 0 0)
(0.08109081061789465 0 0)
(0.09352079896423914 0 0)
(0.09898072863541664 0 0)
(0.09993664740116158 0 0)
(0.09994620122794215 0 0)
(0.09987379766396637 0 0)
(0.09957959471993659 0 0)
(0.0989037386100311 0 0)
(0.09764996794921114 0 0)
(0.09561718481924522 0 0)
(0.09260183507482783 0 0)
(0.08840563626703185 0 0)
(0.08284219535881326 0 0)
(0.07574416766544234 0 0)
(0.0669707876642818 0 0)
(0.05641550692926186 0 0)
(0.04401346270900298 0 0)
(0.02974917643637956 0 0)
(0.01366630386887828 0 0)
(-0.004114617608967784 0 0)
(-0.02335161960556601 0 0)
(-0.04355809471661405 0 0)
(-0.06369077490744926 0 0)
(-0.08157897766956695 0 0)
(-0.09385197977228865 0 0)
(-0.09878735704719906 0 0)
(-0.09952688323679304 0 0)
(-0.09952745865244686 0 0)
(-0.09943230100429101 0 0)
(-0.09910722848427587 0 0)
(-0.09837878487758779 0 0)
(-0.09705696997285973 0 0)
(-0.09494732199721084 0 0)
(-0.09185932628620849 0 0)
(-0.08761384377371138 0 0)
(-0.08205010139144495 0 0)
(-0.0750319325966529 0 0)
(-0.06645335214312689 0 0)
(-0.05624352274085788 0 0)
(-0.04437080335508856 0 0)
(-0.03084550728534213 0 0)
(-0.01572245596685996 0 0)
(0.0008921819102952361 0 0)
(0.01881809384488271 0 0)
(0.03773078953351563 0 0)
(0.05696684236018652 0 0)
(0.07508485111741446 0 0)
(0.08937400572195955 0 0)
(0.0970001189525654 0 0)
(0.09891145983280049 0 0)
(0.09901884262732293 0 0)
(0.09897796320029187 0 0)
(0.0987751708405273 0 0)
(0.09825092117517084 0 0)
(0.09721940610522239 0 0)
(0.09548368327871531 0 0)
(0.0928426012402338 0 0)
(0.08909819376236985 0 0)
(0.08406184956586614 0 0)
(0.07756097859022766 0 0)
(0.06944609584261051 0 0)
(0.05959790280022299 0 0)
(0.04793439457362519 0 0)
(0.03441869551020463 0 0)
(0.01906863729797064 0 0)
(0.001971436619460524 0 0)
(-0.01668324180562701 0 0)
(-0.03651299301114873 0 0)
(-0.05670550838667836 0 0)
(-0.07551885423242238 0 0)
(-0.08985513552709884 0 0)
(-0.09695342233687497 0 0)
(-0.09850717399200068 0 0)
(-0.09856908704936723 0 0)
(-0.09851682767299409 0 0)
(-0.09828861003989325 0 0)
(-0.09771830642818502 0 0)
(-0.09662336522487841 0 0)
(-0.09481185236396771 0 0)
(-0.09209397732901925 0 0)
(-0.08828920746071552 0 0)
(-0.08323277793680758 0 0)
(-0.07678168612793966 0 0)
(-0.06882022457059257 0 0)
(-0.05926501999993276 0 0)
(-0.04806930833957974 0 0)
(-0.03522629850411145 0 0)
(-0.02077237747035394 0 0)
(-0.004792847020725102 0 0)
(0.0125621301333432 0 0)
(0.03102919670160484 0 0)
(0.05009334178887858 0 0)
(0.06864895005198998 0 0)
(0.08445992437877632 0 0)
(0.09444070891851493 0 0)
(0.09788127428633937 0 0)
(0.09827064117274446 0 0)
(0.0982573838556586 0 0)
(0.09814379191215232 0 0)
(0.09779928930480808 0 0)
(0.09706413056197345 0 0)
(0.09576911687682403 0 0)
(0.09374443408200242 0 0)
(0.09082925522610939 0 0)
(0.08688132837913005 0 0)
(0.0817869632196753 0 0)
(0.07547167146149732 0 0)
(0.06791164812521272 0 0)
(0.05914687542742653 0 0)
(0.04929922974802657 0 0)
(0.03860661527188525 0 0)
(0.02750163416337084 0 0)
(0.01678163913167338 0 0)
(0.007824492244504877 0 0)
(0.002266634764037989 0 0)
(0.0002954462663625058 0 0)
(1.152571576505845e-05 0 0)
(8.798618180738782e-08 0 0)
(1.34053052492198e-10 0 0)
(4.555175464159816e-11 0 0)
(4.535158453140361e-11 0 0)
(4.540380282102271e-11 0 0)
(4.571711255871547e-11 0 0)
(4.595209486198495e-11 0 0)
(4.634373203410368e-11 0 0)
(4.688332102680831e-11 0 0)
(4.738809782641887e-11 0 0)
(4.782325023989001e-11 0 0)
(4.804952949489391e-11 0 0)
(4.830191789470512e-11 0 0)
(4.82496996050867e-11 0 0)
(4.840635447392814e-11 0 0)
(4.837154228086159e-11 0 0)
(4.835413618431553e-11 0 0)
(4.8345433136048e-11 0 0)
(4.846727581181954e-11 0 0)
(4.852819714970705e-11 0 0)
(4.856300934278115e-11 0 0)
(4.877188250124564e-11 0 0)
(4.876317945297542e-11 0 0)
(4.886761603220324e-11 0 0)
(4.885891298394296e-11 0 0)
(4.879799164604721e-11 0 0)
(4.885020993567079e-11 0 0)
(4.896334956316989e-11 0 0)
(4.905908309413212e-11 0 0)
(4.903297394932616e-11 0 0)
(4.916351967336413e-11 0 0)
(4.896334956316974e-11 0 0)
(4.903297394931676e-11 0 0)
(4.910259833548039e-11 0 0)
(4.922444101124894e-11 0 0)
(4.923314405951807e-11 0 0)
(4.916351967336548e-11 0 0)
(4.913741052855752e-11 0 0)
(4.898075565970847e-11 0 0)
(4.905908309412349e-11 0 0)
(4.911130138374989e-11 0 0)
(4.916351967336408e-11 0 0)
(4.915481662510389e-11 0 0)
(4.914611357682533e-11 0 0)
(4.904167699759636e-11 0 0)
(4.898075565970018e-11 0 0)
(4.90416769975941e-11 0 0)
(4.902427090105578e-11 0 0)
(4.910259833548183e-11 0 0)
(4.905038004586344e-11 0 0)
(4.912870748028748e-11 0 0)
(4.918962881817486e-11 0 0)
(4.930276844566509e-11 0 0)
(4.930276844567425e-11 0 0)
(4.936368978356126e-11 0 0)
(4.943331416971622e-11 0 0)
(4.938979892836689e-11 0 0)
(4.946812636278986e-11 0 0)
(4.942461112144628e-11 0 0)
(4.946812636279129e-11 0 0)
(4.95638598937538e-11 0 0)
(4.967699952124621e-11 0 0)
(4.963348427991006e-11 0 0)
(4.975532695567792e-11 0 0)
(4.97205147626013e-11 0 0)
(4.950293855587045e-11 0 0)
(4.966829647298569e-11 0 0)
(4.952904770067638e-11 0 0)
(4.948553245931946e-11 0 0)
(4.937239283183134e-11 0 0)
(4.930276844567372e-11 0 0)
(4.932887759048244e-11 0 0)
(4.920703491471144e-11 0 0)
(4.917222272163378e-11 0 0)
(4.898075565971136e-11 0 0)
(4.898945870797874e-11 0 0)
(4.894594346663445e-11 0 0)
(4.898945870796945e-11 0 0)
(4.905908309413321e-11 0 0)
(4.906778614240182e-11 0 0)
(4.89720526114425e-11 0 0)
(4.891983432182363e-11 0 0)
(4.909389528720903e-11 0 0)
(4.905908309413566e-11 0 0)
(4.914611357681963e-11 0 0)
(4.929406539740503e-11 0 0)
(4.945072026625236e-11 0 0)
(4.96508903764464e-11 0 0)
(4.979884219702463e-11 0 0)
(5.000771535548784e-11 0 0)
(5.009474583818193e-11 0 0)
(5.026010375530044e-11 0 0)
(5.027750985183681e-11 0 0)
(5.037324338278971e-11 0 0)
(5.038194643107114e-11 0 0)
(5.048638301030039e-11 0 0)
(5.059081958953278e-11 0 0)
(5.058211654126412e-11 0 0)
(5.079098969972492e-11 0 0)
(5.070395921703531e-11 0 0)
(5.075617750664154e-11 0 0)
(5.087802018242138e-11 0 0)
(5.085191103761116e-11 0 0)
(5.09215354237683e-11 0 0)
(5.105208114780518e-11 0 0)
(5.107819029261379e-11 0 0)
(5.10607841960775e-11 0 0)
(5.108689334088406e-11 0 0)
(5.096505066511516e-11 0 0)
(5.104337809952944e-11 0 0)
(5.110429943742151e-11 0 0)
(5.118262687184458e-11 0 0)
(5.125225125800111e-11 0 0)
(5.120003296838537e-11 0 0)
(5.125225125799991e-11 0 0)
(5.126095430626969e-11 0 0)
(5.132187564414681e-11 0 0)
(5.127836040280792e-11 0 0)
(5.146112441646284e-11 0 0)
(5.152204575434867e-11 0 0)
(5.154815489915812e-11 0 0)
(5.16177792853106e-11 0 0)
(5.15916701405046e-11 0 0)
(5.175702805761909e-11 0 0)
(5.174832500935339e-11 0 0)
(5.209644694011416e-11 0 0)
(5.222699266416425e-11 0 0)
(5.241845972608834e-11 0 0)
(5.254900545012885e-11 0 0)
(5.257511459493703e-11 0 0)
(5.251419325705117e-11 0 0)
(5.257511459493793e-11 0 0)
(5.274047251204672e-11 0 0)
(5.270566031897615e-11 0 0)
(5.300156396013302e-11 0 0)
(5.301026700840203e-11 0 0)
(5.291453347743491e-11 0 0)
(5.288842433263201e-11 0 0)
(5.296675176705578e-11 0 0)
(5.319303102205984e-11 0 0)
(5.339320113224716e-11 0 0)
(5.356726209764026e-11 0 0)
(5.367169867687005e-11 0 0)
(5.364558953206391e-11 0 0)
(5.368040172513461e-11 0 0)
(5.373262001475521e-11 0 0)
(5.381094744918069e-11 0 0)
(5.378483830437081e-11 0 0)
(5.390668098013786e-11 0 0)
(5.380224440090967e-11 0 0)
(5.390668098014192e-11 0 0)
(5.391538402841112e-11 0 0)
(5.378483830436634e-11 0 0)
(5.377613525610238e-11 0 0)
(5.385446269052615e-11 0 0)
(5.397630536629697e-11 0 0)
(5.398500841456579e-11 0 0)
(5.409814804206174e-11 0 0)
(5.408944499379783e-11 0 0)
(5.418517852476141e-11 0 0)
(5.408944499379721e-11 0 0)
(5.417647547648721e-11 0 0)
(5.42896151039917e-11 0 0)
(5.421999071783704e-11 0 0)
(5.427220900745314e-11 0 0)
(5.413296023513939e-11 0 0)
(5.418517852476064e-11 0 0)
(5.416777242822199e-11 0 0)
(5.41938815730295e-11 0 0)
(5.39676023180225e-11 0 0)
(5.400241451110489e-11 0 0)
(5.39676023180278e-11 0 0)
(5.392408707668206e-11 0 0)
(5.385446269052109e-11 0 0)
(5.37587291595636e-11 0 0)
(5.368040172514131e-11 0 0)
(5.348023161494535e-11 0 0)
(5.34367163735943e-11 0 0)
(5.317562492551986e-11 0 0)
(5.305378224974904e-11 0 0)
(5.295804871878654e-11 0 0)
(5.292323652570938e-11 0 0)
(5.284490909128198e-11 0 0)
(5.286231518782419e-11 0 0)
(5.306248529801996e-11 0 0)
(5.300156396013335e-11 0 0)
(5.314951578070664e-11 0 0)
(5.328006150475285e-11 0 0)
(5.350634075975349e-11 0 0)
(5.378483830437166e-11 0 0)
(5.415906937994724e-11 0 0)
(5.451589435899385e-11 0 0)
(5.469865837264996e-11 0 0)
(5.506418639996107e-11 0 0)
(5.52295443170731e-11 0 0)
(5.578653940631441e-11 0 0)
(5.616077048189491e-11 0 0)
(5.643926802651296e-11 0 0)
(5.674387471593525e-11 0 0)
(5.697885701921043e-11 0 0)
(5.717902712940411e-11 0 0)
(5.719643322594365e-11 0 0)
(5.748363381882674e-11 0 0)
(5.769250697729422e-11 0 0)
(5.803192585979798e-11 0 0)
(5.851059351460985e-11 0 0)
(5.881520020403615e-11 0 0)
(5.90675886038411e-11 0 0)
(5.902407336249983e-11 0 0)
(5.915461908654122e-11 0 0)
(5.907629165211577e-11 0 0)
(5.911110384518764e-11 0 0)
(5.906758860384781e-11 0 0)
(5.8971855072884e-11 0 0)
(5.885871544538311e-11 0 0)
(5.89805581211479e-11 0 0)
(5.91111038451945e-11 0 0)
(5.932868005192593e-11 0 0)
(5.959847454827515e-11 0 0)
(5.967680198269451e-11 0 0)
(5.998140867212439e-11 0 0)
(6.003362696174072e-11 0 0)
(6.011195439616628e-11 0 0)
(6.012936049269733e-11 0 0)
(6.022509402366557e-11 0 0)
(6.039915498905185e-11 0 0)
(6.038174889251343e-11 0 0)
(6.058191900270788e-11 0 0)
(6.053840376136062e-11 0 0)
(6.033823365116693e-11 0 0)
)
;

boundaryField
{
    inlet
    {
        type            zeroGradient;
    }
    outlet
    {
        type            velocityOutletNSCBCx;
        pInf            101325;
        gamma           1.4;
        etaAc           1;
        fieldInf        (-1 0 0);
        lInf            2.25;
        value           uniform (6.029739451255599e-11 0 0);
    }
    frontAndBack
    {
        type            empty;
    }
}


// ************************************************************************* //
