/*--------------------------------*- C++ -*----------------------------------*\
| =========                 |                                                 |
| \\      /  F ield         | OpenFOAM: The Open Source CFD Toolbox           |
|  \\    /   O peration     | Version:  v2012                                 |
|   \\  /    A nd           | Website:  www.openfoam.com                      |
|    \\/     M anipulation  |                                                 |
\*---------------------------------------------------------------------------*/
FoamFile
{
    version     2.0;
    format      ascii;
    class       volVectorField;
    location    "0.0055";
    object      UMean;
}
// * * * * * * * * * * * * * * * * * * * * * * * * * * * * * * * * * * * * * //

dimensions      [0 1 -1 0 0 0 0];


internalField   nonuniform List<vector> 
1000
(
(0.002383593106376028 0 0)
(0.002282511327076983 0 0)
(0.002278549672287051 0 0)
(0.002209894173965357 0 0)
(0.002134431866698872 0 0)
(0.002029303845523816 0 0)
(0.00191386312811078 0 0)
(0.001781556601708054 0 0)
(0.001641185149264484 0 0)
(0.001489645875751313 0 0)
(0.001333941217922431 0 0)
(0.00117651644213285 0 0)
(0.001020227113381027 0 0)
(0.0008656584552315113 0 0)
(0.0007158457146376104 0 0)
(0.0005734081759429861 0 0)
(0.000441903926761426 0 0)
(0.0003235955186949898 0 0)
(0.0002211078331611254 0 0)
(0.0001358087957059297 0 0)
(6.958280265827395e-05 0 0)
(2.324939836658783e-05 0 0)
(-1.933137444592008e-06 0 0)
(-5.761543658728578e-06 0 0)
(1.217047843829888e-05 0 0)
(5.12468258804509e-05 0 0)
(0.0001109697219000151 0 0)
(0.0001900172103913818 0 0)
(0.0002873656802537472 0 0)
(0.000401622163452215 0 0)
(0.0005317268962942612 0 0)
(0.0006751393581741173 0 0)
(0.0008270068607883652 0 0)
(0.0009812889719559338 0 0)
(0.001135673931163904 0 0)
(0.001289385026659397 0 0)
(0.001441784864046773 0 0)
(0.001590575395511226 0 0)
(0.001733654637581018 0 0)
(0.001867478198506846 0 0)
(0.001989343446635008 0 0)
(0.002095895604679213 0 0)
(0.002185295810374708 0 0)
(0.002255379804502963 0 0)
(0.002305461435824481 0 0)
(0.002334349901241015 0 0)
(0.002342118574654813 0 0)
(0.002328243963986754 0 0)
(0.002293446331842426 0 0)
(0.002237846837233251 0 0)
(0.002162669570414092 0 0)
(0.002068328446893563 0 0)
(0.001956071061545627 0 0)
(0.00182679652706039 0 0)
(0.001684078979909345 0 0)
(0.0015335512057892 0 0)
(0.001381331857398656 0 0)
(0.001228960389491725 0 0)
(0.001077122722701006 0 0)
(0.0009265362255885395 0 0)
(0.0007787388180467555 0 0)
(0.0006358740466682821 0 0)
(0.0005006725418799623 0 0)
(0.0003761797603774413 0 0)
(0.0002654881576871515 0 0)
(0.0001713596091120766 0 0)
(9.605475403660572e-05 0 0)
(4.113147611009896e-05 0 0)
(7.561001935331619e-06 0 0)
(-4.27038875830386e-06 0 0)
(5.652037589280449e-06 0 0)
(3.701064892731301e-05 0 0)
(8.932048925686853e-05 0 0)
(0.0001619769234209404 0 0)
(0.0002544365209540291 0 0)
(0.0003659607168171146 0 0)
(0.0004949831948293658 0 0)
(0.0006375277544056243 0 0)
(0.0007869650220646858 0 0)
(0.0009378617425183443 0 0)
(0.001088724366415886 0 0)
(0.001239078534084291 0 0)
(0.001388399397830524 0 0)
(0.001535036329273229 0 0)
(0.001677406496373009 0 0)
(0.00181270941581171 0 0)
(0.00193844482562308 0 0)
(0.002051273744316275 0 0)
(0.002148664040375562 0 0)
(0.002227796160941436 0 0)
(0.002287104929333077 0 0)
(0.002325026167358789 0 0)
(0.002341306298105693 0 0)
(0.002335551415775638 0 0)
(0.002308378324441283 0 0)
(0.002259929384940816 0 0)
(0.002191024971051008 0 0)
(0.00210180958648176 0 0)
(0.00199321651879209 0 0)
(0.001866476817914554 0 0)
(0.001725918203098087 0 0)
(0.001578028955828951 0 0)
(0.001428707210576538 0 0)
(0.001279263026156502 0 0)
(0.001130252663087322 0 0)
(0.0009821819475604786 0 0)
(0.0008362825404467257 0 0)
(0.000694186893979544 0 0)
(0.0005581563781302736 0 0)
(0.0004307766353730935 0 0)
(0.0003149968473966563 0 0)
(0.0002136932797946098 0 0)
(0.0001296450035361307 0 0)
(6.504835999372829e-05 0 0)
(2.162027496900676e-05 0 0)
(2.579923621283167e-07 0 0)
(1.388547406861002e-06 0 0)
(2.480615608685239e-05 0 0)
(7.019469678884261e-05 0 0)
(0.000137003798625516 0 0)
(0.000224842238066575 0 0)
(0.0003329214332877601 0 0)
(0.0004594110841693894 0 0)
(0.00059967395389145 0 0)
(0.0007466345977501283 0 0)
(0.0008949116753463521 0 0)
(0.001043193304473097 0 0)
(0.001191049005753711 0 0)
(0.001338095601442804 0 0)
(0.001482974133775427 0 0)
(0.001624425443311853 0 0)
(0.001760082554893465 0 0)
(0.001887808056855162 0 0)
(0.00200454007942672 0 0)
(0.002107767617398593 0 0)
(0.00219447735511234 0 0)
(0.002262624978988255 0 0)
(0.002310085408200811 0 0)
(0.002335962776557007 0 0)
(0.002339393666486315 0 0)
(0.002320601526767753 0 0)
(0.002279560462884207 0 0)
(0.002216967500012386 0 0)
(0.002132985083516356 0 0)
(0.002028605792713262 0 0)
(0.001905262997798982 0 0)
(0.001767554299705753 0 0)
(0.001622206546361001 0 0)
(0.00147528193756591 0 0)
(0.001328190280349844 0 0)
(0.001181460760005352 0 0)
(0.001035432542207777 0 0)
(0.0008911598459018056 0 0)
(0.0007499297758048777 0 0)
(0.0006137020787956309 0 0)
(0.0004846612656063669 0 0)
(0.0003655194686431511 0 0)
(0.0002589718860277238 0 0)
(0.0001679021514935165 0 0)
(9.476727648340191e-05 0 0)
(4.180990636695772e-05 0 0)
(1.05067391806628e-05 0 0)
(1.92911038221222e-06 0 0)
(1.636509120441198e-05 0 0)
(5.389877740963096e-05 0 0)
(0.0001141389523847531 0 0)
(0.0001967640213673746 0 0)
(0.0003008034837873488 0 0)
(0.0004242079962134956 0 0)
(0.0005619148878475306 0 0)
(0.0007066100487332949 0 0)
(0.0008526869050122055 0 0)
(0.0009988183422431432 0 0)
(0.001144587766150679 0 0)
(0.001289726519391152 0 0)
(0.001433073472344349 0 0)
(0.001573594056913674 0 0)
(0.001709248683400615 0 0)
(0.001838172208281532 0 0)
(0.001957608591006184 0 0)
(0.002065188584957545 0 0)
(0.002157944089994277 0 0)
(0.002233645981476207 0 0)
(0.002289833450672153 0 0)
(0.00232511425549342 0 0)
(0.002338074699503151 0 0)
(0.002328419181656781 0 0)
(0.002295701337854378 0 0)
(0.002240358862658842 0 0)
(0.002162446713587962 0 0)
(0.002062985418948559 0 0)
(0.001943537256862328 0 0)
(0.001808844300720425 0 0)
(0.001665863449744787 0 0)
(0.001521002367911648 0 0)
(0.001375927884783906 0 0)
(0.001231155444086347 0 0)
(0.001086905951538911 0 0)
(0.0009440939831356111 0 0)
(0.0008037613223401134 0 0)
(0.0006676235427728938 0 0)
(0.0005375556333500446 0 0)
(0.0004160220120043511 0 0)
(0.0003054963466677422 0 0)
(0.0002088038413310278 0 0)
(0.0001284626388970652 0 0)
(6.700330222497413e-05 0 0)
(2.630449106557934e-05 0 0)
(7.999735583145809e-06 0 0)
(1.292203547619842e-05 0 0)
(4.168829866544638e-05 0 0)
(9.427918930913061e-05 0 0)
(0.0001706032634637356 0 0)
(0.0002697182147455703 0 0)
(0.0003894512999815822 0 0)
(0.0005244451213455594 0 0)
(0.0006670160274066146 0 0)
(0.0008111779886511067 0 0)
(0.0009554297963983626 0 0)
(0.001099385709542736 0 0)
(0.001242842304333421 0 0)
(0.001384810072343841 0 0)
(0.001524413988175575 0 0)
(0.001659875538696505 0 0)
(0.001789551992690193 0 0)
(0.001910961748114565 0 0)
(0.002021904344508741 0 0)
(0.002119543301958154 0 0)
(0.002201604979109001 0 0)
(0.00226547749952042 0 0)
(0.002309430756233747 0 0)
(0.002331633502912444 0 0)
(0.002331283790410169 0 0)
(0.002307481977566909 0 0)
(0.00226025380060766 0 0)
(0.002189402928552215 0 0)
(0.002095783147396943 0 0)
(0.001980930579508213 0 0)
(0.00184958894186979 0 0)
(0.001708957444878198 0 0)
(0.001565957587171465 0 0)
(0.00142267030986431 0 0)
(0.001279634913017818 0 0)
(0.001136989257002468 0 0)
(0.0009955214837613611 0 0)
(0.0008560938888836697 0 0)
(0.0007202186466627057 0 0)
(0.0005895203379462354 0 0)
(0.0004662399674637313 0 0)
(0.0003526264373537164 0 0)
(0.0002513866313984579 0 0)
(0.0001649957217520693 0 0)
(9.611350595006606e-05 0 0)
(4.686716254734425e-05 0 0)
(1.930278858767882e-05 0 0)
(1.472652723577355e-05 0 0)
(3.428600652099881e-05 0 0)
(7.841142869278893e-05 0 0)
(0.0001473932145077033 0 0)
(0.0002404957654151248 0 0)
(0.0003556721105321591 0 0)
(0.0004874890561694406 0 0)
(0.0006279295235382923 0 0)
(0.0007703537673980995 0 0)
(0.0009129370709278434 0 0)
(0.001055261381106787 0 0)
(0.001197215499991404 0 0)
(0.001337902986494668 0 0)
(0.001476620429138303 0 0)
(0.001611758752335817 0 0)
(0.001741906081943842 0 0)
(0.00186477899973688 0 0)
(0.00197838416946247 0 0)
(0.002080011958834916 0 0)
(0.002167445561249442 0 0)
(0.002238010071141753 0 0)
(0.00228978376720594 0 0)
(0.002320637346378596 0 0)
(0.002329362104712396 0 0)
(0.002314640230482389 0 0)
(0.002276061703403118 0 0)
(0.002213094455600926 0 0)
(0.002126283410226708 0 0)
(0.002016952106205865 0 0)
(0.001889588836288754 0 0)
(0.001751492948287695 0 0)
(0.001610238986751545 0 0)
(0.001468573929415276 0 0)
(0.001327111810775127 0 0)
(0.001185939416819677 0 0)
(0.001045725856170567 0 0)
(0.0009072071167472635 0 0)
(0.0007717004948068766 0 0)
(0.0006406516100800181 0 0)
(0.0005160675482782647 0 0)
(0.00040002974114256 0 0)
(0.0002950597838789114 0 0)
(0.0002035859659054012 0 0)
(0.0001282535333915976 0 0)
(7.137196175881428e-05 0 0)
(3.521432737634624e-05 0 0)
(2.150604506533278e-05 0 0)
(3.179109210726346e-05 0 0)
(6.700240838856332e-05 0 0)
(0.0001277978721983295 0 0)
(0.0002138580485878255 0 0)
(0.0003234171822208785 0 0)
(0.0004513630883614573 0 0)
(0.0005894356332492254 0 0)
(0.0007302246099394909 0 0)
(0.0008712432688083271 0 0)
(0.001012082562960463 0 0)
(0.001152619688290267 0 0)
(0.001292129192034185 0 0)
(0.001429957716292084 0 0)
(0.001564725187664423 0 0)
(0.001695120862580016 0 0)
(0.001819122760300189 0 0)
(0.001934842147405274 0 0)
(0.002039787333902884 0 0)
(0.002131760535707568 0 0)
(0.00220815895929535 0 0)
(0.002266902070742651 0 0)
(0.002305719546781727 0 0)
(0.002323054315720422 0 0)
(0.00231728467731048 0 0)
(0.002287573083592636 0 0)
(0.002233060058853227 0 0)
(0.002153897863134738 0 0)
(0.002051047548073083 0 0)
(0.001928486681789922 0 0)
(0.001793332146264961 0 0)
(0.001653843292803414 0 0)
(0.001513693930003438 0 0)
(0.001373711202168823 0 0)
(0.001233921766898829 0 0)
(0.001094914746608989 0 0)
(0.0009572953232140798 0 0)
(0.0008222465118232966 0 0)
(0.000691030578671922 0 0)
(0.0005654892976451663 0 0)
(0.0004475065683462695 0 0)
(0.0003394692102768002 0 0)
(0.0002436756262084054 0 0)
(0.0001627622090630996 0 0)
(9.907368282897201e-05 0 0)
(5.507594728333831e-05 0 0)
(3.273442551271768e-05 0 0)
(3.397018082755783e-05 0 0)
(6.007909065201148e-05 0 0)
(0.0001121551931649498 0 0)
(0.0001902701099694231 0 0)
(0.0002931912160202524 0 0)
(0.0004163484190335592 0 0)
(0.0005516525791760607 0 0)
(0.0006907667970060431 0 0)
(0.0008303312036204051 0 0)
(0.0009697408676889715 0 0)
(0.001108951033523886 0 0)
(0.001247298854239608 0 0)
(0.001384262895817139 0 0)
(0.001518571947699306 0 0)
(0.001649086842070639 0 0)
(0.001773927317501821 0 0)
(0.001891381526688322 0 0)
(0.00199908507475624 0 0)
(0.002094956159902047 0 0)
(0.002176427607748917 0 0)
(0.002241392270827204 0 0)
(0.002287458052761973 0 0)
(0.00231286493260471 0 0)
(0.002315722978781342 0 0)
(0.002294870382332035 0 0)
(0.002249118434292242 0 0)
(0.002178238054858777 0 0)
(0.00208273094771291 0 0)
(0.001965878039359898 0 0)
(0.001834276069761449 0 0)
(0.001696700543993152 0 0)
(0.001558018397173783 0 0)
(0.00141945192484242 0 0)
(0.001280998260438641 0 0)
(0.001143173463010614 0 0)
(0.001006466064422072 0 0)
(0.0008719449016296738 0 0)
(0.000740716207107701 0 0)
(0.0006144744247086101 0 0)
(0.0004949339570147868 0 0)
(0.0003843414539742164 0 0)
(0.0002848707066086104 0 0)
(0.0001990992193063948 0 0)
(0.0001293699189717525 0 0)
(7.824366678243797e-05 0 0)
(4.785725846850745e-05 0 0)
(4.039437135015278e-05 0 0)
(5.745920412531604e-05 0 0)
(0.0001005101533703327 0 0)
(0.00017003380076488 0 0)
(0.0002653841623943722 0 0)
(0.0003827838911437056 0 0)
(0.0005146836442081215 0 0)
(0.0006519907680547719 0 0)
(0.0007901482934711443 0 0)
(0.0009281861470173549 0 0)
(0.001066102907497964 0 0)
(0.001203310326060997 0 0)
(0.001339390706166189 0 0)
(0.001473180339584005 0 0)
(0.001603682410752439 0 0)
(0.001729146031430267 0 0)
(0.001848016585460258 0 0)
(0.001958046533236554 0 0)
(0.002057278785649601 0 0)
(0.002143193621386622 0 0)
(0.002213712935942488 0 0)
(0.002266362506058106 0 0)
(0.002299274206816593 0 0)
(0.002310337919153673 0 0)
(0.002298171599857738 0 0)
(0.002261271792388953 0 0)
(0.002199094654854413 0 0)
(0.00211162766732975 0 0)
(0.0020014115554841 0 0)
(0.001874151782256499 0 0)
(0.001738820453407666 0 0)
(0.001601566172654322 0 0)
(0.001464361635027534 0 0)
(0.001327203833199984 0 0)
(0.001190537807055474 0 0)
(0.001054770599365107 0 0)
(0.0009208384757429952 0 0)
(0.0007897406802736539 0 0)
(0.0006630081811986418 0 0)
(0.0005422335682674141 0 0)
(0.0004295000299289405 0 0)
(0.0003268876263971399 0 0)
(0.0002368645157750488 0 0)
(0.0001617686628514424 0 0)
(0.0001041672744978006 0 0)
(6.633310362121797e-05 0 0)
(5.059846819360658e-05 0 0)
(5.883671985878744e-05 0 0)
(9.277363223898227e-05 0 0)
(0.0001533151229966948 0 0)
(0.00024036365752809 0 0)
(0.0003510795454729299 0 0)
(0.0004787624733548557 0 0)
(0.0006139710388349001 0 0)
(0.0007507029336983546 0 0)
(0.0008874015111288114 0 0)
(0.00102401184212721 0 0)
(0.001160088307281184 0 0)
(0.001295229535601485 0 0)
(0.001428452655124076 0 0)
(0.001558803526848584 0 0)
(0.001684731800831644 0 0)
(0.001804735761567955 0 0)
(0.00191676443277588 0 0)
(0.0020188918448683 0 0)
(0.002108748259588712 0 0)
(0.002184215456833782 0 0)
(0.002242874495985715 0 0)
(0.002282708356096807 0 0)
(0.002301546073932336 0 0)
(0.002297748125391067 0 0)
(0.002269652920677002 0 0)
(0.00221635112606121 0 0)
(0.002137453247008544 0 0)
(0.002034651578866232 0 0)
(0.001912657346688764 0 0)
(0.001780062204090547 0 0)
(0.001644328086738907 0 0)
(0.001508428148442598 0 0)
(0.001372552735537749 0 0)
(0.001237039036018364 0 0)
(0.001102247191535192 0 0)
(0.0009689709574779191 0 0)
(0.000838131386331559 0 0)
(0.0007110933843873111 0 0)
(0.0005893539632558536 0 0)
(0.0004748298421459279 0 0)
(0.0003695197388899256 0 0)
(0.0002757646414764226 0 0)
(0.0001958820424464075 0 0)
(0.0001324025573354508 0 0)
(8.768562828468385e-05 0 0)
(6.41463370606035e-05 0 0)
(6.38605842453628e-05 0 0)
(8.876000696613444e-05 0 0)
(0.000140109555081957 0 0)
(0.000218313325779626 0 0)
(0.0003214711688257388 0 0)
(0.0004440082940826314 0 0)
(0.0005766432989973513 0 0)
(0.0007119180717266655 0 0)
(0.0008473126645230461 0 0)
(0.0009826452144606188 0 0)
(0.001117593124020022 0 0)
(0.001251770727350921 0 0)
(0.001384364410513744 0 0)
(0.00151445487811516 0 0)
(0.001640679334975552 0 0)
(0.001761581677453423 0 0)
(0.001875298509373837 0 0)
(0.001979935335071322 0 0)
(0.002073275795762408 0 0)
(0.002153180250983394 0 0)
(0.002217311223200535 0 0)
(0.00226354325258272 0 0)
(0.002289687921697428 0 0)
(0.002293900257515052 0 0)
(0.002274408718780842 0 0)
(0.002229988515889195 0 0)
(0.002159927171349738 0 0)
(0.002065139302774724 0 0)
(0.001949288686690651 0 0)
(0.001820145302781812 0 0)
(0.001686148911419237 0 0)
(0.00155157026725168 0 0)
(0.001416997621400268 0 0)
(0.001282682542643467 0 0)
(0.001148917357016568 0 0)
(0.001016392596730255 0 0)
(0.0008859243224148253 0 0)
(0.0007587582697039001 0 0)
(0.0006362723227003435 0 0)
(0.0005202610187307254 0 0)
(0.0004126134986707661 0 0)
(0.0003155753315041235 0 0)
(0.0002313994365979097 0 0)
(0.000162583570945498 0 0)
(0.000111506273806617 0 0)
(8.064633281010029e-05 0 0)
(7.220340736619175e-05 0 0)
(8.827909026251233e-05 0 0)
(0.0001304102807343819 0 0)
(0.0001994481734192593 0 0)
(0.0002943406540940408 0 0)
(0.0004107642129042129 0 0)
(0.0005401256862621839 0 0)
(0.0006737940593520729 0 0)
(0.0008079056959032076 0 0)
(0.0009419944212060465 0 0)
(0.001075779119275625 0 0)
(0.001208990763253132 0 0)
(0.001340857281275678 0 0)
(0.001470612295528577 0 0)
(0.001596949605410188 0 0)
(0.00171857335975751 0 0)
(0.001833679709714124 0 0)
(0.001940522127905407 0 0)
(0.002036922282855387 0 0)
(0.002120845780045523 0 0)
(0.002189938879552697 0 0)
(0.002242110951174466 0 0)
(0.002275082157132481 0 0)
(0.002286957271297598 0 0)
(0.002275788894064855 0 0)
(0.002240198425717672 0 0)
(0.002179116811856183 0 0)
(0.002092884838854669 0 0)
(0.001984031318809077 0 0)
(0.001859229877037521 0 0)
(0.00172726098443903 0 0)
(0.001593994438782921 0 0)
(0.001460654557938761 0 0)
(0.001327505619619722 0 0)
(0.001194770272414675 0 0)
(0.001063032177031588 0 0)
(0.0009330310928445886 0 0)
(0.00080587738068942 0 0)
(0.000682860534183517 0 0)
(0.0005656337413115804 0 0)
(0.0004560012407114668 0 0)
(0.0003560842788514109 0 0)
(0.0002680828119527768 0 0)
(0.0001944231659830556 0 0)
(0.0001374954102944922 0 0)
(9.978663235453265e-05 0 0)
(8.359529663407336e-05 0 0)
(9.113952321724862e-05 0 0)
(0.0001241883945238295 0 0)
(0.0001839494564709666 0 0)
(0.0002701014244668395 0 0)
(0.0003795394077202597 0 0)
(0.0005047707878176079 0 0)
(0.0006365073297521807 0 0)
(0.0007692902407053664 0 0)
(0.0009020908660969728 0 0)
(0.001034691025877842 0 0)
(0.001166840208680661 0 0)
(0.001297920374266927 0 0)
(0.001427195139006533 0 0)
(0.001553524616205964 0 0)
(0.001675654223097476 0 0)
(0.001791942037155778 0 0)
(0.001900678244861632 0 0)
(0.001999823048645958 0 0)
(0.002087352973557471 0 0)
(0.0021610072919121 0 0)
(0.002218654020797879 0 0)
(0.002258037734822459 0 0)
(0.002277155969059645 0 0)
(0.002274010158672336 0 0)
(0.002247022065201384 0 0)
(0.002194905451950773 0 0)
(0.002117456343151497 0 0)
(0.002016283673682985 0 0)
(0.001896728950718639 0 0)
(0.001767367284825897 0 0)
(0.001635491703872522 0 0)
(0.001503410171599992 0 0)
(0.001371463771282977 0 0)
(0.001239800118670077 0 0)
(0.001108938877152527 0 0)
(0.0009794986796404115 0 0)
(0.0008525129844440818 0 0)
(0.0007291385386929476 0 0)
(0.0006109443767855584 0 0)
(0.0004996062450761645 0 0)
(0.0003971703157708494 0 0)
(0.0003057335070165111 0 0)
(0.0002276807424511567 0 0)
(0.0001653531136400033 0 0)
(0.0001212573274175127 0 0)
(9.772147163072502e-05 0 0)
(9.706818708396144e-05 0 0)
(0.0001212194171323221 0 0)
(0.0001716893039164514 0 0)
(0.0002487462971880479 0 0)
(0.0003504096766940127 0 0)
(0.0004705453734624006 0 0)
(0.0005998710433530099 0 0)
(0.0007312985488164263 0 0)
(0.0008628510297270107 0 0)
(0.0009942611492073559 0 0)
(0.001125351710164623 0 0)
(0.001255578793458402 0 0)
(0.001384306668107354 0 0)
(0.001510483501548943 0 0)
(0.001632961150043257 0 0)
(0.001750190533014817 0 0)
(0.001860560703929151 0 0)
(0.00196211260793661 0 0)
(0.002052893983018998 0 0)
(0.002130691768885088 0 0)
(0.002193398702866423 0 0)
(0.002238754555445737 0 0)
(0.002264718347260148 0 0)
(0.002269222404070847 0 0)
(0.002250571264385044 0 0)
(0.002207281109696614 0 0)
(0.002138747380425535 0 0)
(0.002045771772044043 0 0)
(0.001932390667922405 0 0)
(0.001806377817362967 0 0)
(0.001676099751542155 0 0)
(0.001545270785197814 0 0)
(0.001414531114548491 0 0)
(0.001283993481244155 0 0)
(0.001154061478037637 0 0)
(0.001025308444049457 0 0)
(0.0008986212370876794 0 0)
(0.0007750979735301986 0 0)
(0.0006561552273227489 0 0)
(0.0005434074449219051 0 0)
(0.0004387597538054836 0 0)
(0.0003442649665120549 0 0)
(0.000262200705689329 0 0)
(0.0001949037077067962 0 0)
(0.0001448295369469431 0 0)
(0.0001143641348916302 0 0)
(0.0001058589687421642 0 0)
(0.0001213917746691275 0 0)
(0.0001626762137341075 0 0)
(0.0002304848470127226 0 0)
(0.0003237611422920883 0 0)
(0.0004378289135883985 0 0)
(0.0005640308043098336 0 0)
(0.0006939654090947737 0 0)
(0.0008242795144662662 0 0)
(0.0009545104927927233 0 0)
(0.001084502110223217 0 0)
(0.001213834138744989 0 0)
(0.001341911842842774 0 0)
(0.001467826968276033 0 0)
(0.001590478657614993 0 0)
(0.001708464015797981 0 0)
(0.001820211470151539 0 0)
(0.001923897853733027 0 0)
(0.002017588761410814 0 0)
(0.00209918134962666 0 0)
(0.002166546775837281 0 0)
(0.002217493257267887 0 0)
(0.002249906232274089 0 0)
(0.002261731229693472 0 0)
(0.002251123147002404 0 0)
(0.002216502797947205 0 0)
(0.00215689153378533 0 0)
(0.002072497089311476 0 0)
(0.001966084955963438 0 0)
(0.001844306759617137 0 0)
(0.001715941956640968 0 0)
(0.001586381823558831 0 0)
(0.00145682440593057 0 0)
(0.001327414961087137 0 0)
(0.001198445818268989 0 0)
(0.001070435808157614 0 0)
(0.0009441463420523611 0 0)
(0.000820607846653376 0 0)
(0.0007011032196777786 0 0)
(0.0005871797946402135 0 0)
(0.0004806129175371484 0 0)
(0.0003834024979629529 0 0)
(0.0002977178272984394 0 0)
(0.0002258761798010819 0 0)
(0.0001702676089826145 0 0)
(0.0001333131452918186 0 0)
(0.0001173662585655005 0 0)
(0.0001246284379224016 0 0)
(0.0001569567559294735 0 0)
(0.0002155281480973538 0 0)
(0.000300029486609726 0 0)
(0.0004071622310326849 0 0)
(0.0005293598036221373 0 0)
(0.0006574780525797189 0 0)
(0.0007865093327291875 0 0)
(0.000915518578742805 0 0)
(0.001044357571581794 0 0)
(0.001172708143696669 0 0)
(0.001300034758367251 0 0)
(0.00142554498639872 0 0)
(0.001548208076859856 0 0)
(0.001666737529167649 0 0)
(0.001779630294603652 0 0)
(0.001885167428137902 0 0)
(0.00198146844528303 0 0)
(0.002066507400051442 0 0)
(0.002138179449743738 0 0)
(0.002194328698089953 0 0)
(0.002232823679424994 0 0)
(0.002251595215244572 0 0)
(0.002248727545608894 0 0)
(0.002222541811557979 0 0)
(0.002171823096308276 0 0)
(0.002096279559639095 0 0)
(0.001997614679051851 0 0)
(0.00188104515196917 0 0)
(0.001755057630123017 0 0)
(0.001626617832853996 0 0)
(0.001498018633193314 0 0)
(0.001369499413991813 0 0)
(0.001241258075398193 0 0)
(0.001113677904294683 0 0)
(0.0009873571928320098 0 0)
(0.0008631164559690311 0 0)
(0.0007419941183950972 0 0)
(0.0006252295564521653 0 0)
(0.0005142335407296742 0 0)
(0.000410545318739308 0 0)
(0.0003157754141554094 0 0)
(0.0002315327969179569 0 0)
(0.0001593330094009042 0 0)
(0.0001004762279279358 0 0)
(5.58619371230555e-05 0 0)
(2.565803872715695e-05 0 0)
(8.703967259763175e-06 0 0)
(1.806028849414815e-06 0 0)
(1.719269267569568e-07 0 0)
(5.177981363197801e-09 0 0)
(4.898747959600026e-11 0 0)
(1.670379679649648e-11 0 0)
(1.673149743401927e-11 0 0)
(1.682585379936608e-11 0 0)
(1.682757297631103e-11 0 0)
(1.69362436557872e-11 0 0)
(1.699128695897493e-11 0 0)
(1.706514088522338e-11 0 0)
(1.71276012740887e-11 0 0)
(1.719805788780544e-11 0 0)
(1.726768911418861e-11 0 0)
(1.730969038538892e-11 0 0)
(1.743195715520673e-11 0 0)
(1.736735349535187e-11 0 0)
(1.749936074779927e-11 0 0)
(1.754100404714604e-11 0 0)
(1.762509095233693e-11 0 0)
(1.769083921010365e-11 0 0)
(1.775622721593789e-11 0 0)
(1.781919834171858e-11 0 0)
(1.786210936305071e-11 0 0)
(1.799551202172036e-11 0 0)
(1.795149060360745e-11 0 0)
(1.808149366967171e-11 0 0)
(1.812756487568201e-11 0 0)
(1.819477010170352e-11 0 0)
(1.825737869547798e-11 0 0)
(1.83172762794532e-11 0 0)
(1.84284892431374e-11 0 0)
(1.842407501692673e-11 0 0)
(1.859119771249765e-11 0 0)
(1.853682931166406e-11 0 0)
(1.86761419260848e-11 0 0)
(1.872885043194133e-11 0 0)
(1.88024581100329e-11 0 0)
(1.888129856144926e-11 0 0)
(1.892239464266729e-11 0 0)
(1.906238215944567e-11 0 0)
(1.901993627351866e-11 0 0)
(1.91594677751888e-11 0 0)
(1.920750212622512e-11 0 0)
(1.928075639261075e-11 0 0)
(1.932266646079309e-11 0 0)
(1.938753688947965e-11 0 0)
(1.946197451506337e-11 0 0)
(1.953459720052565e-11 0 0)
(1.960416002464421e-11 0 0)
(1.965640339509114e-11 0 0)
(1.978626509647475e-11 0 0)
(1.974022353144838e-11 0 0)
(1.988558746630879e-11 0 0)
(1.993558040221561e-11 0 0)
(2.00184611474538e-11 0 0)
(2.008329965509024e-11 0 0)
(2.016214466665822e-11 0 0)
(2.022248914543632e-11 0 0)
(2.027556702352314e-11 0 0)
(2.042167882315463e-11 0 0)
(2.038053714042806e-11 0 0)
(2.051595310578337e-11 0 0)
(2.056825803826872e-11 0 0)
(2.063745605029748e-11 0 0)
(2.068562036563832e-11 0 0)
(2.074676287084831e-11 0 0)
(2.085804651687459e-11 0 0)
(2.087198689861956e-11 0 0)
(2.098025856487957e-11 0 0)
(2.104179552315584e-11 0 0)
(2.111288371779141e-11 0 0)
(2.117496333404752e-11 0 0)
(2.124363236855656e-11 0 0)
(2.131671106912819e-11 0 0)
(2.136444673026652e-11 0 0)
(2.149933827825194e-11 0 0)
(2.146228477093715e-11 0 0)
(2.16118189639273e-11 0 0)
(2.166345355421068e-11 0 0)
(2.175445592845862e-11 0 0)
(2.180972267905242e-11 0 0)
(2.18713052388386e-11 0 0)
(2.19370876977393e-11 0 0)
(2.198637837038276e-11 0 0)
(2.211791592727471e-11 0 0)
(2.208219170398988e-11 0 0)
(2.221922880303804e-11 0 0)
(2.227466427921959e-11 0 0)
(2.234897422057267e-11 0 0)
(2.241873313118304e-11 0 0)
(2.247114066706683e-11 0 0)
(2.256943700291649e-11 0 0)
(2.258281192593177e-11 0 0)
(2.267475597137651e-11 0 0)
(2.271896891583256e-11 0 0)
(2.278411979380726e-11 0 0)
(2.284518933660718e-11 0 0)
(2.292240865432569e-11 0 0)
(2.300226829950085e-11 0 0)
(2.305472371697132e-11 0 0)
(2.319918702199942e-11 0 0)
(2.316386409200644e-11 0 0)
(2.330880165273983e-11 0 0)
(2.336726050906484e-11 0 0)
(2.344277661036848e-11 0 0)
(2.351510972624498e-11 0 0)
(2.357987071130877e-11 0 0)
(2.366362472547635e-11 0 0)
(2.371155875318694e-11 0 0)
(2.385143226618813e-11 0 0)
(2.381954084985593e-11 0 0)
(2.396064332356032e-11 0 0)
(2.402089659932104e-11 0 0)
(2.408709631204022e-11 0 0)
(2.415353999284162e-11 0 0)
(2.421631047197565e-11 0 0)
(2.432185516791115e-11 0 0)
(2.433615808166372e-11 0 0)
(2.444267180969259e-11 0 0)
(2.449782455650975e-11 0 0)
(2.456944172867032e-11 0 0)
(2.46324516157347e-11 0 0)
(2.469003492305541e-11 0 0)
(2.475785120931954e-11 0 0)
(2.480302406557198e-11 0 0)
(2.494149077197584e-11 0 0)
(2.490551346030806e-11 0 0)
(2.505918599036703e-11 0 0)
(2.509682091694571e-11 0 0)
(2.516771986531714e-11 0 0)
(2.525227190591758e-11 0 0)
(2.532678249391685e-11 0 0)
(2.540614964277889e-11 0 0)
(2.545210456493494e-11 0 0)
(2.558642837411183e-11 0 0)
(2.555035073912273e-11 0 0)
(2.568385372111507e-11 0 0)
(2.574060252079414e-11 0 0)
(2.582424709133414e-11 0 0)
(2.589204741707307e-11 0 0)
(2.595055643505556e-11 0 0)
(2.605664834911701e-11 0 0)
(2.607618403619044e-11 0 0)
(2.617445301113723e-11 0 0)
(2.624013286663698e-11 0 0)
(2.631162007449421e-11 0 0)
(2.638028454885063e-11 0 0)
(2.645385574573724e-11 0 0)
(2.653093597885063e-11 0 0)
(2.657217798490045e-11 0 0)
(2.671291336644852e-11 0 0)
(2.667552240795707e-11 0 0)
(2.68177649194276e-11 0 0)
(2.686878844946969e-11 0 0)
(2.694894222438455e-11 0 0)
(2.701650314219374e-11 0 0)
(2.708485296613118e-11 0 0)
(2.715893033978122e-11 0 0)
(2.721307757328913e-11 0 0)
(2.735036548064629e-11 0 0)
(2.732123751584915e-11 0 0)
(2.745486134184463e-11 0 0)
(2.75064229697093e-11 0 0)
(2.758680247210164e-11 0 0)
(2.766556768102757e-11 0 0)
(2.77193957039627e-11 0 0)
(2.784619298384347e-11 0 0)
(2.780127321597269e-11 0 0)
(2.794845209095143e-11 0 0)
(2.797542766445802e-11 0 0)
(2.811038305455808e-11 0 0)
(2.807036772913606e-11 0 0)
(2.820956861986174e-11 0 0)
(2.82629246671633e-11 0 0)
(2.833393077908468e-11 0 0)
(2.840247440943866e-11 0 0)
(2.846149644441591e-11 0 0)
(2.859446588873663e-11 0 0)
(2.855784103561841e-11 0 0)
(2.870279683695791e-11 0 0)
(2.876172994899022e-11 0 0)
(2.882909478030191e-11 0 0)
(2.890074843367142e-11 0 0)
(2.897432647078197e-11 0 0)
(2.903995844469429e-11 0 0)
(2.909802740810279e-11 0 0)
(2.922988645564413e-11 0 0)
(2.919864258075898e-11 0 0)
(2.933510510077716e-11 0 0)
(2.938634067784591e-11 0 0)
(2.946738596229175e-11 0 0)
(2.953737516053029e-11 0 0)
(2.961352740290302e-11 0 0)
(2.969454304637042e-11 0 0)
(2.974905053181102e-11 0 0)
(2.987899431591279e-11 0 0)
(2.984549088618269e-11 0 0)
(2.99823090979875e-11 0 0)
(3.00413174525094e-11 0 0)
(3.011851396947396e-11 0 0)
(3.01934030500075e-11 0 0)
(3.025213779546865e-11 0 0)
(3.039892905760636e-11 0 0)
(3.036759853985216e-11 0 0)
(3.05109651285523e-11 0 0)
(3.056799665759812e-11 0 0)
(3.065958729133666e-11 0 0)
(3.073403403722134e-11 0 0)
(3.080499910778315e-11 0 0)
(3.089209115251263e-11 0 0)
(3.09520434583036e-11 0 0)
(3.109694225775776e-11 0 0)
(3.106639836605777e-11 0 0)
(3.122785507395344e-11 0 0)
(3.128565954860252e-11 0 0)
(3.137311868549363e-11 0 0)
(3.14541708101665e-11 0 0)
(3.154171887000024e-11 0 0)
(3.162342309627665e-11 0 0)
(3.167773221514626e-11 0 0)
(3.183332000864959e-11 0 0)
(3.180091329524596e-11 0 0)
(3.195899549137272e-11 0 0)
(3.202667725318254e-11 0 0)
(3.210806226888247e-11 0 0)
(3.219640835514859e-11 0 0)
(3.226541484083922e-11 0 0)
(3.24303646244382e-11 0 0)
(3.239954256352478e-11 0 0)
(3.255718242499824e-11 0 0)
(3.262906864607127e-11 0 0)
(3.272083940577557e-11 0 0)
)
;

boundaryField
{
    inlet
    {
        type            calculated;
        value           uniform (0.002383593106376028 0 0);
    }
    outlet
    {
        type            calculated;
        value           uniform (3.275269149796454e-11 0 0);
    }
    frontAndBack
    {
        type            empty;
    }
}


// ************************************************************************* //
