/*--------------------------------*- C++ -*----------------------------------*\
| =========                 |                                                 |
| \\      /  F ield         | OpenFOAM: The Open Source CFD Toolbox           |
|  \\    /   O peration     | Version:  v2012                                 |
|   \\  /    A nd           | Website:  www.openfoam.com                      |
|    \\/     M anipulation  |                                                 |
\*---------------------------------------------------------------------------*/
FoamFile
{
    version     2.0;
    format      ascii;
    class       volScalarField;
    location    "0.005";
    object      pMean;
}
// * * * * * * * * * * * * * * * * * * * * * * * * * * * * * * * * * * * * * //

dimensions      [1 -1 -2 0 0 0 0];


internalField   nonuniform List<scalar> 
1000
(
101325.0111656677
101325.0007060241
101325.0188692554
101325.0603674931
101325.0906797374
101325.1346528495
101325.1772585674
101325.2513326439
101325.3168203237
101325.3740672596
101325.4465230029
101325.5254229991
101325.5908467382
101325.666234335
101325.7366639662
101325.8007444756
101325.8511543951
101325.9202673033
101325.9794300911
101325.9996865081
101326.0289932793
101326.0568935799
101326.0574718334
101326.0594777559
101326.0603861922
101326.0602303615
101326.0331175279
101325.9938396349
101325.9396924836
101325.8830176367
101325.8255395874
101325.7559376691
101325.6840164965
101325.6255135973
101325.5557803548
101325.4868608926
101325.4069630724
101325.3385716636
101325.2602191327
101325.1866638667
101325.1390056903
101325.1041663093
101325.0554730929
101325.0197271289
101324.9952575162
101324.9690341962
101324.9692017299
101324.9820426469
101325.013535104
101325.0309270814
101325.0597701413
101325.0981204345
101325.1584025348
101325.2260605799
101325.2877992893
101325.3610939004
101325.4387163302
101325.4916618777
101325.5693861135
101325.6416505379
101325.7083953281
101325.7827141208
101325.8557932927
101325.9231749742
101325.9727760048
101326.0105729668
101326.0347941724
101326.0473530997
101326.0715182038
101326.0873008423
101326.0962441825
101326.0998371066
101326.07108245
101326.0168138888
101325.9580919545
101325.90221002
101325.8418914676
101325.7785877716
101325.7198112412
101325.6516164703
101325.5737052589
101325.5014550173
101325.4217177693
101325.3453785166
101325.2716333243
101325.2023064537
101325.1417242575
101325.0907773345
101325.0462648052
101325.0044540367
101324.9687826766
101324.9406011626
101324.9235976731
101324.9246383495
101324.9413893469
101324.9700554259
101325.0067155939
101325.059306305
101325.1216802224
101325.191256828
101325.2589232269
101325.3266340465
101325.3978993869
101325.4674693552
101325.5375740746
101325.6117797722
101325.6872814001
101325.7598423468
101325.8320764563
101325.9048000535
101325.9694554192
101326.0236427274
101326.0660210185
101326.0985701305
101326.1215975383
101326.1386027102
101326.1458128715
101326.141843792
101326.120705875
101326.0801884344
101326.0206610116
101325.950297423
101325.8792179175
101325.8072371675
101325.7351667296
101325.6632287897
101325.5909984742
101325.5192743935
101325.4469182924
101325.3747069049
101325.3029289984
101325.2299932359
101325.1583639615
101325.087274299
101325.0198052941
101324.9595459781
101324.9113808484
101324.8779066356
101324.8608234626
101324.8536321357
101324.8577237326
101324.8755158238
101324.915948431
101324.9817809951
101325.0582139085
101325.1342393949
101325.2116512511
101325.2879643466
101325.3654633351
101325.4417723264
101325.5195364712
101325.5955101312
101325.672242765
101325.7456181226
101325.8183936778
101325.8854161217
101325.9491814227
101326.0079976017
101326.0648268365
101326.1173426565
101326.1670467493
101326.2054856039
101326.2251073225
101326.2036983263
101326.1487176617
101326.0825188016
101326.0183325996
101325.9514277148
101325.8869766802
101325.8198681804
101325.7548839633
101325.6855627474
101325.6155775247
101325.5385990544
101325.4639734052
101325.386028323
101325.3114711637
101325.2336820189
101325.1596684602
101325.083356059
101325.0136639916
101324.9478786325
101324.8960980846
101324.8558187807
101324.8294152289
101324.8115128387
101324.8100619113
101324.834321096
101324.8941123036
101324.9682116772
101325.0459316826
101325.1214513456
101325.1992971469
101325.274545421
101325.3525127334
101325.427514307
101325.5053073878
101325.5802981533
101325.657537416
101325.7321048434
101325.8078386837
101325.8807059495
101325.953527762
101326.023369548
101326.0921037022
101326.1576530374
101326.2200900399
101326.2738515194
101326.3069764312
101326.2955382204
101326.2364437004
101326.1620124475
101326.0861568272
101326.0109195565
101325.9347692724
101325.8598199037
101325.7834320756
101325.7087859039
101325.6322044309
101325.5579257988
101325.4813742491
101325.4075347985
101325.3315767963
101325.2590296542
101325.1852911588
101325.1157672918
101325.0451796131
101324.9782016401
101324.9100138575
101324.8464495482
101324.78593562
101324.7446515481
101324.7414327585
101324.7942271588
101324.8676301705
101324.9457842449
101325.0214446417
101325.0994384938
101325.1753393605
101325.2530078898
101325.329482077
101325.4068232898
101325.4836022533
101325.5604947354
101325.6376677906
101325.7139607818
101325.790879293
101325.8653692338
101325.9411453718
101326.0120072609
101326.0846784266
101326.1513466583
101326.2192463349
101326.276218754
101326.3198017067
101326.3194813117
101326.2694865271
101326.1936621834
101326.1180087546
101326.0403927847
101325.9643602467
101325.8874826498
101325.8106583346
101325.7352671521
101325.6586102434
101325.5843893213
101325.5066499212
101325.4342578185
101325.3583664699
101325.2878358275
101325.2121730813
101325.1444797367
101325.0743548544
101325.0109604287
101324.944447724
101324.8838039231
101324.824723922
101324.7757464444
101324.7576690877
101324.791756025
101324.8628621451
101324.9384725121
101325.0157885069
101325.0913327732
101325.1682539416
101325.2437399058
101325.31915673
101325.3940091526
101325.4686932745
101325.5436491258
101325.6170823671
101325.6906733395
101325.7630744719
101325.8350245718
101325.9017248893
101325.9687089348
101326.0327235825
101326.0994154202
101326.1599128881
101326.2202139728
101326.2744344912
101326.2964663199
101326.2722374413
101326.2018384256
101326.1297036952
101326.0509242989
101325.9782178604
101325.9003440504
101325.8283531799
101325.750945158
101325.6790809793
101325.6029780975
101325.53196475
101325.4564951984
101325.3854370725
101325.3119043014
101325.2431993658
101325.1718784621
101325.105436834
101325.0373552965
101324.9731446452
101324.906822905
101324.8446857859
101324.7928624082
101324.7627296108
101324.788391529
101324.8514084945
101324.9284402462
101325.0011759314
101325.0783465473
101325.1513017582
101325.2277639482
101325.299548294
101325.3749276529
101325.4465577799
101325.5214134583
101325.5918201018
101325.6651286409
101325.7352098612
101325.8077223533
101325.8760542991
101325.9463920493
101326.0139522281
101326.0836757208
101326.1491435178
101326.2133452616
101326.2710946615
101326.3028096485
101326.2891123184
101326.2253166527
101326.1521441173
101326.0746917913
101326.0006385271
101325.9236970707
101325.8504987078
101325.7742927506
101325.7025620109
101325.6281487317
101325.5574337263
101325.4833181254
101325.4125663664
101325.3392287169
101325.269571933
101325.1966161771
101325.1270584497
101325.0552946419
101324.9876660854
101324.9171929852
101324.8515833762
101324.7935005989
101324.755961941
101324.77004565
101324.8298513823
101324.9057687028
101324.9799139053
101325.0565077746
101325.1306239603
101325.2068168947
101325.2795665461
101325.3541860518
101325.4256082142
101325.4994860659
101325.5704198361
101325.6437609614
101325.7146090311
101325.7880413611
101325.8580594237
101325.9302563714
101325.9998680255
101326.0720421561
101326.139623859
101326.2069076108
101326.2681585545
101326.3065499729
101326.3010147706
101326.242199692
101326.1698852146
101326.0935469852
101326.0200683056
101325.9440389648
101325.871170643
101325.7956975996
101325.724280608
101325.6504553344
101325.5799414861
101325.506280919
101325.4356955303
101325.3624923263
101325.2926231961
101325.2194891779
101325.1496491079
101325.0776846011
101325.0095021648
101324.9382667768
101324.8718612841
101324.8107919799
101324.7660418669
101324.7672356257
101324.8187839191
101324.8926203216
101324.9656995429
101325.0411316279
101325.1142771616
101325.1893763887
101325.2614608865
101325.3353656105
101325.406260696
101325.479414961
101325.5499341691
101325.6227822771
101325.6934153485
101325.7663300569
101325.8361145582
101325.9080565376
101325.977745925
101326.0495308445
101326.1171357045
101326.1852206831
101326.2486868011
101326.2947198751
101326.3042679528
101326.2565785762
101326.1867115225
101326.1112592892
101326.0387335223
101325.9634648543
101325.8913202533
101325.816479604
101325.7456649276
101325.6723727341
101325.602405217
101325.529177786
101325.4590631503
101325.3862761315
101325.3166260712
101325.2436894605
101325.1742350614
101325.1026325851
101325.0344213016
101324.962990814
101324.8965494457
101324.8330998717
101324.781256016
101324.7668850851
101324.8049671036
101324.8757635338
101324.9481997466
101325.0230807922
101325.0957036939
101325.1702605115
101325.2420055257
101325.315576949
101325.3860779813
101325.4586868997
101325.5288105469
101325.6013994719
101325.6718123492
101325.7443166108
101325.8138997545
101325.8857930614
101325.9554903817
101326.0269107515
101326.0945586644
101326.1635184985
101326.2285121139
101326.2811300102
101326.3059136588
101326.2737482294
101326.2078903478
101326.1327837426
101326.060492714
101325.9853692868
101325.9132977619
101325.8385466844
101325.7678323954
101325.6947304424
101325.6250699547
101325.5521756293
101325.4824815671
101325.4099233732
101325.3404080077
101325.2675924588
101325.198525649
101325.126996456
101325.0586702158
101324.9870425817
101324.9206466724
101324.8551846841
101324.7979978853
101324.7692839699
101324.79033775
101324.8556382187
101324.9278790462
101325.0027198869
101325.0754287111
101325.1499598239
101325.2218876332
101325.2955380524
101325.365937232
101325.4382279341
101325.5080670217
101325.5804416145
101325.6506101857
101325.7227381685
101325.7921545191
101325.8640274158
101325.9335862825
101326.004616364
101326.0723264572
101326.1420105032
101326.2077839959
101326.2652927785
101326.3027657863
101326.2886296743
101326.2301416425
101326.1556733086
101326.083360777
101326.0082762104
101325.9359958097
101325.8612931362
101325.790306781
101325.717189712
101325.6474776656
101325.5749055272
101325.5053341979
101325.4329792515
101325.3633194994
101325.2907544618
101325.2218139879
101325.1503890287
101325.081714443
101325.0102689103
101324.9437295166
101324.8769021804
101324.8159221843
101324.7760186846
101324.7785916752
101324.8347417999
101324.9061591932
101324.9813729366
101325.0541563225
101325.1290836399
101325.201259788
101325.2754231097
101325.3457834365
101325.418102312
101325.4876431594
101325.5600343714
101325.6298592412
101325.7019258014
101325.7711967734
101325.8433409023
101325.912577956
101325.9834803208
101326.0511965869
101326.1216234268
101326.1875774814
101326.2487613502
101326.2960750905
101326.3006322429
101326.2539288094
101326.1806835428
101326.1077108211
101326.0321004825
101325.9590545458
101325.8838190692
101325.8121450746
101325.738658948
101325.6690232511
101325.5967619226
101325.5275257388
101325.4553375618
101325.3858650253
101325.3135606291
101325.2449431422
101325.1734437205
101325.1047654878
101325.0335775372
101324.9671176912
101324.899122763
101324.8359312438
101324.7872857765
101324.7719957211
101324.8139580317
101324.8833189601
101324.9589362913
101325.032158892
101325.107634982
101325.1803695556
101325.2551740561
101325.3257614575
101325.3981651881
101325.4674098414
101325.5396906286
101325.6090386698
101325.6810369523
101325.7500941571
101325.8223507578
101325.8911369335
101325.9621144795
101326.0298940017
101326.1008723461
101326.1668226347
101326.2307060542
101326.2848163341
101326.3059200769
101326.2751667508
101326.2056371021
101326.132211703
101326.0562290582
101325.9825762859
101325.9069100281
101325.8345026833
101325.7604541297
101325.6906934481
101325.6186307786
101325.5495921307
101325.4775398636
101325.4082289662
101325.3362406547
101325.2677167346
101325.196104835
101325.1274499744
101325.0565211997
101324.9899299226
101324.9208194427
101324.8564691761
101324.8014311266
101324.770839961
101324.7946599382
101324.8590270345
101324.9351876549
101325.0093179901
101325.0857851763
101325.1596835145
101325.2356322158
101325.3072481867
101325.3801361593
101325.449180103
101325.5211068031
101325.5899406177
101325.6616274545
101325.7304148333
101325.802499837
101325.8705819446
101325.9415217351
101326.0090344194
101326.0801628462
101326.1454998408
101326.2116250039
101326.2702998776
101326.3076870762
101326.2983726664
101326.2386648812
101326.1640635271
101326.0882327735
101326.012695834
101325.9370150689
101325.8617423423
101325.7868235977
101325.7127059915
101325.639242256
101325.5665587175
101325.4947081281
101325.4242049079
101325.3555843237
101325.2891232864
101325.2245102131
101325.1616975518
101325.1017898446
101325.0490393496
101325.0133811557
101325.0011673642
101325.0000141896
101325.0000000098
101325.0000000009
101325.0000000009
101325.000000001
101325.000000001
101325.000000001
101325.0000000009
101325.000000001
101325.000000001
101325.000000001
101325.000000001
101325.000000001
101325.000000001
101325.000000001
101325.000000001
101325.000000001
101325.000000001
101325.000000001
101325.000000001
101325.000000001
101325.000000001
101325.000000001
101325.000000001
101325.000000001
101325.000000001
101325.000000001
101325.000000001
101325.000000001
101325.000000001
101325.0000000011
101325.0000000011
101325.0000000011
101325.0000000011
101325.0000000011
101325.0000000011
101325.0000000011
101325.0000000011
101325.0000000011
101325.0000000011
101325.0000000011
101325.0000000011
101325.0000000011
101325.0000000011
101325.0000000011
101325.0000000011
101325.0000000011
101325.0000000011
101325.0000000011
101325.0000000011
101325.0000000011
101325.0000000011
101325.0000000011
101325.0000000011
101325.0000000011
101325.0000000011
101325.0000000011
101325.0000000011
101325.0000000011
101325.0000000011
101325.0000000011
101325.0000000011
101325.0000000011
101325.0000000011
101325.0000000011
101325.0000000011
101325.0000000011
101325.0000000011
101325.0000000011
101325.0000000011
101325.0000000011
101325.0000000011
101325.0000000011
101325.0000000011
101325.0000000011
101325.0000000011
101325.0000000011
101325.000000001
101325.0000000011
101325.0000000011
101325.0000000011
101325.0000000011
101325.0000000011
101325.0000000011
101325.0000000011
101325.0000000011
101325.0000000011
101325.0000000011
101325.0000000011
101325.0000000011
101325.0000000011
101325.0000000011
101325.0000000011
101325.0000000011
101325.0000000011
101325.0000000011
101325.0000000011
101325.0000000011
101325.0000000012
101325.0000000012
101325.0000000011
101325.0000000012
101325.0000000012
101325.0000000012
101325.0000000011
101325.0000000011
101325.0000000012
101325.0000000012
101325.0000000012
101325.0000000012
101325.0000000012
101325.0000000012
101325.0000000012
101325.0000000012
101325.0000000012
101325.0000000012
101325.0000000012
101325.0000000012
101325.0000000012
101325.0000000012
101325.0000000012
101325.0000000012
101325.0000000012
101325.0000000012
101325.0000000012
101325.0000000012
101325.0000000012
101325.0000000012
101325.0000000012
101325.0000000012
101325.0000000011
101325.0000000011
101325.0000000012
101325.0000000012
101325.0000000012
101325.0000000012
101325.0000000012
101325.0000000012
101325.0000000012
101325.0000000012
101325.0000000012
101325.0000000012
101325.0000000012
101325.0000000012
101325.0000000012
101325.0000000012
101325.0000000012
101325.0000000012
101325.0000000012
101325.0000000012
101325.0000000013
101325.0000000013
101325.0000000012
101325.0000000012
101325.0000000012
101325.0000000012
101325.0000000012
101325.0000000012
101325.0000000012
101325.0000000012
101325.0000000012
101325.0000000012
101325.0000000012
101325.0000000012
101325.0000000012
101325.0000000012
101325.0000000012
101325.0000000012
101325.0000000012
101325.0000000012
101325.0000000012
101325.0000000012
101325.0000000012
101325.0000000012
101325.0000000012
101325.0000000013
101325.0000000013
101325.0000000012
101325.0000000012
101325.0000000012
101325.0000000012
101325.0000000012
101325.0000000013
101325.0000000012
101325.0000000012
101325.0000000012
101325.0000000012
101325.0000000013
101325.0000000013
101325.0000000012
101325.0000000013
101325.0000000013
101325.0000000013
101325.0000000013
101325.0000000013
101325.0000000013
101325.0000000013
101325.0000000013
101325.0000000013
101325.0000000013
101325.0000000014
101325.0000000014
101325.0000000013
101325.0000000013
101325.0000000013
101325.0000000013
101325.0000000013
101325.0000000013
101325.0000000013
101325.0000000013
101325.0000000014
101325.0000000013
101325.0000000014
101325.0000000013
101325.0000000013
101325.0000000013
101325.0000000014
101325.0000000014
101325.0000000013
101325.0000000014
101325.0000000014
101325.0000000014
101325.0000000014
101325.0000000014
101325.0000000014
101325.0000000014
101325.0000000014
101325.0000000014
101325.0000000014
101325.0000000014
101325.0000000014
101325.0000000014
101325.0000000014
101325.0000000014
101325.0000000014
101325.0000000014
101325.0000000014
101325.0000000014
101325.0000000014
101325.0000000014
101325.0000000014
101325.0000000014
101325.0000000014
101325.0000000014
101325.0000000013
101325.0000000014
101325.0000000014
101325.0000000014
101325.0000000014
101325.0000000014
101325.0000000014
101325.0000000014
101325.0000000014
101325.0000000014
101325.0000000014
101325.0000000014
101325.0000000014
101325.0000000014
101325.0000000014
101325.0000000014
101325.0000000014
101325.0000000014
101325.0000000014
101325.0000000014
101325.0000000014
101325.0000000014
101325.0000000014
101325.0000000014
101325.0000000014
101325.0000000014
101325.0000000014
101325.0000000014
101325.0000000014
101325.0000000014
101325.0000000014
101325.0000000014
101325.0000000014
101325.0000000014
101325.0000000014
101325.0000000014
101325.0000000014
101325.0000000014
101325.0000000014
101325.0000000014
101325.0000000014
101325.0000000014
101325.0000000014
101325.0000000014
101325.0000000014
101325.0000000014
101325.0000000015
101325.0000000015
101325.0000000015
101325.0000000015
101325.0000000015
101325.0000000015
101325.0000000015
101325.0000000015
101325.0000000015
101325.0000000015
101325.0000000015
101325.0000000015
101325.0000000015
101325.0000000015
101325.0000000015
101325.0000000015
101325.0000000014
)
;

boundaryField
{
    inlet
    {
        type            calculated;
        value           uniform 101324.9999999997;
    }
    outlet
    {
        type            calculated;
        value           uniform 101325.0000000014;
    }
    frontAndBack
    {
        type            empty;
    }
}


// ************************************************************************* //
