/*--------------------------------*- C++ -*----------------------------------*\
| =========                 |                                                 |
| \\      /  F ield         | OpenFOAM: The Open Source CFD Toolbox           |
|  \\    /   O peration     | Version:  v2012                                 |
|   \\  /    A nd           | Website:  www.openfoam.com                      |
|    \\/     M anipulation  |                                                 |
\*---------------------------------------------------------------------------*/
FoamFile
{
    version     2.0;
    format      ascii;
    class       volScalarField;
    location    "0.005";
    object      rho;
}
// * * * * * * * * * * * * * * * * * * * * * * * * * * * * * * * * * * * * * //

dimensions      [1 -3 0 0 0 0 0];


internalField   nonuniform List<scalar> 
1000
(
1.176300227989027
1.176276782257875
1.176236290112396
1.176239351338947
1.176229220402781
1.176179135770245
1.176082225670073
1.176003355555298
1.175964402619944
1.175975741284025
1.176017957138178
1.176059859959861
1.17606062806967
1.176034658156367
1.175986123111654
1.175971390639752
1.176008031420222
1.176095705119205
1.17621814222642
1.176315036941319
1.176348705009035
1.176340296120702
1.176328234014149
1.176340049944825
1.176392394527014
1.176501217507224
1.176650888303798
1.176751831813595
1.176774596864174
1.176759827531624
1.176739717185523
1.17674249029864
1.176769987984239
1.176820126069266
1.17686446784203
1.176879707401572
1.176857409867452
1.17680776811795
1.176761499295826
1.176718597213479
1.176690265662067
1.17667793780059
1.17665972108169
1.176614687447926
1.176537946955854
1.176425158924538
1.176332075147851
1.176304287795725
1.176298532814055
1.176275353198224
1.176214442299068
1.176109024632464
1.176022743005111
1.176010694132794
1.176015913081925
1.176024661622373
1.176025870730401
1.176015514900059
1.176003626512342
1.175993942721696
1.175992014332917
1.175993462199329
1.17601256708657
1.176067667020629
1.176172427981034
1.176267393915906
1.176296682287898
1.176305039973567
1.176315860041885
1.176332526429377
1.176376316304125
1.176495918937843
1.176666514502655
1.176744361013723
1.176755005094433
1.176759062953324
1.17675927221214
1.176762255818683
1.176782180464976
1.17682391073651
1.1768525123987
1.176857075012243
1.176853814180075
1.17684854461654
1.176830480117328
1.17678732777026
1.176724483693721
1.176674494558767
1.176647253820146
1.176627490272838
1.176599072196606
1.176540884329929
1.176443258977224
1.176338315622149
1.176264069937302
1.176208815562044
1.176143949580736
1.176065345003299
1.176020929853292
1.176014280495181
1.176013871257932
1.176014757636839
1.176012330211698
1.176004463734949
1.175991874094936
1.175986833885125
1.175987363458789
1.175988396263794
1.175995775511721
1.176019380324025
1.176070748905478
1.176146828032205
1.17621790929319
1.17626574935874
1.176302792699863
1.176346858403968
1.176410684123826
1.176497815636636
1.176605070849236
1.17672187050743
1.176803230257753
1.176823208844116
1.176824461379724
1.176824302094398
1.176823467235589
1.176823118702182
1.176823724615882
1.176825346723223
1.176827062631922
1.176827923429154
1.176827275766348
1.176825201360039
1.17682028229628
1.176806990516195
1.176775936027458
1.176716736754832
1.176629452284123
1.176536366320986
1.176462003926718
1.176403146669823
1.176336833147588
1.176230264194126
1.176076899715721
1.175981069045501
1.175967015735569
1.175966252416129
1.17596597138781
1.175966557714143
1.175967467360938
1.175968506505142
1.175969468087588
1.175971968078633
1.175978466095849
1.175991956245606
1.176014037901887
1.176041403722264
1.176066350814729
1.176085700668758
1.176102769030063
1.176123474758607
1.176160630165966
1.176246230557528
1.176433456744467
1.176680617272185
1.176784717657819
1.17679289923228
1.176793394850002
1.176792995770297
1.176792687016089
1.176795137174995
1.176800406916982
1.176816906467345
1.176841534914472
1.176852097513714
1.176853068371229
1.176853231227737
1.176853078742082
1.176851218881483
1.176846251837551
1.17683354703885
1.176803812698699
1.176745973798374
1.176664599215087
1.176587943926247
1.176527365438175
1.176459988647035
1.176340563155642
1.176141697142004
1.1759957435916
1.175971747605003
1.175971344819536
1.17597143505761
1.175971551234283
1.175971557278692
1.175971617274272
1.17597190187529
1.175972554945711
1.17597371415801
1.17597572625642
1.175979225443369
1.175984917525558
1.175993157378259
1.176003536507291
1.176015140563525
1.176028015840044
1.176045328243261
1.176077839727255
1.17615776150914
1.176355913594021
1.17666685420757
1.176831257125375
1.176847102690764
1.176847269256085
1.176847216333332
1.176847105083248
1.176847073868786
1.176847042158825
1.176846812807785
1.17684639401631
1.176845970823713
1.176845070854259
1.176842807368663
1.176838664903863
1.176832006084906
1.176822672506441
1.176812935849736
1.176805255191502
1.176798936779641
1.176790278035732
1.176769313009545
1.176710209647744
1.176541811146437
1.176223246891815
1.176000111751935
1.175968340956747
1.175967884710481
1.17596797046858
1.175967882714154
1.175967960977933
1.175968394686515
1.175968883547077
1.175968866377314
1.175969005631245
1.175969722838479
1.175970926844791
1.17597222480743
1.175975851230957
1.175982566114102
1.175991290812702
1.176001262279231
1.176012889158261
1.176028244265608
1.176053745099975
1.176117272699072
1.176289620003319
1.176602761269256
1.176821101923007
1.176853273125722
1.176854915094844
1.176856534398031
1.176854127705349
1.176850875092016
1.17685032444581
1.176852392332948
1.176849824878569
1.17684409196575
1.176841162113553
1.176843622008395
1.176838219689747
1.176828379993355
1.176819751609875
1.176811277147796
1.176796533664396
1.176780808861772
1.176769210393091
1.176763462727488
1.176726810701116
1.176613758056909
1.176340377978585
1.176050676302284
1.175974740551828
1.175970854300852
1.175969402229053
1.175972211809648
1.175975908934889
1.175976910096911
1.175977659663229
1.175980932021256
1.175984827936111
1.175985627791915
1.17598378015736
1.17599026925597
1.176003699272779
1.176012219003645
1.176022971463884
1.176034980148267
1.176045753094009
1.176047396485125
1.176046692467463
1.176086410200418
1.176174681276673
1.176433772787908
1.176745895953657
1.176843334284474
1.176847412287566
1.176846600426472
1.176847046179041
1.176846153449534
1.176842731878947
1.176839097926908
1.176838970132285
1.176839329637915
1.176835320419885
1.176830009152288
1.176828577137236
1.176826463199717
1.176815623816421
1.176802328839628
1.176796870289257
1.176798044656684
1.176791381844094
1.17677292008015
1.176753457410752
1.176653125214379
1.176410878031716
1.176098213041838
1.175986169599651
1.175978362052883
1.175977032341011
1.175980419296335
1.175983850997564
1.175983835668387
1.175984879975986
1.175988865661454
1.175993198912629
1.175993152369447
1.17599327761496
1.175998708152992
1.176005356614855
1.176006883632744
1.176007668041002
1.176013659085865
1.17602097139257
1.176024315691315
1.176029236549266
1.176063824537156
1.176142601250733
1.176367148655291
1.176693927502937
1.176836972207091
1.176847359681038
1.176847001277271
1.176847021486754
1.176845742817545
1.176841088543306
1.176835385269028
1.176832089809981
1.176831139055945
1.176829129017763
1.176826328539904
1.176825949989164
1.176826993189789
1.176823478395584
1.176818228934469
1.17681652504545
1.176818594222208
1.176812006641944
1.176795460233865
1.176779093606192
1.176693660009435
1.176472749909172
1.176141174219833
1.175989866672078
1.175977260653569
1.17597634311459
1.175977898364009
1.175980471997993
1.17598218112688
1.175986905934186
1.175992641248162
1.175995078014626
1.175995185134282
1.175994157173149
1.175996032133111
1.175999203969924
1.175999703892959
1.175998286880283
1.176002100086496
1.176008301455074
1.176010835029363
1.176014429067164
1.176045024935169
1.176113226216688
1.176319719344145
1.176653115305343
1.176826493462323
1.176842514101581
1.17684256400826
1.176842751064938
1.176841690854328
1.176837953603014
1.176833308063483
1.176829663396799
1.176828138468046
1.176826770876279
1.176825175497979
1.176825633085223
1.176826802190618
1.176823792320657
1.176819504764409
1.17681926700325
1.176820819764832
1.176814151788696
1.17680028768977
1.176789528539145
1.176721738918953
1.176538837298575
1.176210318833833
1.176008371749181
1.17598392629935
1.17598312540586
1.175984282216416
1.175985894486588
1.175987043404333
1.175991194932537
1.175996373642564
1.175998320819708
1.17599788762292
1.175997144761448
1.175998935701729
1.176001237565601
1.176000408041066
1.175999909360654
1.176004146791906
1.176009606625144
1.176009512806125
1.176013379256458
1.17603814100775
1.176085285828522
1.176247204610917
1.176564502427966
1.176800225470922
1.17683674202494
1.17683760620433
1.176838071598028
1.176837030959403
1.176833930469268
1.176830454106934
1.176826672248148
1.176824546359103
1.176823412483894
1.176822938777329
1.176824247727433
1.176824412179867
1.176821193470034
1.176817931661673
1.176819565485108
1.176819137979124
1.176812284983201
1.176802115507516
1.176796363974861
1.176746275660714
1.176610675593203
1.17631059815605
1.176042795515227
1.175988286123959
1.175986681490094
1.175987545386596
1.175988529564202
1.175989411052844
1.175993390906129
1.175998623914947
1.176000738712428
1.176000110252067
1.175999434186907
1.176001141154529
1.176002430736521
1.176000738178918
1.176001645744776
1.176005917844433
1.176010093925448
1.176007681977306
1.176012791610817
1.176033034685041
1.176062376291393
1.176181271442652
1.176457191988652
1.176753461031884
1.176833097638843
1.176836540673595
1.17683720643268
1.176836074975258
1.176833302931878
1.176830565007258
1.17682598423347
1.17682239904621
1.176821024292241
1.176821446025693
1.176823046230778
1.176822370742828
1.176819450596089
1.176817630139847
1.176819954993876
1.176817590400308
1.176810919924713
1.176805048892821
1.176801493027132
1.176764200344145
1.176670114295253
1.176419591052827
1.176102282911835
1.175992709186788
1.175986983692551
1.175987472527877
1.175987925070394
1.175988849216954
1.175993053698157
1.175998725642473
1.176001638276199
1.176001736603025
1.176001623762102
1.176002865030275
1.176003248417588
1.176001416275074
1.176003520210008
1.176007836089803
1.176009688157603
1.176007098346698
1.17601318681958
1.176029502510388
1.176046312446553
1.176131315365497
1.176351605488257
1.176678350330686
1.176824825956838
1.17683654908275
1.176837288875807
1.176836093642511
1.176833816475385
1.176831874296971
1.176826845426976
1.176821696744566
1.176820059832307
1.176820847073716
1.176822402511902
1.176821034779565
1.176818450204421
1.176818422522484
1.176820039204087
1.176816097503907
1.176809881797377
1.176808155466311
1.176804759808747
1.176775872527244
1.176713754925481
1.176518810098677
1.176189225967409
1.176005035763848
1.175986245455438
1.175986133166688
1.17598602840553
1.175987112149407
1.175991367784041
1.175996989745758
1.176001436865586
1.176002789400806
1.176003497512443
1.176003929308082
1.176003016804032
1.176001998828641
1.176004883328725
1.176008769962571
1.176008138917183
1.176007234715408
1.176014016946913
1.176026580898141
1.17603499068203
1.176094966755457
1.176257825654044
1.176576142549366
1.176805015639143
1.176839482338142
1.176840524505492
1.176839427826041
1.17683764275397
1.17683591594251
1.176829452230928
1.17682159141224
1.176818897783935
1.176819601785005
1.176820515821718
1.176818891065296
1.17681727054414
1.176818807909141
1.176818759807762
1.176814096487096
1.176809031318285
1.176810618276724
1.176806027378977
1.176783072665933
1.176744848453021
1.176602677930516
1.176299751877785
1.176036087500589
1.175984808104385
1.175983392823247
1.175982986289912
1.175984096837607
1.175988164343988
1.175993662778756
1.176000657957392
1.176004083237585
1.176005232937888
1.176005080970439
1.176003588582012
1.176003494350329
1.176006418465105
1.176008920875042
1.176006834689501
1.176008123657265
1.176014811151136
1.17602301766094
1.176027528704566
1.17607088594849
1.17618545603101
1.176462693233037
1.176760007239274
1.176839864595344
1.176843044737426
1.17684219710415
1.176841043611091
1.176839591724999
1.176832970242386
1.176823474274948
1.176818797523269
1.176818697925211
1.176818888522592
1.176817419136252
1.176816914881912
1.176818979172717
1.176817423231327
1.176813023271313
1.176810008623434
1.176812791644265
1.176806883858192
1.176788553898488
1.17676666729371
1.176666359015549
1.176416816581162
1.176097476657945
1.175985057711697
1.175978318921091
1.175977475750471
1.175978886565294
1.175982520167935
1.175986755853893
1.175996879613176
1.176005931923315
1.176008172299189
1.176007567433349
1.176005888328619
1.176006917012614
1.176009649302177
1.176010191230044
1.176007764236453
1.176011337117086
1.176018033285396
1.176021359369353
1.176024622594856
1.176054469147608
1.176124906414964
1.176334167668788
1.176667117446079
1.176833516841433
1.176847722623193
1.176847751634965
1.176847556832674
1.176846672651384
1.176844354191315
1.176840499954103
1.176836078982559
1.176831889214181
1.176827375858834
1.17682103574133
1.176811239978589
1.176798575635462
1.176786691258023
1.176776663050682
1.176764161255837
1.176737385988208
1.176667149144101
1.176531433307388
1.176428512753101
1.17641200187109
1.176411716391309
1.176411716172204
1.176411716172201
1.176411716172203
1.176411716172204
1.176411716172209
1.176411716172215
1.176411716172216
1.176411716172217
1.176411716172216
1.176411716172215
1.176411716172215
1.176411716172215
1.176411716172214
1.176411716172213
1.176411716172212
1.176411716172212
1.176411716172212
1.176411716172212
1.176411716172212
1.176411716172211
1.176411716172211
1.176411716172212
1.176411716172213
1.176411716172213
1.176411716172212
1.176411716172211
1.176411716172212
1.176411716172212
1.176411716172213
1.176411716172213
1.176411716172213
1.176411716172213
1.176411716172213
1.176411716172213
1.176411716172214
1.176411716172214
1.176411716172214
1.176411716172214
1.176411716172214
1.176411716172213
1.176411716172213
1.176411716172212
1.176411716172212
1.176411716172212
1.176411716172213
1.176411716172213
1.176411716172214
1.176411716172214
1.176411716172213
1.176411716172213
1.176411716172213
1.176411716172212
1.176411716172213
1.176411716172213
1.176411716172213
1.176411716172213
1.176411716172213
1.176411716172214
1.176411716172214
1.176411716172214
1.176411716172214
1.176411716172213
1.176411716172212
1.176411716172212
1.176411716172213
1.176411716172214
1.176411716172214
1.176411716172214
1.176411716172214
1.176411716172214
1.176411716172215
1.176411716172215
1.176411716172215
1.176411716172216
1.176411716172216
1.176411716172216
1.176411716172215
1.176411716172215
1.176411716172215
1.176411716172216
1.176411716172215
1.176411716172215
1.176411716172215
1.176411716172216
1.176411716172216
1.176411716172217
1.176411716172217
1.176411716172217
1.176411716172217
1.176411716172215
1.176411716172215
1.176411716172215
1.176411716172215
1.176411716172215
1.176411716172215
1.176411716172215
1.176411716172215
1.176411716172215
1.176411716172214
1.176411716172213
1.176411716172213
1.176411716172213
1.176411716172213
1.176411716172214
1.176411716172214
1.176411716172214
1.176411716172215
1.176411716172215
1.176411716172216
1.176411716172216
1.176411716172216
1.176411716172216
1.176411716172217
1.176411716172217
1.176411716172216
1.176411716172216
1.176411716172216
1.176411716172216
1.176411716172216
1.176411716172217
1.176411716172216
1.176411716172216
1.176411716172216
1.176411716172216
1.176411716172216
1.176411716172215
1.176411716172215
1.176411716172214
1.176411716172215
1.176411716172216
1.176411716172217
1.176411716172217
1.176411716172216
1.176411716172215
1.176411716172215
1.176411716172215
1.176411716172215
1.176411716172216
1.176411716172215
1.176411716172215
1.176411716172215
1.176411716172215
1.176411716172215
1.176411716172215
1.176411716172215
1.176411716172215
1.176411716172214
1.176411716172213
1.176411716172213
1.176411716172213
1.176411716172212
1.176411716172212
1.176411716172212
1.176411716172212
1.176411716172212
1.176411716172212
1.176411716172212
1.176411716172212
1.176411716172212
1.176411716172213
1.176411716172213
1.176411716172212
1.176411716172211
1.176411716172211
1.176411716172211
1.176411716172211
1.176411716172212
1.176411716172211
1.176411716172211
1.176411716172211
1.176411716172211
1.176411716172212
1.176411716172213
1.176411716172213
1.176411716172213
1.176411716172212
1.176411716172211
1.176411716172211
1.17641171617221
1.176411716172211
1.17641171617221
1.176411716172209
1.176411716172209
1.17641171617221
1.17641171617221
1.17641171617221
1.176411716172209
1.176411716172209
1.176411716172209
1.17641171617221
1.17641171617221
1.17641171617221
1.176411716172209
1.176411716172209
1.17641171617221
1.176411716172211
1.176411716172211
1.176411716172211
1.176411716172211
1.17641171617221
1.176411716172211
1.176411716172211
1.176411716172212
1.176411716172211
1.176411716172211
1.176411716172211
1.176411716172211
1.176411716172211
1.176411716172212
1.176411716172213
1.176411716172213
1.176411716172214
1.176411716172214
1.176411716172214
1.176411716172214
1.176411716172214
1.176411716172214
1.176411716172213
1.176411716172213
1.176411716172213
1.176411716172213
1.176411716172213
1.176411716172213
1.176411716172213
1.176411716172213
1.176411716172213
1.176411716172213
1.176411716172214
1.176411716172215
1.176411716172216
1.176411716172216
1.176411716172215
1.176411716172215
1.176411716172215
1.176411716172214
1.176411716172214
1.176411716172213
1.176411716172213
1.176411716172212
1.17641171617221
1.176411716172208
1.176411716172207
1.176411716172207
1.176411716172207
1.176411716172207
1.176411716172207
1.176411716172207
1.176411716172207
1.176411716172207
1.176411716172207
1.176411716172207
1.176411716172207
1.176411716172207
1.176411716172208
1.176411716172207
1.176411716172207
1.176411716172208
1.176411716172208
1.176411716172209
1.176411716172209
1.176411716172209
1.176411716172209
1.176411716172209
1.17641171617221
1.17641171617221
1.17641171617221
1.17641171617221
1.17641171617221
1.17641171617221
1.17641171617221
1.17641171617221
1.176411716172211
1.176411716172211
1.176411716172211
1.17641171617221
1.176411716172211
1.176411716172212
1.176411716172213
1.176411716172213
1.176411716172213
1.176411716172213
1.176411716172213
1.176411716172212
1.176411716172213
1.176411716172213
1.176411716172213
1.176411716172214
1.176411716172216
1.176411716172217
1.176411716172217
1.176411716172217
1.176411716172217
1.176411716172216
1.176411716172214
1.176411716172214
1.176411716172214
1.176411716172213
1.176411716172213
1.176411716172212
1.176411716172211
1.176411716172211
1.176411716172211
1.176411716172211
1.176411716172211
1.176411716172213
)
;

boundaryField
{
    inlet
    {
        type            calculated;
        value           uniform 1.176411716172193;
    }
    outlet
    {
        type            calculated;
        value           uniform 1.176411716172218;
    }
    frontAndBack
    {
        type            empty;
    }
}


// ************************************************************************* //
