/*--------------------------------*- C++ -*----------------------------------*\
| =========                 |                                                 |
| \\      /  F ield         | OpenFOAM: The Open Source CFD Toolbox           |
|  \\    /   O peration     | Version:  v2012                                 |
|   \\  /    A nd           | Website:  www.openfoam.com                      |
|    \\/     M anipulation  |                                                 |
\*---------------------------------------------------------------------------*/
FoamFile
{
    version     2.0;
    format      ascii;
    class       volVectorField;
    location    "0.005";
    object      U;
}
// * * * * * * * * * * * * * * * * * * * * * * * * * * * * * * * * * * * * * //

dimensions      [0 1 -1 0 0 0 0];


internalField   nonuniform List<vector> 
1000
(
(-0.00687643869313021 0 0)
(-0.02837917911265602 0 0)
(-0.04075958265522039 0 0)
(-0.05377091562396667 0 0)
(-0.06923116499336936 0 0)
(-0.0844800665449808 0 0)
(-0.1009152396004525 0 0)
(-0.1097510231234365 0 0)
(-0.1139280517854465 0 0)
(-0.1141382201064469 0 0)
(-0.1195477088432733 0 0)
(-0.1222847604494194 0 0)
(-0.1256400207147933 0 0)
(-0.1220200914788704 0 0)
(-0.1146792255108957 0 0)
(-0.1051846894282205 0 0)
(-0.09956959718622015 0 0)
(-0.09144549189022587 0 0)
(-0.07213890008512591 0 0)
(-0.05036484299208664 0 0)
(-0.03471207259693378 0 0)
(-0.02287233001794367 0 0)
(-0.01097476526744363 0 0)
(0.0002778252074806828 0 0)
(0.008526922422609657 0 0)
(0.02614455274701301 0 0)
(0.05806490004915724 0 0)
(0.08389272464203051 0 0)
(0.09419036384874986 0 0)
(0.1027194864277099 0 0)
(0.1101345964741831 0 0)
(0.1159586441632435 0 0)
(0.1150231676826443 0 0)
(0.1147744419221145 0 0)
(0.1178842661577639 0 0)
(0.1216815245524435 0 0)
(0.1269968365688454 0 0)
(0.129356094069512 0 0)
(0.1200846130580588 0 0)
(0.09949253232969966 0 0)
(0.07884372511727436 0 0)
(0.06656155912179548 0 0)
(0.06089834828156909 0 0)
(0.05834647124487637 0 0)
(0.04462988112092831 0 0)
(0.01329253219700673 0 0)
(-0.01845599131552026 0 0)
(-0.03395083755720202 0 0)
(-0.04192008763432737 0 0)
(-0.04598213101460543 0 0)
(-0.05771339424548875 0 0)
(-0.08533691181531543 0 0)
(-0.1104661901680534 0 0)
(-0.1159428633697992 0 0)
(-0.118490951365792 0 0)
(-0.1177717395633845 0 0)
(-0.1174770553713411 0 0)
(-0.1161364535871661 0 0)
(-0.1183395558418107 0 0)
(-0.1224212213758708 0 0)
(-0.1237853930646541 0 0)
(-0.1222498179420274 0 0)
(-0.1178201165029622 0 0)
(-0.1034226274175586 0 0)
(-0.07284067314169734 0 0)
(-0.04247065082489063 0 0)
(-0.03152188037106423 0 0)
(-0.02921848137953968 0 0)
(-0.02973185451560495 0 0)
(-0.02636329779630302 0 0)
(-0.01109862310376935 0 0)
(0.02688415372734143 0 0)
(0.07758030480117681 0 0)
(0.09883188434101046 0 0)
(0.1002091509700433 0 0)
(0.1000090486219418 0 0)
(0.1009606171960561 0 0)
(0.1040857781456067 0 0)
(0.1108311198149076 0 0)
(0.1226246007195311 0 0)
(0.1300128115752411 0 0)
(0.1310928253293396 0 0)
(0.1313384591245403 0 0)
(0.1291218708202965 0 0)
(0.1226371984730963 0 0)
(0.1094140229718082 0 0)
(0.09158843581244515 0 0)
(0.07805720270026713 0 0)
(0.07078806322861456 0 0)
(0.06465527926910557 0 0)
(0.05506743538004129 0 0)
(0.03737890189590425 0 0)
(0.008952935303596605 0 0)
(-0.02145266239700877 0 0)
(-0.04331524775598845 0 0)
(-0.06018905596130018 0 0)
(-0.07976502133343522 0 0)
(-0.1024775770900071 0 0)
(-0.1148333265279279 0 0)
(-0.1165759152300871 0 0)
(-0.1170747736255454 0 0)
(-0.1177606820687704 0 0)
(-0.1183774405977866 0 0)
(-0.1204490240857167 0 0)
(-0.1238396763689711 0 0)
(-0.1254363302466698 0 0)
(-0.1256735517835675 0 0)
(-0.124812583192989 0 0)
(-0.1222225481876202 0 0)
(-0.1154058973009449 0 0)
(-0.1007936410672594 0 0)
(-0.0787778198007226 0 0)
(-0.05781488931909032 0 0)
(-0.04333812023692206 0 0)
(-0.03194474066022004 0 0)
(-0.01877319090367145 0 0)
(-4.364893852521166e-05 0 0)
(0.02554229682217471 0 0)
(0.05713732353933463 0 0)
(0.09153117756429485 0 0)
(0.1153592897623467 0 0)
(0.121107676924551 0 0)
(0.1214515749844504 0 0)
(0.1215140148379049 0 0)
(0.1217520853316923 0 0)
(0.1219164167843895 0 0)
(0.1219970637566194 0 0)
(0.1221150530877398 0 0)
(0.1222637472567158 0 0)
(0.1223667306993061 0 0)
(0.1224125842776767 0 0)
(0.122142778035579 0 0)
(0.1206978785198635 0 0)
(0.1166940511825927 0 0)
(0.1075544359527054 0 0)
(0.09014796608095159 0 0)
(0.06431318585979039 0 0)
(0.03665611832643817 0 0)
(0.0146179663323319 0 0)
(-0.002616155898803829 0 0)
(-0.02193707988315308 0 0)
(-0.05348421848886389 0 0)
(-0.0990140794823082 0 0)
(-0.1274043237865098 0 0)
(-0.1314438832864334 0 0)
(-0.1314170352523472 0 0)
(-0.1312651745669816 0 0)
(-0.1312352070379087 0 0)
(-0.1313030681197669 0 0)
(-0.1312496624756138 0 0)
(-0.1308031205927181 0 0)
(-0.1297710513106388 0 0)
(-0.1277698316116405 0 0)
(-0.1239345015856425 0 0)
(-0.117459918598885 0 0)
(-0.1092664462434415 0 0)
(-0.1018834341000166 0 0)
(-0.09637328490428786 0 0)
(-0.09153191237416348 0 0)
(-0.08518383964939631 0 0)
(-0.073835630855203 0 0)
(-0.04889701953326671 0 0)
(0.00636089456626154 0 0)
(0.07946418920268801 0 0)
(0.1101263014267973 0 0)
(0.1123441931477451 0 0)
(0.1123720822942979 0 0)
(0.1125751378137661 0 0)
(0.1129215792654996 0 0)
(0.1129537369695397 0 0)
(0.114590434265035 0 0)
(0.1193909482363902 0 0)
(0.1268430032081908 0 0)
(0.1301301816727671 0 0)
(0.1304492254884984 0 0)
(0.1303595036292213 0 0)
(0.1300869263365761 0 0)
(0.129662024719286 0 0)
(0.1282752128288345 0 0)
(0.1245051635053302 0 0)
(0.1156663116365217 0 0)
(0.09859780994717897 0 0)
(0.07464510141469936 0 0)
(0.05207591633121219 0 0)
(0.03418373852110345 0 0)
(0.01421486419937049 0 0)
(-0.02105719914968783 0 0)
(-0.07973131825267665 0 0)
(-0.1227882362636653 0 0)
(-0.1298672113996289 0 0)
(-0.1300108091725721 0 0)
(-0.1300473321027876 0 0)
(-0.1300266337219097 0 0)
(-0.1299646672738636 0 0)
(-0.1298739977538395 0 0)
(-0.1297859667129537 0 0)
(-0.1296598141436783 0 0)
(-0.1293786383391239 0 0)
(-0.1287834983742939 0 0)
(-0.1277036188368794 0 0)
(-0.1259801618723206 0 0)
(-0.1235367023596859 0 0)
(-0.1204914860563191 0 0)
(-0.1170961860420574 0 0)
(-0.1133139570210265 0 0)
(-0.1081928211557962 0 0)
(-0.0985688808794203 0 0)
(-0.07497026980174896 0 0)
(-0.01646778413679016 0 0)
(0.07531953526047835 0 0)
(0.1238308745555446 0 0)
(0.1284892504867947 0 0)
(0.128530317750526 0 0)
(0.1285352477744335 0 0)
(0.1285466434310742 0 0)
(0.1285113203040695 0 0)
(0.1284450995265039 0 0)
(0.1284025863017272 0 0)
(0.1283516385093545 0 0)
(0.1281716242914205 0 0)
(0.1278196415818207 0 0)
(0.1272554317648936 0 0)
(0.1261123353772829 0 0)
(0.124032435897896 0 0)
(0.1211985824915363 0 0)
(0.1184182832082493 0 0)
(0.1162570453349485 0 0)
(0.1143105064301305 0 0)
(0.1115630065755854 0 0)
(0.1057076837178791 0 0)
(0.0881192701029509 0 0)
(0.03830695236688041 0 0)
(-0.05566345263972418 0 0)
(-0.121461453557089 0 0)
(-0.1308548755032095 0 0)
(-0.1310584074078895 0 0)
(-0.1311062631446188 0 0)
(-0.1310048722311742 0 0)
(-0.1308931396485139 0 0)
(-0.1309143353905047 0 0)
(-0.1308929396241095 0 0)
(-0.1307339257498595 0 0)
(-0.1305526142266348 0 0)
(-0.1305311851618243 0 0)
(-0.1303218401391502 0 0)
(-0.1296046480427093 0 0)
(-0.1285393451016371 0 0)
(-0.1268945424277303 0 0)
(-0.1242524535210851 0 0)
(-0.1209555308203634 0 0)
(-0.1175958996893533 0 0)
(-0.1135933326374096 0 0)
(-0.1057307797724583 0 0)
(-0.08631591704577192 0 0)
(-0.03651248325169668 0 0)
(0.05603813346329208 0 0)
(0.1210999403020099 0 0)
(0.1307774678098114 0 0)
(0.1309229353185468 0 0)
(0.1304744340621258 0 0)
(0.1304089960530895 0 0)
(0.1306443246135362 0 0)
(0.1299468432612978 0 0)
(0.1287550149849894 0 0)
(0.1283847304702833 0 0)
(0.1292819447360604 0 0)
(0.128088698788921 0 0)
(0.1257368180519019 0 0)
(0.1242834085333984 0 0)
(0.1245564559045892 0 0)
(0.1221141159426654 0 0)
(0.1165015189623088 0 0)
(0.1119531025236203 0 0)
(0.1098728529544941 0 0)
(0.1074952811149509 0 0)
(0.1021416762010488 0 0)
(0.09296165772536701 0 0)
(0.05984852360905414 0 0)
(-0.0205571644540008 0 0)
(-0.1067538985614725 0 0)
(-0.1294737259631654 0 0)
(-0.1303080030584473 0 0)
(-0.1298615234262618 0 0)
(-0.1296974324234346 0 0)
(-0.1295334364060256 0 0)
(-0.1284446570294912 0 0)
(-0.1272270317518832 0 0)
(-0.1269370800907891 0 0)
(-0.1272022266805866 0 0)
(-0.1262379822193043 0 0)
(-0.1246179072317212 0 0)
(-0.1241143658885017 0 0)
(-0.1230283302041889 0 0)
(-0.117684959159007 0 0)
(-0.1121858908333495 0 0)
(-0.1106350244642112 0 0)
(-0.111730241005844 0 0)
(-0.1084914687508902 0 0)
(-0.1025452458262745 0 0)
(-0.09958907373999494 0 0)
(-0.06880599541218203 0 0)
(0.006765355080331037 0 0)
(0.09818766934654055 0 0)
(0.1269904363477272 0 0)
(0.1287529279139679 0 0)
(0.1291681287522394 0 0)
(0.1282827070651119 0 0)
(0.1272969884279433 0 0)
(0.1272915087999012 0 0)
(0.1272174763098677 0 0)
(0.1261940535459511 0 0)
(0.1249335938827104 0 0)
(0.1247783532801364 0 0)
(0.1249490683625035 0 0)
(0.123387521652645 0 0)
(0.1206077728945282 0 0)
(0.1189927772368213 0 0)
(0.1170471226668578 0 0)
(0.1143691569493971 0 0)
(0.1121144886369664 0 0)
(0.1110077598733751 0 0)
(0.1098193210085165 0 0)
(0.09841137922652159 0 0)
(0.07236878755981357 0 0)
(-5.942164524697793e-05 0 0)
(-0.09309761650390987 0 0)
(-0.1260060143995994 0 0)
(-0.1276604214735287 0 0)
(-0.1274925858200515 0 0)
(-0.1277531689278399 0 0)
(-0.1272608704898416 0 0)
(-0.1260449024879143 0 0)
(-0.124917257191665 0 0)
(-0.1249824009509674 0 0)
(-0.1248900220995092 0 0)
(-0.1235682282363862 0 0)
(-0.1219798833450556 0 0)
(-0.1218133103702811 0 0)
(-0.1216618260718483 0 0)
(-0.1198282040565356 0 0)
(-0.1176103262809658 0 0)
(-0.1169259511699295 0 0)
(-0.1171131248383466 0 0)
(-0.1151310761449931 0 0)
(-0.1102129953164182 0 0)
(-0.104774620227146 0 0)
(-0.07871927348892301 0 0)
(-0.01289664358939558 0 0)
(0.08300807282678786 0 0)
(0.1251958960117187 0 0)
(0.1286554037013608 0 0)
(0.1289902466849021 0 0)
(0.1283965420497985 0 0)
(0.1274748802700326 0 0)
(0.1269708000817237 0 0)
(0.1256795022831543 0 0)
(0.1239634329413303 0 0)
(0.1230923051061855 0 0)
(0.1230296845536797 0 0)
(0.123339145662758 0 0)
(0.1225503483055932 0 0)
(0.1213532453498954 0 0)
(0.1210645585115896 0 0)
(0.1214483462092898 0 0)
(0.120241221827709 0 0)
(0.1182562203481804 0 0)
(0.1172838869650511 0 0)
(0.1161707673688211 0 0)
(0.106368059389622 0 0)
(0.08389765431578752 0 0)
(0.01821347251061127 0 0)
(-0.08010602275942016 0 0)
(-0.1247995584754147 0 0)
(-0.1282058314901509 0 0)
(-0.12814515995261 0 0)
(-0.128146328174546 0 0)
(-0.1278207374704441 0 0)
(-0.1265699275363864 0 0)
(-0.1249643341377882 0 0)
(-0.1238698721102593 0 0)
(-0.1235226382654259 0 0)
(-0.1230919750645697 0 0)
(-0.1225101081200084 0 0)
(-0.1224963855848737 0 0)
(-0.1228788282257024 0 0)
(-0.1220099009653205 0 0)
(-0.1206627637298827 0 0)
(-0.1203259306880317 0 0)
(-0.1209080948139421 0 0)
(-0.119028300477777 0 0)
(-0.1145261217748682 0 0)
(-0.1103280608866441 0 0)
(-0.08739935919721324 0 0)
(-0.02703201111245493 0 0)
(0.07101068176233399 0 0)
(0.122224469845775 0 0)
(0.1272628223483082 0 0)
(0.1275087034589763 0 0)
(0.127101970629251 0 0)
(0.1264892621705943 0 0)
(0.1260985362974428 0 0)
(0.124806095876722 0 0)
(0.1231490887874341 0 0)
(0.1224733362960975 0 0)
(0.1225078741303164 0 0)
(0.1227373131997219 0 0)
(0.1222447391396713 0 0)
(0.121441324061583 0 0)
(0.121486237669759 0 0)
(0.1218184358888792 0 0)
(0.1205969244688894 0 0)
(0.1188284085236984 0 0)
(0.1184886573620336 0 0)
(0.1174248944333172 0 0)
(0.1092728906422596 0 0)
(0.09233495641605639 0 0)
(0.03757048944997667 0 0)
(-0.05969706511730717 0 0)
(-0.1192291669565099 0 0)
(-0.1261552703920564 0 0)
(-0.1262571711327264 0 0)
(-0.126353030371504 0 0)
(-0.1260568220027852 0 0)
(-0.1250639668872872 0 0)
(-0.123887242683731 0 0)
(-0.1228727764776884 0 0)
(-0.122403405677539 0 0)
(-0.1220785797859878 0 0)
(-0.1217443547343996 0 0)
(-0.1219981422429179 0 0)
(-0.1221886865778287 0 0)
(-0.121315292011591 0 0)
(-0.1201794997437021 0 0)
(-0.1203638462627074 0 0)
(-0.1205780554518723 0 0)
(-0.1186461934480585 0 0)
(-0.1150861976769233 0 0)
(-0.112653776298921 0 0)
(-0.09541253339995551 0 0)
(-0.0486009145774986 0 0)
(0.04484717593747085 0 0)
(0.1145795707041058 0 0)
(0.1256328575654173 0 0)
(0.1259389711515592 0 0)
(0.1256363217178372 0 0)
(0.1252597118407407 0 0)
(0.1249797952731065 0 0)
(0.1237727168731988 0 0)
(0.1221824840613421 0 0)
(0.1215551432949392 0 0)
(0.1217466883756046 0 0)
(0.1219711286392634 0 0)
(0.1214177465794922 0 0)
(0.1208711878484478 0 0)
(0.1213131001966053 0 0)
(0.1212417186620661 0 0)
(0.119876415958626 0 0)
(0.1184274957803651 0 0)
(0.1189079363018298 0 0)
(0.117556758966711 0 0)
(0.1108997902253673 0 0)
(0.09991512853203838 0 0)
(0.05860256705099976 0 0)
(-0.03010364862815278 0 0)
(-0.1089560181986655 0 0)
(-0.1248092114760598 0 0)
(-0.1253030958681446 0 0)
(-0.1254659898701338 0 0)
(-0.1251546955948187 0 0)
(-0.1243042461022573 0 0)
(-0.1234052751364461 0 0)
(-0.1222801923918917 0 0)
(-0.1215613931478949 0 0)
(-0.1212133341021047 0 0)
(-0.1212354146084648 0 0)
(-0.1216702213486423 0 0)
(-0.1216049167135955 0 0)
(-0.1207258322844408 0 0)
(-0.1199565339856841 0 0)
(-0.1205456770916338 0 0)
(-0.1201539666267627 0 0)
(-0.1182301895570261 0 0)
(-0.1158589116679279 0 0)
(-0.1145002682010153 0 0)
(-0.1017788683442737 0 0)
(-0.06827559129059622 0 0)
(0.01316588248334885 0 0)
(0.1009013591898114 0 0)
(0.1246057108491322 0 0)
(0.1255222775441366 0 0)
(0.125312049832643 0 0)
(0.1250993681097682 0 0)
(0.1248508030616683 0 0)
(0.1236236986792423 0 0)
(0.1219181455335752 0 0)
(0.1211095100123353 0 0)
(0.1211759966563538 0 0)
(0.121298763488319 0 0)
(0.1208415433099183 0 0)
(0.1205972891709488 0 0)
(0.1211852780122701 0 0)
(0.1207098025156439 0 0)
(0.1193948072775489 0 0)
(0.1184932542632602 0 0)
(0.1193390005155336 0 0)
(0.1176085346922983 0 0)
(0.1121786064430841 0 0)
(0.1056608708739538 0 0)
(0.07590281193866144 0 0)
(0.002103252554315507 0 0)
(-0.09126649913449389 0 0)
(-0.1234870602029604 0 0)
(-0.1253357670704674 0 0)
(-0.1255381578120637 0 0)
(-0.1251976651205181 0 0)
(-0.1244334293268374 0 0)
(-0.1237028088093569 0 0)
(-0.1222784726802736 0 0)
(-0.121073896967998 0 0)
(-0.1206548580126609 0 0)
(-0.120850547103233 0 0)
(-0.1213236049917153 0 0)
(-0.1210043774137923 0 0)
(-0.1201988915028651 0 0)
(-0.1198986905020798 0 0)
(-0.1205090079956786 0 0)
(-0.1196105119651697 0 0)
(-0.1177601492932972 0 0)
(-0.1166304069346599 0 0)
(-0.1156475170924331 0 0)
(-0.1060421794967721 0 0)
(-0.08331907109795747 0 0)
(-0.01791616135272766 0 0)
(0.07886629868401956 0 0)
(0.122139717164014 0 0)
(0.1253684186645291 0 0)
(0.1253103520162629 0 0)
(0.1252744371923803 0 0)
(0.124991905364856 0 0)
(0.1237990816416625 0 0)
(0.1221923434008298 0 0)
(0.1211423706632898 0 0)
(0.1209244563226092 0 0)
(0.1208188776724547 0 0)
(0.1205567418815605 0 0)
(0.1206426378652917 0 0)
(0.1211029625703277 0 0)
(0.1203147465311753 0 0)
(0.1190497587858882 0 0)
(0.1188931705685012 0 0)
(0.1194870080306779 0 0)
(0.1174961281270088 0 0)
(0.1131565716948318 0 0)
(0.1096577038695164 0 0)
(0.08843311058173321 0 0)
(0.03150407606430541 0 0)
(-0.06547593528348715 0 0)
(-0.1198881404958998 0 0)
(-0.125704085805929 0 0)
(-0.1259374692076195 0 0)
(-0.1255914924132462 0 0)
(-0.1249847449552606 0 0)
(-0.1244185115389548 0 0)
(-0.1227101820001047 0 0)
(-0.1209032069946317 0 0)
(-0.1203602982045548 0 0)
(-0.120631950454184 0 0)
(-0.1210157092174884 0 0)
(-0.1205772579274236 0 0)
(-0.1199518637868214 0 0)
(-0.1202014099468473 0 0)
(-0.1204197274550595 0 0)
(-0.1191499668673073 0 0)
(-0.1174754703287607 0 0)
(-0.1174834051663182 0 0)
(-0.1163409484548687 0 0)
(-0.108822486190382 0 0)
(-0.09441623881920035 0 0)
(-0.04547505785203759 0 0)
(0.04877965823241302 0 0)
(0.1162412008128402 0 0)
(0.1261090216042595 0 0)
(0.1262932576095634 0 0)
(0.1263812501136258 0 0)
(0.1260612713477786 0 0)
(0.1248172172486456 0 0)
(0.1231291603579494 0 0)
(0.1212692989153972 0 0)
(0.1204730993128154 0 0)
(0.120167553546526 0 0)
(0.1200901787908888 0 0)
(0.120481055826423 0 0)
(0.1206551839145241 0 0)
(0.119725778981433 0 0)
(0.1187604882345291 0 0)
(0.1192474001109499 0 0)
(0.1191604670293114 0 0)
(0.1170872727405743 0 0)
(0.113973879490571 0 0)
(0.112251026817217 0 0)
(0.09723432578686902 0 0)
(0.05640755396333405 0 0)
(-0.03279698517275566 0 0)
(-0.110793108458487 0 0)
(-0.1262158199451512 0 0)
(-0.126691634355233 0 0)
(-0.1264044135864019 0 0)
(-0.1259647491646123 0 0)
(-0.1254664486003736 0 0)
(-0.1235022376848827 0 0)
(-0.1210407505446021 0 0)
(-0.1201427134933739 0 0)
(-0.1203050510727675 0 0)
(-0.1205236845691257 0 0)
(-0.1200644276823007 0 0)
(-0.1197484310402513 0 0)
(-0.1202771481637013 0 0)
(-0.1200594555135573 0 0)
(-0.1187769421774866 0 0)
(-0.1175322306997051 0 0)
(-0.1182685845560107 0 0)
(-0.1167322090377351 0 0)
(-0.1106775097000693 0 0)
(-0.1019488758941824 0 0)
(-0.06664321526486905 0 0)
(0.0153292455912755 0 0)
(0.1028500511307632 0 0)
(0.1261544152817078 0 0)
(0.1271146820267764 0 0)
(0.1272804707174756 0 0)
(0.126945733689023 0 0)
(0.1258426117917898 0 0)
(0.124382439141331 0 0)
(0.1218713685296504 0 0)
(0.1202171341824835 0 0)
(0.1197880160452589 0 0)
(0.1198344703258025 0 0)
(0.1202896343871795 0 0)
(0.1201959328535246 0 0)
(0.1193751422567554 0 0)
(0.1188669744384812 0 0)
(0.1195540196327638 0 0)
(0.1188174807360171 0 0)
(0.1168636439437182 0 0)
(0.1151893086497581 0 0)
(0.1140892473527417 0 0)
(0.1030894881036327 0 0)
(0.07555147371798496 0 0)
(0.001787038158839018 0 0)
(-0.09286559557351333 0 0)
(-0.1262393189131412 0 0)
(-0.1280483410140085 0 0)
(-0.1278629511865187 0 0)
(-0.1276734225777946 0 0)
(-0.1272670208077559 0 0)
(-0.1252187683902523 0 0)
(-0.1220926089648567 0 0)
(-0.1199298739027245 0 0)
(-0.1195574773491123 0 0)
(-0.1194861895694851 0 0)
(-0.1191329734419043 0 0)
(-0.1191538880461357 0 0)
(-0.11977567960961 0 0)
(-0.1191173560121635 0 0)
(-0.1177918815009329 0 0)
(-0.1173500565020674 0 0)
(-0.1181336911441751 0 0)
(-0.1161826465507145 0 0)
(-0.1115120959966257 0 0)
(-0.1070939536623847 0 0)
(-0.08431266691994502 0 0)
(-0.02289420352442892 0 0)
(0.07539022745491587 0 0)
(0.1244842285132212 0 0)
(0.1286792196285628 0 0)
(0.128709023766556 0 0)
(0.1286450910806729 0 0)
(0.1283715665856123 0 0)
(0.1276971563666997 0 0)
(0.1265616954603352 0 0)
(0.1252517121637515 0 0)
(0.1240130569115329 0 0)
(0.1226865035556958 0 0)
(0.1208167301578172 0 0)
(0.1179202205010746 0 0)
(0.1141833074475671 0 0)
(0.1106798834071141 0 0)
(0.1077204148267182 0 0)
(0.10402581529461 0 0)
(0.09612780088149893 0 0)
(0.0753970585376411 0 0)
(0.03533926298550914 0 0)
(0.004958362692853824 0 0)
(8.433863772394425e-05 0 0)
(6.467338156713946e-08 0 0)
(-6.413608112505152e-12 0 0)
(-7.66504384177396e-12 0 0)
(-7.552067005104398e-12 0 0)
(-6.92634914046938e-12 0 0)
(-5.518483945041249e-12 0 0)
(-3.762997713705688e-12 0 0)
(-3.38930510010439e-12 0 0)
(-3.467519833183799e-12 0 0)
(-3.55442509216081e-12 0 0)
(-3.667401928830515e-12 0 0)
(-3.736926136012689e-12 0 0)
(-3.736926136012406e-12 0 0)
(-3.615258773444483e-12 0 0)
(-3.719545084217216e-12 0 0)
(-3.597877721649391e-12 0 0)
(-3.484900884979266e-12 0 0)
(-3.345852470615993e-12 0 0)
(-3.189423004457086e-12 0 0)
(-3.111208271377907e-12 0 0)
(-2.98954090881031e-12 0 0)
(-2.937397753423584e-12 0 0)
(-2.876564072139914e-12 0 0)
(-2.824420916753741e-12 0 0)
(-2.989540908810092e-12 0 0)
(-3.111208271377904e-12 0 0)
(-3.145970374968307e-12 0 0)
(-3.05037459009409e-12 0 0)
(-3.119898797275493e-12 0 0)
(-2.972159857014483e-12 0 0)
(-3.145970374968868e-12 0 0)
(-3.224185108048294e-12 0 0)
(-3.48490088497939e-12 0 0)
(-3.728235610114991e-12 0 0)
(-3.797759817296616e-12 0 0)
(-3.893355602171367e-12 0 0)
(-3.980260861148693e-12 0 0)
(-3.997641912943472e-12 0 0)
(-3.780378765501339e-12 0 0)
(-3.571806143956299e-12 0 0)
(-3.172041952661907e-12 0 0)
(-3.032993538298745e-12 0 0)
(-3.015612486502897e-12 0 0)
(-2.893945123935546e-12 0 0)
(-2.728825131878966e-12 0 0)
(-2.641919872901934e-12 0 0)
(-2.737515657776824e-12 0 0)
(-2.82442091675383e-12 0 0)
(-2.711444080083956e-12 0 0)
(-2.615848295209163e-12 0 0)
(-2.711444080083684e-12 0 0)
(-2.772277761367729e-12 0 0)
(-2.867873546242614e-12 0 0)
(-2.798349339060551e-12 0 0)
(-2.737515657776845e-12 0 0)
(-2.789658813163105e-12 0 0)
(-2.737515657776853e-12 0 0)
(-2.81573039085616e-12 0 0)
(-2.928707227525928e-12 0 0)
(-2.963469331117207e-12 0 0)
(-2.980850382912446e-12 0 0)
(-2.946088279321542e-12 0 0)
(-3.032993538298927e-12 0 0)
(-3.215494582150622e-12 0 0)
(-3.47621035908168e-12 0 0)
(-3.537044040365648e-12 0 0)
(-3.632639825240216e-12 0 0)
(-3.684782980626338e-12 0 0)
(-3.693473506524612e-12 0 0)
(-3.650020877035394e-12 0 0)
(-3.563115618058761e-12 0 0)
(-3.406686151900036e-12 0 0)
(-3.397995626002322e-12 0 0)
(-3.328471418820871e-12 0 0)
(-3.424067203695036e-12 0 0)
(-3.502281936775096e-12 0 0)
(-3.502281936774455e-12 0 0)
(-3.493591410876937e-12 0 0)
(-3.632639825240255e-12 0 0)
(-3.884665076273547e-12 0 0)
(-4.162761905000345e-12 0 0)
(-4.223595586284085e-12 0 0)
(-4.267048215772488e-12 0 0)
(-4.11930927551144e-12 0 0)
(-3.96287980935342e-12 0 0)
(-3.954189283454854e-12 0 0)
(-3.762997713705848e-12 0 0)
(-3.63263982524045e-12 0 0)
(-3.589187195752007e-12 0 0)
(-3.62394929934268e-12 0 0)
(-3.458829307285913e-12 0 0)
(-3.389305100105068e-12 0 0)
(-3.632639825240258e-12 0 0)
(-3.789069291399072e-12 0 0)
(-3.650020877035858e-12 0 0)
(-3.493591410877366e-12 0 0)
(-3.597877721649546e-12 0 0)
(-3.615258773444998e-12 0 0)
(-3.815140869092283e-12 0 0)
(-3.71954508421731e-12 0 0)
(-3.563115618059305e-12 0 0)
(-3.450138781388485e-12 0 0)
(-3.30239984112789e-12 0 0)
(-3.276328263434801e-12 0 0)
(-3.285018789332288e-12 0 0)
(-3.311090367025509e-12 0 0)
(-2.82442091675412e-12 0 0)
(-2.615848295209209e-12 0 0)
(-2.546324088027109e-12 0 0)
(-2.624538821106891e-12 0 0)
(-2.702753554186132e-12 0 0)
(-2.676681976492936e-12 0 0)
(-2.720134605981531e-12 0 0)
(-2.659300924697618e-12 0 0)
(-2.711444080083896e-12 0 0)
(-2.659300924697099e-12 0 0)
(-2.720134605981586e-12 0 0)
(-2.789658813163205e-12 0 0)
(-2.659300924698182e-12 0 0)
(-2.59846724341361e-12 0 0)
(-2.685372502390846e-12 0 0)
(-2.667991450594821e-12 0 0)
(-2.607157769311384e-12 0 0)
(-2.711444080083915e-12 0 0)
(-2.572395665720661e-12 0 0)
(-2.59846724341365e-12 0 0)
(-2.459418829050297e-12 0 0)
(-2.442037777254997e-12 0 0)
(-2.381204095970567e-12 0 0)
(-2.355132518278028e-12 0 0)
(-2.381204095971082e-12 0 0)
(-2.329060940584943e-12 0 0)
(-2.25953673340311e-12 0 0)
(-2.172631474426065e-12 0 0)
(-2.36382304417561e-12 0 0)
(-2.363823044175604e-12 0 0)
(-2.485490406743373e-12 0 0)
(-2.572395665719979e-12 0 0)
(-2.546324088027376e-12 0 0)
(-2.459418829050156e-12 0 0)
(-2.468109354948046e-12 0 0)
(-2.468109354948037e-12 0 0)
(-2.407275673664175e-12 0 0)
(-2.415966199561935e-12 0 0)
(-2.476799880845302e-12 0 0)
(-2.337751466482636e-12 0 0)
(-2.216084103914677e-12 0 0)
(-2.059654637756116e-12 0 0)
(-2.016202008267554e-12 0 0)
(-1.833700964415775e-12 0 0)
(-1.920606223392868e-12 0 0)
(-1.929296749290457e-12 0 0)
(-1.972749378779166e-12 0 0)
(-1.894534645699429e-12 0 0)
(-1.851082016211404e-12 0 0)
(-2.094416741347035e-12 0 0)
(-2.172631474426471e-12 0 0)
(-2.276917785198781e-12 0 0)
(-2.363823044175689e-12 0 0)
(-2.511561984436706e-12 0 0)
(-2.294298836993656e-12 0 0)
(-2.268227259300939e-12 0 0)
(-2.163940948528476e-12 0 0)
(-2.059654637756001e-12 0 0)
(-2.042273585960469e-12 0 0)
(-1.911915697494867e-12 0 0)
(-2.042273585960414e-12 0 0)
(-2.216084103914593e-12 0 0)
(-2.485490406743377e-12 0 0)
(-2.51156198443597e-12 0 0)
(-2.607157769311334e-12 0 0)
(-2.928707227526164e-12 0 0)
(-3.25025668574129e-12 0 0)
(-3.215494582150501e-12 0 0)
(-3.093827219582558e-12 0 0)
(-3.232875633945996e-12 0 0)
(-3.345852470615579e-12 0 0)
(-3.519662988570203e-12 0 0)
(-3.667401928831177e-12 0 0)
(-3.902046128069222e-12 0 0)
(-4.067166120125494e-12 0 0)
(-4.267048215772545e-12 0 0)
(-4.475620837317728e-12 0 0)
(-4.501692415010515e-12 0 0)
(-4.684193458862451e-12 0 0)
(-4.632050303475391e-12 0 0)
(-4.527763992703788e-12 0 0)
(-4.545145044499066e-12 0 0)
(-4.493001889112814e-12 0 0)
(-4.46693031141964e-12 0 0)
(-4.501692415010559e-12 0 0)
(-4.64074082937381e-12 0 0)
(-4.510382940907405e-12 0 0)
(-4.388715578340325e-12 0 0)
(-4.275738741670031e-12 0 0)
(-4.127999801409172e-12 0 0)
(-4.032404016534486e-12 0 0)
(-3.988951387045805e-12 0 0)
(-3.832521920887165e-12 0 0)
(-3.563115618058292e-12 0 0)
(-3.32847141882045e-12 0 0)
(-2.946088279320957e-12 0 0)
(-3.015612486503176e-12 0 0)
(-3.13727984907119e-12 0 0)
(-3.163351426764244e-12 0 0)
(-3.328471418820585e-12 0 0)
(-3.363233522411545e-12 0 0)
(-3.476210359081677e-12 0 0)
(-3.363233522411106e-12 0 0)
(-3.441448255490888e-12 0 0)
(-3.545734566263319e-12 0 0)
(-3.502281936774771e-12 0 0)
(-3.69347350652386e-12 0 0)
(-3.832521920887473e-12 0 0)
(-3.806450343194377e-12 0 0)
(-3.762997713705869e-12 0 0)
(-3.650020877035201e-12 0 0)
(-3.519662988570278e-12 0 0)
(-3.450138781388428e-12 0 0)
(-3.389305100104712e-12 0 0)
(-3.302399841127151e-12 0 0)
(-3.380614574207012e-12 0 0)
(-3.424067203695511e-12 0 0)
(-3.450138781388369e-12 0 0)
(-3.380614574206636e-12 0 0)
(-3.337161944718229e-12 0 0)
(-3.21549458215059e-12 0 0)
(-3.198113530355211e-12 0 0)
(-3.024303012400751e-12 0 0)
(-2.780968287265406e-12 0 0)
(-2.398585147766458e-12 0 0)
(-2.250846207505509e-12 0 0)
(-2.024892534165257e-12 0 0)
(-1.87715359390403e-12 0 0)
(-1.998820956472167e-12 0 0)
(-1.86846306800654e-12 0 0)
(-1.964058852881157e-12 0 0)
(-1.911915697494951e-12 0 0)
(-2.033583060062797e-12 0 0)
(-2.268227259301031e-12 0 0)
(-2.807039864958605e-12 0 0)
(-3.554425092160659e-12 0 0)
(-3.615258773445025e-12 0 0)
(-3.641330351138156e-12 0 0)
(-3.554425092161107e-12 0 0)
(-3.597877721649254e-12 0 0)
(-3.415376677797864e-12 0 0)
(-3.311090367025414e-12 0 0)
(-3.293709315229939e-12 0 0)
(-3.154660900866315e-12 0 0)
(-2.946088279321542e-12 0 0)
(-2.79834933906076e-12 0 0)
(-2.859183020344469e-12 0 0)
(-2.867873546242061e-12 0 0)
(-2.980850382912552e-12 0 0)
(-3.04168406419645e-12 0 0)
(-3.154660900866539e-12 0 0)
(-2.989540908810167e-12 0 0)
(-2.607157769310953e-12 0 0)
(-2.520252510333942e-12 0 0)
(-2.311679888789209e-12 0 0)
(-2.320370414686765e-12 0 0)
(-2.302989362891313e-12 0 0)
(-2.398585147766272e-12 0 0)
(-2.528943036231697e-12 0 0)
(-2.615848295208997e-12 0 0)
(-2.633229347004088e-12 0 0)
(-2.807039864958521e-12 0 0)
(-2.998231434707976e-12 0 0)
(-2.954778805219463e-12 0 0)
(-2.972159857014552e-12 0 0)
(-2.824420916753941e-12 0 0)
(-2.728825131879197e-12 0 0)
(-2.650610398799918e-12 0 0)
(-2.581086191618019e-12 0 0)
(-2.51156198443644e-12 0 0)
(-2.27691778519867e-12 0 0)
(-2.363823044175722e-12 0 0)
(-2.137869370835191e-12 0 0)
(-2.033583060062747e-12 0 0)
(-1.946677801085933e-12 0 0)
(-1.937987275188244e-12 0 0)
(-2.077035689551461e-12 0 0)
(-2.285608311096055e-12 0 0)
(-2.398585147766426e-12 0 0)
(-2.337751466482441e-12 0 0)
(-2.476799880845517e-12 0 0)
(-2.633229347004056e-12 0 0)
(-2.876564072140023e-12 0 0)
(-3.076446167787273e-12 0 0)
(-3.119898797275513e-12 0 0)
(-3.163351426763687e-12 0 0)
(-3.067755641889426e-12 0 0)
(-3.032993538298707e-12 0 0)
(-3.189423004457325e-12 0 0)
(-3.354542996513382e-12 0 0)
(-3.250256685741033e-12 0 0)
(-3.293709315229809e-12 0 0)
(-3.232875633945818e-12 0 0)
(-3.172041952661592e-12 0 0)
(-3.163351426763979e-12 0 0)
(-3.102517745480346e-12 0 0)
(-3.276328263434149e-12 0 0)
(-3.085136693684636e-12 0 0)
(-3.024303012400983e-12 0 0)
(-3.215494582150174e-12 0 0)
)
;

boundaryField
{
    inlet
    {
        type            zeroGradient;
    }
    outlet
    {
        type            pressureInletOutletVelocity;
        value           uniform (-3.215494582150174e-12 0 0);
    }
    frontAndBack
    {
        type            empty;
    }
}


// ************************************************************************* //
