/*--------------------------------*- C++ -*----------------------------------*\
| =========                 |                                                 |
| \\      /  F ield         | OpenFOAM: The Open Source CFD Toolbox           |
|  \\    /   O peration     | Version:  v2012                                 |
|   \\  /    A nd           | Website:  www.openfoam.com                      |
|    \\/     M anipulation  |                                                 |
\*---------------------------------------------------------------------------*/
FoamFile
{
    version     2.0;
    format      ascii;
    class       volVectorField;
    location    "0.005";
    object      UMean;
}
// * * * * * * * * * * * * * * * * * * * * * * * * * * * * * * * * * * * * * //

dimensions      [0 1 -1 0 0 0 0];


internalField   nonuniform List<vector> 
1000
(
(-6.840333294119556e-05 0 0)
(-2.804494556948558e-06 0 0)
(5.679469346970341e-05 0 0)
(0.0001382341772847812 0 0)
(0.0001991811536365118 0 0)
(0.0003107544381753031 0 0)
(0.0004177122703295205 0 0)
(0.0005652574829040476 0 0)
(0.0007355013623263606 0 0)
(0.0009511860215340203 0 0)
(0.001126093267527495 0 0)
(0.001270096290591187 0 0)
(0.00142177844426118 0 0)
(0.001587317349758769 0 0)
(0.001729282974621842 0 0)
(0.001940784056108401 0 0)
(0.002135978809865202 0 0)
(0.002268050050217825 0 0)
(0.002367293606396616 0 0)
(0.002462125752880827 0 0)
(0.002494354789417481 0 0)
(0.002496815521583764 0 0)
(0.002549380966690832 0 0)
(0.002605035851851913 0 0)
(0.002600981823785818 0 0)
(0.002598157633702286 0 0)
(0.002529372420905814 0 0)
(0.002423947223659097 0 0)
(0.002274055706147486 0 0)
(0.002116353346454442 0 0)
(0.001969506422435256 0 0)
(0.001847969858677886 0 0)
(0.001697155177756773 0 0)
(0.001539795441176908 0 0)
(0.001339008712859933 0 0)
(0.00116106991249677 0 0)
(0.000963464323302294 0 0)
(0.0007761125911357878 0 0)
(0.0006131948873401377 0 0)
(0.0004958478884584652 0 0)
(0.0003475193728952988 0 0)
(0.0002196377413788763 0 0)
(0.0001233082055881594 0 0)
(3.069836538795107e-05 0 0)
(-6.500859685629895e-05 0 0)
(-9.024488251830901e-05 0 0)
(-6.275911491449888e-05 0 0)
(-5.015490795040512e-05 0 0)
(5.039876160565419e-06 0 0)
(5.189595724217724e-05 0 0)
(0.0001289841439603749 0 0)
(0.0002317616639746119 0 0)
(0.0003582749346279209 0 0)
(0.0005333213099418634 0 0)
(0.0007192377803429937 0 0)
(0.0008611128440585455 0 0)
(0.001033028273009944 0 0)
(0.001202585019234149 0 0)
(0.001378271981192301 0 0)
(0.001538382586836951 0 0)
(0.00172356087224892 0 0)
(0.001914993717709521 0 0)
(0.002067463986691347 0 0)
(0.002243682441396833 0 0)
(0.002374118366461122 0 0)
(0.002449896509472435 0 0)
(0.002509433598600686 0 0)
(0.002561943863808602 0 0)
(0.002603810322498202 0 0)
(0.002639349632913467 0 0)
(0.002672795964749301 0 0)
(0.002672576201501686 0 0)
(0.002598559391997773 0 0)
(0.002483271968578094 0 0)
(0.002341135533197552 0 0)
(0.002177426282750676 0 0)
(0.002045634178629587 0 0)
(0.001895326308399318 0 0)
(0.001733873526723326 0 0)
(0.001579270271494701 0 0)
(0.001395706585630985 0 0)
(0.001205962367597614 0 0)
(0.001017220892008214 0 0)
(0.000833974164580358 0 0)
(0.0006484575798303354 0 0)
(0.0004761101950797866 0 0)
(0.0003330547863040525 0 0)
(0.0001992497391973814 0 0)
(9.698558326901819e-05 0 0)
(-2.320704180369599e-06 0 0)
(-9.021659485940013e-05 0 0)
(-0.0001624061946432539 0 0)
(-0.0002030865587378639 0 0)
(-0.0002005737356745506 0 0)
(-0.0001593229467948825 0 0)
(-9.166478173421619e-05 0 0)
(2.01058223528466e-06 0 0)
(0.0001291582975272714 0 0)
(0.0002798097302168068 0 0)
(0.0004511443741422391 0 0)
(0.0006175342443550477 0 0)
(0.0007862296603492027 0 0)
(0.0009558235206965184 0 0)
(0.001123372323491504 0 0)
(0.001304631766135336 0 0)
(0.001482315718257706 0 0)
(0.001659690045670185 0 0)
(0.00184444458803719 0 0)
(0.002025484145546601 0 0)
(0.002195474035896232 0 0)
(0.00235644030562188 0 0)
(0.002492410876052787 0 0)
(0.002593468229534776 0 0)
(0.002669716182992607 0 0)
(0.002728621612259288 0 0)
(0.002770596708183577 0 0)
(0.002788951540873385 0 0)
(0.002777747307037058 0 0)
(0.002727390095950056 0 0)
(0.002628903955568182 0 0)
(0.002481547743166537 0 0)
(0.002309527860738546 0 0)
(0.002134817184177251 0 0)
(0.001958402997132812 0 0)
(0.001782865945541187 0 0)
(0.001607108020903987 0 0)
(0.0014304666393312 0 0)
(0.001254751860315024 0 0)
(0.001079154120879823 0 0)
(0.0009009668136192681 0 0)
(0.0007228452249728613 0 0)
(0.0005474672300389102 0 0)
(0.0003700518787408862 0 0)
(0.0001977219955932199 0 0)
(3.235174445144702e-05 0 0)
(-0.000116223062071538 0 0)
(-0.0002331116716383032 0 0)
(-0.0003147944942136497 0 0)
(-0.000358050812753936 0 0)
(-0.0003740768816209943 0 0)
(-0.000366131810495919 0 0)
(-0.0003212419164583291 0 0)
(-0.000221769467561086 0 0)
(-6.116736933081405e-05 0 0)
(0.0001235569145733299 0 0)
(0.0003130986504668078 0 0)
(0.0005001645912918835 0 0)
(0.0006900977987591936 0 0)
(0.0008766680250738937 0 0)
(0.001066331857356255 0 0)
(0.001252861613983937 0 0)
(0.001442332757768345 0 0)
(0.001626491722294066 0 0)
(0.001810625763997006 0 0)
(0.001984613875880128 0 0)
(0.002152033765650352 0 0)
(0.002305051765747166 0 0)
(0.002453006345326182 0 0)
(0.002587147727254402 0 0)
(0.002720129868410215 0 0)
(0.002837350126743196 0 0)
(0.002936424235988124 0 0)
(0.002979651066069764 0 0)
(0.00293154676523325 0 0)
(0.002792403523614985 0 0)
(0.002636274691391833 0 0)
(0.002472262559400482 0 0)
(0.002314430750875852 0 0)
(0.002151517184992997 0 0)
(0.001993482525915399 0 0)
(0.00182745709492244 0 0)
(0.001664741094886329 0 0)
(0.001485749166129104 0 0)
(0.001305472084049455 0 0)
(0.001114736582505808 0 0)
(0.0009326794284385453 0 0)
(0.0007416481436046113 0 0)
(0.0005593479910719116 0 0)
(0.0003699473904669838 0 0)
(0.0001913602802481909 0 0)
(1.316452696231625e-05 0 0)
(-0.000141045968578921 0 0)
(-0.0002738867943011227 0 0)
(-0.000367150970128314 0 0)
(-0.000436317661657762 0 0)
(-0.0004759737478307416 0 0)
(-0.0004834312158817315 0 0)
(-0.0004204045366156702 0 0)
(-0.0002778116302344605 0 0)
(-9.211761558153071e-05 0 0)
(9.326666847349952e-05 0 0)
(0.0002837521529733108 0 0)
(0.0004679896178144041 0 0)
(0.0006588213393100499 0 0)
(0.0008429858788843447 0 0)
(0.001033533071862794 0 0)
(0.001217305623998968 0 0)
(0.001407154996148561 0 0)
(0.00159034994789916 0 0)
(0.001778120422029545 0 0)
(0.001959080860871246 0 0)
(0.002141305226410948 0 0)
(0.002316329881272067 0 0)
(0.002490149578301877 0 0)
(0.002656101323581913 0 0)
(0.002818350700671871 0 0)
(0.002969899501099351 0 0)
(0.003102294766700341 0 0)
(0.003183060497394491 0 0)
(0.003154934006154522 0 0)
(0.003010833939559022 0 0)
(0.0028278787235052 0 0)
(0.00264348538424681 0 0)
(0.002457381838059098 0 0)
(0.002273635738570718 0 0)
(0.002087070618574786 0 0)
(0.001903914268494293 0 0)
(0.001716717032695578 0 0)
(0.001534542322592911 0 0)
(0.001347120574943659 0 0)
(0.001165730329461645 0 0)
(0.0009787660406632452 0 0)
(0.000799214663595772 0 0)
(0.0006155062354936907 0 0)
(0.0004412028804243118 0 0)
(0.0002647515097043097 0 0)
(9.814320750776715e-05 0 0)
(-7.165330723467919e-05 0 0)
(-0.0002325431686606009 0 0)
(-0.0003943387612930817 0 0)
(-0.0005360164757324181 0 0)
(-0.0006435338918750066 0 0)
(-0.0006450305512772617 0 0)
(-0.0005221198376364595 0 0)
(-0.0003359875193097849 0 0)
(-0.0001510282070053176 0 0)
(4.0183114026875e-05 0 0)
(0.0002256556407538334 0 0)
(0.0004163690921624084 0 0)
(0.0006028365847102467 0 0)
(0.0007925178513537935 0 0)
(0.0009800977364157414 0 0)
(0.001169059650395909 0 0)
(0.001357588477378843 0 0)
(0.001545185384741575 0 0)
(0.001733900011192704 0 0)
(0.001919222899083042 0 0)
(0.002106665031076473 0 0)
(0.002284958329211797 0 0)
(0.002466994636591017 0 0)
(0.002635684509197449 0 0)
(0.002808973361249281 0 0)
(0.002964395011005182 0 0)
(0.003114362352531219 0 0)
(0.003212248990807907 0 0)
(0.003218631806132333 0 0)
(0.003089358908877938 0 0)
(0.002910546961524251 0 0)
(0.002720259528117596 0 0)
(0.002534175949078202 0 0)
(0.002344487525340595 0 0)
(0.002157969854111408 0 0)
(0.001972186947019637 0 0)
(0.001784064827728707 0 0)
(0.0015998805390628 0 0)
(0.001411208006818798 0 0)
(0.001232941327259364 0 0)
(0.001044513506228218 0 0)
(0.0008678996676866303 0 0)
(0.0006823984953190129 0 0)
(0.0005139516236515497 0 0)
(0.0003346412603998708 0 0)
(0.0001731604426078496 0 0)
(6.093257783040554e-06 0 0)
(-0.0001441654208810651 0 0)
(-0.0002995537858160346 0 0)
(-0.0004433735515668732 0 0)
(-0.0005617889895468101 0 0)
(-0.0006079829627687746 0 0)
(-0.0005213716022918911 0 0)
(-0.0003511249911777011 0 0)
(-0.0001626312537458068 0 0)
(2.308504439414406e-05 0 0)
(0.00021256114075777 0 0)
(0.0003970139155413823 0 0)
(0.0005832358008002118 0 0)
(0.0007677054309882386 0 0)
(0.0009518234747971933 0 0)
(0.001134727344789421 0 0)
(0.00131549927658318 0 0)
(0.001498059423697864 0 0)
(0.001678119769970984 0 0)
(0.001856051485159512 0 0)
(0.002026381185111861 0 0)
(0.002197358395830136 0 0)
(0.002357354290325503 0 0)
(0.002518982407816438 0 0)
(0.00267058396086933 0 0)
(0.002829727511955731 0 0)
(0.002977307020361966 0 0)
(0.003099561142396605 0 0)
(0.003168553020400786 0 0)
(0.003093839354535896 0 0)
(0.002936304902966297 0 0)
(0.002744449326471809 0 0)
(0.002567168109723421 0 0)
(0.002375393422126314 0 0)
(0.002197805369665956 0 0)
(0.00200746768656361 0 0)
(0.001832066973062403 0 0)
(0.001644577494248814 0 0)
(0.001469235755328298 0 0)
(0.001283019445909758 0 0)
(0.001109848570873831 0 0)
(0.000927873644387217 0 0)
(0.0007556475147528665 0 0)
(0.0005770289311130259 0 0)
(0.0004124144568366933 0 0)
(0.00024356817615843 0 0)
(8.345418708067648e-05 0 0)
(-8.317152351553426e-05 0 0)
(-0.0002382774255257092 0 0)
(-0.0003896923905532318 0 0)
(-0.0005245616655412661 0 0)
(-0.0005865305582278044 0 0)
(-0.0005357504046055594 0 0)
(-0.0003703658375719746 0 0)
(-0.0001932771239941786 0 0)
(-3.374809784765663e-06 0 0)
(0.0001754445403211467 0 0)
(0.0003629865558200251 0 0)
(0.0005399559892087822 0 0)
(0.0007264625651307435 0 0)
(0.000902373739795693 0 0)
(0.001085552822852388 0 0)
(0.001259068792566372 0 0)
(0.001441170385327773 0 0)
(0.001613982054207651 0 0)
(0.001791688359679664 0 0)
(0.001960541142561311 0 0)
(0.002136045432472431 0 0)
(0.002303313566067746 0 0)
(0.002473992887022475 0 0)
(0.00263648044892386 0 0)
(0.002803434760319933 0 0)
(0.002960462855141768 0 0)
(0.003095892812906883 0 0)
(0.003182189396403315 0 0)
(0.003140038336450714 0 0)
(0.002992019776985189 0 0)
(0.00280438438388131 0 0)
(0.002623571369507416 0 0)
(0.002434558722259722 0 0)
(0.002253772454737093 0 0)
(0.002065955192480137 0 0)
(0.001888743167152867 0 0)
(0.001704953191818605 0 0)
(0.001530712265697929 0 0)
(0.001348725484333449 0 0)
(0.001176028734153478 0 0)
(0.0009959757265163641 0 0)
(0.0008237389991066871 0 0)
(0.0006438624563637333 0 0)
(0.0004740831802204031 0 0)
(0.0002977661641606946 0 0)
(0.0001293228924649242 0 0)
(-4.681120051948282e-05 0 0)
(-0.0002101085332257583 0 0)
(-0.0003731203433826825 0 0)
(-0.0005189177578970174 0 0)
(-0.0006045682005023444 0 0)
(-0.0005763493938278086 0 0)
(-0.0004240959643400123 0 0)
(-0.0002444371363105201 0 0)
(-5.653076172509807e-05 0 0)
(0.0001253032966522559 0 0)
(0.0003122840711710641 0 0)
(0.0004922921242573962 0 0)
(0.0006775763371241984 0 0)
(0.0008537667287515528 0 0)
(0.001034793034455678 0 0)
(0.001208696971492956 0 0)
(0.001389197092742279 0 0)
(0.001563299701774585 0 0)
(0.001742549431940441 0 0)
(0.001914540389204526 0 0)
(0.002093279885487593 0 0)
(0.002265240941359628 0 0)
(0.002441325080527143 0 0)
(0.002608967618281461 0 0)
(0.002782443837542251 0 0)
(0.002945465836969312 0 0)
(0.003091119752699401 0 0)
(0.003192085397579333 0 0)
(0.003171375274238755 0 0)
(0.003034190274365068 0 0)
(0.002850173426190826 0 0)
(0.002670645543914449 0 0)
(0.002484097313980589 0 0)
(0.002304530352259695 0 0)
(0.002118845398295426 0 0)
(0.001942233612806799 0 0)
(0.001759861167569203 0 0)
(0.001586397785663539 0 0)
(0.001405923178554134 0 0)
(0.001233626664088921 0 0)
(0.001054183262375771 0 0)
(0.0008818390347057881 0 0)
(0.0007020681645064603 0 0)
(0.00053179871090994 0 0)
(0.0003547661638130139 0 0)
(0.0001851045428618766 0 0)
(8.18991332412973e-06 0 0)
(-0.0001562955800499504 0 0)
(-0.0003226173178246048 0 0)
(-0.0004745910597402007 0 0)
(-0.0005785854919440077 0 0)
(-0.0005815598899360847 0 0)
(-0.0004498659348926479 0 0)
(-0.0002747620059674507 0 0)
(-8.992019057427914e-05 0 0)
(8.928696565563369e-05 0 0)
(0.0002735240945496767 0 0)
(0.000451567382651866 0 0)
(0.0006345858497538952 0 0)
(0.0008093338499364389 0 0)
(0.0009886381993415877 0 0)
(0.001161464539757386 0 0)
(0.0013405369826441 0 0)
(0.001513670612155369 0 0)
(0.001691592440591519 0 0)
(0.001863271516609382 0 0)
(0.002041288453495875 0 0)
(0.00221276926546601 0 0)
(0.002387742679463011 0 0)
(0.002555696186260567 0 0)
(0.002729558883091417 0 0)
(0.002893321139747489 0 0)
(0.003045183158064158 0 0)
(0.003164766183762906 0 0)
(0.003180650972417916 0 0)
(0.003071032277737667 0 0)
(0.002892878414207615 0 0)
(0.00271570934442072 0 0)
(0.002531089585064037 0 0)
(0.002353634872829293 0 0)
(0.002169798185759464 0 0)
(0.001994721737647563 0 0)
(0.001813524377644652 0 0)
(0.00164153471395106 0 0)
(0.00146251308783688 0 0)
(0.001291448520198547 0 0)
(0.00111278023669318 0 0)
(0.0009411683840639321 0 0)
(0.000762519616239557 0 0)
(0.0005930953508770766 0 0)
(0.0004163979700542107 0 0)
(0.0002468512553291223 0 0)
(7.094554594705803e-05 0 0)
(-9.32915306799465e-05 0 0)
(-0.0002616656715293306 0 0)
(-0.0004180400940260333 0 0)
(-0.0005398588451051007 0 0)
(-0.0005809885679605607 0 0)
(-0.0004821724145016283 0 0)
(-0.000314401818022028 0 0)
(-0.000131193207003799 0 0)
(4.654909702014652e-05 0 0)
(0.0002294708813368196 0 0)
(0.0004065112632690291 0 0)
(0.0005884369407470908 0 0)
(0.0007623504877945141 0 0)
(0.000940583301701587 0 0)
(0.001112454991225364 0 0)
(0.001290508214072916 0 0)
(0.001462692813606792 0 0)
(0.001639828890764392 0 0)
(0.001811251897002753 0 0)
(0.0019888439385252 0 0)
(0.002159548542554596 0 0)
(0.002334003056043392 0 0)
(0.002502293377037685 0 0)
(0.0026766893879676 0 0)
(0.0028405948076849 0 0)
(0.002997837961581471 0 0)
(0.003132958554412834 0 0)
(0.0031860776890137 0 0)
(0.003114588433909811 0 0)
(0.002946299051678095 0 0)
(0.002769980743954335 0 0)
(0.002585752571012909 0 0)
(0.00240871062701515 0 0)
(0.002225260217296212 0 0)
(0.00205028680399869 0 0)
(0.001869116818175067 0 0)
(0.001697730809105813 0 0)
(0.001519629774529009 0 0)
(0.001349488893020744 0 0)
(0.001171282273977838 0 0)
(0.001000346039913232 0 0)
(0.000822547264810711 0 0)
(0.0006536054004005067 0 0)
(0.000476820421735329 0 0)
(0.0003074614673397142 0 0)
(0.0001323414055316037 0 0)
(-3.204258903857312e-05 0 0)
(-0.0002025887572651487 0 0)
(-0.0003616326392665614 0 0)
(-0.0004976727615883267 0 0)
(-0.0005735162558310633 0 0)
(-0.0005166144147249818 0 0)
(-0.0003619011496933632 0 0)
(-0.000179554345046995 0 0)
(-1.741370662061688e-06 0 0)
(0.0001811588532808451 0 0)
(0.0003586276927276576 0 0)
(0.0005405902326349295 0 0)
(0.0007147252013939556 0 0)
(0.0008927051907993928 0 0)
(0.00106410996852278 0 0)
(0.001241336648951836 0 0)
(0.001412642411272109 0 0)
(0.001589204690535276 0 0)
(0.001760341178048745 0 0)
(0.001937479153306614 0 0)
(0.00210722344065098 0 0)
(0.002281418664435657 0 0)
(0.002449936390462379 0 0)
(0.002624371217778589 0 0)
(0.002788087111934121 0 0)
(0.00294950657688208 0 0)
(0.00309538339492431 0 0)
(0.003179924775173037 0 0)
(0.003152454675822536 0 0)
(0.003002539135469309 0 0)
(0.002827326082680917 0 0)
(0.002643290806466055 0 0)
(0.002466038489188508 0 0)
(0.002282771638074367 0 0)
(0.002107133162693433 0 0)
(0.001925726049371059 0 0)
(0.001753970330224882 0 0)
(0.001576466342641735 0 0)
(0.001406400879630281 0 0)
(0.001228719563588286 0 0)
(0.001057829757481533 0 0)
(0.0008809378441227724 0 0)
(0.0007116878149265825 0 0)
(0.0005349980457216712 0 0)
(0.0003655232299133125 0 0)
(0.0001915325082109843 0 0)
(2.631078314103051e-05 0 0)
(-0.0001455817613038334 0 0)
(-0.0003064072598589189 0 0)
(-0.0004521619215946112 0 0)
(-0.0005560034928304502 0 0)
(-0.0005433759206506715 0 0)
(-0.0004118405010640115 0 0)
(-0.0002308621491026333 0 0)
(-5.298946114106841e-05 0 0)
(0.0001309514297117798 0 0)
(0.000308885705223675 0 0)
(0.0004918460739300862 0 0)
(0.0006664532794664436 0 0)
(0.0008453259889644619 0 0)
(0.001016186545563363 0 0)
(0.00119320373385481 0 0)
(0.001363506180408639 0 0)
(0.001540249184882058 0 0)
(0.001711024086501543 0 0)
(0.001888178979042856 0 0)
(0.002056958977971726 0 0)
(0.002231727618610039 0 0)
(0.002400267543896457 0 0)
(0.002574719194235213 0 0)
(0.002737933777274777 0 0)
(0.002902980499435736 0 0)
(0.00305573530861093 0 0)
(0.003165360701347791 0 0)
(0.003183099802758734 0 0)
(0.003062650366023511 0 0)
(0.002889696119877741 0 0)
(0.002704577465001883 0 0)
(0.002525635705598791 0 0)
(0.002341080162940753 0 0)
(0.002163485842080931 0 0)
(0.001980643244135371 0 0)
(0.001808134461224731 0 0)
(0.001630887593003685 0 0)
(0.001461297302379307 0 0)
(0.001284233733787965 0 0)
(0.00111423947619903 0 0)
(0.0009379790577937067 0 0)
(0.0007690383971373167 0 0)
(0.0005922841938958139 0 0)
(0.0004237119987016555 0 0)
(0.0002502469646114082 0 0)
(8.483208589005631e-05 0 0)
(-8.816003533581801e-05 0 0)
(-0.0002492154128909817 0 0)
(-0.0004022644470669998 0 0)
(-0.0005267634654192597 0 0)
(-0.0005580283047354754 0 0)
(-0.0004611079948294824 0 0)
(-0.0002853574410029541 0 0)
(-0.0001064890864781314 0 0)
(7.872658139007851e-05 0 0)
(0.0002578754353860544 0 0)
(0.0004422218929951195 0 0)
(0.0006181125766027421 0 0)
(0.000798253591810859 0 0)
(0.0009686950557364957 0 0)
(0.001145361167407032 0 0)
(0.001314645939241792 0 0)
(0.001491380834665101 0 0)
(0.001661345252339766 0 0)
(0.001838145227660581 0 0)
(0.00200614015579191 0 0)
(0.002181503303390562 0 0)
(0.002349817984407568 0 0)
(0.002524071740460807 0 0)
(0.002687233351867532 0 0)
(0.002855363629659245 0 0)
(0.003012020757914378 0 0)
(0.00313984084814267 0 0)
(0.003197220305371246 0 0)
(0.003116573031146747 0 0)
(0.002951846459237423 0 0)
(0.002766309220735364 0 0)
(0.002586018755733087 0 0)
(0.002400451526026193 0 0)
(0.002221160409238555 0 0)
(0.002036990122477877 0 0)
(0.001863090627936641 0 0)
(0.001685515545927237 0 0)
(0.001516130953669819 0 0)
(0.001339602575745429 0 0)
(0.001170339893228424 0 0)
(0.0009945449858743331 0 0)
(0.0008256411187744008 0 0)
(0.0006490643593884566 0 0)
(0.0004813090446077944 0 0)
(0.0003077815607317957 0 0)
(0.0001419331181706635 0 0)
(-3.183302751797442e-05 0 0)
(-0.0001928289584224012 0 0)
(-0.0003516180534919731 0 0)
(-0.0004902309983837471 0 0)
(-0.0005594000243183202 0 0)
(-0.0005066253808062557 0 0)
(-0.0003436028353973258 0 0)
(-0.0001631446323801556 0 0)
(2.441725924227527e-05 0 0)
(0.0002060697013297472 0 0)
(0.0003928221679516975 0 0)
(0.0005717088932109783 0 0)
(0.0007548098746164039 0 0)
(0.0009260179196797565 0 0)
(0.001102079464878918 0 0)
(0.001270411764079415 0 0)
(0.001446526013102388 0 0)
(0.001615563022657549 0 0)
(0.001791232687421587 0 0)
(0.001958243319410137 0 0)
(0.002133744146801093 0 0)
(0.002301015663524496 0 0)
(0.002474376194330856 0 0)
(0.002636565576515427 0 0)
(0.002807088511257833 0 0)
(0.002964600381199288 0 0)
(0.003107910482898823 0 0)
(0.00320111509331631 0 0)
(0.003176765021662529 0 0)
(0.003031895093326196 0 0)
(0.002848311088319805 0 0)
(0.002663530853231041 0 0)
(0.002478078218007741 0 0)
(0.002293338920550815 0 0)
(0.002108754805734951 0 0)
(0.001925706059590724 0 0)
(0.001744106835608634 0 0)
(0.001564485480826866 0 0)
(0.001386486439023803 0 0)
(0.001210748064873967 0 0)
(0.001038142699448629 0 0)
(0.0008702544734780553 0 0)
(0.0007075716750571376 0 0)
(0.000549473117289042 0 0)
(0.0003957344162349363 0 0)
(0.0002491273994416487 0 0)
(0.0001200258632953061 0 0)
(3.27525624213145e-05 0 0)
(2.857400779381624e-06 0 0)
(3.472952460904769e-08 0 0)
(2.102147932864052e-11 0 0)
(-7.950793335031995e-13 0 0)
(-7.992682920294153e-13 0 0)
(-7.999435271352137e-13 0 0)
(-7.517767562604234e-13 0 0)
(-8.034097340111818e-13 0 0)
(-7.791162754298697e-13 0 0)
(-7.895974247930998e-13 0 0)
(-7.800090862918724e-13 0 0)
(-7.724739626861689e-13 0 0)
(-7.828900894095099e-13 0 0)
(-7.936938511011759e-13 0 0)
(-8.330500542815856e-13 0 0)
(-7.940139625586056e-13 0 0)
(-9.02069085569353e-13 0 0)
(-8.223338230667724e-13 0 0)
(-8.158865782425152e-13 0 0)
(-7.874216672302318e-13 0 0)
(-7.923233739235574e-13 0 0)
(-8.062132101353544e-13 0 0)
(-8.272655402093172e-13 0 0)
(-8.567533073631115e-13 0 0)
(-8.676521021436682e-13 0 0)
(-8.562181210201378e-13 0 0)
(-8.380718027715754e-13 0 0)
(-8.245671006571514e-13 0 0)
(-8.257700194935511e-13 0 0)
(-8.357284868676641e-13 0 0)
(-8.684173685967868e-13 0 0)
(-8.441489187229962e-13 0 0)
(-8.75022168279087e-13 0 0)
(-8.369589152825567e-13 0 0)
(-8.474450663873295e-13 0 0)
(-8.469899079086445e-13 0 0)
(-8.3642122806872e-13 0 0)
(-8.379292531381706e-13 0 0)
(-8.664041676335553e-13 0 0)
(-9.135455814957845e-13 0 0)
(-8.490631297703021e-13 0 0)
(-9.582336411407641e-13 0 0)
(-9.025942684293502e-13 0 0)
(-9.325221888373776e-13 0 0)
(-9.475999386609305e-13 0 0)
(-9.520339825219613e-13 0 0)
(-9.688998549403572e-13 0 0)
(-9.853155706216536e-13 0 0)
(-9.869686461953535e-13 0 0)
(-9.961893566945826e-13 0 0)
(-1.007018127093804e-12 0 0)
(-1.023071216514619e-12 0 0)
(-1.031126521238721e-12 0 0)
(-1.01802195844625e-12 0 0)
(-1.008391105142132e-12 0 0)
(-1.034710269040506e-12 0 0)
(-1.007853417928249e-12 0 0)
(-1.07605216360607e-12 0 0)
(-1.043815939484796e-12 0 0)
(-1.064773236469755e-12 0 0)
(-1.072708499397213e-12 0 0)
(-1.094771181259111e-12 0 0)
(-1.096554302112309e-12 0 0)
(-1.071348025702797e-12 0 0)
(-1.096721860453437e-12 0 0)
(-1.029398419542299e-12 0 0)
(-1.113165085713103e-12 0 0)
(-1.016839046575885e-12 0 0)
(-1.037951397548041e-12 0 0)
(-1.057233111122494e-12 0 0)
(-1.045401491547953e-12 0 0)
(-1.036780990031379e-12 0 0)
(-1.029590986590955e-12 0 0)
(-1.030866430679523e-12 0 0)
(-1.042570505845348e-12 0 0)
(-1.059023734588126e-12 0 0)
(-1.063245204434099e-12 0 0)
(-1.063310227074138e-12 0 0)
(-1.078252929876483e-12 0 0)
(-1.077485162552628e-12 0 0)
(-1.096211682817973e-12 0 0)
(-1.082454392756572e-12 0 0)
(-1.166613695637082e-12 0 0)
(-1.132321755749471e-12 0 0)
(-1.154194371433261e-12 0 0)
(-1.1695622222653e-12 0 0)
(-1.145708916938186e-12 0 0)
(-1.128472915646729e-12 0 0)
(-1.139756844524691e-12 0 0)
(-1.166010985783457e-12 0 0)
(-1.124996705287845e-12 0 0)
(-1.244215715379735e-12 0 0)
(-1.167599038717127e-12 0 0)
(-1.189859289369329e-12 0 0)
(-1.184262340603974e-12 0 0)
(-1.168866980193587e-12 0 0)
(-1.161086771253238e-12 0 0)
(-1.171970560809187e-12 0 0)
(-1.209678690157489e-12 0 0)
(-1.157473013002241e-12 0 0)
(-1.284817352199693e-12 0 0)
(-1.217648965275711e-12 0 0)
(-1.224356300659417e-12 0 0)
(-1.208213179890923e-12 0 0)
(-1.209035966371727e-12 0 0)
(-1.203188930530343e-12 0 0)
(-1.167884137984131e-12 0 0)
(-1.250697972394684e-12 0 0)
(-1.150130456445234e-12 0 0)
(-1.248689773172861e-12 0 0)
(-1.192802814255829e-12 0 0)
(-1.218739344927998e-12 0 0)
(-1.216826178795097e-12 0 0)
(-1.218649313580508e-12 0 0)
(-1.252281023586958e-12 0 0)
(-1.179850804579963e-12 0 0)
(-1.284369696333292e-12 0 0)
(-1.222800759045087e-12 0 0)
(-1.265960786654731e-12 0 0)
(-1.257130211994365e-12 0 0)
(-1.268646721853284e-12 0 0)
(-1.28440971026543e-12 0 0)
(-1.301523168889408e-12 0 0)
(-1.321890260374258e-12 0 0)
(-1.332734035998213e-12 0 0)
(-1.346106191962283e-12 0 0)
(-1.289306415217345e-12 0 0)
(-1.40610208154092e-12 0 0)
(-1.353468755485315e-12 0 0)
(-1.384009389230045e-12 0 0)
(-1.383396675893107e-12 0 0)
(-1.381418487120701e-12 0 0)
(-1.383811820439864e-12 0 0)
(-1.395948546247542e-12 0 0)
(-1.429910371194447e-12 0 0)
(-1.374090935788178e-12 0 0)
(-1.488620813201546e-12 0 0)
(-1.430518082789647e-12 0 0)
(-1.441807013408975e-12 0 0)
(-1.451780486007299e-12 0 0)
(-1.469766748527374e-12 0 0)
(-1.50096010954084e-12 0 0)
(-1.469634202376993e-12 0 0)
(-1.518886351162411e-12 0 0)
(-1.476646643993452e-12 0 0)
(-1.465485257782968e-12 0 0)
(-1.459125543435082e-12 0 0)
(-1.474025731435009e-12 0 0)
(-1.484061725802541e-12 0 0)
(-1.477169325982694e-12 0 0)
(-1.488700841065922e-12 0 0)
(-1.422307724078216e-12 0 0)
(-1.52333790111866e-12 0 0)
(-1.454884066623068e-12 0 0)
(-1.484761969615958e-12 0 0)
(-1.490974132588227e-12 0 0)
(-1.498029089007973e-12 0 0)
(-1.493712586072851e-12 0 0)
(-1.491029151745381e-12 0 0)
(-1.517250781684113e-12 0 0)
(-1.460446003197592e-12 0 0)
(-1.570314257510721e-12 0 0)
(-1.50506904020249e-12 0 0)
(-1.517083223343032e-12 0 0)
(-1.499929750786955e-12 0 0)
(-1.484571903437935e-12 0 0)
(-1.494445341206e-12 0 0)
(-1.461909012593285e-12 0 0)
(-1.518771311107283e-12 0 0)
(-1.502163028377348e-12 0 0)
(-1.519048907761871e-12 0 0)
(-1.518011046395358e-12 0 0)
(-1.545110481972022e-12 0 0)
(-1.557182185139736e-12 0 0)
(-1.573807973965099e-12 0 0)
(-1.61852604405912e-12 0 0)
(-1.575691129648765e-12 0 0)
(-1.692459286394095e-12 0 0)
(-1.643157120193167e-12 0 0)
(-1.674210432444285e-12 0 0)
(-1.673450167732677e-12 0 0)
(-1.676306162142822e-12 0 0)
(-1.691136325761031e-12 0 0)
(-1.690901243909351e-12 0 0)
(-1.721874528295966e-12 0 0)
(-1.681540484647454e-12 0 0)
(-1.807691908491505e-12 0 0)
(-1.749754235549587e-12 0 0)
(-1.761648376893631e-12 0 0)
(-1.754550905671222e-12 0 0)
(-1.765859843256631e-12 0 0)
(-1.782598171266206e-12 0 0)
(-1.748256213963461e-12 0 0)
(-1.796783110227933e-12 0 0)
(-1.762476165115456e-12 0 0)
(-1.761223228864016e-12 0 0)
(-1.741523869872257e-12 0 0)
(-1.717452988788714e-12 0 0)
(-1.73186300611897e-12 0 0)
(-1.74709080818831e-12 0 0)
(-1.771836924377599e-12 0 0)
(-1.722124615371941e-12 0 0)
(-1.833518400849876e-12 0 0)
(-1.783510989094019e-12 0 0)
(-1.832027881875788e-12 0 0)
(-1.830402315880575e-12 0 0)
(-1.83569665928352e-12 0 0)
(-1.864344133861409e-12 0 0)
(-1.855556074004074e-12 0 0)
(-1.873284746835384e-12 0 0)
(-1.816932625956624e-12 0 0)
(-1.902582447811409e-12 0 0)
(-1.824685325318832e-12 0 0)
(-1.822249477196697e-12 0 0)
(-1.807111706474559e-12 0 0)
(-1.800852026957619e-12 0 0)
(-1.805386105649003e-12 0 0)
(-1.77634849523224e-12 0 0)
(-1.869368383221908e-12 0 0)
(-1.865787136291144e-12 0 0)
(-1.900629267746251e-12 0 0)
(-1.923664788334486e-12 0 0)
(-1.963636205722098e-12 0 0)
(-1.970338539364377e-12 0 0)
(-1.972936944086017e-12 0 0)
(-2.032097542830101e-12 0 0)
(-1.966049546007502e-12 0 0)
(-2.088207079244744e-12 0 0)
(-2.03239764732163e-12 0 0)
(-2.039907762219709e-12 0 0)
(-2.02505258989363e-12 0 0)
(-2.016557131915555e-12 0 0)
(-2.00773656073822e-12 0 0)
(-1.996007476864765e-12 0 0)
(-1.997725575078224e-12 0 0)
(-1.932933015377968e-12 0 0)
(-2.030554505570084e-12 0 0)
(-1.979224133181477e-12 0 0)
(-2.031719911345023e-12 0 0)
(-2.037191816572091e-12 0 0)
(-2.055605727992216e-12 0 0)
(-2.095467107066739e-12 0 0)
(-2.014606452721261e-12 0 0)
(-2.117509781962138e-12 0 0)
(-2.033320468632801e-12 0 0)
(-2.050051294030112e-12 0 0)
(-1.961602997792965e-12 0 0)
(-2.063540990919753e-12 0 0)
(-1.986439145329687e-12 0 0)
(-1.978723959029149e-12 0 0)
(-1.983045463705711e-12 0 0)
(-1.990127929703303e-12 0 0)
(-2.013923715003139e-12 0 0)
(-1.964356456501797e-12 0 0)
(-2.095799722877917e-12 0 0)
(-2.039195014052338e-12 0 0)
(-2.065724251095107e-12 0 0)
(-2.056753627672067e-12 0 0)
(-2.045459695311174e-12 0 0)
(-2.04250616694134e-12 0 0)
(-2.026810702039304e-12 0 0)
(-2.061550297793299e-12 0 0)
(-2.017149838286107e-12 0 0)
(-2.137299172301376e-12 0 0)
(-2.07673808593042e-12 0 0)
(-2.098945818296536e-12 0 0)
(-2.130591836917907e-12 0 0)
(-2.142938635869689e-12 0 0)
(-2.120700893054386e-12 0 0)
(-2.105820712021151e-12 0 0)
(-2.096892603401061e-12 0 0)
(-2.021863979672432e-12 0 0)
(-2.116772025087408e-12 0 0)
(-2.045992380783509e-12 0 0)
(-2.041630862174707e-12 0 0)
(-2.014643965782736e-12 0 0)
(-2.00192203621664e-12 0 0)
(-2.038284697095134e-12 0 0)
(-1.978346327544111e-12 0 0)
(-2.055370646140761e-12 0 0)
(-1.983670681396093e-12 0 0)
(-2.022386661661547e-12 0 0)
(-2.030266905432515e-12 0 0)
(-2.0175174662882e-12 0 0)
(-2.006023464266352e-12 0 0)
(-1.994496950924408e-12 0 0)
(-2.002474728655157e-12 0 0)
(-1.937899744711368e-12 0 0)
(-2.078648751192634e-12 0 0)
(-2.019313091495021e-12 0 0)
(-2.056180928267574e-12 0 0)
(-2.06367853881186e-12 0 0)
(-2.061795383127992e-12 0 0)
(-2.10593325120506e-12 0 0)
(-2.134370652639276e-12 0 0)
(-2.157791307324781e-12 0 0)
(-2.055815801136324e-12 0 0)
(-2.147762815569262e-12 0 0)
(-2.107101157851106e-12 0 0)
(-2.128986277888877e-12 0 0)
(-2.128871237833812e-12 0 0)
(-2.14955093816401e-12 0 0)
(-2.17650782410694e-12 0 0)
(-2.119417946353745e-12 0 0)
(-2.235413334033421e-12 0 0)
(-2.197492630670272e-12 0 0)
(-2.212860481502467e-12 0 0)
(-2.214663609321683e-12 0 0)
)
;

boundaryField
{
    inlet
    {
        type            calculated;
        value           uniform (-6.840333294119556e-05 0 0);
    }
    outlet
    {
        type            calculated;
        value           uniform (-2.214663609321683e-12 0 0);
    }
    frontAndBack
    {
        type            empty;
    }
}


// ************************************************************************* //
