/*--------------------------------*- C++ -*----------------------------------*\
| =========                 |                                                 |
| \\      /  F ield         | OpenFOAM: The Open Source CFD Toolbox           |
|  \\    /   O peration     | Version:  v2012                                 |
|   \\  /    A nd           | Website:  www.openfoam.com                      |
|    \\/     M anipulation  |                                                 |
\*---------------------------------------------------------------------------*/
FoamFile
{
    version     2.0;
    format      ascii;
    class       volScalarField;
    location    "0.008";
    object      p;
}
// * * * * * * * * * * * * * * * * * * * * * * * * * * * * * * * * * * * * * //

dimensions      [1 -1 -2 0 0 0 0];


internalField   nonuniform List<scalar> 
1000
(
101303.7678643921
101309.4108689213
101304.3470616324
101294.6919603761
101292.3950464474
101286.4462331026
101281.8693297891
101281.5918789373
101276.5518198407
101276.1996761716
101276.4476214369
101276.3625019426
101277.8241037568
101279.4643697459
101280.9209421557
101286.1751828366
101289.4564774585
101294.8551137659
101301.3026544437
101306.3357558806
101313.1084347338
101319.5777748708
101326.2041647815
101332.997026445
101339.3365892648
101345.8970719292
101351.7071968372
101357.1140545831
101362.2291474072
101366.3563935876
101371.6135265372
101372.9744919202
101372.9187931507
101372.6725432456
101372.7122865494
101371.304332577
101370.2017082219
101368.909236492
101364.5099597562
101362.1221586236
101357.0470987587
101350.827647357
101345.7409714016
101338.3081135641
101331.8677085876
101325.25438591
101318.2511030113
101311.990933238
101305.5120321751
101299.4067327753
101293.7319183559
101288.4460415636
101283.3009226425
101278.0482988086
101277.5622033812
101277.6682105451
101277.6785091364
101278.195141735
101279.4005887474
101279.6754761742
101282.3734125067
101285.1888365719
101286.8178584577
101292.884538754
101297.1643128679
101302.2083288673
101309.9806942346
101315.7309295566
101323.095468533
101330.2227327578
101336.6506006143
101343.438686432
101349.3822768261
101355.2404492421
101360.6050942639
101366.5454377051
101371.6868005881
101371.9162701058
101371.8006000906
101371.8844882316
101371.0727625964
101370.5842940795
101369.8114715209
101367.2966805309
101365.948099239
101362.6331287054
101358.4157270283
101354.7023354256
101348.472497581
101342.7987004407
101336.19628135
101328.8638961625
101322.0137115609
101314.6324059723
101307.866754088
101301.3059017832
101295.0676671386
101289.7100350558
101282.8021238908
101278.6496404295
101278.6225970872
101278.5443315329
101278.7703300653
101279.0273135302
101279.8999259793
101280.7808825996
101282.2900893739
101284.9046587204
101286.9479834518
101291.0833695471
101295.2685560992
101299.9052496742
101306.222489535
101312.1112045334
101319.0844536005
101326.2216188398
101333.2882830508
101340.5085300848
101347.240842908
101353.7902216665
101359.5188347923
101366.588945402
101370.9208864497
101371.0408471374
101370.9135440323
101370.880842709
101370.5442825798
101369.6948354253
101369.35015924
101367.2775685344
101365.4723875254
101363.6861818691
101359.0391828128
101356.2826425906
101351.4487612121
101344.8818321273
101340.1548982715
101332.7208254369
101325.5754136156
101318.8425673409
101310.9561608494
101304.0918932192
101297.0946108229
101290.8195855647
101282.5655350006
101279.3589415636
101279.3617153471
101279.2114562135
101279.5605242995
101279.846224381
101280.2547683811
101281.619638125
101282.4315001928
101284.6474857849
101287.252809888
101289.460651812
101294.3243601921
101298.1747635536
101302.9809550296
101309.9065103678
101315.2771049414
101322.3992650907
101329.8686733147
101336.6221304863
101344.1684969606
101351.2715965166
101357.6453596914
101366.0135584006
101370.3374073431
101370.4101752824
101370.3706802268
101370.2888189459
101369.6711521268
101369.6144361197
101368.639973842
101366.968923515
101366.0126167731
101363.2202207038
101360.4596930472
101357.2941657506
101352.5560349408
101348.0693416533
101342.3225494485
101336.0921085196
101329.4413965734
101322.2027353072
101314.8043039741
101307.2747593166
101299.669117258
101292.7317433074
101283.3150360207
101279.9439168734
101279.9422925801
101280.0075419186
101280.0006093617
101280.6070523731
101280.951222428
101281.4664299928
101283.3630257289
101284.3672177932
101286.6224024911
101289.8266942751
101292.4973577945
101296.8940573173
101301.6051427388
101306.5363410744
101312.8149061766
101319.2534265351
101325.922727726
101333.4572379696
101340.7827121461
101348.1775783233
101355.3373349821
101364.5011108927
101369.561260508
101369.7753179139
101369.7903525876
101369.5205347829
101369.4869662883
101368.9876355182
101367.9736026319
101367.4075344481
101365.5400979147
101363.4943941413
101361.3560684646
101357.7815026762
101354.1272320098
101349.8939695331
101344.4539754212
101338.7183033286
101332.5956098998
101325.3208367023
101318.1433102423
101310.7339440212
101302.5267075391
101295.5046965089
101285.2015072523
101280.6684355408
101280.5974471391
101280.4374532418
101280.6925756057
101280.9862011416
101281.2676406543
101282.1863241739
101283.1588953699
101284.6230551724
101286.7785585791
101288.7970330684
101292.1685270386
101295.9177870704
101299.5148863816
101305.2659709423
101310.3716640586
101316.1496948104
101323.4520855014
101329.9497002837
101337.4762359902
101345.300052393
101352.3542653497
101361.5549275382
101368.6053391746
101369.2055923982
101369.2031511022
101368.9909985425
101369.0587851744
101368.2437242357
101367.8732183747
101366.9988764045
101365.0503151913
101364.1510769116
101361.3065330939
101358.3821222074
101355.6858171925
101350.7622179662
101346.5413372022
101341.2113336633
101334.7971007126
101328.6880974609
101321.2728362396
101313.8290912208
101306.1035155469
101298.3022311909
101288.9034740137
101281.597248225
101280.9771599035
101280.985416009
101281.2092873492
101281.1330590824
101281.9412654185
101282.3836070116
101283.0887422838
101285.0995904732
101286.0840837909
101288.7143975193
101291.6601047772
101294.324388138
101298.9750823564
101303.129916298
101308.2146045216
101314.3355199378
101320.2165196134
101327.2734820682
101334.4587836486
101341.8412881128
101349.7323873847
101357.2085675437
101367.1892737552
101368.6293060852
101368.7286237868
101368.7019109857
101368.3797025614
101368.0403045893
101367.6756578957
101366.3599429821
101365.6530266034
101363.8976188328
101361.5350380271
101359.6673587739
101355.7515287919
101352.4405312943
101348.3108294888
101342.4383059149
101337.6622254337
101331.0108706624
101323.9052528381
101317.2143624502
101309.0055228943
101301.1924555015
101293.2978134793
101282.9589219687
101281.7508790744
101281.6666242202
101281.6756941546
101282.0698456301
101282.2132563965
101282.8252979281
101283.9370315988
101284.5774914007
101286.6133268355
101288.433407287
101290.6757464043
101294.2427572275
101297.2217037352
101301.8219825374
101306.6030074243
101311.622454131
101318.1049405294
101324.1735307319
101331.2824552008
101338.7552412966
101346.2172365088
101353.659879718
101363.9927855274
101368.0823607771
101368.0488469114
101368.2221578771
101367.9861334661
101367.6644537917
101367.3184017888
101366.4434710244
101365.4516178817
101364.0300150106
101362.0158869882
101359.8610363101
101356.830741494
101353.3420813777
101349.4254087492
101344.6181307331
101339.3318228062
101333.4675106401
101326.8922126374
101319.8047296143
101312.4342859131
101304.4603087052
101297.0631617516
101286.4066244092
101282.172233923
101282.1399382388
101281.9943608252
101282.3039793236
101282.5486343787
101282.9475033753
101283.9312045151
101284.7206031762
101286.3702546783
101288.1796473875
101290.2587290306
101293.4239817183
101296.4761828545
101300.494092521
101305.102514653
101309.9531051736
101315.8392417485
101321.9167047217
101328.6234995601
101335.8517758597
101343.1950520069
101350.6463971005
101359.4014724407
101367.1799831664
101367.5499725495
101367.4514435504
101367.5575092793
101367.1632607497
101367.0648744412
101366.0364262336
101365.2798168223
101364.2950189037
101361.9748334345
101360.3632856574
101357.5021645314
101354.2856317489
101350.6861982655
101346.0567553603
101341.4345211981
101335.3913777873
101329.4268756843
101322.8103048447
101315.1093817838
101307.8872898754
101300.1483287565
101290.8899545161
101283.0546959522
101282.6693701354
101282.7136376225
101282.7694208217
101282.9548507874
101283.5133349541
101283.879221356
101285.0182641584
101286.3785810499
101287.5932301235
101290.2822234308
101292.5999441356
101295.3809647595
101299.8310039839
101303.4428884363
101308.2680253293
101314.0631000789
101319.4859212809
101326.1121275671
101333.0617095229
101340.0383396277
101347.7551787406
101355.0601414242
101365.0101046934
101367.1831069607
101367.16990853
101367.0596946005
101367.039026668
101366.4955904907
101365.9906492982
101365.5457024458
101363.7779894208
101362.7993423645
101360.7157182573
101357.8868840698
101355.585016389
101351.4547927256
101347.5249112724
101343.0192409457
101337.2030573295
101331.7080775134
101325.0214155006
101317.966131902
101310.8203859953
101302.910619734
101295.3818366965
101285.3119785734
101283.1026206109
101283.1132227983
101283.1483352125
101283.4312165703
101283.4556740908
101284.6219712788
101285.0387719047
101285.8265024374
101288.2104148168
101289.4017383871
101291.8500498017
101295.2556293933
101297.9744423441
101302.4366515782
101306.8587750932
101311.7110564669
101317.7240292296
101323.5186820074
101330.2758207004
101337.2689362133
101344.5189123496
101351.6300106054
101361.1493524094
101366.4703554587
101366.5664996622
101366.4857858154
101366.4883387555
101366.0945828674
101365.6703887581
101365.2354356832
101363.795695967
101362.8191093116
101360.977309053
101358.4506370976
101356.1721146575
101352.4820741348
101348.7658298239
101344.498358577
101339.173532669
101333.8345997843
101327.5469343638
101320.8197918832
101313.819797672
101306.1293900387
101299.0330227103
101288.9792074106
101283.8348536771
101283.8213972487
101283.7296761586
101283.8915746622
101284.1674133056
101284.5214346479
101285.355148835
101286.2100557769
101287.6229090083
101289.5125569837
101291.3011768421
101294.3927263337
101297.4308258378
101300.7843801009
101305.6865613352
101310.0665083499
101315.327368241
101321.620963228
101327.5218662689
101334.4735872714
101341.5808433653
101348.6118903797
101356.42445341
101365.1971805745
101366.1887764861
101366.1443571525
101366.0748690807
101366.0251357971
101365.2562832089
101365.0902813878
101364.0142428266
101362.3879187555
101361.6264383454
101358.8467385481
101356.4276682091
101353.9059509154
101349.5175379727
101345.9235058826
101340.9822580643
101335.4735634164
101330.020647529
101323.1641411141
101316.5933246299
101309.3374231764
101301.720144296
101293.8541722451
101284.9367021326
101284.2838541679
101284.3129369159
101284.2675818713
101284.6091811813
101284.8460414796
101285.4548229961
101286.4737719227
101287.3153770645
101289.3023904599
101291.0903161197
101293.390394773
101296.7994171157
101299.908649422
101304.0442855956
101308.6785485883
101313.6702365648
101319.3340271701
101325.3812238114
101331.9776280673
101338.7662858148
101346.0548728855
101352.8557924702
101362.7482838293
101365.3384790453
101365.3754411792
101365.4162305338
101365.166613333
101364.8756657703
101364.5813005831
101363.5171326072
101362.7722458413
101361.2431835695
101359.2204761982
101357.3614541348
101354.1509597649
101351.0178126626
101347.2122363161
101342.5201211265
101337.7139565995
101331.9365884781
101325.9293749707
101319.2276360192
101312.2046298394
101304.9048364127
101297.7450574846
101287.7323078041
101284.7507322365
101284.7783053902
101284.763410201
101284.9409617493
101285.0783750648
101285.939874392
101286.4861709933
101287.2219994295
101289.3619205711
101290.5884861473
101293.0082514778
101295.9906767872
101298.7684748832
101302.9607398439
101307.0640554031
101311.7614313683
101317.3333842238
101322.9806219488
101329.2779167501
101335.9791955512
101342.9570860929
101349.7130366092
101358.4601113546
101364.7178732284
101364.944196754
101364.9395253689
101364.7232201146
101364.7018378095
101364.2041013242
101363.3498923902
101362.9928512618
101361.173910923
101359.6288735148
101358.1040652896
101354.5589098959
101352.2246340807
101348.5119443
101343.7062113171
101339.7920173612
101333.8527955861
101328.0449029435
101322.0906263409
101314.746765228
101307.9005190226
101300.960927975
101291.665897965
101285.6930599092
101285.1518728922
101285.1644313583
101285.4355701176
101285.3568903281
101286.090877599
101286.7017331743
101287.3825352919
101289.1940037057
101290.3092604438
101292.6162148797
101295.3351653719
101297.9690069749
101301.7659841878
101305.7369082071
101310.2453642904
101315.4085421016
101320.9695170924
101326.9793219321
101333.4536377947
101340.176657943
101347.1096915474
101354.2110354846
101363.0553560084
101364.4288301279
101364.4391782508
101364.2709111397
101364.2195279266
101363.9283422705
101363.0568231838
101362.7522201988
101361.3324778399
101359.6303833884
101358.4717808156
101355.274627981
101352.7525799452
101349.7299475132
101344.9952659595
101341.2158866003
101335.880211014
101330.0378060634
101324.4637784963
101317.4110135982
101310.6598497561
101303.6312611455
101295.9424355665
101286.8973574212
101285.7992000667
101285.7757543218
101285.8805301825
101286.0210329589
101286.2865558328
101286.9299958456
101287.7006388566
101288.7599167221
101290.3475113885
101292.2080390205
101294.5179689333
101297.3648955839
101300.6985867722
101304.4240260621
101308.8577120231
101313.6242707485
101318.9105914561
101324.7789636527
101330.8747583304
101337.4465133328
101344.3616265676
101350.7372499134
101360.1040338131
101363.7966319699
101363.8533081509
101363.9593230062
101363.6504007896
101363.5114948221
101363.1242936005
101362.1962056333
101361.5828937944
101359.9967895108
101358.297653433
101356.4098208423
101353.3718666137
101350.4977093041
101346.744062304
101342.3718108955
101337.7851758459
101332.2962911665
101326.515779691
101320.1541490297
101313.4633872297
101306.3358403345
101299.5689230466
101290.0914785495
101286.289089873
101286.3047721905
101286.2474189634
101286.3744722268
101286.9235627224
101286.9495933653
101287.8292818611
101289.0726005948
101289.9363716195
101292.1382759692
101293.9397121438
101296.5512447393
101299.9729858813
101302.9460841539
101307.5981004794
101311.9960872765
101316.8177992848
101322.8229281308
101328.415443321
101334.8682259071
101341.6071874686
101347.9972256895
101355.8855342201
101362.9996454659
101363.3886940302
101363.3545596492
101363.3275844376
101363.1022239083
101362.657674887
101362.3550535538
101361.1145619092
101360.1227773152
101358.7861647694
101356.1888639397
101354.4306037054
101351.2956369517
101347.4459374498
101344.1565241661
101339.1016213983
101334.2019353485
101328.7626206101
101322.3536845937
101316.2111055411
101309.1300650286
101302.3536956228
101294.2047979779
101287.1184058635
101286.7895385555
101286.8112200505
101286.9021782929
101287.0474970145
101287.5456433327
101288.0104191932
101288.9652887593
101290.1937500297
101291.5615101942
101293.7543978306
101295.9362623911
101298.8805233815
101302.3448065441
101305.9397643152
101310.6045965695
101315.2240603871
101320.5665521334
101326.4505368328
101332.3647007016
101338.9234185744
101345.6152242539
101351.9999235123
101360.9941198833
101362.8812462869
101362.8625151219
101362.7813249418
101362.7890177784
101362.2125894997
101361.991289955
101361.2070743677
101359.8021207739
101359.1522140755
101356.7448050406
101354.5928895423
101352.4165888201
101348.3931866817
101345.2457381426
101340.8521325521
101335.7561567944
101330.9089183063
101324.7368105752
101318.5906838611
101312.133987141
101304.9802162067
101298.4771972312
101289.0471657358
101287.22273867
101287.2300635821
101287.225461709
101287.3806808748
101287.7939923538
101288.1091154354
101289.0763983161
101290.3166692837
101291.0892548392
101293.4726530649
101295.6041998903
101297.8252243324
101301.5091656581
101304.7869406529
101309.0078205343
101313.776478624
101318.5420503234
101324.1915377985
101330.0186798758
101336.1144706067
101342.840372706
101348.9934887962
101357.2575434058
101362.3926898717
101362.6354898656
101362.64687858
101362.5568978063
101362.0191359167
101361.6242975327
101360.9927438577
101359.5026523265
101358.7991698044
101357.0751787699
101354.8792987004
101352.9659890812
101349.7557214454
101346.7360561106
101343.1589598564
101338.542443774
101333.6633999632
101328.1977438662
101321.583958262
101314.8761669415
101307.5877507311
101299.9922182038
101290.5810569232
101285.6759632108
101283.293993709
101282.6151339967
101282.1902721444
101281.8498478318
101281.7428201061
101281.8902723276
101282.0201509559
101282.1101975428
101283.1117308371
101284.1091076154
101285.5453782944
101288.6495312657
101291.1626591274
101294.8605235742
101300.001902727
101304.5557365376
101310.972422299
101317.7208718135
101324.5345770311
101333.0883300552
101340.0239992579
101348.7144773202
101356.702314392
101360.8844814519
101363.0600390306
101364.7185300961
101365.0601871089
101365.6464120794
101366.44675206
101367.0174965707
101367.8449012253
101368.3380038016
101368.3076249609
101367.9881258943
101366.7044231426
101363.9485337934
101360.0337279756
101355.4408144505
101349.721819148
101342.6359040279
101335.5280796934
101327.4798862207
101319.1704991558
101310.9778048198
101302.8762318831
101294.3441298613
101290.1663994935
101286.6466935096
101284.5891309423
101283.7980340693
101283.7142737466
101283.8135341706
101284.1841239901
101284.73922721
101285.3664965686
101286.2179010064
101287.3335921948
101289.2057023199
101291.7830789065
101294.5799422356
101298.9309774528
101303.823053049
101309.077928399
101315.7471755874
101322.6155818071
101329.5258446089
101337.0613389336
101345.3685695979
101351.3789767271
101359.288122946
101362.074527623
101365.544814562
101366.5197567663
101367.2707111581
101367.4548919657
101367.2736295513
101366.9384189604
101366.6179142101
101366.4725781734
101366.3927551746
101365.9815344199
101364.5166171299
101362.0049952373
101358.62142236
101352.7499477735
101346.4860066953
101339.4951806834
101331.1186812194
101323.0664892687
101315.4502654924
101306.5724560702
101299.208565258
101292.3369603603
101288.5515693963
101285.7051486647
101283.6576951718
101283.325807329
101283.4114353532
101283.9123020369
101284.7089176182
101285.8284247031
101287.0223680772
101288.0806945212
101290.0332176256
101292.1936438682
101294.4438077581
101298.2861823055
101302.3178313447
101306.224767814
101313.8825950295
101319.0388304106
101325.940487004
101336.793746495
)
;

boundaryField
{
    inlet
    {
        type            uniformFixedValue;
        uniformValue    sine;
        uniformValueCoeffs
        {
            frequency       constant 3000;
            scale           constant 50;
            level           constant 101325;
        }
        value           uniform 101312.8819131453;
    }
    outlet
    {
        type            waveTransmissive;
        gamma           1.4;
        fieldInf        101325;
        lInf            2.25;
        value           uniform 101338.6730221407;
    }
    frontAndBack
    {
        type            empty;
    }
}


// ************************************************************************* //
