/*--------------------------------*- C++ -*----------------------------------*\
| =========                 |                                                 |
| \\      /  F ield         | OpenFOAM: The Open Source CFD Toolbox           |
|  \\    /   O peration     | Version:  v2012                                 |
|   \\  /    A nd           | Website:  www.openfoam.com                      |
|    \\/     M anipulation  |                                                 |
\*---------------------------------------------------------------------------*/
FoamFile
{
    version     2.0;
    format      ascii;
    class       volScalarField;
    location    "0.008";
    object      pMean;
}
// * * * * * * * * * * * * * * * * * * * * * * * * * * * * * * * * * * * * * //

dimensions      [1 -1 -2 0 0 0 0];


internalField   nonuniform List<scalar> 
1000
(
101325.0366052346
101325.0217518414
101325.0148679856
101325.0460565136
101325.0650957075
101325.0924403517
101325.1249741131
101325.1691869581
101325.1930689775
101325.2480906808
101325.2894847551
101325.3277665363
101325.3719436339
101325.4297214028
101325.4544439528
101325.4915658347
101325.5486018837
101325.5711360958
101325.5919605633
101325.6237007259
101325.648587175
101325.6556978069
101325.6498612036
101325.6706247407
101325.6669298264
101325.6465729537
101325.6156354545
101325.6197212186
101325.5968163269
101325.5300627899
101325.5140299801
101325.4945387135
101325.4229672739
101325.3687101377
101325.3671513144
101325.3042306414
101325.2429079127
101325.2247884355
101325.1897856321
101325.1342914722
101325.1019651779
101325.086161751
101325.0481104898
101325.0303751559
101325.0157494536
101325.008409559
101325.005404768
101325.0061744175
101325.0175007388
101325.0344628601
101325.0524288483
101325.0805650522
101325.113242913
101325.1399128067
101325.1904343104
101325.235745671
101325.2663796306
101325.3150314366
101325.3646454897
101325.3947245514
101325.4386665085
101325.4842044656
101325.5130664252
101325.5464741916
101325.5902814271
101325.6092560733
101325.624929023
101325.6482649861
101325.6659965462
101325.6603907205
101325.6548672454
101325.6558884884
101325.6438657588
101325.6130054347
101325.5925199281
101325.5694249137
101325.5260063851
101325.4843159016
101325.4497969626
101325.40368349
101325.3543250818
101325.3239663745
101325.2807493661
101325.2310448267
101325.2009160742
101325.1656104676
101325.1214399137
101325.0936407462
101325.0700170604
101325.0392612588
101325.0268505221
101325.0111834439
101325.0057361241
101325.005651487
101325.0159027701
101325.0229302591
101325.0435348562
101325.0709643381
101325.1012547675
101325.1320509064
101325.1730783141
101325.2205694206
101325.2611291568
101325.2979854376
101325.3411885759
101325.3885730792
101325.4209662154
101325.4600138027
101325.5039980463
101325.534210877
101325.562706196
101325.5991738659
101325.6215786029
101325.6287588984
101325.656425423
101325.6651411346
101325.6513895971
101325.659542655
101325.6531841008
101325.6186330251
101325.601714901
101325.5864035858
101325.5336286023
101325.4944469104
101325.4687211634
101325.4131394242
101325.368153587
101325.3417285262
101325.2955972652
101325.2439309918
101325.2234348735
101325.179611615
101325.1326194988
101325.1156260249
101325.0860573138
101325.0474615661
101325.0350744322
101325.0291444602
101325.0024353059
101325.0053375697
101325.0172701721
101325.0170921543
101325.030358389
101325.0663645608
101325.0849837406
101325.1172867098
101325.1721451522
101325.1973853565
101325.2456853014
101325.2938968706
101325.3225501292
101325.3632044234
101325.4189178553
101325.4427171057
101325.4728059402
101325.5337194078
101325.5485966134
101325.5689456265
101325.6170488603
101325.6308097481
101325.6298919956
101325.6617461595
101325.6681683273
101325.6425778399
101325.6547704324
101325.6451543685
101325.603537035
101325.5825672382
101325.5690235004
101325.5048312633
101325.4662859528
101325.4423668638
101325.3857946872
101325.3444944663
101325.316397191
101325.270357571
101325.2235658976
101325.2049433565
101325.1573935158
101325.1189522022
101325.1045425186
101325.0692983045
101325.0400319977
101325.0354404295
101325.0196642943
101325.0008342845
101325.0176291411
101325.0195295423
101325.0218294988
101325.054205005
101325.0820987746
101325.1032689215
101325.1526794067
101325.1966592682
101325.2289489039
101325.2720849236
101325.3169550358
101325.3516672134
101325.3890758902
101325.4360309678
101325.4647627814
101325.502302774
101325.5372767528
101325.5663110692
101325.5929026259
101325.6142745672
101325.6349968718
101325.6460744842
101325.6569333178
101325.6533063725
101325.6548148806
101325.6389545461
101325.6213329711
101325.5972146084
101325.5687891512
101325.5212179759
101325.4865188782
101325.4471140431
101325.4008403729
101325.3661799097
101325.3283464605
101325.2831098565
101325.2455637725
101325.2162455331
101325.172546212
101325.138915016
101325.1149636617
101325.0823905481
101325.0580575833
101325.042111924
101325.0256770517
101325.0123498306
101325.0189005278
101325.0163331607
101325.0248528622
101325.0461072544
101325.069089013
101325.0986183687
101325.1405361359
101325.1818376451
101325.2180209232
101325.2618200975
101325.3001189662
101325.3388201012
101325.3777278812
101325.4175348303
101325.4530095483
101325.4866069311
101325.5234365525
101325.5508334054
101325.5812543189
101325.6029682002
101325.6248649178
101325.6389048148
101325.6502235594
101325.6516528049
101325.6530775307
101325.6421712149
101325.6268459808
101325.6072969167
101325.575501156
101325.5359296954
101325.5002896409
101325.4597504421
101325.4162777827
101325.376289136
101325.3464093224
101325.298385721
101325.2604273662
101325.229109082
101325.1932267049
101325.1515851865
101325.1282141404
101325.0999731725
101325.0688789182
101325.0520660944
101325.0375251025
101325.0224223285
101325.0151511553
101325.0233517599
101325.0243838971
101325.0377069935
101325.0652441186
101325.0890688735
101325.1271442335
101325.1671160542
101325.2130779762
101325.2405820829
101325.2909092832
101325.3251056103
101325.3632687121
101325.4019307161
101325.4402263023
101325.472971125
101325.5043403104
101325.5435162533
101325.5658026335
101325.5926525525
101325.6113474289
101325.6344624085
101325.6404609039
101325.6464901878
101325.6514754528
101325.6427685183
101325.6315555293
101325.6074853175
101325.5901034727
101325.5468257246
101325.5116999519
101325.4713029955
101325.4301178996
101325.3929871337
101325.3544318663
101325.3154993931
101325.2743149608
101325.2449515459
101325.2042456893
101325.1712286844
101325.1389158165
101325.1121789402
101325.0822305827
101325.0635179784
101325.04473879
101325.027901087
101325.0259217961
101325.0223188886
101325.0252870624
101325.0379590798
101325.058407021
101325.0795972524
101325.1175675141
101325.1569781558
101325.1941802262
101325.2363315076
101325.2722567609
101325.309911172
101325.3527780548
101325.3878781922
101325.421424683
101325.4599287858
101325.4949831129
101325.5232433822
101325.5533181528
101325.5806739306
101325.6002017056
101325.6199630002
101325.638374406
101325.6391554656
101325.6436979778
101325.6482595165
101325.6346345886
101325.6110676031
101325.5948870465
101325.568114885
101325.5185730128
101325.4854918055
101325.4486559482
101325.406471156
101325.3662727058
101325.334831575
101325.2927144748
101325.2527991617
101325.2236889564
101325.1866261883
101325.1525371848
101325.1249515214
101325.0997878146
101325.0733080029
101325.0542603283
101325.0413254604
101325.0307347692
101325.0279990292
101325.0246030339
101325.0388854559
101325.0532547695
101325.0758093798
101325.1015573128
101325.1480799037
101325.181746215
101325.2226320942
101325.2599869358
101325.2969333506
101325.337146761
101325.3749464672
101325.4109405879
101325.4411487406
101325.4836487623
101325.51096437
101325.5391790333
101325.5677121062
101325.5936327117
101325.6091794095
101325.624953748
101325.6395963776
101325.6394719666
101325.6417283412
101325.6328883447
101325.6212501838
101325.5974825567
101325.5744114576
101325.5346146022
101325.496081992
101325.4611625874
101325.4191259398
101325.3832289589
101325.3456045932
101325.3069457844
101325.2699205231
101325.2376144796
101325.2022399152
101325.1644769516
101325.1410548597
101325.1132135447
101325.0837334427
101325.0657167551
101325.053196808
101325.0355094272
101325.031048846
101325.0342392476
101325.0364452249
101325.0494176215
101325.0733354092
101325.0957957137
101325.1304631991
101325.175521025
101325.2104422101
101325.2440114351
101325.2883528326
101325.3235936921
101325.3586919992
101325.3954457536
101325.4352243995
101325.4639849423
101325.49753412
101325.5307591998
101325.5545438288
101325.5781060682
101325.6029907226
101325.6189709113
101325.6265340561
101325.6382524057
101325.6383908771
101325.6321718886
101325.6222445659
101325.6051234301
101325.580667802
101325.5470398886
101325.5090781535
101325.472279089
101325.4336870289
101325.3933633036
101325.3596585482
101325.3210297599
101325.2840944165
101325.2480838131
101325.2168216853
101325.1795820391
101325.1509595122
101325.1245230761
101325.0970277146
101325.0748008111
101325.0577336936
101325.047042704
101325.0329487383
101325.0371331783
101325.0380348869
101325.0459437505
101325.0672801124
101325.091215571
101325.1180825278
101325.1589701024
101325.2023255658
101325.2320928
101325.2727787437
101325.3098678916
101325.3480549694
101325.3819872779
101325.4215757944
101325.4481618241
101325.4850692522
101325.5189936505
101325.5406605484
101325.5698339435
101325.5920534505
101325.6095714882
101325.6198046096
101325.634763959
101325.6326179
101325.6301261538
101325.6277141727
101325.608321423
101325.584237327
101325.5604997372
101325.5253910322
101325.4804763883
101325.4463539994
101325.413092854
101325.3700436268
101325.3354397987
101325.3021996577
101325.2629148133
101325.2265144785
101325.2021767853
101325.1632140381
101325.1338217131
101325.114308409
101325.0899550836
101325.0638591936
101325.0556209733
101325.0474154426
101325.0357352057
101325.0422554783
101325.0515456258
101325.0608914221
101325.0816950175
101325.1148765643
101325.1493655596
101325.182357245
101325.2270282593
101325.2582818911
101325.2973144508
101325.3343702714
101325.3704211715
101325.4021524652
101325.4401881295
101325.4734703521
101325.499053448
101325.5334331899
101325.5566473848
101325.5804987029
101325.5962077859
101325.6188852554
101325.6234034708
101325.6290708036
101325.6321564027
101325.6224567334
101325.6119309117
101325.593183828
101325.5706028681
101325.529697333
101325.4986827808
101325.4605817783
101325.4212227116
101325.3841619465
101325.3510424414
101325.3124235833
101325.2767134316
101325.2451623466
101325.2074221045
101325.1808716718
101325.1485902738
101325.1224840992
101325.0988163632
101325.0791393038
101325.0618802966
101325.0515582779
101325.0448166865
101325.04275729
101325.049219476
101325.0607191713
101325.0798505371
101325.100930989
101325.1387218705
101325.1749320322
101325.2107862822
101325.2473499971
101325.2846206541
101325.3202430884
101325.3569483
101325.390588073
101325.4255903614
101325.4594705486
101325.488278227
101325.5192599762
101325.5451282226
101325.5691258694
101325.5896616404
101325.6057532345
101325.6168632418
101325.626517874
101325.6267891994
101325.6208135545
101325.6158138091
101325.5961854407
101325.5722358381
101325.5460977557
101325.508310218
101325.467730473
101325.4341974914
101325.4020529817
101325.3591791925
101325.3263932658
101325.2948540609
101325.2549675132
101325.222192292
101325.1962869364
101325.1628574614
101325.1313665788
101325.1141974272
101325.0904004445
101325.0696645341
101325.0581107209
101325.053380186
101325.0457984912
101325.0504820938
101325.0604257242
101325.0737241163
101325.0975964587
101325.125298465
101325.1631544537
101325.1989290683
101325.2376120218
101325.2702488432
101325.3060131457
101325.3464906209
101325.3764700086
101325.4131452761
101325.4431385606
101325.4797705062
101325.5031947232
101325.5350638598
101325.5585058507
101325.5773677429
101325.5994416937
101325.6102586063
101325.6186902171
101325.6219026539
101325.6259542463
101325.6105502314
101325.6014377892
101325.5837338031
101325.5530661018
101325.5172184316
101325.4860107532
101325.4483086635
101325.4087268327
101325.3780869228
101325.3405499117
101325.3044970459
101325.2707949178
101325.2405475473
101325.2056125149
101325.1739693207
101325.1501481045
101325.1233491051
101325.0993284941
101325.0814119573
101325.0670554696
101325.0569585765
101325.0529729711
101325.0518924651
101325.0577577556
101325.0736714899
101325.0901638781
101325.1162822912
101325.1526809812
101325.1880955568
101325.2236979692
101325.2583474138
101325.2976778648
101325.327344488
101325.3660202672
101325.3992097063
101325.4316740657
101325.4642026524
101325.4939255109
101325.5210186259
101325.5453051819
101325.570360792
101325.587375216
101325.6024269066
101325.6128322094
101325.6197429423
101325.6186374583
101325.613280625
101325.6039780677
101325.5833804149
101325.5634569458
101325.5302934258
101325.4931617325
101325.4583694679
101325.4251282004
101325.3876043298
101325.3526492569
101325.3180982628
101325.2858161937
101325.2509983172
101325.2185036104
101325.1886416419
101325.1621824398
101325.134287304
101325.1089680894
101325.0940550247
101325.074929218
101325.0645822316
101325.056708585
101325.05550083
101325.0606439052
101325.07093466
101325.0861100475
101325.1098260415
101325.1435630647
101325.1766461324
101325.2129925796
101325.2489134304
101325.2839288613
101325.3171934661
101325.3543466216
101325.386349199
101325.4176650607
101325.4524438302
101325.4835123227
101325.5083927201
101325.5336382294
101325.5634457043
101325.5766362921
101325.593669301
101325.6083927216
101325.6150393445
101325.6132255459
101325.6164437862
101325.605904925
101325.585702696
101325.5714777886
101325.5432950399
101325.5029758677
101325.4701999352
101325.4390578142
101325.4001618829
101325.3636968863
101325.3351955805
101325.2985494437
101325.2630406946
101325.233879039
101325.2039859579
101325.1717101247
101325.1481544807
101325.1233940508
101325.1006441209
101325.0847120824
101325.0727446607
101325.063132123
101325.0582353787
101325.0625662017
101325.0700180771
101325.0833815009
101325.1044689069
101325.1310347642
101325.1693332154
101325.2003184972
101325.2373434096
101325.27142485
101325.3073937039
101325.3390729487
101325.3736744813
101325.4087127082
101325.436970977
101325.4695680682
101325.4966824198
101325.526365089
101325.5454505321
101325.5700017385
101325.5866151007
101325.5986188292
101325.6083681736
101325.6137246521
101325.6123602363
101325.6013555751
101325.5960844692
101325.5745216213
101325.5478588475
101325.5149196307
101325.4863536972
101325.4463427921
101325.4106497771
101325.3809049773
101325.3444829897
101325.3088241757
101325.2789482824
101325.2483225541
101325.2124383253
101325.1869092626
101325.1602424252
101325.1337811033
101325.1107882558
101325.0961445771
101325.0804656404
101325.0667289405
101325.0654253957
101325.0664228251
101325.0681044044
101325.0807155067
101325.1025879982
101325.1221026981
101325.1572448306
101325.1923298614
101325.2259780456
101325.2582339773
101325.2970562961
101325.328527713
101325.3597424214
101325.3951325575
101325.4280228536
101325.4569251298
101325.4841231844
101325.515108274
101325.536343552
101325.5592712823
101325.5780797606
101325.5921837307
101325.6021749241
101325.6090169041
101325.6104365148
101325.6031665023
101325.5959476034
101325.5779282735
101325.557048176
101325.5279680716
101325.4921229419
101325.4591994199
101325.4250707181
101325.3908700383
101325.3564789861
101325.324252231
101325.2907840356
101325.2584386696
101325.2297966699
101325.1982036591
101325.1706640686
101325.1456060583
101325.125366261
101325.1028108912
101325.0871932732
101325.0777971293
101325.0691878155
101325.0675062613
101325.0717805171
101325.0802234541
101325.0948409075
101325.1176481491
101325.1458068218
101325.1816268822
101325.2142701732
101325.2489318926
101325.2833846954
101325.3159193669
101325.3508489758
101325.3803576569
101325.415693663
101325.444229459
101325.4738436036
101325.5011081896
101325.5276045742
101325.5478479296
101325.5673620693
101325.5877368817
101325.5935567773
101325.6046669801
101325.6063673122
101325.605664562
101325.5942843863
101325.5836387999
101325.5634119429
101325.5367262591
101325.5043955792
101325.4716157171
101325.4362163576
101325.4027741972
101325.3715369964
101325.3355571222
101325.302983018
101325.2717983693
101325.2405990424
101325.2099009381
101325.1817632398
101325.1582348743
101325.1334857252
101325.1147046477
101325.0988286037
101325.0864797091
101325.0781459278
101325.0762504189
101325.0754303159
101325.0823010929
101325.0944677786
101325.110523468
101325.1336703928
101325.1616118276
101325.1901253767
101325.2203626109
101325.2456364105
101325.2744159294
101325.3001906444
101325.3247358081
101325.3456706493
101325.3698462615
101325.3882447792
101325.4039267044
101325.4211208116
101325.4310645346
101325.4412834996
101325.4475903687
101325.4494748808
101325.4508773407
101325.4469629653
101325.4364426576
101325.4279763388
101325.4107110568
101325.388933719
101325.3677805132
101325.3375705241
101325.3042934859
101325.274170805
101325.2435592699
101325.2103710247
101325.1856961582
101325.1604612235
101325.1358202099
101325.1153941057
101325.1015047534
101325.0856310224
101325.071897662
101325.0649041103
101325.0590656449
101325.0529535643
101325.0497882906
101325.0563141861
101325.0569772827
101325.0666462975
101325.0761659799
101325.093884509
101325.1149954499
101325.1350493654
101325.1670410672
101325.1998392442
101325.2261512214
101325.2615520016
101325.2934817243
101325.3162309664
101325.34766673
101325.3724181463
101325.3930376602
101325.4163702265
101325.4345919767
101325.447465973
101325.4653686242
101325.4753552302
101325.4814381586
101325.4882692299
101325.4874761278
101325.486056608
101325.4806395758
101325.4675100223
101325.4573878027
101325.4382457238
101325.4148730887
101325.3909408737
101325.3620850198
101325.3271563843
101325.3040770659
101325.2657387802
101325.2387480869
101325.2194212282
101325.1874231727
101325.1637547668
101325.1557606244
101325.1317293897
101325.1177486359
101325.1170131723
101325.1049642359
101325.1005360757
101325.1022961872
101325.1014135237
101325.1069888818
101325.1127545531
101325.1210554901
101325.1411866199
101325.1565041365
101325.177125918
101325.2060345382
101325.2334119225
101325.2618194939
101325.3004758109
101325.3228495725
101325.3571516276
101325.3892197603
101325.4064427847
101325.4332342577
101325.4667809357
101325.4708150431
101325.4876049236
101325.5189052631
101325.5138256694
101325.5271390146
101325.5382935901
101325.5403603675
101325.5280448464
101325.5386163509
101325.5221283095
101325.5008570284
)
;

boundaryField
{
    inlet
    {
        type            calculated;
        value           uniform 101325.004415952;
    }
    outlet
    {
        type            calculated;
        value           uniform 101325.4944303581;
    }
    frontAndBack
    {
        type            empty;
    }
}


// ************************************************************************* //
