/*--------------------------------*- C++ -*----------------------------------*\
| =========                 |                                                 |
| \\      /  F ield         | OpenFOAM: The Open Source CFD Toolbox           |
|  \\    /   O peration     | Version:  v2012                                 |
|   \\  /    A nd           | Website:  www.openfoam.com                      |
|    \\/     M anipulation  |                                                 |
\*---------------------------------------------------------------------------*/
FoamFile
{
    version     2.0;
    format      ascii;
    class       volScalarField;
    location    "0.008";
    object      rho;
}
// * * * * * * * * * * * * * * * * * * * * * * * * * * * * * * * * * * * * * //

dimensions      [1 -3 0 0 0 0 0];


internalField   nonuniform List<scalar> 
1000
(
1.176236362375777
1.176287975025469
1.17624875885263
1.176168316468022
1.176146965814096
1.176095221933731
1.176055885016441
1.176052512478335
1.176010867655303
1.176007724302473
1.176009260802769
1.17600800103756
1.176019835997007
1.17603331716993
1.176045423609115
1.176089139446399
1.176116470272313
1.176161368599963
1.176214968109472
1.176256836988126
1.17631311474789
1.176366845699375
1.176421840330439
1.176478180587744
1.176530737926412
1.176585109356115
1.176633260147234
1.176678067463589
1.176720430005481
1.176754596834359
1.176798163728448
1.176809445843948
1.176808980126978
1.17680693720235
1.176807271964037
1.17679560798204
1.176786476681277
1.17677577047436
1.176739303479605
1.176719512571623
1.176677437690874
1.176625870886371
1.176583694480852
1.176522061936791
1.176468657323666
1.17641381851076
1.176355745624454
1.176303834557075
1.17625010927131
1.17619948158693
1.176152423284585
1.176108589812957
1.176065923248182
1.176022363840912
1.176018333017151
1.176019212535728
1.176019298041488
1.176023582297787
1.176033578763069
1.176035858158155
1.176058231666148
1.176081579305795
1.176095088721404
1.176145397590141
1.176180887966253
1.176222715860289
1.176287166429777
1.176334848634527
1.1763959154887
1.176455013499323
1.176508311439679
1.176564594904731
1.176613875450122
1.176662446915092
1.176706925697484
1.176756177070881
1.176798803088373
1.176800705578358
1.176799746579684
1.176800442074561
1.176793712227063
1.176789662430528
1.176783255152921
1.176762405323779
1.17675122444294
1.176723740242787
1.176688773450813
1.17665798549357
1.176606332191225
1.176559288579074
1.176504544512606
1.176443746439279
1.176386945740949
1.176325739602211
1.176269637445259
1.17621523243895
1.176163501735728
1.176119072898852
1.176061786957801
1.176027350611502
1.176027126335581
1.176026477282888
1.176028351463956
1.176030482605507
1.176037719133004
1.176045024833615
1.176057540564241
1.176079222735566
1.176096167718065
1.176130461297578
1.176165167445859
1.176203617543119
1.176256002446046
1.176304833289192
1.17636265619454
1.17642183706431
1.176480432233027
1.176540299567174
1.176596120046518
1.176650422678463
1.176697919469139
1.17675653756588
1.17679245289076
1.176793447445274
1.176792391962335
1.176792120783387
1.176789330392967
1.176782287748889
1.176779430059392
1.176762246433126
1.176747279821976
1.176732470583093
1.17669394192713
1.176671087299936
1.176631008818724
1.17657655980973
1.176537366989361
1.176475726456746
1.176416478077402
1.176360649890068
1.176295254721685
1.17623833419643
1.176180309460416
1.176128273388261
1.17605982401333
1.176033231813663
1.176033254783268
1.176032008698429
1.176034903415119
1.176037272648421
1.176040660649603
1.176051979368605
1.176058712019127
1.176077088830165
1.176098694219263
1.176117003410593
1.1761573362785
1.176189266022141
1.176229121418122
1.176286549939227
1.176331084063033
1.176390141248826
1.176452076273398
1.17650807403798
1.176570644686868
1.176629538788079
1.176682385166959
1.176751765754989
1.176787614041252
1.176788217327285
1.176787889835214
1.176787211096473
1.176782090101885
1.176781619859157
1.176773540713288
1.176759686153812
1.176751757504605
1.176728605815963
1.176705718168335
1.176679472619308
1.176640187818707
1.176602987459727
1.176555338504106
1.176503678514513
1.17644853288503
1.176388510874246
1.176327162950678
1.176264726309671
1.176201657209182
1.176144129172238
1.176066038232064
1.176038081796369
1.17603806831513
1.176038609367211
1.176038551835811
1.176043580990372
1.176046435127682
1.176050707699714
1.176066435877462
1.176074763492096
1.176093465319398
1.176120037589388
1.176142184640677
1.176178644623425
1.176217711184538
1.176258602678148
1.176310665990023
1.176364054794674
1.176419356368954
1.176481830751278
1.176542570548607
1.176603884586033
1.176663248095238
1.176739225309349
1.176781178255196
1.176782952952119
1.176783077589043
1.176780840552856
1.176780562209517
1.176776422320871
1.176768015085483
1.176763321882796
1.176747839108188
1.176730878243564
1.176713149449844
1.176683512410216
1.176653214326302
1.176618115417186
1.176573010425326
1.176525453173204
1.176474686213641
1.176414365234727
1.176354849586025
1.1762934102502
1.176225353055572
1.176167123607878
1.176081681996977
1.17604408964756
1.176043500919799
1.176042174123256
1.176044289801158
1.176046724792212
1.176049058733221
1.176056677273057
1.176064742663698
1.176076884699382
1.176094759861489
1.176111498613267
1.176139457348764
1.176170548453955
1.176200377685087
1.176248067882649
1.176290405778116
1.176338318363986
1.176398869590172
1.17645274691915
1.176515154574458
1.176580025619028
1.176638514444509
1.176714798501457
1.176773252612688
1.176778229232619
1.176778208987751
1.176776450050236
1.176777012054754
1.176770254495358
1.176767182672241
1.176759933621096
1.176743778210691
1.176736322730911
1.176712738622693
1.176688492091132
1.176666136860931
1.176625314103657
1.176590317488606
1.176546124242088
1.176492940039421
1.176442286084179
1.176380799606189
1.17631907568912
1.176255013552332
1.176190321951511
1.176112381934151
1.176051792308942
1.17604664998305
1.176046718446343
1.176048574979751
1.176047942819263
1.176054645182381
1.17605831345247
1.17606416106592
1.176080836649333
1.176089000897439
1.176110813468835
1.176135241269777
1.176157335342939
1.176195901350828
1.176230355128377
1.176272519188693
1.176323274977183
1.176372040764622
1.176430556420605
1.17649013520254
1.176551347856922
1.176616775770861
1.176678763192461
1.176761512499147
1.176773451653724
1.176774275084569
1.176774053617136
1.176771382229471
1.176768568313692
1.176765545077952
1.17675463660479
1.176748775618641
1.176734221650742
1.176714633476909
1.176699148555053
1.176666681893967
1.176639229824549
1.176604989466571
1.176556297801811
1.176516697055286
1.176461546321873
1.176402627633132
1.176347147324147
1.176279078210473
1.176214289245304
1.176148823657099
1.176063084967291
1.176053066850963
1.176052368135205
1.176052443362962
1.176055712022017
1.176056901318098
1.176061976918745
1.176071196357879
1.17607650762132
1.176093390404978
1.17610848389011
1.176127079041736
1.176156658925968
1.176181362153088
1.176219509865794
1.176259155869059
1.176300778580609
1.176354532022452
1.176404852712937
1.176463798758094
1.176525760312864
1.176587631282006
1.176649340941648
1.176735011443111
1.176768917671608
1.176768639811614
1.176770076712443
1.176768119864544
1.17676545286297
1.176762583798415
1.176755329846602
1.176747106479157
1.176735320052759
1.176718620926825
1.176700755014058
1.176675630547769
1.176646705465248
1.17661423139005
1.176574372530472
1.176530541265203
1.176481916757257
1.176427395995307
1.176368627280094
1.176307510923285
1.176241388487856
1.176180048618144
1.176091677029237
1.176056561828297
1.176056294004872
1.17605508675034
1.176057654387688
1.176059683287948
1.176062991074717
1.176071148770519
1.17607769514611
1.176091375395642
1.176106380268717
1.176123621570944
1.176149869902255
1.17617518059247
1.176208499162353
1.176246714038529
1.176286936645834
1.176335745463192
1.176386140013595
1.176441751982368
1.176501686773188
1.17656257396836
1.176624355738989
1.176696945981335
1.176761436961524
1.176764504525473
1.176763687635214
1.176764567027182
1.176761298360432
1.176760482659999
1.176751955891393
1.176745682904898
1.176737518060744
1.176718281378555
1.176704920019968
1.176681198256051
1.17665452944386
1.176624685764083
1.176586301510252
1.176547976662281
1.176497869513331
1.176448413724315
1.176393550240024
1.176329693842228
1.176269807060207
1.176205632732979
1.176128857291249
1.176063880754242
1.176060685324771
1.176061052440445
1.176061515049211
1.176063052807685
1.176067684253318
1.176070718506014
1.176080164404622
1.176091445261517
1.176101518122649
1.176123817167484
1.176143037279487
1.176166099325995
1.176203001250927
1.176232952652073
1.17627296440119
1.176321018254813
1.176365984859949
1.176420928900416
1.17647855335356
1.176536400941229
1.176600384354481
1.176660952541369
1.176743447518179
1.176761463705172
1.17676135428553
1.176760440526408
1.176760269180351
1.176755763610977
1.176751577188714
1.176747888197523
1.17673323215017
1.176725118229395
1.176707842906914
1.176684388785498
1.176665303815458
1.176631059224025
1.176598475390099
1.176561117206693
1.176512892087424
1.176467329747025
1.176411885282893
1.176353383245674
1.176294129927939
1.176228539433597
1.176166107999
1.176082600965062
1.176064279129771
1.176064367061427
1.176064658258244
1.176067004160793
1.176067206993228
1.176076878895619
1.176080335357865
1.176086867911661
1.176106637097201
1.176116516465274
1.176136819617549
1.17616506071205
1.176187606726857
1.176224609408073
1.176261279252736
1.1763015157317
1.176351375964894
1.176399425257099
1.176455454441999
1.176513439034642
1.17657355232926
1.17663251316104
1.176711439204372
1.176755555261136
1.176756352391345
1.17675568320237
1.176755704369775
1.176752439779955
1.176748922826282
1.176745316686505
1.176733379863167
1.176725283015897
1.176710012641238
1.176689063788563
1.176670172360109
1.17663957751827
1.176608765127622
1.176573382049803
1.176529231292353
1.176484963056247
1.176432827372245
1.176377046661094
1.176319002318728
1.176255231609298
1.176196386093271
1.176113013444519
1.176070352231604
1.176070240650774
1.176069480019879
1.176070822627169
1.176073110110333
1.176076045958223
1.176082959812719
1.176090049389717
1.176101765869161
1.176117436226203
1.176132268756139
1.176157905817255
1.176183099472259
1.176210908932419
1.176251559644744
1.176287879477992
1.17633150357274
1.176383690178642
1.176432619937587
1.176490261896924
1.176549192244426
1.176607489444531
1.176672265830554
1.176745000223374
1.176753221503898
1.176752853225937
1.176752277099793
1.176751864764021
1.176745490256917
1.176744113956437
1.17673519258777
1.176721708734537
1.176715395370749
1.176692348707246
1.176672291891842
1.176651384050409
1.176614998502421
1.176585199224388
1.176544229198521
1.176498553455381
1.176453339731674
1.176396486565836
1.176342001526064
1.176281834532257
1.176218669145935
1.176153441165845
1.176079490430557
1.176074076505288
1.176074317697479
1.17607394158499
1.176076774418755
1.176078738661501
1.17608378718339
1.176092237117914
1.176099216385924
1.176115694154158
1.176130520893119
1.176149594722793
1.176177864262964
1.17620364765585
1.176237942128562
1.176276370917164
1.176317763104566
1.17636472774162
1.176414870783024
1.176469566943219
1.17652585604988
1.176586289015338
1.176642678226679
1.176724697310825
1.176746172516035
1.176746478967204
1.176746817158021
1.176744747609682
1.176742335390953
1.176739894840711
1.176731071858318
1.176724896026252
1.176712218568461
1.176695448166249
1.176680034899392
1.176653416158769
1.176627438534535
1.176595885407323
1.176556981119192
1.176517130793066
1.176469226904007
1.176419416382575
1.17636384611682
1.176305610647831
1.176245078807171
1.176185707414238
1.176102674672658
1.176077949065219
1.176078177729696
1.176078054218917
1.176079526623076
1.176080666169782
1.17608781041247
1.176092340728803
1.176098442832702
1.176116188602786
1.176126360180559
1.176146426500258
1.176171158511478
1.176194193595274
1.176228957692643
1.176262983865517
1.176301935777587
1.176348139080015
1.176394966018086
1.176447182334961
1.176502747343624
1.176560604855268
1.176616621121213
1.176689144924373
1.176741027840757
1.176742904288422
1.176742865558916
1.176741072185506
1.1767408949059
1.176736768205709
1.176729685991878
1.176726725802309
1.176711644946866
1.176698834965388
1.176686192752978
1.176656799253179
1.176637445352931
1.176606662477338
1.176566816158956
1.176534361896072
1.176485116199075
1.176436958671225
1.17638758678265
1.176326691051037
1.176269920714265
1.176212375299065
1.176135295727127
1.176085764291899
1.176081276338554
1.176081380487326
1.176083628992922
1.176082976522184
1.176089063337995
1.176094129040766
1.17609977481356
1.17611479682419
1.176124045370835
1.176143176198889
1.176165723358215
1.1761875647
1.176219051012672
1.176251979443293
1.176289364880614
1.176332178838077
1.176378290719883
1.176428123475772
1.176481807069661
1.17653755170755
1.176595036380264
1.176653916267254
1.176727244700259
1.176738632159223
1.176738717953902
1.176737322854684
1.176736896827252
1.176734482613418
1.176727256857851
1.176724731403744
1.176712960306683
1.176698848137882
1.176689242160915
1.176662734099057
1.176641823322779
1.176616762032499
1.17657750496774
1.176546168561374
1.176501927534216
1.176453484026458
1.176407265333919
1.176348783978019
1.176292802438978
1.176234519196738
1.176170760431981
1.176095751937146
1.176086645186065
1.176086450753296
1.176087319651693
1.176088484819444
1.176090686754586
1.176096022667486
1.176102413435455
1.176111197771162
1.176124363236934
1.176139791998163
1.176158947393892
1.176182555726329
1.176210200338545
1.17624109323896
1.176277858764801
1.17631738408764
1.176361218779165
1.176409879054983
1.176460424388191
1.176514915147855
1.176572251779241
1.176625114818728
1.176702775945011
1.176733391239621
1.176733861141904
1.176734740113058
1.176732178855928
1.176731027200404
1.176727816939524
1.176720122164677
1.176715037206108
1.176701886749722
1.176687799068999
1.176672146878453
1.176646958624182
1.176623128326906
1.176592005671216
1.176555753479771
1.176517723365032
1.176472211493393
1.176424280810625
1.17637153081115
1.176316050489107
1.176256947127279
1.176200833700048
1.176122240708001
1.17609070837489
1.176090838431583
1.176090362819512
1.176091416453552
1.176095969938759
1.176096185815006
1.176103480882924
1.176113791385135
1.176120954424563
1.176139214091959
1.176154152753543
1.17617580913713
1.176204183900382
1.176228838262714
1.176267414330582
1.176303883498852
1.176343865932812
1.176393660389013
1.176440032868201
1.176493537618398
1.176549414178791
1.176602396675206
1.176667800899863
1.176726784080022
1.176730009696996
1.176729726696224
1.176729503044799
1.176727634586024
1.176723948836863
1.176721439812745
1.176711154872013
1.176702931963301
1.176691850057895
1.176670315465942
1.176655737493625
1.176629744825755
1.176597825689778
1.176570552039798
1.176528639341901
1.17648801310565
1.176442911918062
1.176389769805584
1.176338835623342
1.176280118441413
1.17622392646038
1.17615635199549
1.176097586335351
1.176094859130179
1.176095038932654
1.176095793229527
1.176096998328793
1.176101129342801
1.176104983623705
1.176112902118479
1.176123089395219
1.176134431823376
1.176152616646952
1.176170709973646
1.17619512537323
1.176223852766987
1.176253663569836
1.176292345601607
1.176330651017615
1.176374951268811
1.17642374073267
1.176472779873702
1.176527162294326
1.176582647030458
1.176635585319612
1.17671015685641
1.176725803057185
1.176725647763452
1.176724974630506
1.176725038424189
1.176720259257541
1.176718424458887
1.176711922515463
1.176700273952622
1.176694885575126
1.176674925473369
1.176657083584984
1.176639039557061
1.176605680292515
1.176579583726396
1.176543154397963
1.176500900683473
1.176460709077854
1.176409531067003
1.176358567787686
1.176305028244951
1.17624570699386
1.176191781942807
1.176113581652685
1.176098452155624
1.1760985129015
1.176098474735429
1.176099761929779
1.176103189423799
1.17610580266666
1.176113824087582
1.176124109275765
1.176130516138853
1.176150280796176
1.176167956831824
1.176186374872461
1.176216923800971
1.176244104460326
1.176279105339106
1.17631864797655
1.176358164624418
1.176405009998192
1.176453327736553
1.17650387216935
1.176559640233966
1.176610658361105
1.176679177376546
1.17672175298949
1.176723766058384
1.176723860484421
1.176723114456236
1.176718655872393
1.176715382262624
1.176710146043865
1.176697791589023
1.17669195898329
1.176677665205475
1.176659458790346
1.176643595247787
1.176616978049886
1.176591941021018
1.176562281925178
1.176524004019321
1.176483548943368
1.176438229153226
1.176383388515528
1.176327767286118
1.176267330206813
1.176204345475015
1.176126302540138
1.176085625654381
1.176065872382564
1.176060242692464
1.176056719378438
1.176053896278493
1.17605300869951
1.17605423150398
1.176055308588058
1.176056055347194
1.176064360919244
1.176072632032896
1.176084542883888
1.176110284830328
1.176131125497143
1.176161790682449
1.17620442559276
1.176242187969939
1.17629539702159
1.176351356016884
1.176407855185955
1.176478781121836
1.176536288909063
1.176608345674772
1.176674574344807
1.17670924902131
1.176727286580355
1.176741037109351
1.176743869793814
1.176748730164044
1.176755365693131
1.17676009770663
1.176766957623299
1.176771045891196
1.17677079402592
1.176768145079308
1.176757502168047
1.17673465324808
1.176702195554521
1.176664115322108
1.176616697783642
1.176557945772303
1.176499011057901
1.176432277590807
1.176363376861701
1.176295442152772
1.176228261538617
1.176157508877047
1.176122864366671
1.176093676374412
1.176076613394034
1.176070052992857
1.176069358383256
1.176070181534868
1.176073254779116
1.176077858151259
1.176083059973277
1.176090120519172
1.176099372731784
1.176114897691674
1.176136271099827
1.176159464540302
1.176195545651665
1.176236112945819
1.176279688124284
1.176334990668198
1.176391943690678
1.176449242653126
1.176511724566029
1.176580604033863
1.176630438277525
1.17669601421723
1.176719116417561
1.176747888451179
1.176755971614107
1.176762197726147
1.176763724751205
1.176762221917729
1.176759442736138
1.176756785464571
1.176755580515733
1.176754918742283
1.176751509349073
1.176739363821998
1.176718540065468
1.176690486746961
1.176641805551012
1.176589869593672
1.176531905480443
1.17646245063251
1.176395682445202
1.176332527099395
1.176258909135451
1.176197845394171
1.176140865932047
1.176109480552366
1.17608588031291
1.176068901417086
1.176066146876732
1.176066849325958
1.176070982342192
1.176077550896858
1.176086769421274
1.17609657585169
1.176105287893776
1.176121603658047
1.176140062945213
1.176159816711967
1.176193110164625
1.176227346433147
1.176259681993862
1.176319595826298
1.176363573513608
1.176406723488365
1.176508985130523
)
;

boundaryField
{
    inlet
    {
        type            calculated;
        value           uniform 1.176271021779363;
    }
    outlet
    {
        type            calculated;
        value           uniform 1.176512416499113;
    }
    frontAndBack
    {
        type            empty;
    }
}


// ************************************************************************* //
