/*--------------------------------*- C++ -*----------------------------------*\
| =========                 |                                                 |
| \\      /  F ield         | OpenFOAM: The Open Source CFD Toolbox           |
|  \\    /   O peration     | Version:  v2012                                 |
|   \\  /    A nd           | Website:  www.openfoam.com                      |
|    \\/     M anipulation  |                                                 |
\*---------------------------------------------------------------------------*/
FoamFile
{
    version     2.0;
    format      ascii;
    class       volVectorField;
    location    "0.008";
    object      U;
}
// * * * * * * * * * * * * * * * * * * * * * * * * * * * * * * * * * * * * * //

dimensions      [0 1 -1 0 0 0 0];


internalField   nonuniform List<vector> 
1000
(
(-0.02054501186350625 0 0)
(-0.04878155029134355 0 0)
(-0.0479494035586516 0 0)
(-0.07478918746027786 0 0)
(-0.08205663273157039 0 0)
(-0.09389012465127114 0 0)
(-0.1050814260496471 0 0)
(-0.1063048589209423 0 0)
(-0.1186028917531696 0 0)
(-0.1194640727124826 0 0)
(-0.1188776428046247 0 0)
(-0.1190652827436976 0 0)
(-0.1154999288501488 0 0)
(-0.1114795427964641 0 0)
(-0.1079140869598954 0 0)
(-0.09504780960375324 0 0)
(-0.08701438615148675 0 0)
(-0.0737954437238265 0 0)
(-0.05800931625137491 0 0)
(-0.04568858384115011 0 0)
(-0.02910763324510663 0 0)
(-0.01327255565533984 0 0)
(0.002949111740989911 0 0)
(0.01957876393531044 0 0)
(0.03508087466079184 0 0)
(0.05115541198023432 0 0)
(0.06536334253977562 0 0)
(0.07859612560765183 0 0)
(0.09111877531975154 0 0)
(0.1012124737819253 0 0)
(0.1140762680109363 0 0)
(0.1174067102597807 0 0)
(0.1172705446055947 0 0)
(0.1166676951516466 0 0)
(0.1167652950866405 0 0)
(0.1133203981136964 0 0)
(0.1106223891299208 0 0)
(0.107459842464826 0 0)
(0.09669520239246378 0 0)
(0.09085238310814973 0 0)
(0.07843363092315019 0 0)
(0.06321359638821919 0 0)
(0.05076529123086163 0 0)
(0.03257417122194051 0 0)
(0.01681094484476217 0 0)
(0.000623869368906869 0 0)
(-0.0165189346054565 0 0)
(-0.03184368137408015 0 0)
(-0.04770443884594274 0 0)
(-0.06265177765155241 0 0)
(-0.07654557896763686 0 0)
(-0.08948786500802676 0 0)
(-0.1020860917423967 0 0)
(-0.114948029484613 0 0)
(-0.1161383844482756 0 0)
(-0.1158788020983153 0 0)
(-0.1158535844525314 0 0)
(-0.1145882896289833 0 0)
(-0.1116363600084005 0 0)
(-0.1109631586492579 0 0)
(-0.1043568805435896 0 0)
(-0.09746309484571247 0 0)
(-0.09347431333458743 0 0)
(-0.07862029480479936 0 0)
(-0.06814168132090419 0 0)
(-0.05579313795735906 0 0)
(-0.03676479502454003 0 0)
(-0.02268802162966628 0 0)
(-0.004661333275982066 0 0)
(0.01278520155115367 0 0)
(0.02851738420333443 0 0)
(0.04513052731964175 0 0)
(0.05967691409860083 0 0)
(0.07401160637672478 0 0)
(0.08714064484263977 0 0)
(0.1016757785881246 0 0)
(0.1142560305810155 0 0)
(0.1148177513974634 0 0)
(0.1145350463152848 0 0)
(0.1147397174982241 0 0)
(0.1127532793291443 0 0)
(0.1115580049647521 0 0)
(0.1096672919509936 0 0)
(0.1035140902471651 0 0)
(0.100214517339993 0 0)
(0.0921028615374878 0 0)
(0.08178294730946725 0 0)
(0.07269605991206851 0 0)
(0.05745012560482155 0 0)
(0.04356462213333137 0 0)
(0.02740546795371627 0 0)
(0.009458565072272876 0 0)
(-0.007308870285513801 0 0)
(-0.02537755144780729 0 0)
(-0.04194001859661304 0 0)
(-0.05800195874074317 0 0)
(-0.07327532409435909 0 0)
(-0.08639236280177685 0 0)
(-0.1033076371071086 0 0)
(-0.1134752176550464 0 0)
(-0.1135428586166597 0 0)
(-0.1137335077868853 0 0)
(-0.1131796849585891 0 0)
(-0.1125503677769416 0 0)
(-0.1104136020617437 0 0)
(-0.1082562755605248 0 0)
(-0.1045607440292393 0 0)
(-0.09815879804486012 0 0)
(-0.09315521638499352 0 0)
(-0.08303017019275986 0 0)
(-0.07278568842846404 0 0)
(-0.06143202762996737 0 0)
(-0.0459654892289185 0 0)
(-0.03155126291097163 0 0)
(-0.01448106281603027 0 0)
(0.002994425142101771 0 0)
(0.02028868396187881 0 0)
(0.03796577128167715 0 0)
(0.05443618928554352 0 0)
(0.07046443725171637 0 0)
(0.08448164549435426 0 0)
(0.1017807977706377 0 0)
(0.1123804157099905 0 0)
(0.112674272184536 0 0)
(0.1123631594091064 0 0)
(0.1122823871351715 0 0)
(0.1114605064327862 0 0)
(0.1093845868349524 0 0)
(0.1085405733155683 0 0)
(0.1034683665143061 0 0)
(0.09905007816181546 0 0)
(0.094677778258104 0 0)
(0.08330925287209731 0 0)
(0.07656236697820988 0 0)
(0.06473251501161692 0 0)
(0.04866407562412803 0 0)
(0.03709274733908809 0 0)
(0.01889850385827998 0 0)
(0.001409513530407922 0 0)
(-0.01507210781454688 0 0)
(-0.03437673889990986 0 0)
(-0.05118210368117022 0 0)
(-0.0683125756751497 0 0)
(-0.08367687410672804 0 0)
(-0.1038859399874721 0 0)
(-0.111738083387187 0 0)
(-0.1117321702180332 0 0)
(-0.1121001447764929 0 0)
(-0.1112446480280266 0 0)
(-0.1105449089374006 0 0)
(-0.1095445918025449 0 0)
(-0.1062023918956043 0 0)
(-0.1042143259541079 0 0)
(-0.09878862782655071 0 0)
(-0.09240948017538862 0 0)
(-0.08700351631012007 0 0)
(-0.07509554381265768 0 0)
(-0.0656678770728575 0 0)
(-0.05390110105196511 0 0)
(-0.03694648202017905 0 0)
(-0.02379888734825601 0 0)
(-0.006365413189255913 0 0)
(0.01191770696370952 0 0)
(0.02844722854279585 0 0)
(0.04691824969947956 0 0)
(0.06429736092627084 0 0)
(0.07990045934896405 0 0)
(0.1003726826696997 0 0)
(0.1109540885850573 0 0)
(0.1111326616813655 0 0)
(0.1110364884587232 0 0)
(0.1108355117035314 0 0)
(0.1093241293329733 0 0)
(0.109185189323656 0 0)
(0.1068008606046964 0 0)
(0.1027120760464954 0 0)
(0.1003721768549065 0 0)
(0.09353939749486612 0 0)
(0.08678453632933479 0 0)
(0.07903840647802304 0 0)
(0.06744344469663835 0 0)
(0.05646354600655808 0 0)
(0.04239896627285383 0 0)
(0.0271498794578455 0 0)
(0.01087203047090265 0 0)
(-0.00684624466088678 0 0)
(-0.02495648586019188 0 0)
(-0.04338899219308927 0 0)
(-0.06200936605505498 0 0)
(-0.07899416048548318 0 0)
(-0.1020515498882651 0 0)
(-0.1103061790875153 0 0)
(-0.110310242738403 0 0)
(-0.1101504476852143 0 0)
(-0.1101672645015414 0 0)
(-0.1086823537280357 0 0)
(-0.1078395371306256 0 0)
(-0.1065780665135962 0 0)
(-0.1019340852706069 0 0)
(-0.09947517542621846 0 0)
(-0.09395327485792815 0 0)
(-0.08610736691676672 0 0)
(-0.079568407120894 0 0)
(-0.06880342618197605 0 0)
(-0.05726974308961932 0 0)
(-0.04519719239582121 0 0)
(-0.02982624383145785 0 0)
(-0.01406602302020933 0 0)
(0.002259531004303263 0 0)
(0.02070156114793894 0 0)
(0.03863053402925273 0 0)
(0.05672856361514975 0 0)
(0.07424914586378201 0 0)
(0.09667369711107053 0 0)
(0.1090552014894579 0 0)
(0.1095789743134944 0 0)
(0.1096157373079523 0 0)
(0.1089556299017721 0 0)
(0.108873391588094 0 0)
(0.1076513208687803 0 0)
(0.1051704000407014 0 0)
(0.1037853208797795 0 0)
(0.09921617973977964 0 0)
(0.09421058492284257 0 0)
(0.08897772260885452 0 0)
(0.0802309899437809 0 0)
(0.07128825345701452 0 0)
(0.06092931869774207 0 0)
(0.04761498724875367 0 0)
(0.03357709363527944 0 0)
(0.01859330970718009 0 0)
(0.0007864818037204963 0 0)
(-0.01678309370355856 0 0)
(-0.03492094144302451 0 0)
(-0.05501502543075251 0 0)
(-0.07220350843394938 0 0)
(-0.09743272655620452 0 0)
(-0.1085324730736532 0 0)
(-0.1087057561460286 0 0)
(-0.1090977139562317 0 0)
(-0.108473143938281 0 0)
(-0.1077540157473427 0 0)
(-0.1070647440655961 0 0)
(-0.1048152337154078 0 0)
(-0.1024337512132125 0 0)
(-0.09884874152738299 0 0)
(-0.09357084442882935 0 0)
(-0.08862844006687731 0 0)
(-0.08037379579244951 0 0)
(-0.07119388316699304 0 0)
(-0.06238728327551864 0 0)
(-0.04830755311522116 0 0)
(-0.0358073872701174 0 0)
(-0.02166338946378252 0 0)
(-0.003788213889945472 0 0)
(0.0121164540895731 0 0)
(0.03053800551208691 0 0)
(0.0496863880669017 0 0)
(0.06694968472479386 0 0)
(0.08946432080846939 0 0)
(0.10671615380071 0 0)
(0.1081848656672233 0 0)
(0.1081787511239928 0 0)
(0.1076595222553387 0 0)
(0.1078255927409612 0 0)
(0.1058313725123378 0 0)
(0.1049248847540604 0 0)
(0.102785478752701 0 0)
(0.09801741966962582 0 0)
(0.09581708350724262 0 0)
(0.08885675446634179 0 0)
(0.08170022413527461 0 0)
(0.07510233360046117 0 0)
(0.06305344374077938 0 0)
(0.05272368531648074 0 0)
(0.03967977177930071 0 0)
(0.023980708480232 0 0)
(0.009028167959723788 0 0)
(-0.009122337676440394 0 0)
(-0.02734416176144888 0 0)
(-0.04625676385653982 0 0)
(-0.06535631358893021 0 0)
(-0.08836783405346618 0 0)
(-0.1062576907300882 0 0)
(-0.1077759768466177 0 0)
(-0.1077559176279723 0 0)
(-0.1072079061857514 0 0)
(-0.1073946478995058 0 0)
(-0.1054155897338643 0 0)
(-0.1043321320698401 0 0)
(-0.1026054466273829 0 0)
(-0.09768182872460365 0 0)
(-0.09527137391728617 0 0)
(-0.08883109714828794 0 0)
(-0.08161856645612303 0 0)
(-0.07509562178645064 0 0)
(-0.06370851991201236 0 0)
(-0.05353664500520403 0 0)
(-0.04108883197688093 0 0)
(-0.02610362542790368 0 0)
(-0.01170817960973779 0 0)
(0.005565609393329241 0 0)
(0.02315260093640528 0 0)
(0.04122116076364828 0 0)
(0.06053337547146927 0 0)
(0.07882853254688023 0 0)
(0.1032511316416896 0 0)
(0.1067747191345836 0 0)
(0.1070176987850955 0 0)
(0.106952346235389 0 0)
(0.1061639394620065 0 0)
(0.1053334443399354 0 0)
(0.1044412245233784 0 0)
(0.1012218515744763 0 0)
(0.09949209314209283 0 0)
(0.09519675840846589 0 0)
(0.08941565422251538 0 0)
(0.08484544803260757 0 0)
(0.07526311274036714 0 0)
(0.06716055462122143 0 0)
(0.05705427115912279 0 0)
(0.04268240595692326 0 0)
(0.03099316165162551 0 0)
(0.0147135199252281 0 0)
(-0.002678860692039711 0 0)
(-0.01905718588555872 0 0)
(-0.03915220642228005 0 0)
(-0.05827996075703656 0 0)
(-0.07760879136151094 0 0)
(-0.1029236210883529 0 0)
(-0.1058816641720616 0 0)
(-0.1060880574044548 0 0)
(-0.1060657447849112 0 0)
(-0.1051006245677987 0 0)
(-0.1047495091974123 0 0)
(-0.1032508304044516 0 0)
(-0.1005286425027478 0 0)
(-0.0989604188726424 0 0)
(-0.09397554045809139 0 0)
(-0.08951905668530714 0 0)
(-0.08402865970327779 0 0)
(-0.0752950879933552 0 0)
(-0.06800160262521646 0 0)
(-0.05673878373232157 0 0)
(-0.04503396353918532 0 0)
(-0.03274594935004801 0 0)
(-0.01687709029625344 0 0)
(-0.002022244012385854 0 0)
(0.01537826082269923 0 0)
(0.03366832042496808 0 0)
(0.05193058970842079 0 0)
(0.07014432773630985 0 0)
(0.09542986320539437 0 0)
(0.105436278039802 0 0)
(0.1053543835195305 0 0)
(0.1057784392084292 0 0)
(0.1052009490237416 0 0)
(0.1044138177362046 0 0)
(0.1035670755367865 0 0)
(0.1014262595141012 0 0)
(0.09899929188033202 0 0)
(0.09552070404367333 0 0)
(0.09059218503877217 0 0)
(0.08531926810831184 0 0)
(0.07790394974690647 0 0)
(0.06936676054959323 0 0)
(0.05978190588855913 0 0)
(0.04801708648553554 0 0)
(0.03507940005361891 0 0)
(0.02072633928276481 0 0)
(0.004632256547964279 0 0)
(-0.01271635151804642 0 0)
(-0.03075862215056993 0 0)
(-0.05027970975788751 0 0)
(-0.06839027850953831 0 0)
(-0.09448087172187933 0 0)
(-0.104850323540492 0 0)
(-0.1049291411590313 0 0)
(-0.1052858652487512 0 0)
(-0.1045276288816989 0 0)
(-0.1039280291269198 0 0)
(-0.102951242183168 0 0)
(-0.100542873011377 0 0)
(-0.09861039062882597 0 0)
(-0.09457085701753723 0 0)
(-0.09013961730125092 0 0)
(-0.08504914988989325 0 0)
(-0.07729979385165789 0 0)
(-0.06982720973934903 0 0)
(-0.05999021296177966 0 0)
(-0.04870782391705288 0 0)
(-0.03683287565678129 0 0)
(-0.02242326025597069 0 0)
(-0.007546601603498861 0 0)
(0.008870051151338104 0 0)
(0.02656199175272378 0 0)
(0.04453402766404253 0 0)
(0.06277074651730448 0 0)
(0.0841943570921606 0 0)
(0.1032284641967149 0 0)
(0.1041335899965374 0 0)
(0.1038921776699055 0 0)
(0.1041520027157272 0 0)
(0.1031874282490504 0 0)
(0.1029467181433557 0 0)
(0.1004300763840988 0 0)
(0.09857871392550754 0 0)
(0.09616897489349026 0 0)
(0.09049167941413486 0 0)
(0.08654837197395908 0 0)
(0.07954696511730484 0 0)
(0.07167569525962224 0 0)
(0.06286723035218358 0 0)
(0.05153775798474564 0 0)
(0.04022553841745753 0 0)
(0.02543510660027427 0 0)
(0.01083627162536455 0 0)
(-0.005359181072171066 0 0)
(-0.02421007420750026 0 0)
(-0.04189003693523588 0 0)
(-0.06083633614213099 0 0)
(-0.08350434657538305 0 0)
(-0.1026891962541122 0 0)
(-0.1036326772663511 0 0)
(-0.1035243105983141 0 0)
(-0.1033877613679028 0 0)
(-0.1029337279676158 0 0)
(-0.1015662719643694 0 0)
(-0.1006703766492643 0 0)
(-0.09788126758468715 0 0)
(-0.09455046532989504 0 0)
(-0.0915763095742476 0 0)
(-0.08499224051710472 0 0)
(-0.07931743245874218 0 0)
(-0.07250841580386061 0 0)
(-0.06161339530298617 0 0)
(-0.05277068966890899 0 0)
(-0.04095789847741605 0 0)
(-0.02677145171382928 0 0)
(-0.01349674152924256 0 0)
(0.002722851987048733 0 0)
(0.01973295228098803 0 0)
(0.03680866962697416 0 0)
(0.05569430638105811 0 0)
(0.07357099507735516 0 0)
(0.09791879006462736 0 0)
(0.103235936128416 0 0)
(0.1032036055550036 0 0)
(0.1029338651767283 0 0)
(0.1028833108309608 0 0)
(0.1015536414240902 0 0)
(0.1003181142779935 0 0)
(0.09922935819367652 0 0)
(0.0949038763716642 0 0)
(0.09250921161828618 0 0)
(0.08741063571202447 0 0)
(0.0804883279554004 0 0)
(0.07485543668236952 0 0)
(0.06474802685433761 0 0)
(0.05513075737099333 0 0)
(0.04410382366782655 0 0)
(0.02986904483522463 0 0)
(0.01641990339114746 0 0)
(5.305809166504131e-05 0 0)
(-0.01721694322986064 0 0)
(-0.03470951288479374 0 0)
(-0.05407379151149113 0 0)
(-0.07250643027439327 0 0)
(-0.09716215353834232 0 0)
(-0.102571957504803 0 0)
(-0.1025459208726462 0 0)
(-0.1024599921978013 0 0)
(-0.1017672922885484 0 0)
(-0.1017074219666435 0 0)
(-0.09885170666483573 0 0)
(-0.09783113308691982 0 0)
(-0.09590224736661762 0 0)
(-0.09006512441264168 0 0)
(-0.08714823237375215 0 0)
(-0.08115365420798897 0 0)
(-0.07281538760491173 0 0)
(-0.06615888657111052 0 0)
(-0.05523419178821574 0 0)
(-0.04440804127403365 0 0)
(-0.03252925814466098 0 0)
(-0.01780968138285768 0 0)
(-0.003625219380816395 0 0)
(0.01291426635322069 0 0)
(0.03003032971445349 0 0)
(0.04777422122861986 0 0)
(0.06517690483512438 0 0)
(0.08847162483477064 0 0)
(0.1014919101667371 0 0)
(0.1017269120334943 0 0)
(0.1015293862303249 0 0)
(0.1015360342213246 0 0)
(0.1005723616938037 0 0)
(0.0995347231336582 0 0)
(0.09847010644892513 0 0)
(0.09494621429777195 0 0)
(0.09255700447518669 0 0)
(0.08805101513772019 0 0)
(0.08186773354844291 0 0)
(0.07629328182684036 0 0)
(0.06726294650915204 0 0)
(0.0581672388681431 0 0)
(0.04772358447830442 0 0)
(0.03469081363711926 0 0)
(0.02162410424768835 0 0)
(0.0062355731451267 0 0)
(-0.01023177798944784 0 0)
(-0.02736726002130052 0 0)
(-0.04619340909697155 0 0)
(-0.06356997639288289 0 0)
(-0.08818226710333919 0 0)
(-0.1007800679296903 0 0)
(-0.1008093625590226 0 0)
(-0.1010360800210998 0 0)
(-0.1006408794496768 0 0)
(-0.09996514297902026 0 0)
(-0.09909747276545694 0 0)
(-0.0970561990163952 0 0)
(-0.09496300309304072 0 0)
(-0.09150387854103746 0 0)
(-0.08687715939530492 0 0)
(-0.08249751339645388 0 0)
(-0.07492798515438211 0 0)
(-0.06748964991995632 0 0)
(-0.0592790278406327 0 0)
(-0.04727779178929958 0 0)
(-0.03655530957467588 0 0)
(-0.02367631595233109 0 0)
(-0.0082707149336478 0 0)
(0.006173351643818341 0 0)
(0.02318834353001133 0 0)
(0.04058388467387989 0 0)
(0.05779041624203025 0 0)
(0.07690987951161737 0 0)
(0.09837635939876362 0 0)
(0.1008027910372635 0 0)
(0.1006940599374392 0 0)
(0.1005239709537198 0 0)
(0.1004023099210398 0 0)
(0.09852103465097437 0 0)
(0.09811490229304232 0 0)
(0.09548192007909871 0 0)
(0.09150236116613683 0 0)
(0.08963901250715957 0 0)
(0.08283707205015145 0 0)
(0.07691743234649313 0 0)
(0.07074640811253072 0 0)
(0.06000710038461589 0 0)
(0.05121139856246993 0 0)
(0.03911838751825356 0 0)
(0.0256360870626515 0 0)
(0.01228944824656992 0 0)
(-0.004493253424600347 0 0)
(-0.02057768866105869 0 0)
(-0.03834013334743199 0 0)
(-0.05698823886996379 0 0)
(-0.07624688836163858 0 0)
(-0.09808110369180685 0 0)
(-0.09967964952071595 0 0)
(-0.0996084633025256 0 0)
(-0.09971951023213749 0 0)
(-0.09888305730247558 0 0)
(-0.09830310569641862 0 0)
(-0.09681245220414071 0 0)
(-0.0943174868815627 0 0)
(-0.09225677952965051 0 0)
(-0.08739155249441406 0 0)
(-0.08301384959703034 0 0)
(-0.07738225452026362 0 0)
(-0.06903572740404802 0 0)
(-0.06142345195296272 0 0)
(-0.05129852670438018 0 0)
(-0.03995312035427027 0 0)
(-0.02773327377567564 0 0)
(-0.01386877466359784 0 0)
(0.0009336729574293915 0 0)
(0.01707945921909538 0 0)
(0.03369511929768965 0 0)
(0.05153302107614811 0 0)
(0.06817640881020819 0 0)
(0.09238411812185639 0 0)
(0.09872215172077432 0 0)
(0.09881248257655416 0 0)
(0.09891237834114858 0 0)
(0.09830147908082375 0 0)
(0.09758948737318263 0 0)
(0.09686944084571703 0 0)
(0.09426559837922953 0 0)
(0.09244291493989762 0 0)
(0.0887012221723139 0 0)
(0.08375153233383714 0 0)
(0.07920238274982301 0 0)
(0.07134588964833351 0 0)
(0.06367846224734432 0 0)
(0.05436528124332276 0 0)
(0.04288217387660867 0 0)
(0.03111939496022624 0 0)
(0.01697895964649537 0 0)
(0.002275259070498809 0 0)
(-0.01412921722304305 0 0)
(-0.03132097109361232 0 0)
(-0.04919165167235611 0 0)
(-0.06672063012712089 0 0)
(-0.09123587824622631 0 0)
(-0.09853648252579394 0 0)
(-0.09846913757647491 0 0)
(-0.09850544630368079 0 0)
(-0.09807069087375771 0 0)
(-0.09773424880498456 0 0)
(-0.09562480539716917 0 0)
(-0.09428717074160949 0 0)
(-0.0924854649141421 0 0)
(-0.08724592384390181 0 0)
(-0.08424276622801613 0 0)
(-0.07831800602983795 0 0)
(-0.07101589805423622 0 0)
(-0.06421490800572537 0 0)
(-0.05395107284418117 0 0)
(-0.04390560796923596 0 0)
(-0.03240606031484435 0 0)
(-0.01876610311375089 0 0)
(-0.004942714192997389 0 0)
(0.01047147899325252 0 0)
(0.02687358726853387 0 0)
(0.04395138325768659 0 0)
(0.06048620053599402 0 0)
(0.08189042921697096 0 0)
(0.09720360257032928 0 0)
(0.09775721784433802 0 0)
(0.09774588762805209 0 0)
(0.09721671277372546 0 0)
(0.0971642925728715 0 0)
(0.09594622363191259 0 0)
(0.09385601513646712 0 0)
(0.09298256383909208 0 0)
(0.0885314939629023 0 0)
(0.08475075311104653 0 0)
(0.08101968530477636 0 0)
(0.0723440962705809 0 0)
(0.06663178879953016 0 0)
(0.05754619212699057 0 0)
(0.04578498399314238 0 0)
(0.03620546198138302 0 0)
(0.02166922459446885 0 0)
(0.007453478636386532 0 0)
(-0.007121126441155251 0 0)
(-0.02509809000423087 0 0)
(-0.04185817475067034 0 0)
(-0.0588471018090994 0 0)
(-0.08160479233029538 0 0)
(-0.09622941669905044 0 0)
(-0.09755449986726537 0 0)
(-0.09752370938183785 0 0)
(-0.09685962130716404 0 0)
(-0.09705185152040578 0 0)
(-0.0952548533512671 0 0)
(-0.09375927863783073 0 0)
(-0.09209251363399167 0 0)
(-0.08765722365072215 0 0)
(-0.08492637213219745 0 0)
(-0.07927783306297478 0 0)
(-0.07262078755228804 0 0)
(-0.06617229820267549 0 0)
(-0.0568763349802443 0 0)
(-0.04715479554088071 0 0)
(-0.03611751229027076 0 0)
(-0.02347814427124226 0 0)
(-0.009865477530632404 0 0)
(0.004845219621113068 0 0)
(0.0206919824900287 0 0)
(0.03714678334099272 0 0)
(0.0541144075639499 0 0)
(0.0714927766924639 0 0)
(0.09313537817567671 0 0)
(0.09649620685503187 0 0)
(0.09652153709336023 0 0)
(0.09610979932463684 0 0)
(0.09598406996985774 0 0)
(0.09527152803290957 0 0)
(0.0931390388990657 0 0)
(0.0923937351563847 0 0)
(0.08891943686335418 0 0)
(0.08475441413756223 0 0)
(0.08191933272018694 0 0)
(0.07409553600803066 0 0)
(0.06792381544398786 0 0)
(0.06052683226608334 0 0)
(0.04893967752046895 0 0)
(0.03969021790676307 0 0)
(0.02663115572674483 0 0)
(0.01233131680875212 0 0)
(-0.00131227100385716 0 0)
(-0.01857622430224505 0 0)
(-0.03510280156724734 0 0)
(-0.05230964043391265 0 0)
(-0.07113419153087908 0 0)
(-0.09328031012015499 0 0)
(-0.09596933252726783 0 0)
(-0.09602676229702845 0 0)
(-0.09577020276069205 0 0)
(-0.09542616626948795 0 0)
(-0.09477605878821883 0 0)
(-0.0932005847467553 0 0)
(-0.09131364123263339 0 0)
(-0.08871998552612897 0 0)
(-0.08483276314048971 0 0)
(-0.08027736461676933 0 0)
(-0.07462169322864098 0 0)
(-0.06765139918537433 0 0)
(-0.05948961978991279 0 0)
(-0.05036892670315529 0 0)
(-0.03951465936572143 0 0)
(-0.02784595622996854 0 0)
(-0.01490541065506987 0 0)
(-0.0005407227468762594 0 0)
(0.01437996852308776 0 0)
(0.03046482973962865 0 0)
(0.04738888548371888 0 0)
(0.06299194809868071 0 0)
(0.08591334402885574 0 0)
(0.09494916779812219 0 0)
(0.09508789623785849 0 0)
(0.09534733558141828 0 0)
(0.09459141423697781 0 0)
(0.09425147964962687 0 0)
(0.09330402214536862 0 0)
(0.09103303264156613 0 0)
(0.08953226983711635 0 0)
(0.08565111653911969 0 0)
(0.0814932057872113 0 0)
(0.07687348310231437 0 0)
(0.06943925442917023 0 0)
(0.06240554331579226 0 0)
(0.05321945591374606 0 0)
(0.04251904230329557 0 0)
(0.03129344259200154 0 0)
(0.01785930873506885 0 0)
(0.003710541979702824 0 0)
(-0.01186134449362576 0 0)
(-0.02823961903941382 0 0)
(-0.04568915772025747 0 0)
(-0.06225392062622386 0 0)
(-0.08546048556679324 0 0)
(-0.09476981371166225 0 0)
(-0.09473149568572717 0 0)
(-0.09487203851915543 0 0)
(-0.09456091872756486 0 0)
(-0.0932164352948953 0 0)
(-0.09315253323553371 0 0)
(-0.0909988683077957 0 0)
(-0.08795435836444097 0 0)
(-0.08583919186255137 0 0)
(-0.08044782795107526 0 0)
(-0.07603660201441127 0 0)
(-0.06964389166737391 0 0)
(-0.06126654124494987 0 0)
(-0.05398806409099338 0 0)
(-0.0425996294153544 0 0)
(-0.0318311534955099 0 0)
(-0.02002799839750288 0 0)
(-0.005327983728137765 0 0)
(0.008362170350076978 0 0)
(0.02415323320311323 0 0)
(0.04064835339173697 0 0)
(0.05628587619734997 0 0)
(0.07558969418566884 0 0)
(0.09299843619595086 0 0)
(0.09395086498535081 0 0)
(0.09386703142890979 0 0)
(0.09380142565547404 0 0)
(0.09324994875471028 0 0)
(0.09216233179606534 0 0)
(0.09142188055932762 0 0)
(0.08838641091677359 0 0)
(0.08595945524894033 0 0)
(0.08268868600001934 0 0)
(0.07633294249583411 0 0)
(0.07203014438667531 0 0)
(0.06435826476708657 0 0)
(0.05493706706428417 0 0)
(0.04688673412750843 0 0)
(0.03451551247785203 0 0)
(0.02252340962284992 0 0)
(0.00921001383722299 0 0)
(-0.006477253837507163 0 0)
(-0.0215135727888467 0 0)
(-0.03884797158915763 0 0)
(-0.05543747016863312 0 0)
(-0.07538863208090922 0 0)
(-0.09273932708966949 0 0)
(-0.09354451955966722 0 0)
(-0.09349148383626768 0 0)
(-0.09326875958985172 0 0)
(-0.09291285488570238 0 0)
(-0.09169319912163225 0 0)
(-0.09055526068878129 0 0)
(-0.088217257140278 0 0)
(-0.08520937913056408 0 0)
(-0.08186036439245872 0 0)
(-0.0764912674645437 0 0)
(-0.07114924456742844 0 0)
(-0.06394081784698914 0 0)
(-0.05545925436020391 0 0)
(-0.04665782364632866 0 0)
(-0.03523871322085163 0 0)
(-0.02392891973188293 0 0)
(-0.01085490925761678 0 0)
(0.003553260467059484 0 0)
(0.01802669988392798 0 0)
(0.03407875395149408 0 0)
(0.05045470612212407 0 0)
(0.06608477888055637 0 0)
(0.08809008157790049 0 0)
(0.09271009635774594 0 0)
(0.09266461984995628 0 0)
(0.09246475137404667 0 0)
(0.09248398839299106 0 0)
(0.09107336686235343 0 0)
(0.09052923666899954 0 0)
(0.0886097600991696 0 0)
(0.08517207103413713 0 0)
(0.0835851705409114 0 0)
(0.07769573290032618 0 0)
(0.07242987796944884 0 0)
(0.06710384726311071 0 0)
(0.05725252653965669 0 0)
(0.04955506031763029 0 0)
(0.03879237693803875 0 0)
(0.02632330118976718 0 0)
(0.01447078146065912 0 0)
(-0.0006444398778093879 0 0)
(-0.01566941887554843 0 0)
(-0.03151889048584654 0 0)
(-0.04899228031124424 0 0)
(-0.06494223507955087 0 0)
(-0.0880111164230058 0 0)
(-0.09249239315936439 0 0)
(-0.092491652240376 0 0)
(-0.09247703079693505 0 0)
(-0.09203191881480245 0 0)
(-0.09103556211681922 0 0)
(-0.0903076841010219 0 0)
(-0.08798622498493924 0 0)
(-0.08502580205066912 0 0)
(-0.08299093662831152 0 0)
(-0.0771234825221408 0 0)
(-0.07197564627212413 0 0)
(-0.06639554286626226 0 0)
(-0.05739266549949889 0 0)
(-0.04945318406549246 0 0)
(-0.03942422484476868 0 0)
(-0.02780393738501036 0 0)
(-0.01588585455621358 0 0)
(-0.002022229175694158 0 0)
(0.01252843216018437 0 0)
(0.0276339714783267 0 0)
(0.04374009932649153 0 0)
(0.05907033054752182 0 0)
(0.07916281355094908 0 0)
(0.0913021262193458 0 0)
(0.09138639838343436 0 0)
(0.09113524609283327 0 0)
(0.09114709807019927 0 0)
(0.09028582655555784 0 0)
(0.09024053890073806 0 0)
(0.08922856134215872 0 0)
(0.08599949360991023 0 0)
(0.08451984227996173 0 0)
(0.07955810378410876 0 0)
(0.0736869162134532 0 0)
(0.06859094798053836 0 0)
(0.05948753964260853 0 0)
(0.05087567977615139 0 0)
(0.04040885301857888 0 0)
(0.02844554811355109 0 0)
(0.01681633518603361 0 0)
(0.002251718105832708 0 0)
(-0.01078079205905097 0 0)
(-0.02552555966981687 0 0)
(-0.04139411144988705 0 0)
(-0.05445533262594775 0 0)
(-0.07224476811303135 0 0)
(-0.08197692500197801 0 0)
(-0.08260742358825986 0 0)
(-0.08065611139942898 0 0)
(-0.07748040182258339 0 0)
(-0.07489917258419737 0 0)
(-0.0721015596662959 0 0)
(-0.06890050441053015 0 0)
(-0.06455960458514745 0 0)
(-0.06044128702792913 0 0)
(-0.0536143097263149 0 0)
(-0.04672916275548973 0 0)
(-0.04039539520594917 0 0)
(-0.03006725059417214 0 0)
(-0.02193214418247702 0 0)
(-0.01313129142134925 0 0)
(-0.001337896660630693 0 0)
(0.008622556469331915 0 0)
(0.01950424333772872 0 0)
(0.03128858563714911 0 0)
(0.04322706205091253 0 0)
(0.05390590713601202 0 0)
(0.06772194762675142 0 0)
(0.07745335345619732 0 0)
(0.08962709714421874 0 0)
(0.09280077642847166 0 0)
(0.09235458401821341 0 0)
(0.09008453145164377 0 0)
(0.08492899197342625 0 0)
(0.07941875813641495 0 0)
(0.07381518036966879 0 0)
(0.06751737463398942 0 0)
(0.05949116777161539 0 0)
(0.05214393394753935 0 0)
(0.04227671779312314 0 0)
(0.03341909824744436 0 0)
(0.02446747704360317 0 0)
(0.01406283276338956 0 0)
(0.005022695080405846 0 0)
(-0.003597692723036493 0 0)
(-0.01459932184229506 0 0)
(-0.0234323064570931 0 0)
(-0.0326548079503295 0 0)
(-0.04461431766347303 0 0)
(-0.05510351090485632 0 0)
(-0.06675728204434345 0 0)
(-0.07806575168999812 0 0)
(-0.08835006488109964 0 0)
(-0.09265136258353633 0 0)
(-0.09225265869933279 0 0)
(-0.09107295482354623 0 0)
(-0.08605014939284861 0 0)
(-0.08032858031429532 0 0)
(-0.07488052544656594 0 0)
(-0.06945509210394114 0 0)
(-0.06375349694987446 0 0)
(-0.05799381233947659 0 0)
(-0.05197334835085568 0 0)
(-0.04522359624633656 0 0)
(-0.0369765428696477 0 0)
(-0.02788090437241072 0 0)
(-0.01810730107910079 0 0)
(-0.007003524442708719 0 0)
(0.002969119927073925 0 0)
(0.01474988244365563 0 0)
(0.02636673316197899 0 0)
(0.03681864752981445 0 0)
(0.0490639335249519 0 0)
(0.06099882154601031 0 0)
(0.06891291089703981 0 0)
(0.08288572362428341 0 0)
(0.08990521409368159 0 0)
(0.09040411633307638 0 0)
(0.09028170862556242 0 0)
(0.08632156189826673 0 0)
(0.08144106478647831 0 0)
(0.07492764824704137 0 0)
(0.06951869465548051 0 0)
(0.062575112894247 0 0)
(0.05468020684601391 0 0)
(0.0467821381457464 0 0)
(0.03723952727391737 0 0)
(0.02698872088115471 0 0)
(0.01716632620814702 0 0)
(0.006920021412409939 0 0)
(-0.004719427928152881 0 0)
(-0.0130774732405426 0 0)
(-0.02170711805078704 0 0)
(-0.03292411902936576 0 0)
(-0.04077433390125337 0 0)
(-0.05117219772595002 0 0)
(-0.06263398928819483 0 0)
(-0.07070712714443533 0 0)
(-0.08134171098789876 0 0)
(-0.09005098243249073 0 0)
(-0.09096028993845207 0 0)
(-0.09101961357555075 0 0)
(-0.09021985687471445 0 0)
(-0.08414677882008134 0 0)
(-0.07767852657386873 0 0)
(-0.07280907382932977 0 0)
(-0.0662519012351195 0 0)
(-0.05928392607271952 0 0)
(-0.05323358744269732 0 0)
(-0.04665352867712928 0 0)
(-0.039128688074825 0 0)
(-0.03089200681051766 0 0)
(-0.0234763045089387 0 0)
(-0.01378417714244759 0 0)
(-0.001151137395489623 0 0)
(0.009500821682209563 0 0)
(0.01830023542908641 0 0)
(0.03475859204153404 0 0)
(0.04286691790825194 0 0)
(0.05805653310361736 0 0)
)
;

boundaryField
{
    inlet
    {
        type            zeroGradient;
    }
    outlet
    {
        type            pressureInletOutletVelocity;
        value           uniform (0.05805653310361736 0 0);
    }
    frontAndBack
    {
        type            empty;
    }
}


// ************************************************************************* //
