/*--------------------------------*- C++ -*----------------------------------*\
| =========                 |                                                 |
| \\      /  F ield         | OpenFOAM: The Open Source CFD Toolbox           |
|  \\    /   O peration     | Version:  v2012                                 |
|   \\  /    A nd           | Website:  www.openfoam.com                      |
|    \\/     M anipulation  |                                                 |
\*---------------------------------------------------------------------------*/
FoamFile
{
    version     2.0;
    format      ascii;
    class       volVectorField;
    location    "0.008";
    object      UMean;
}
// * * * * * * * * * * * * * * * * * * * * * * * * * * * * * * * * * * * * * //

dimensions      [0 1 -1 0 0 0 0];


internalField   nonuniform List<vector> 
1000
(
(-2.697593223299181e-05 0 0)
(1.670239809748165e-05 0 0)
(3.609894280809195e-05 0 0)
(0.0001117624688708087 0 0)
(0.0001406299400341365 0 0)
(0.0002112086222634383 0 0)
(0.0002965898494996781 0 0)
(0.0004002949185266531 0 0)
(0.0004635506630204573 0 0)
(0.0005905771077027042 0 0)
(0.0007020258401111629 0 0)
(0.0007872996704631033 0 0)
(0.000899424463810449 0 0)
(0.00103923506457638 0 0)
(0.00110208516586565 0 0)
(0.001187551828842065 0 0)
(0.001332827995639845 0 0)
(0.001386162833298922 0 0)
(0.001436988411973419 0 0)
(0.001514755491894917 0 0)
(0.001575811893993463 0 0)
(0.001592864332803833 0 0)
(0.001578849349503846 0 0)
(0.001629519623917984 0 0)
(0.001620606740752526 0 0)
(0.001570810665684449 0 0)
(0.001494822473443586 0 0)
(0.001504961637826922 0 0)
(0.001449165064865815 0 0)
(0.001285572437350262 0 0)
(0.001246261600236764 0 0)
(0.001198738916298137 0 0)
(0.001023568788654949 0 0)
(0.0008906315211173344 0 0)
(0.0008869621023474539 0 0)
(0.0007329318875207852 0 0)
(0.0005829054626580621 0 0)
(0.0005385033038931932 0 0)
(0.000452824097083091 0 0)
(0.0003171146240949296 0 0)
(0.0002379487665211235 0 0)
(0.0001992441461819611 0 0)
(0.0001061476349558778 0 0)
(6.281216977626705e-05 0 0)
(2.686010609400196e-05 0 0)
(9.030938706221813e-06 0 0)
(1.650819277998849e-06 0 0)
(3.488469599300341e-06 0 0)
(3.12825124484412e-05 0 0)
(7.274637492548557e-05 0 0)
(0.0001167837020988599 0 0)
(0.0001855951582840289 0 0)
(0.0002656972130515646 0 0)
(0.0003308831307342412 0 0)
(0.0004546930267278241 0 0)
(0.0005655244226651393 0 0)
(0.0006405771582880229 0 0)
(0.0007596595746078015 0 0)
(0.0008811781184130116 0 0)
(0.0009547542751795752 0 0)
(0.001062397351655176 0 0)
(0.001173877170045553 0 0)
(0.001244484407734463 0 0)
(0.001326350682516924 0 0)
(0.001433544560729368 0 0)
(0.001480034859890141 0 0)
(0.001518381176757995 0 0)
(0.00157547739913445 0 0)
(0.001618969893505475 0 0)
(0.001605175137385546 0 0)
(0.001591716452216988 0 0)
(0.001594161676714371 0 0)
(0.001564828353508832 0 0)
(0.001489104780445405 0 0)
(0.001439217962005449 0 0)
(0.001382561529035108 0 0)
(0.001276295947366287 0 0)
(0.001174375091269038 0 0)
(0.001089782069873933 0 0)
(0.0009769604888048235 0 0)
(0.0008562506295941764 0 0)
(0.0007818536683032627 0 0)
(0.0006761182680219965 0 0)
(0.0005545566180679671 0 0)
(0.0004806706386344727 0 0)
(0.0003945332397873271 0 0)
(0.0002861881963072622 0 0)
(0.0002181728371944208 0 0)
(0.0001605612491019502 0 0)
(8.507039962238934e-05 0 0)
(5.47358189896734e-05 0 0)
(1.651400464096346e-05 0 0)
(3.060283309694667e-06 0 0)
(2.921556526626068e-06 0 0)
(2.798614153394472e-05 0 0)
(4.523075334020508e-05 0 0)
(9.559712819242879e-05 0 0)
(0.0001628620951132575 0 0)
(0.0002368854145905267 0 0)
(0.0003123382108965444 0 0)
(0.0004128483590262756 0 0)
(0.0005290455415410781 0 0)
(0.0006283794885914956 0 0)
(0.0007186019244532914 0 0)
(0.0008244068556588124 0 0)
(0.0009403320433787301 0 0)
(0.001019759989858562 0 0)
(0.001115247464183376 0 0)
(0.00122302567519315 0 0)
(0.00129693531834838 0 0)
(0.00136673588380873 0 0)
(0.001455969106788873 0 0)
(0.001510851978094218 0 0)
(0.001528416833741827 0 0)
(0.001596150908548183 0 0)
(0.001617535280312054 0 0)
(0.00158378610880643 0 0)
(0.001603799181559097 0 0)
(0.001588234177100768 0 0)
(0.001503717336924686 0 0)
(0.001462201937573559 0 0)
(0.001424839886906924 0 0)
(0.001295624252951966 0 0)
(0.001199767569998082 0 0)
(0.001136743694698527 0 0)
(0.001000852625072111 0 0)
(0.0008906582774102651 0 0)
(0.000826004055595437 0 0)
(0.0007131708320867421 0 0)
(0.0005866919640536781 0 0)
(0.000536508896949392 0 0)
(0.0004293010011573383 0 0)
(0.0003143024234792547 0 0)
(0.0002726837573094538 0 0)
(0.0002003336924840441 0 0)
(0.0001059153993824209 0 0)
(7.553751186469691e-05 0 0)
(6.103024864107786e-05 0 0)
(-4.273083466873727e-06 0 0)
(2.782710335374093e-06 0 0)
(3.193548334870739e-05 0 0)
(3.163251722329536e-05 0 0)
(6.406228397624391e-05 0 0)
(0.0001521008574225669 0 0)
(0.0001978042453701199 0 0)
(0.0002768862562733356 0 0)
(0.0004111269142864585 0 0)
(0.0004729787260177524 0 0)
(0.0005912898033372261 0 0)
(0.0007091378085805422 0 0)
(0.0007794910017120999 0 0)
(0.0008789190458526105 0 0)
(0.001015328488511839 0 0)
(0.001073624267328121 0 0)
(0.00114730379388514 0 0)
(0.001296342819026112 0 0)
(0.001332909919265815 0 0)
(0.001382605092651317 0 0)
(0.001500422916293581 0 0)
(0.00153409118108755 0 0)
(0.001531873366953185 0 0)
(0.0016098376108093 0 0)
(0.001625570198186069 0 0)
(0.001562911314730219 0 0)
(0.001592766630018069 0 0)
(0.001569278354660461 0 0)
(0.001467348645566339 0 0)
(0.001416079018302799 0 0)
(0.001382904093145335 0 0)
(0.001225850667694379 0 0)
(0.001131465394147042 0 0)
(0.001073004572881495 0 0)
(0.0009345097674842598 0 0)
(0.0008334737212362249 0 0)
(0.0007646795534490462 0 0)
(0.0006520202296924544 0 0)
(0.0005375253692827249 0 0)
(0.0004919684333428553 0 0)
(0.0003755213391421156 0 0)
(0.0002815840526080567 0 0)
(0.0002461671810498975 0 0)
(0.0001600089627555509 0 0)
(8.838404290544732e-05 0 0)
(7.7095290137651e-05 0 0)
(3.851411516285582e-05 0 0)
(-7.578221320711997e-06 0 0)
(3.355448204293887e-05 0 0)
(3.818646538410425e-05 0 0)
(4.381589802208259e-05 0 0)
(0.0001231271601326799 0 0)
(0.0001913371065079034 0 0)
(0.0002431962397454195 0 0)
(0.0003642138374178061 0 0)
(0.0004718558492051838 0 0)
(0.000550872387867541 0 0)
(0.0006565173134659414 0 0)
(0.0007663695316335272 0 0)
(0.0008513535493405782 0 0)
(0.0009429936110012521 0 0)
(0.001057858868711897 0 0)
(0.001128264259883711 0 0)
(0.001220156653635498 0 0)
(0.001305783722184212 0 0)
(0.001376870953574578 0 0)
(0.001441964601148945 0 0)
(0.00149430298735589 0 0)
(0.001545021567205635 0 0)
(0.001572119397359111 0 0)
(0.001598738489866748 0 0)
(0.001589876541054455 0 0)
(0.001593478706178784 0 0)
(0.001554783588578785 0 0)
(0.001511573914291643 0 0)
(0.001452577182632938 0 0)
(0.001383036572157856 0 0)
(0.001266600309795346 0 0)
(0.001181614771575734 0 0)
(0.001085312131698905 0 0)
(0.0009720217576138425 0 0)
(0.0008870991441029426 0 0)
(0.0007946887828458429 0 0)
(0.0006838786752636575 0 0)
(0.0005919752058530018 0 0)
(0.0005203152119629883 0 0)
(0.000413313259187855 0 0)
(0.0003310249044780016 0 0)
(0.0002724157216974371 0 0)
(0.0001926704103567634 0 0)
(0.0001331593965752379 0 0)
(9.409025209642937e-05 0 0)
(5.393779054574944e-05 0 0)
(2.121802392839141e-05 0 0)
(3.736826118025276e-05 0 0)
(3.10192077373452e-05 0 0)
(5.185672400354622e-05 0 0)
(0.0001040069577208743 0 0)
(0.0001601627597000038 0 0)
(0.0002324812062891811 0 0)
(0.0003351407311000719 0 0)
(0.0004361777503406673 0 0)
(0.0005248782502982811 0 0)
(0.0006319963191141299 0 0)
(0.0007258205852236355 0 0)
(0.0008205678928369941 0 0)
(0.0009158992756732422 0 0)
(0.001013160023549884 0 0)
(0.001100237450127326 0 0)
(0.001182355169263673 0 0)
(0.001272596969896342 0 0)
(0.001339610212654448 0 0)
(0.00141411501797818 0 0)
(0.001467303458345802 0 0)
(0.001520843366720927 0 0)
(0.001555270919927406 0 0)
(0.001582944876284301 0 0)
(0.001586486672606331 0 0)
(0.001589937297248379 0 0)
(0.001563283169325753 0 0)
(0.001525739637314753 0 0)
(0.001477930832381229 0 0)
(0.001400124149606746 0 0)
(0.001303196004009843 0 0)
(0.001216085181728172 0 0)
(0.001116845189471861 0 0)
(0.001010417922952258 0 0)
(0.0009125979387124437 0 0)
(0.0008395043867898153 0 0)
(0.0007218913526022231 0 0)
(0.0006290777340486216 0 0)
(0.0005524537066038538 0 0)
(0.0004644765379757982 0 0)
(0.0003627776970495709 0 0)
(0.0003054758787532797 0 0)
(0.0002363693539447804 0 0)
(0.0001602887590199665 0 0)
(0.0001191397734232242 0 0)
(8.352300993709551e-05 0 0)
(4.660636024285868e-05 0 0)
(2.879383328926275e-05 0 0)
(4.885868126730721e-05 0 0)
(5.143088095118143e-05 0 0)
(8.40250860183723e-05 0 0)
(0.0001513801190654173 0 0)
(0.0002098009070704056 0 0)
(0.0003029867072874857 0 0)
(0.0004008312835086453 0 0)
(0.0005133706606120392 0 0)
(0.0005807165486423366 0 0)
(0.0007039296240513895 0 0)
(0.0007876278152979406 0 0)
(0.0008811013869723928 0 0)
(0.0009757226292802778 0 0)
(0.001069496747643817 0 0)
(0.001149686943488032 0 0)
(0.001226438160347685 0 0)
(0.00132235243667912 0 0)
(0.001376997978629073 0 0)
(0.001442640049811297 0 0)
(0.001488394025225654 0 0)
(0.00154511596817913 0 0)
(0.001559664570699356 0 0)
(0.001574459772717874 0 0)
(0.001586743210171168 0 0)
(0.001565322670654582 0 0)
(0.001537946058946406 0 0)
(0.001479033247426769 0 0)
(0.001436474280339881 0 0)
(0.001330571890680849 0 0)
(0.001244622681595609 0 0)
(0.001145751192004638 0 0)
(0.001044967030295079 0 0)
(0.000954112258920786 0 0)
(0.0008597083812200902 0 0)
(0.0007645350676054849 0 0)
(0.000663622793324651 0 0)
(0.000591843945714919 0 0)
(0.0004921787651751422 0 0)
(0.0004114326719716664 0 0)
(0.0003323315220626746 0 0)
(0.0002668883069333401 0 0)
(0.0001936132612798167 0 0)
(0.000147785922072899 0 0)
(0.0001018717690732708 0 0)
(6.06215118463441e-05 0 0)
(5.580892882437247e-05 0 0)
(4.697569535403075e-05 0 0)
(5.424737199636783e-05 0 0)
(8.52707948019829e-05 0 0)
(0.0001353466422554765 0 0)
(0.0001871935516631386 0 0)
(0.0002802083366724239 0 0)
(0.0003766490790361627 0 0)
(0.0004677308214983605 0 0)
(0.0005709518587224714 0 0)
(0.0006589057177196409 0 0)
(0.0007510594361262979 0 0)
(0.0008560513785605473 0 0)
(0.0009419792699274577 0 0)
(0.001024078045791538 0 0)
(0.001118368228863166 0 0)
(0.001204213938161255 0 0)
(0.001273356644125447 0 0)
(0.00134702690798468 0 0)
(0.001413956350352241 0 0)
(0.001461787174180484 0 0)
(0.001510169421349206 0 0)
(0.001555239613635982 0 0)
(0.001557139994016028 0 0)
(0.001568290109318433 0 0)
(0.001579440906930551 0 0)
(0.001546099345393525 0 0)
(0.001488409426752619 0 0)
(0.001448839378974753 0 0)
(0.001383261618286455 0 0)
(0.001262088598340382 0 0)
(0.001181108470443993 0 0)
(0.001090956059543756 0 0)
(0.0009877201573749623 0 0)
(0.0008893518462251249 0 0)
(0.0008124038806036052 0 0)
(0.0007093456914264762 0 0)
(0.0006116435574566368 0 0)
(0.0005404212475695475 0 0)
(0.0004497194027194636 0 0)
(0.000366260414851535 0 0)
(0.0002988030361309491 0 0)
(0.0002371971268021791 0 0)
(0.0001723822740338871 0 0)
(0.0001257559016048841 0 0)
(9.413287847938063e-05 0 0)
(6.819419914236402e-05 0 0)
(6.149391984390222e-05 0 0)
(5.31990879697442e-05 0 0)
(8.81622676660752e-05 0 0)
(0.0001233275386805238 0 0)
(0.0001785575636705173 0 0)
(0.0002415942156756629 0 0)
(0.0003554805000657688 0 0)
(0.0004379154729142411 0 0)
(0.0005380309448905999 0 0)
(0.0006294530934752298 0 0)
(0.0007199203909306905 0 0)
(0.0008183749451187599 0 0)
(0.0009109338190433222 0 0)
(0.0009990462525116916 0 0)
(0.001072992195685022 0 0)
(0.001177059682674107 0 0)
(0.001243924031372013 0 0)
(0.001313002703768773 0 0)
(0.001382861286387501 0 0)
(0.001446313892061992 0 0)
(0.001484374438898057 0 0)
(0.001523005360265707 0 0)
(0.001558812751193712 0 0)
(0.001558548889980642 0 0)
(0.001564070278160368 0 0)
(0.001542421175461257 0 0)
(0.001513951663815981 0 0)
(0.001455782229982746 0 0)
(0.001399313843413501 0 0)
(0.001301916402507399 0 0)
(0.001207640215387795 0 0)
(0.001122161394897535 0 0)
(0.001019286755505042 0 0)
(0.0009314725168285655 0 0)
(0.0008393616271214962 0 0)
(0.0007447535254808958 0 0)
(0.0006541626010494436 0 0)
(0.0005750970370543523 0 0)
(0.0004885164212389098 0 0)
(0.0003961122723801423 0 0)
(0.000338785499347885 0 0)
(0.0002706442289617267 0 0)
(0.0001985103168536059 0 0)
(0.0001543979070362199 0 0)
(0.0001237752242402259 0 0)
(8.047564642133008e-05 0 0)
(6.95643651446009e-05 0 0)
(7.737200225364034e-05 0 0)
(8.279503970020961e-05 0 0)
(0.0001145200193715926 0 0)
(0.0001730996680394536 0 0)
(0.0002280749807336246 0 0)
(0.0003129506869879041 0 0)
(0.0004232625767444379 0 0)
(0.0005087663317692599 0 0)
(0.0005909504878408622 0 0)
(0.0006995046869134025 0 0)
(0.0007857830546986267 0 0)
(0.0008717261629932117 0 0)
(0.000961691369095233 0 0)
(0.001059085434662721 0 0)
(0.001129503345551501 0 0)
(0.001211632363014093 0 0)
(0.001292971982324068 0 0)
(0.001351207368689756 0 0)
(0.001408899613776764 0 0)
(0.001469803329595501 0 0)
(0.001508925210395711 0 0)
(0.001527457649685339 0 0)
(0.001556129868633907 0 0)
(0.001556474831945339 0 0)
(0.001541263910118192 0 0)
(0.001516958673820068 0 0)
(0.001475059804521292 0 0)
(0.001415207493704552 0 0)
(0.001332914132746572 0 0)
(0.001240006488579784 0 0)
(0.001149957756952553 0 0)
(0.001055514641575571 0 0)
(0.0009568153656736311 0 0)
(0.0008743570574395362 0 0)
(0.0007797989202621818 0 0)
(0.0006894196191937561 0 0)
(0.0006013086928033178 0 0)
(0.0005247763161145946 0 0)
(0.0004336481985823112 0 0)
(0.0003636085334461472 0 0)
(0.0002989059361091952 0 0)
(0.000231601902738118 0 0)
(0.000177216959802106 0 0)
(0.0001354572501971939 0 0)
(0.0001092643668996964 0 0)
(7.479532541809071e-05 0 0)
(8.503307338447152e-05 0 0)
(8.723264252676546e-05 0 0)
(0.0001066014418968001 0 0)
(0.0001588390678944548 0 0)
(0.0002174324228891023 0 0)
(0.0002832019273164807 0 0)
(0.0003833217931785306 0 0)
(0.000489455034243339 0 0)
(0.0005623360458559532 0 0)
(0.0006619431921025469 0 0)
(0.0007527596582144324 0 0)
(0.0008462273556426116 0 0)
(0.000929316480400985 0 0)
(0.001026250428194931 0 0)
(0.001091311488280933 0 0)
(0.001181693741753041 0 0)
(0.001264725827468898 0 0)
(0.001317796427636427 0 0)
(0.001389190447499113 0 0)
(0.001443588813338639 0 0)
(0.001486496979529815 0 0)
(0.001511531532283559 0 0)
(0.001548148394039856 0 0)
(0.001542921879697765 0 0)
(0.001536795631157913 0 0)
(0.001530913042295156 0 0)
(0.001483449376466834 0 0)
(0.001424495020708233 0 0)
(0.001366408278459553 0 0)
(0.001280486819561817 0 0)
(0.001170578044066437 0 0)
(0.00108706331189195 0 0)
(0.001005665357213875 0 0)
(0.000900314918596204 0 0)
(0.0008156278612930178 0 0)
(0.0007342895753161597 0 0)
(0.0006381302359088912 0 0)
(0.0005490681838683026 0 0)
(0.0004894872481053265 0 0)
(0.0003941548297026347 0 0)
(0.0003222081774013555 0 0)
(0.0002744590500601295 0 0)
(0.0002148624052225423 0 0)
(0.00015099030555539 0 0)
(0.0001308149778733974 0 0)
(0.0001107486695623192 0 0)
(8.21593045433892e-05 0 0)
(9.812449598564364e-05 0 0)
(0.0001208449451063863 0 0)
(0.0001437506762306229 0 0)
(0.0001946706895974544 0 0)
(0.0002758886264553413 0 0)
(0.0003603576457585107 0 0)
(0.000441112515023735 0 0)
(0.0005504708101634717 0 0)
(0.0006269935007779458 0 0)
(0.0007225686341961028 0 0)
(0.0008132734470384884 0 0)
(0.0009015321601219327 0 0)
(0.0009792348785587011 0 0)
(0.001072339305087164 0 0)
(0.001153826119062572 0 0)
(0.001216458162299717 0 0)
(0.001300636873001061 0 0)
(0.001357433005641136 0 0)
(0.001415868993481006 0 0)
(0.00145430361750407 0 0)
(0.001509818791766741 0 0)
(0.001520887396598436 0 0)
(0.001534754229201422 0 0)
(0.001542315290436769 0 0)
(0.001518570033549821 0 0)
(0.001492821959190738 0 0)
(0.001446922541683495 0 0)
(0.001391668409595365 0 0)
(0.001291561131347754 0 0)
(0.001215662664835402 0 0)
(0.001122411472557197 0 0)
(0.001026092503129435 0 0)
(0.0009353913092524633 0 0)
(0.0008543499671773095 0 0)
(0.0007598417642510429 0 0)
(0.0006724302087477975 0 0)
(0.0005952243983649169 0 0)
(0.0005028747611097869 0 0)
(0.0004378865392804258 0 0)
(0.0003588869651497764 0 0)
(0.0002949828168164143 0 0)
(0.0002370791062889144 0 0)
(0.0001889196398521399 0 0)
(0.0001466488673700077 0 0)
(0.000121423319743631 0 0)
(0.0001049092086217627 0 0)
(9.986802844636712e-05 0 0)
(0.0001156945947848065 0 0)
(0.0001438405231648882 0 0)
(0.0001906731165774936 0 0)
(0.0002422985832105877 0 0)
(0.0003347958170123869 0 0)
(0.0004234608819211753 0 0)
(0.0005112331672801895 0 0)
(0.0006007631027561413 0 0)
(0.000691990627766492 0 0)
(0.0007792152666491975 0 0)
(0.0008690789816278737 0 0)
(0.0009514173156713133 0 0)
(0.00103713677872766 0 0)
(0.00112007298264858 0 0)
(0.001190583793149254 0 0)
(0.001266452119682212 0 0)
(0.001329785629593113 0 0)
(0.001388502592904128 0 0)
(0.001438803344033296 0 0)
(0.001478197581658666 0 0)
(0.001505368370226039 0 0)
(0.001529041091495376 0 0)
(0.001529679287213492 0 0)
(0.001515069303898821 0 0)
(0.001502831326830062 0 0)
(0.001454779707722681 0 0)
(0.001396179126258625 0 0)
(0.001332212530221369 0 0)
(0.001239725785582723 0 0)
(0.001140425983688514 0 0)
(0.001058355982286543 0 0)
(0.0009796715024696276 0 0)
(0.0008747904534780603 0 0)
(0.0007945230289789464 0 0)
(0.000717336453914925 0 0)
(0.0006197377907192175 0 0)
(0.0005395157521800647 0 0)
(0.000476116891349045 0 0)
(0.0003943073362232263 0 0)
(0.0003172405725961508 0 0)
(0.0002752037313802757 0 0)
(0.0002169935992810823 0 0)
(0.0001662113744050568 0 0)
(0.0001379604195530901 0 0)
(0.0001263606878001905 0 0)
(0.0001078180462634171 0 0)
(0.0001192824846556878 0 0)
(0.0001436262291545402 0 0)
(0.0001761781787236741 0 0)
(0.0002346218454015873 0 0)
(0.000302441859861581 0 0)
(0.0003951230710955347 0 0)
(0.0004827002804848712 0 0)
(0.0005774084888475865 0 0)
(0.0006573175352977068 0 0)
(0.0007448642886882207 0 0)
(0.0008439680391707337 0 0)
(0.0009173628870582698 0 0)
(0.001007153805952357 0 0)
(0.00108057932460599 0 0)
(0.0011702631852884 0 0)
(0.001227604731929965 0 0)
(0.001305635023084906 0 0)
(0.001363011582833746 0 0)
(0.001409191532679723 0 0)
(0.001463236818068972 0 0)
(0.001489703856433092 0 0)
(0.001510356774892655 0 0)
(0.001518215181317817 0 0)
(0.001528139164247393 0 0)
(0.001490433659578656 0 0)
(0.001468132981330819 0 0)
(0.001424801821316875 0 0)
(0.001349748888449449 0 0)
(0.001262016127530386 0 0)
(0.001185650297304557 0 0)
(0.001093372530809929 0 0)
(0.0009965056836185925 0 0)
(0.0009215245386572613 0 0)
(0.0008296613497512818 0 0)
(0.00074142732674955 0 0)
(0.0006589440029764341 0 0)
(0.0005849256529877478 0 0)
(0.0004994271883567857 0 0)
(0.0004219832943501176 0 0)
(0.0003636839814793453 0 0)
(0.000298098981126123 0 0)
(0.0002393105435906246 0 0)
(0.0001954549958872944 0 0)
(0.0001603270087639826 0 0)
(0.000135608990833155 0 0)
(0.0001258603877143531 0 0)
(0.0001232080322130887 0 0)
(0.0001375774600646501 0 0)
(0.0001765282653487496 0 0)
(0.0002169008532372523 0 0)
(0.0002808485703208314 0 0)
(0.0003699510561896038 0 0)
(0.0004566600150046252 0 0)
(0.000543817731272396 0 0)
(0.0006286554084002443 0 0)
(0.0007249327927743725 0 0)
(0.0007975723321950478 0 0)
(0.0008922561548778513 0 0)
(0.0009735051216419699 0 0)
(0.001052991040237886 0 0)
(0.001132622160672751 0 0)
(0.001205392154427942 0 0)
(0.001271715714026669 0 0)
(0.001331173866459725 0 0)
(0.001392508511440763 0 0)
(0.001434160184527822 0 0)
(0.001471016234052241 0 0)
(0.001496480910825329 0 0)
(0.001513399848447853 0 0)
(0.001510700561598432 0 0)
(0.001497580044600323 0 0)
(0.001474822120175403 0 0)
(0.001424406429130136 0 0)
(0.001375643560063802 0 0)
(0.001294484176423232 0 0)
(0.001203609386722141 0 0)
(0.001118464222439791 0 0)
(0.001037110779499987 0 0)
(0.0009452822896699646 0 0)
(0.0008597341322139735 0 0)
(0.0007751770718922511 0 0)
(0.0006961748404804055 0 0)
(0.0006109641869103317 0 0)
(0.000531435042022816 0 0)
(0.0004583552063346322 0 0)
(0.0003936018681737382 0 0)
(0.0003253283084271993 0 0)
(0.0002633616577493017 0 0)
(0.0002268680825475603 0 0)
(0.0001800511351343572 0 0)
(0.0001547295860059227 0 0)
(0.0001354615891565719 0 0)
(0.0001325048171364561 0 0)
(0.0001450910112547985 0 0)
(0.0001702917451612941 0 0)
(0.000207435399952948 0 0)
(0.0002654960781724558 0 0)
(0.0003480890395708438 0 0)
(0.0004290841801981311 0 0)
(0.0005180672047056293 0 0)
(0.0006060063485897764 0 0)
(0.0006917355383278935 0 0)
(0.0007731691616634757 0 0)
(0.0008641303282398269 0 0)
(0.0009424785762230526 0 0)
(0.001019142206566444 0 0)
(0.001104290551960768 0 0)
(0.001180344414261159 0 0)
(0.001241263703063141 0 0)
(0.001303060131489055 0 0)
(0.001376036647439557 0 0)
(0.001408323276219734 0 0)
(0.001450021171169478 0 0)
(0.001486069662785293 0 0)
(0.001502330611739895 0 0)
(0.001497898948743008 0 0)
(0.001505779432021959 0 0)
(0.001479979538172671 0 0)
(0.001430533631982043 0 0)
(0.001395729541794703 0 0)
(0.001326748363639145 0 0)
(0.001228067572732115 0 0)
(0.00114786793590897 0 0)
(0.001071648765296478 0 0)
(0.0009764511557082678 0 0)
(0.000887224414920074 0 0)
(0.0008174618333813623 0 0)
(0.0007277828758977701 0 0)
(0.0006408783139397632 0 0)
(0.0005695078937255807 0 0)
(0.0004963561517163742 0 0)
(0.0004173577676608216 0 0)
(0.0003597087728685889 0 0)
(0.0002991150438209197 0 0)
(0.0002434307505886017 0 0)
(0.0002044365537835007 0 0)
(0.0001751510113736711 0 0)
(0.0001516240252640717 0 0)
(0.000139633373740367 0 0)
(0.00015024267927846 0 0)
(0.0001684754177460884 0 0)
(0.0002012046708653361 0 0)
(0.0002528100780672742 0 0)
(0.0003178576478196309 0 0)
(0.0004116178997275075 0 0)
(0.0004874731629811113 0 0)
(0.000578112492902669 0 0)
(0.0006615691560355054 0 0)
(0.0007496023269814312 0 0)
(0.0008271707710481693 0 0)
(0.0009118834189484738 0 0)
(0.0009976612473000148 0 0)
(0.001066839196299168 0 0)
(0.001146650103490363 0 0)
(0.001213024031991281 0 0)
(0.001285686349312445 0 0)
(0.001332412444400509 0 0)
(0.001392521053512098 0 0)
(0.001433174382298378 0 0)
(0.001462572645166627 0 0)
(0.001486442354491695 0 0)
(0.001499544253525904 0 0)
(0.001496213892249156 0 0)
(0.001469275902074186 0 0)
(0.001456378620791788 0 0)
(0.001403597662653944 0 0)
(0.00133834463524278 0 0)
(0.001257730410463486 0 0)
(0.001187824153655141 0 0)
(0.001089900433549022 0 0)
(0.00100254931416788 0 0)
(0.0009297579454792658 0 0)
(0.0008406154318234536 0 0)
(0.0007533479713170172 0 0)
(0.0006802375859286333 0 0)
(0.0006052861124203066 0 0)
(0.0005174497820660276 0 0)
(0.0004549905436125422 0 0)
(0.0003897169113134768 0 0)
(0.0003249491956964139 0 0)
(0.0002686855118921287 0 0)
(0.0002328429642948126 0 0)
(0.0001944633472970528 0 0)
(0.0001608467592583038 0 0)
(0.0001576609348015198 0 0)
(0.0001600939497710769 0 0)
(0.0001642172259457851 0 0)
(0.0001950892740919366 0 0)
(0.0002486250843391753 0 0)
(0.0002964071065421357 0 0)
(0.0003824414565390795 0 0)
(0.0004683305773983368 0 0)
(0.0005507076929083617 0 0)
(0.0006296829430658412 0 0)
(0.0007247174616826896 0 0)
(0.0008017683364392402 0 0)
(0.0008781915119851582 0 0)
(0.0009648296840565362 0 0)
(0.001045343666606316 0 0)
(0.001116112052125307 0 0)
(0.001182685573447847 0 0)
(0.001258546055031058 0 0)
(0.001310531393878295 0 0)
(0.001366656622748736 0 0)
(0.001412703012867787 0 0)
(0.001447231111771368 0 0)
(0.001471677694529334 0 0)
(0.001488442397422008 0 0)
(0.001491909272385119 0 0)
(0.001474118364484883 0 0)
(0.001456440917444872 0 0)
(0.001412355673427352 0 0)
(0.001361243049680658 0 0)
(0.00129007197046567 0 0)
(0.001202345100452328 0 0)
(0.001121782089911527 0 0)
(0.001038245384958722 0 0)
(0.0009545538568357041 0 0)
(0.0008703842729239228 0 0)
(0.0007915020993909018 0 0)
(0.0007095982079571147 0 0)
(0.0006304585702782003 0 0)
(0.0005603259483391352 0 0)
(0.0004830292330895417 0 0)
(0.0004156651952720716 0 0)
(0.0003542460796916473 0 0)
(0.0003048119810829419 0 0)
(0.000249525403422569 0 0)
(0.0002113442780619301 0 0)
(0.0001883345809360581 0 0)
(0.0001672655841954004 0 0)
(0.0001631794751399739 0 0)
(0.0001736147435251912 0 0)
(0.0001942574039949892 0 0)
(0.000230093212724251 0 0)
(0.0002858683684967025 0 0)
(0.0003547845996810794 0 0)
(0.0004425472884950655 0 0)
(0.0005223937905753475 0 0)
(0.000607301647838566 0 0)
(0.0006918342466768014 0 0)
(0.000771347918006537 0 0)
(0.0008567023595418872 0 0)
(0.000929109074854557 0 0)
(0.001015518779980254 0 0)
(0.001085398711205012 0 0)
(0.00115784854907619 0 0)
(0.001225091921110144 0 0)
(0.001289749419445114 0 0)
(0.001338924087456202 0 0)
(0.001386982049812548 0 0)
(0.001436516196569133 0 0)
(0.001449836193049921 0 0)
(0.00147834787470824 0 0)
(0.001481901351025235 0 0)
(0.001481727605808881 0 0)
(0.001452244277676057 0 0)
(0.001427373107539752 0 0)
(0.001378245068940205 0 0)
(0.001312445323236747 0 0)
(0.00123176391587907 0 0)
(0.001151518681835748 0 0)
(0.001064263846585405 0 0)
(0.000981742086840408 0 0)
(0.000907102867561505 0 0)
(0.0008196420589901758 0 0)
(0.0007406796593849153 0 0)
(0.0006674761617223822 0 0)
(0.0005909656727928588 0 0)
(0.0005144065122381048 0 0)
(0.000450911886060986 0 0)
(0.0003858251626721199 0 0)
(0.0003237495325471481 0 0)
(0.0002770788960214237 0 0)
(0.0002308770483623929 0 0)
(0.0001964136947460005 0 0)
(0.0001733133886865192 0 0)
(0.0001667811185441198 0 0)
(0.000165643229711669 0 0)
(0.0001828383959100853 0 0)
(0.0002227879880912528 0 0)
(0.0002764091287564451 0 0)
(0.0003416364138006057 0 0)
(0.0004314554768197573 0 0)
(0.0005254495206888754 0 0)
(0.0006230016929503708 0 0)
(0.0007160155374246817 0 0)
(0.0008152620106013118 0 0)
(0.0009161806143073551 0 0)
(0.001009913969493287 0 0)
(0.001107669010594449 0 0)
(0.00120862702218951 0 0)
(0.001306790708835108 0 0)
(0.001393436682182646 0 0)
(0.001489594081364794 0 0)
(0.001567619853543235 0 0)
(0.001653133714208025 0 0)
(0.001712394663559123 0 0)
(0.001777221614698094 0 0)
(0.001818445171665558 0 0)
(0.001859117731595478 0 0)
(0.001866157568613026 0 0)
(0.001874244281795385 0 0)
(0.001856443409249659 0 0)
(0.001823356084153747 0 0)
(0.001771259991182029 0 0)
(0.001705949665636308 0 0)
(0.001621070936789891 0 0)
(0.001533585028038616 0 0)
(0.001446384351341779 0 0)
(0.001349371497138622 0 0)
(0.001256474994767111 0 0)
(0.001150390165671111 0 0)
(0.001066660838327791 0 0)
(0.0009510381791565265 0 0)
(0.0008583430941518479 0 0)
(0.0007541488516660763 0 0)
(0.000650890447669042 0 0)
(0.0005568693994361791 0 0)
(0.0004710117846978101 0 0)
(0.0003896701030219958 0 0)
(0.0003197136949272437 0 0)
(0.000274132249710336 0 0)
(0.0002275574453010849 0 0)
(0.0002062364133103244 0 0)
(0.0002071952126134809 0 0)
(0.0002122467716902752 0 0)
(0.0002464377224021027 0 0)
(0.000300286907853422 0 0)
(0.0003565755717127912 0 0)
(0.000440266912203552 0 0)
(0.0005344233032982442 0 0)
(0.0006179744582383168 0 0)
(0.0007152948992189194 0 0)
(0.000819470870035888 0 0)
(0.000898008163549874 0 0)
(0.001008580446610874 0 0)
(0.001093789373571985 0 0)
(0.00117954407017703 0 0)
(0.001272462880011522 0 0)
(0.001365964962460502 0 0)
(0.001433354706132684 0 0)
(0.001524358906021235 0 0)
(0.001589763060469916 0 0)
(0.001650776153493382 0 0)
(0.001699268894109322 0 0)
(0.00173837610279275 0 0)
(0.001756562751412157 0 0)
(0.001768310947572612 0 0)
(0.001755228456387461 0 0)
(0.001728337297498361 0 0)
(0.001687298408993465 0 0)
(0.001625522215587077 0 0)
(0.001553138088018786 0 0)
(0.001467450053276788 0 0)
(0.001369466454209634 0 0)
(0.001278746624190492 0 0)
(0.001185109415167076 0 0)
(0.001074433941196328 0 0)
(0.0009870909548042909 0 0)
(0.0008896590612781258 0 0)
(0.0007764994091662442 0 0)
(0.0006949818373437075 0 0)
(0.0005832822299233826 0 0)
(0.0004948557740278343 0 0)
(0.0004031533626506159 0 0)
(0.0003118264076776186 0 0)
(0.00024455783042516 0 0)
(0.0001849458715482647 0 0)
(0.0001292303228729232 0 0)
(0.0001070587392194562 0 0)
(0.0001016417606660902 0 0)
(8.561846930383563e-05 0 0)
(0.0001216356616551409 0 0)
(0.0001649776553242489 0 0)
(0.0002176087557561938 0 0)
(0.000281640808206566 0 0)
(0.000380644362978331 0 0)
(0.0004629560880395903 0 0)
(0.0005431691087158367 0 0)
(0.0006767770052746792 0 0)
(0.0007349922248721162 0 0)
(0.0008389958019801892 0 0)
(0.0009591074892564017 0 0)
(0.001012663499255251 0 0)
(0.001099167698754763 0 0)
(0.001222322212232463 0 0)
(0.001258454565846177 0 0)
(0.001349978235339259 0 0)
(0.00144035832793274 0 0)
(0.001479790363586469 0 0)
(0.001532150592033042 0 0)
(0.001601029059935394 0 0)
(0.001609055136102575 0 0)
(0.001635726577898821 0 0)
(0.001600822027637868 0 0)
)
;

boundaryField
{
    inlet
    {
        type            calculated;
        value           uniform (-2.697593223299181e-05 0 0);
    }
    outlet
    {
        type            calculated;
        value           uniform (0.001600822027637868 0 0);
    }
    frontAndBack
    {
        type            empty;
    }
}


// ************************************************************************* //
