/*--------------------------------*- C++ -*----------------------------------*\
| =========                 |                                                 |
| \\      /  F ield         | OpenFOAM: The Open Source CFD Toolbox           |
|  \\    /   O peration     | Version:  v2012                                 |
|   \\  /    A nd           | Website:  www.openfoam.com                      |
|    \\/     M anipulation  |                                                 |
\*---------------------------------------------------------------------------*/
FoamFile
{
    version     2.0;
    format      ascii;
    class       volScalarField;
    location    "0.003";
    object      p;
}
// * * * * * * * * * * * * * * * * * * * * * * * * * * * * * * * * * * * * * //

dimensions      [1 -1 -2 0 0 0 0];


internalField   nonuniform List<scalar> 
1000
(
101303.8238702829
101309.4628773961
101304.6472309152
101294.6367292721
101292.0547235293
101286.4715737764
101281.9063998558
101281.6118491801
101276.5494999259
101276.2142112179
101276.4888234942
101276.457138464
101277.7211219584
101279.5230466056
101280.8966476808
101286.1394258395
101289.5234517752
101294.7562898851
101301.3559101604
101306.3107799372
101313.0818104752
101319.5860912052
101326.1973827775
101333.0116235869
101339.3502148046
101345.9082061761
101351.7135308447
101357.115865656
101362.2128917146
101366.4361512004
101371.4888180298
101372.9921914835
101373.0357655859
101372.6543163327
101372.5315515319
101371.7414451542
101369.8635189819
101368.8042760884
101365.1210589611
101361.4982495705
101357.2640540321
101350.9052205392
101345.4454522271
101338.554156252
101331.7352055711
101325.2283243825
101318.3286436082
101311.914090832
101305.55667367
101299.4140980751
101293.7309662949
101288.5389979535
101282.8897387873
101277.9857535112
101277.6812936481
101277.9309758435
101277.8216335375
101278.1771830601
101279.3961043578
101279.7853012522
101282.1378587163
101285.1074260783
101287.0455452709
101292.729067941
101297.0326496761
101302.5489734412
101309.7984801866
101315.6925481426
101323.2746578307
101330.0564939476
101336.6148041571
101343.4456572353
101349.3628661747
101355.2556646442
101360.5949030649
101366.5960202333
101371.6760956715
101371.8414891696
101371.841296894
101371.8741669863
101370.9783867048
101370.8948427892
101369.5014136658
101367.363510161
101366.2755962592
101362.1557110798
101358.6712977707
101354.7821683939
101348.1664183744
101343.0433308125
101336.0901585293
101328.819016842
101322.1007926407
101314.600071382
101307.8710322142
101301.3092720159
101295.0325718817
101289.6741433026
101282.8249144828
101278.6588258753
101278.5494780059
101278.6689051098
101278.7279878282
101279.1499238696
101279.9282124901
101280.5481768472
101282.8131233491
101284.4855224473
101286.8565132326
101291.6586811246
101294.5311293114
101300.010175569
101306.6287656081
101311.6355786365
101319.3574555209
101326.3204150234
101333.1332865439
101340.6623524412
101347.1757459797
101353.7674341726
101359.5366293058
101366.7195444621
101370.8743551035
101370.9678478123
101370.8432302094
101370.8204194107
101370.4325010681
101369.7266016999
101369.2042979731
101367.1819468631
101365.6040773381
101363.592500024
101359.082911316
101356.3843079891
101351.4110392027
101344.9788591909
101340.1933396893
101332.6984997028
101325.6972957586
101318.8169217382
101310.9852651486
101304.1602913973
101297.048138106
101290.7785296095
101282.5466025956
101279.2998734865
101279.2912478809
101279.3878962883
101279.370340313
101280.0033028031
101280.461350156
101280.9620588774
101283.217823793
101284.2004827024
101286.7697728395
101290.6296536145
101293.1738603189
101298.601418074
101303.6391360717
101308.814914232
101316.1258001393
101322.2676441036
101329.5198057954
101337.0561032068
101343.8806945174
101351.2970257659
101357.6424229303
101366.0898795688
101370.3484346101
101370.4139974121
101370.3037578223
101370.2932568692
101369.9105520779
101369.244066451
101368.9067149704
101366.9838337751
101365.5160523543
101364.0354677419
101359.8361946757
101357.3192366498
101353.2143719857
101347.2512470333
101342.8150879854
101336.0280830384
101329.2137146894
101322.514242987
101314.6076431141
101307.4644564399
101299.8138842439
101292.8184320122
101283.5489827044
101279.8712641752
101279.8191346268
101279.9413562025
101279.9891795073
101280.2486648301
101281.0223813918
101281.4337068883
101282.9888560137
101284.6802349163
101286.4822944494
101289.8276847521
101292.5732817952
101296.8428221781
101301.7877327036
101306.4342672828
101313.0688244422
101319.2112662818
101325.9005395908
101333.6022118629
101340.5704241224
101348.2259175954
101355.1990312339
101364.3747214897
101369.5081234704
101369.8846946103
101369.8402074386
101369.5815516857
101369.6439902791
101368.8894670235
101368.0760497557
101367.4114948882
101365.3056385382
101363.7193542202
101361.0585001824
101357.7787390003
101354.2734627517
101349.5874340539
101344.6315262815
101338.7896441476
101332.4102044969
101325.5834920374
101318.1614334828
101310.6699050212
101302.7498832182
101295.4601482655
101285.572747881
101280.5284963394
101280.452942102
101280.5399171429
101280.5353139777
101280.9560143423
101281.4061947459
101281.9711983952
101283.3247476988
101284.5274978993
101286.738031294
101288.8926861371
101291.9834437594
101295.91723031
101299.5344178377
101305.0797681439
101310.4002668907
101316.1843544973
101323.3776905624
101330.0031404186
101337.5022717922
101345.2603569323
101352.4003942152
101361.2636322422
101368.8033548021
101369.1772607632
101369.1280647699
101369.095526207
101368.8545674637
101368.3590635795
101368.0487369655
101366.6133332376
101365.5416125821
101364.0218819485
101360.9782620484
101359.0395895357
101355.2686116121
101350.7747227074
101346.8880919538
101340.8240315323
101335.0703226016
101328.6322088627
101321.1413234866
101314.0526468996
101305.966932931
101298.3293768382
101289.207833561
101281.3806572103
101281.027782415
101280.9963570585
101281.1964384687
101281.2640609487
101281.7642978423
101282.5487515764
101283.1520310037
101284.843215118
101286.458635567
101288.4363004338
101291.7100196826
101294.5786606315
101298.6835934074
101303.2822419572
101308.1996472524
101314.1867695422
101320.3148133118
101327.1644299085
101334.4319846978
101341.822988515
101349.6182331809
101357.1975877961
101367.1513669183
101368.7382876704
101368.7302893478
101368.6361201963
101368.5532931705
101368.0553876266
101367.6641421229
101366.6933583307
101365.1897528705
101364.4006919223
101361.548915215
101359.0948605106
101356.5969983074
101351.8220448161
101348.1377471003
101343.0145336606
101336.9568973454
101331.2653869578
101324.0538698497
101316.8496951314
101309.3329192003
101301.1648730788
101293.321520554
101282.9952152578
101281.6924269184
101281.628850201
101281.6801224282
101281.8721072102
101282.3349546569
101282.5467186701
101283.815168095
101284.9576065349
101285.7738742579
101288.8482584037
101290.767545165
101293.5277902728
101297.9947716031
101301.3960642312
101306.5896693949
101312.1476075197
101317.6665226263
101324.6480171568
101331.3646812836
101338.6497851779
101346.5398808335
101353.5015248824
101363.8017734054
101368.1059380877
101368.1908872071
101368.1360364301
101367.9374758819
101367.9293062724
101367.0607223676
101366.3894093508
101365.7829450007
101363.5645420778
101362.3301090081
101359.8703871055
101356.5765473501
101353.7351145337
101349.1547266312
101344.6589296448
101339.4520144841
101333.2234993634
101327.0344223603
101319.7203135008
101312.4086660659
101304.5219748426
101296.9724299932
101286.3562697872
101282.1683638608
101282.169631766
101282.1449955085
101282.2996471826
101282.5592605648
101283.0358742412
101283.8106080931
101284.8667467093
101286.2695346806
101288.1407211464
101290.3870617037
101293.207213236
101296.5746721569
101300.4558755006
101304.9661916483
101310.0684286748
101315.756969252
101321.8825107725
101328.703646274
101335.7656795803
101343.1790677758
101350.7278329362
101359.0977587242
101367.4206194491
101367.9111365061
101367.8805570927
101367.9310444746
101367.4627445358
101367.2757518465
101366.7997960089
101365.517761591
101364.9003159719
101363.1095991766
101361.0176810875
101359.1685907733
101355.8373032084
101352.8497187901
101349.2250010951
101344.8371406811
101340.6298266313
101335.9127911104
101330.5842442337
101325.342298135
101325.0001023889
101324.9999999972
101324.9999999972
101324.9999999973
101324.9999999977
101324.9999999977
101324.9999999983
101324.9999999987
101324.9999999992
101324.9999999994
101324.9999999994
101324.9999999998
101324.9999999998
101324.9999999998
101324.9999999999
101324.9999999998
101324.9999999999
101324.9999999999
101325
101324.9999999996
101325.0000000002
101324.9999999998
101324.9999999999
101324.9999999999
101325.0000000001
101324.9999999999
101325
101325.0000000001
101324.9999999998
101325.0000000002
101324.9999999998
101325.0000000002
101324.9999999999
101325
101324.9999999999
101325.0000000003
101324.9999999998
101325
101325.0000000001
101325
101325.0000000001
101325
101325.0000000001
101325.0000000001
101325.0000000001
101325
101325
101325.0000000001
101325
101324.9999999999
101325.0000000001
101325.0000000001
101325
101325
101325.0000000001
101325
101325.0000000001
101325
101325.0000000001
101325.0000000001
101325.0000000001
101325
101325.0000000001
101325.0000000001
101325
101325.0000000001
101325
101325
101325.0000000001
101325.0000000001
101325
101325.0000000001
101325
101325.0000000001
101325
101325.0000000003
101324.9999999999
101325.0000000002
101325.0000000001
101325
101325.0000000001
101325.0000000001
101325.0000000001
101325
101325.0000000001
101325.0000000001
101325
101325.0000000001
101325.0000000001
101325.0000000001
101325
101325.0000000001
101325
101325.0000000003
101325
101325.0000000002
101325
101325.0000000002
101324.9999999999
101325.0000000001
101325.0000000002
101325
101325.0000000001
101325.0000000002
101325
101325.0000000002
101325.0000000001
101325
101325.0000000001
101325.0000000002
101325
101325.0000000003
101325
101325.0000000002
101325.0000000001
101325.0000000002
101325.0000000001
101325.0000000002
101325
101325.0000000001
101325
101325.0000000001
101325.0000000001
101325.0000000002
101324.9999999999
101325.0000000002
101324.9999999999
101325.0000000001
101325.0000000001
101324.9999999999
101325
101325
101325
101325
101324.9999999999
101324.9999999999
101325.0000000001
101324.9999999999
101325.0000000001
101324.9999999999
101325
101325
101325
101325
101324.9999999999
101325
101325
101324.9999999999
101324.9999999999
101325.0000000001
101325
101325
101324.9999999999
101325.0000000002
101325
101325.0000000001
101324.9999999999
101325
101325.0000000002
101324.9999999998
101325.0000000001
101325
101325
101325
101325.0000000001
101325
101325.0000000001
101324.9999999999
101325.0000000001
101325
101325
101325
101325
101325
101324.9999999999
101325.0000000001
101324.9999999999
101325.0000000001
101325
101325.0000000001
101325
101325
101325
101325.0000000001
101325
101325.0000000001
101325
101325.0000000001
101324.9999999999
101325.0000000001
101325.0000000001
101324.9999999999
101325
101325.0000000002
101325.0000000001
101325.0000000001
101325.0000000003
101325.0000000001
101325.0000000003
101325.0000000002
101325.0000000003
101325.0000000001
101325.0000000003
101325.0000000003
101325.0000000002
101325.0000000003
101325.0000000004
101325.0000000002
101325.0000000004
101325.0000000003
101325.0000000003
101325.0000000005
101325.0000000004
101325.0000000004
101325.0000000003
101325.0000000005
101325.0000000004
101325.0000000003
101325.0000000004
101325.0000000004
101325.0000000004
101325.0000000003
101325.0000000004
101325.0000000006
101325.0000000003
101325.0000000005
101325.0000000004
101325.0000000005
101325.0000000005
101325.0000000005
101325.0000000004
101325.0000000005
101325.0000000004
101325.0000000003
101325.0000000006
101325.0000000003
101325.0000000004
101325.0000000004
101325.0000000005
101325.0000000004
101325.0000000004
101325.0000000004
101325.0000000004
101325.0000000003
101325.0000000004
101325.0000000004
101325.0000000004
101325.0000000004
101325.0000000003
101325.0000000004
101325.0000000003
101325.0000000003
101325.0000000004
101325.0000000003
101325.0000000004
101325.0000000003
101325.0000000003
101325.0000000002
101325.0000000005
101325.0000000003
101325.0000000003
101325.0000000003
101325.0000000004
101325.0000000003
101325.0000000002
101325.0000000003
101325.0000000004
101325.0000000003
101325.0000000002
101325.0000000003
101325.0000000003
101325.0000000003
101325.0000000002
101325.0000000003
101325.0000000003
101325.0000000002
101325.0000000004
101325.0000000002
101325.0000000005
101325.0000000003
101325.0000000003
101325.0000000003
101325.0000000004
101325.0000000001
101325.0000000003
101325.0000000002
101325.0000000002
101325.0000000002
101325.0000000003
101325.0000000002
101325.0000000002
101325.0000000001
101325.0000000003
101325.0000000002
101325.0000000001
101325.0000000003
101325
101325.0000000002
101325.0000000002
101325.0000000002
101325.0000000002
101325
101325.0000000002
101325.0000000002
101325.0000000002
101325.0000000002
101325.0000000002
101325.0000000001
101325.0000000001
101325.0000000002
101325
101325.0000000002
101325.0000000002
101325.0000000001
101325.0000000002
101325.0000000001
101325.0000000001
101325.0000000002
101324.9999999999
101325.0000000003
101324.9999999999
101325.0000000002
101325
101325
101325
101325
101325
101325
101325
101325
101325
101325
101324.9999999999
101324.9999999999
101324.9999999999
101325
101324.9999999999
101325
101324.9999999999
101324.9999999999
101325.0000000001
101324.9999999997
101325
101325
101324.9999999997
101324.9999999998
101324.9999999998
101324.9999999998
101324.9999999998
101324.9999999999
101324.9999999999
101324.9999999997
101324.9999999999
101324.9999999997
101324.9999999999
101324.9999999998
101324.9999999998
101324.9999999998
101324.9999999998
101325
101324.9999999998
101324.9999999998
101324.9999999998
101324.9999999998
101324.9999999999
101324.9999999998
101324.9999999998
101324.9999999999
101324.9999999997
101324.9999999999
101324.9999999998
101324.9999999998
101324.9999999999
101324.9999999999
101325
101324.9999999996
101324.9999999999
101324.9999999998
101324.9999999999
101324.9999999998
101324.9999999999
101324.9999999998
101324.9999999999
101324.9999999998
101324.9999999998
101324.9999999998
101324.9999999997
101324.9999999998
101324.9999999998
101324.9999999998
101324.9999999997
101324.9999999998
101324.9999999997
101324.9999999998
101324.9999999997
101324.9999999997
101324.9999999998
101324.9999999997
101324.9999999999
101324.9999999997
101324.9999999998
101324.9999999997
101324.9999999999
101324.9999999996
101324.9999999997
101324.9999999997
101324.9999999998
101324.9999999996
101324.9999999997
101324.9999999997
101324.9999999997
101324.9999999998
101324.9999999997
101324.9999999997
101324.9999999997
101324.9999999997
101324.9999999997
101324.9999999997
101324.9999999998
101324.9999999996
101324.9999999998
101324.9999999996
101324.9999999997
101324.9999999997
101324.9999999996
101324.9999999999
101324.9999999997
101324.9999999999
101324.9999999997
101324.9999999998
101324.9999999997
101324.9999999997
101324.9999999997
101324.9999999999
101324.9999999997
101324.9999999997
101324.9999999998
101324.9999999999
101324.9999999997
101324.9999999998
101324.9999999997
101324.9999999998
101324.9999999997
101324.9999999999
101324.9999999997
101324.9999999999
101324.9999999996
101324.9999999998
101324.9999999998
101324.9999999999
101324.9999999997
101324.9999999998
101324.9999999998
101324.9999999998
101324.9999999999
101324.9999999997
101324.9999999998
101324.9999999999
101324.9999999999
101325
101324.9999999998
101325
101324.9999999998
101324.9999999998
101324.9999999999
101324.9999999999
101324.9999999998
101325.0000000001
101324.9999999998
101324.9999999999
101324.9999999999
101324.9999999998
101325
101325
101324.9999999999
101324.9999999999
101325
101324.9999999999
101325
101324.9999999999
101325
101324.9999999999
101325
101325
101325
101325
101324.9999999998
101324.9999999998
101325.0000000001
101324.9999999999
101325
101324.9999999999
101325
101324.9999999999
101325.0000000001
101324.9999999998
101325.0000000001
101325
101325
101325
101325
101325
101325
101325
101325.0000000001
101325.0000000001
101324.9999999999
101325
101325.0000000001
101325.0000000001
101325.0000000001
101325.0000000001
101324.9999999999
101325
101325.0000000002
101325
101325.0000000003
101325.0000000001
101325.0000000001
101325
101325.0000000003
101325
101325.0000000002
101325
101325.0000000001
101325.0000000002
101325.0000000002
101325
101325.0000000001
101325.0000000002
101325.0000000001
101325.0000000001
101325.0000000002
101325.0000000001
101325.0000000001
101325.0000000002
101325.0000000002
101325.0000000002
101325.0000000003
101325
101325.0000000002
101325.0000000002
101325.0000000002
101325.0000000001
101325.0000000002
101325.0000000003
101325.0000000002
101325.0000000002
101325.0000000002
101325.0000000002
101325.0000000001
101325.0000000001
101325.0000000002
101325.0000000003
101325.0000000002
101325.0000000002
101325.0000000001
101325.0000000002
101325.0000000003
101325.0000000002
101325.0000000002
101325.0000000004
101325.0000000002
101325.0000000002
101325.0000000002
101325.0000000004
101325.0000000001
101325.0000000004
101325.0000000002
101325.0000000004
101325.0000000003
101325.0000000003
101325.0000000004
101325.0000000002
101325.0000000003
101325.0000000003
101325.0000000003
101325.0000000003
101325.0000000003
101325.0000000003
101325.0000000002
)
;

boundaryField
{
    inlet
    {
        type            uniformFixedValue;
        uniformValue    sine;
        uniformValueCoeffs
        {
            frequency       constant 3000;
            scale           constant 50;
            level           constant 101325;
        }
        value           uniform 101312.8819131453;
    }
    outlet
    {
        type            waveTransmissive;
        gamma           1.4;
        fieldInf        101325;
        lInf            2.25;
        value           uniform 101325.0000000003;
    }
    frontAndBack
    {
        type            empty;
    }
}


// ************************************************************************* //
