/*--------------------------------*- C++ -*----------------------------------*\
| =========                 |                                                 |
| \\      /  F ield         | OpenFOAM: The Open Source CFD Toolbox           |
|  \\    /   O peration     | Version:  v2012                                 |
|   \\  /    A nd           | Website:  www.openfoam.com                      |
|    \\/     M anipulation  |                                                 |
\*---------------------------------------------------------------------------*/
FoamFile
{
    version     2.0;
    format      ascii;
    class       volScalarField;
    location    "0.003";
    object      T;
}
// * * * * * * * * * * * * * * * * * * * * * * * * * * * * * * * * * * * * * //

dimensions      [0 0 0 1 0 0 0];


internalField   nonuniform List<scalar> 
1000
(
299.982728425117
299.9862706203189
299.9814770424109
299.9730836274713
299.9713739879699
299.9671597950074
299.9635287118733
299.9634142490438
299.9590352518411
299.958726703748
299.9589438903054
299.9589413936454
299.9600447825163
299.9615736090733
299.9627190472701
299.9671298929882
299.9699771077381
299.9743976077989
299.9799805063669
299.9841732250421
299.9899049779912
299.9954115279976
300.0010088479701
300.006777906163
300.0121439045163
300.0176945790062
300.0226071627476
300.0271775836413
300.0314889352767
300.0350608972033
300.039334501595
300.0406057266425
300.0406426509402
300.0403202390574
300.0402166778276
300.0395484626076
300.0379599145672
300.0370638546109
300.0339478963271
300.0308829291964
300.0273005451566
300.0219205881917
300.0173010200846
300.0114700668447
300.0057000793548
300.0001938582406
299.9943550114765
299.9889264252128
299.9835459519162
299.9783470768251
299.9735368550915
299.9691421994559
299.96436025162
299.9602090818324
299.9599513522932
299.9601627174034
299.9600701669517
299.9603711487086
299.9614029834541
299.9617324371474
299.9637238611364
299.9662375684514
299.9678780446492
299.9726888764909
299.9763314705523
299.9810003276341
299.9871359983626
299.9921241105217
299.9985406416773
300.0042796091178
300.0098291258013
300.0156090566492
300.0206156435044
300.0256013841444
300.0301186007556
300.035195542279
300.0394931979257
300.0396331097311
300.0396329468846
300.0396607496583
300.0389029561959
300.0388322800601
300.0376534795603
300.0358448716935
300.0349244750197
300.0314390651554
300.0284911720444
300.0252006976446
300.0196033388077
300.0152685681114
300.0093851359814
300.0032324030621
299.9975471784475
299.9911995451421
299.9855046472416
299.9799510757506
299.9746385383219
299.9701029788293
299.9643053666177
299.9607788157348
299.9606862507447
299.9607873488716
299.9608373679683
299.9611945404849
299.9618533631333
299.9623781621535
299.9642954306044
299.965711067809
299.9677180034042
299.9717828487732
299.9742140900378
299.9788515117598
299.9844533356294
299.9886906251147
299.9952256164722
300.0011180184383
300.0068830660323
300.0132539269164
300.0187650487383
300.024342183922
300.0292231651021
300.0352999955175
300.0388148928905
300.0388939839083
300.0387885661299
300.0387692735932
300.0384411106536
300.0378439409585
300.0374020878686
300.035691231786
300.0343563625885
300.0326545399098
300.0288394014164
300.026556225118
300.0223484768279
300.0169063169577
300.0128570353838
300.0065151765074
300.0005907104752
299.9947681386556
299.9881402840829
299.9823640452232
299.9763445001608
299.9710377080398
299.9640697831559
299.9613214545338
299.9613141554271
299.9613959747292
299.9613811179553
299.961916925162
299.9623046657337
299.9627285078031
299.9646380028974
299.9654697956169
299.9676446020741
299.9709118324398
299.9730652682965
299.9776592172651
299.9819230339872
299.9863034466248
299.9924907821206
299.9976883872047
300.0038253610378
300.0102024915981
300.0159770460334
300.0222520433899
300.027620560751
300.0347673010509
300.0383699783353
300.0384254421263
300.0383321846454
300.038323305131
300.0379995508883
300.0374357226885
300.0371503328209
300.0355236272688
300.0342819010317
300.0330292963187
300.0294766946304
300.0273472357944
300.0238742371629
300.0188290015771
300.0150754211307
300.0093326045126
300.0035663805952
299.9978970390572
299.9912059194152
299.9851605113056
299.9786853922648
299.9727642952027
299.9649182507243
299.9618051140321
299.9617609864654
299.9618644491574
299.9619049341906
299.9621245904444
299.9627795459597
299.9631277312559
299.9644441468965
299.9658758695468
299.9674012412344
299.9702329711449
299.9725569200345
299.9761707123853
299.9803560395721
299.9842886059802
299.9899036295902
299.9951018874652
300.0007626284191
300.0072798643861
300.0131760797079
300.019653547616
300.0255532906643
300.0333162104927
300.037659043884
300.037977610991
300.0379399763294
300.0377211640333
300.0377739866461
300.0371356825059
300.0364475554203
300.0358853448821
300.0341038254001
300.0327618235904
300.0305107009971
300.0277359326587
300.0247702684155
300.0208055400876
300.0166123114429
300.0116692763511
300.006271166824
300.0004943090098
299.9942133513252
299.9878732925836
299.9811702531629
299.9750001996794
299.9666311939296
299.9623613658923
299.9622974087269
299.9623710347983
299.9623671401618
299.9627232636873
299.9631043422435
299.9635826073873
299.9647283721774
299.9657464719813
299.9676176182464
299.9694414326584
299.9720575650209
299.9753872107906
299.9784487370405
299.9831421682414
299.9876450989384
299.9925401344759
299.9986276432139
300.004234230516
300.0105798525145
300.0171442718431
300.0231853846239
300.0306840177439
300.037062721647
300.03737903129
300.0373374128588
300.0373098871618
300.0371060415554
300.0366868562158
300.0364243242685
300.0352099996285
300.0343033294673
300.0330176253601
300.0304427118623
300.0288025189731
300.0256120925945
300.0218099868312
300.0185214725473
300.013390549626
300.0085219925915
300.0030740589469
299.9967350354389
299.9907359800762
299.9838928499236
299.977428674216
299.9697079206023
299.9630825819441
299.9627838711742
299.9627572688493
299.9629266376386
299.9629838798745
299.9634073260387
299.9640713580067
299.9645820210789
299.966013574845
299.9673809799967
299.9690549715344
299.9718260003203
299.9742540671292
299.9777284841429
299.981620677977
299.9857824882095
299.9908494932288
299.9960355163763
300.0018319436658
300.0079817143935
300.0142356480986
300.0208313681679
300.0272437851485
300.0356650199799
300.0370075137849
300.0370007469781
300.0369210821543
300.0368510131386
300.0364297957778
300.0360988114969
300.0352775431347
300.0340055112183
300.0333379498384
300.0309253306904
300.0288491464843
300.0267358080717
300.0226959450859
300.0195786827435
300.0152438414659
300.0101182316918
300.0053021288343
299.9991996214524
299.9931029629183
299.9867414421445
299.979828496524
299.973189646457
299.9644491317542
299.9633463278134
299.9632925105052
299.9633359128419
299.9634984264295
299.9638902209088
299.9640694754552
299.9651431982827
299.9661102462609
299.9668011688266
299.9694035287782
299.9710280920845
299.9733644094548
299.9771453354022
299.9800240985766
299.9844197468701
299.9891235961065
299.993794165646
299.9997023318444
300.0053860441222
300.0115505096321
300.0182265991115
300.0241165854217
300.0328310823917
300.0364723982171
300.0365442628844
300.0364978594439
300.0363298797182
300.0363229664551
300.0355881604364
300.0350202395829
300.0345071652874
300.0326304123673
300.0315860623946
300.0295050745059
300.0267183827168
300.0243143400917
300.0204389851552
300.0166350621474
300.0122292796255
300.0069589276197
300.0017216776802
299.9955321367217
299.9893443792328
299.9826696178314
299.9762796983838
299.9672939714384
299.9637490331286
299.9637501061557
299.9637292514487
299.9638601645759
299.9640799246873
299.9644833710261
299.9651391674108
299.9660331611181
299.9672205749293
299.9688044566246
299.9707058604114
299.9730929216729
299.975943182139
299.9792281895167
299.9830455641334
299.9873637739778
299.9921780064984
299.9973618511528
300.0031341182759
300.0091099302419
300.0153827305901
300.0217698150149
300.0288511121215
300.0358924651219
300.0363074271989
300.0362815573524
300.0363242681327
300.0359280951339
300.0357699023738
300.0353672482893
300.0342826652129
300.0337603036993
300.0322453503042
300.0304755647307
300.0289111648497
300.02609276955
300.023565086338
300.0204982696003
300.0167856952033
300.0132257429714
300.0092344158004
300.0047254266594
300.0002896664079
300.0000000866458
299.9999999999975
299.9999999999977
299.9999999999977
299.999999999998
299.9999999999981
299.9999999999985
299.9999999999989
299.9999999999993
299.9999999999994
299.9999999999995
299.9999999999998
299.9999999999997
299.9999999999999
299.9999999999998
299.9999999999998
299.9999999999998
299.9999999999999
300
299.9999999999997
300.0000000000002
299.9999999999997
299.9999999999999
299.9999999999999
300
299.9999999999998
300
299.9999999999999
299.9999999999999
300.0000000000001
299.9999999999998
300.0000000000001
299.9999999999998
300
299.9999999999999
300.0000000000002
299.9999999999997
300
299.9999999999999
300.0000000000001
300
299.9999999999998
300.0000000000001
299.9999999999999
300.0000000000001
299.9999999999999
299.9999999999999
300.0000000000001
299.9999999999999
299.9999999999999
300.0000000000001
299.9999999999999
299.9999999999999
299.9999999999999
300.0000000000001
299.9999999999999
300
299.9999999999999
300.0000000000001
300.0000000000001
299.9999999999999
300
300.0000000000001
300
300.0000000000001
300
300
299.9999999999999
300.0000000000001
300
300.0000000000001
300.0000000000001
300
300.0000000000001
299.9999999999999
300.0000000000003
299.9999999999999
300.0000000000001
300.0000000000001
299.9999999999999
300.0000000000002
300
300.0000000000002
300
300.0000000000001
300.0000000000001
300
300.0000000000001
300.0000000000001
300.0000000000001
300
300.0000000000001
299.9999999999999
300.0000000000002
299.9999999999999
300.0000000000001
299.9999999999999
300.0000000000001
299.9999999999998
300.0000000000001
300
300
300
300.0000000000001
300
300.0000000000001
300.0000000000001
300
300
300.0000000000002
299.9999999999999
300.0000000000002
300
300.0000000000001
300.0000000000001
300.0000000000002
299.9999999999999
300.0000000000002
300
300.0000000000001
300.0000000000001
300.0000000000001
300.0000000000001
300.0000000000002
299.9999999999999
300.0000000000002
299.9999999999999
300.0000000000001
300.0000000000001
299.9999999999999
300.0000000000001
300
300
300.0000000000001
299.9999999999999
300
300.0000000000001
300
300.0000000000001
300.0000000000001
300.0000000000001
300.0000000000001
300.0000000000001
300
300.0000000000001
300.0000000000001
300.0000000000002
299.9999999999999
300.0000000000001
300.0000000000001
300.0000000000001
300.0000000000001
299.9999999999999
300.0000000000003
299.9999999999999
300.0000000000001
299.9999999999999
300.0000000000001
300.0000000000001
299.9999999999999
300.0000000000001
300.0000000000001
300
300
300
300
300.0000000000001
299.9999999999999
300.0000000000001
299.9999999999999
300
300
300
299.9999999999999
300
300
300
299.9999999999999
300
300
299.9999999999999
299.9999999999999
299.9999999999999
300.0000000000001
299.9999999999999
300.0000000000001
299.9999999999999
299.9999999999999
299.9999999999999
300
300.0000000000001
299.9999999999999
300.0000000000001
300.0000000000001
300.0000000000001
300
300.0000000000002
300
300.0000000000002
300.0000000000001
300.0000000000002
300
300.0000000000003
300.0000000000001
300.0000000000002
300.0000000000002
300.0000000000002
300.0000000000002
300.0000000000002
300.0000000000002
300.0000000000002
300.0000000000003
300.0000000000003
300.0000000000002
300.0000000000002
300.0000000000004
300.0000000000003
300.0000000000003
300.0000000000004
300.0000000000004
300.0000000000004
300.0000000000003
300.0000000000004
300.0000000000006
300.0000000000002
300.0000000000005
300.0000000000003
300.0000000000005
300.0000000000005
300.0000000000005
300.0000000000003
300.0000000000005
300.0000000000003
300.0000000000002
300.0000000000006
300.0000000000002
300.0000000000004
300.0000000000002
300.0000000000004
300.0000000000002
300.0000000000003
300.0000000000001
300.0000000000003
300.0000000000002
300.0000000000003
300.0000000000002
300.0000000000002
300.0000000000003
300.0000000000001
300.0000000000002
300.0000000000002
300.0000000000001
300.0000000000003
300.0000000000003
300.0000000000002
300.0000000000002
300.0000000000002
300.0000000000002
300.0000000000002
300.0000000000002
300.0000000000002
300.0000000000002
300.0000000000003
300.0000000000002
300.0000000000002
300.0000000000001
300.0000000000004
300.0000000000002
300.0000000000002
300.0000000000002
300.0000000000002
300.0000000000002
300.0000000000002
300.0000000000002
300.0000000000002
300.0000000000001
300.0000000000003
300.0000000000001
300.0000000000004
300.0000000000002
300.0000000000002
300.0000000000002
300.0000000000003
300.0000000000001
300.0000000000002
300.0000000000001
300.0000000000002
300.0000000000001
300.0000000000003
300.0000000000001
300.0000000000002
300.0000000000001
300.0000000000003
300.0000000000002
300.0000000000001
300.0000000000003
299.9999999999999
300.0000000000002
300.0000000000002
300.0000000000001
300.0000000000002
300.0000000000001
300.0000000000002
300.0000000000002
300.0000000000001
300.0000000000003
300.0000000000002
300.0000000000002
300.0000000000001
300.0000000000002
300.0000000000001
300.0000000000002
300.0000000000003
300.0000000000001
300.0000000000002
300.0000000000002
300.0000000000001
300.0000000000001
299.9999999999999
300.0000000000003
299.9999999999999
300.0000000000002
300
300
300
300.0000000000001
299.9999999999999
300.0000000000001
299.9999999999999
300
300.0000000000001
299.9999999999999
299.9999999999999
299.9999999999999
299.9999999999999
299.9999999999999
299.9999999999999
300
299.9999999999999
299.9999999999999
300.0000000000001
299.9999999999998
299.9999999999999
300.0000000000001
299.9999999999996
299.9999999999998
299.9999999999998
299.9999999999998
299.9999999999997
299.9999999999999
299.9999999999998
299.9999999999997
299.9999999999999
299.9999999999996
299.9999999999999
299.9999999999998
299.9999999999998
299.9999999999998
299.9999999999997
299.9999999999999
299.9999999999998
299.9999999999998
299.9999999999998
299.9999999999998
299.9999999999998
299.9999999999997
299.9999999999998
299.9999999999998
299.9999999999997
299.9999999999999
299.9999999999997
299.9999999999998
299.9999999999999
299.9999999999998
300
299.9999999999997
300
299.9999999999998
300
299.9999999999998
300.0000000000001
299.9999999999998
300
299.9999999999999
299.9999999999999
299.9999999999999
299.9999999999998
299.9999999999999
299.9999999999998
299.9999999999999
299.9999999999998
299.9999999999998
299.9999999999998
299.9999999999997
299.9999999999998
299.9999999999996
299.9999999999999
299.9999999999997
299.9999999999999
299.9999999999996
299.9999999999999
299.9999999999997
300
299.9999999999995
299.9999999999998
299.9999999999997
299.9999999999997
299.9999999999998
299.9999999999997
299.9999999999997
299.9999999999997
299.9999999999997
299.9999999999997
299.9999999999996
299.9999999999997
299.9999999999997
299.9999999999997
299.9999999999998
299.9999999999996
299.9999999999997
299.9999999999997
299.9999999999997
299.9999999999997
299.9999999999997
299.9999999999996
299.9999999999998
299.9999999999996
299.9999999999997
299.9999999999997
299.9999999999997
299.9999999999996
299.9999999999997
299.9999999999996
299.9999999999999
299.9999999999997
299.9999999999995
299.9999999999998
299.9999999999997
299.9999999999997
299.9999999999998
299.9999999999997
299.9999999999997
299.9999999999997
299.9999999999998
299.9999999999997
299.9999999999998
299.9999999999995
299.9999999999998
299.9999999999997
299.9999999999999
299.9999999999996
299.9999999999998
299.9999999999997
299.9999999999997
299.9999999999998
299.9999999999996
299.9999999999998
299.9999999999998
299.9999999999999
299.9999999999999
299.9999999999998
299.9999999999999
299.9999999999998
299.9999999999998
299.9999999999998
299.9999999999999
299.9999999999998
300
299.9999999999998
299.9999999999998
299.9999999999998
299.9999999999998
299.9999999999999
299.9999999999999
299.9999999999999
299.9999999999999
299.9999999999999
299.9999999999999
299.9999999999999
299.9999999999999
299.9999999999999
299.9999999999999
299.9999999999999
299.9999999999999
300.0000000000001
299.9999999999999
299.9999999999999
299.9999999999998
300.0000000000001
299.9999999999999
300
299.9999999999999
300
299.9999999999999
300.0000000000001
299.9999999999997
300.0000000000001
299.9999999999999
300
299.9999999999999
300
299.9999999999999
300
299.9999999999999
300.0000000000001
300
299.9999999999999
299.9999999999999
299.9999999999999
300.0000000000001
300
300.0000000000001
299.9999999999998
300
300.0000000000001
300
300.0000000000002
300
300
300
300.0000000000002
299.9999999999998
300.0000000000001
299.9999999999999
299.9999999999999
300.0000000000001
300.0000000000001
300
299.9999999999999
300.0000000000001
299.9999999999999
300
300
300.0000000000001
299.9999999999999
300.0000000000002
300.0000000000001
300
300.0000000000002
299.9999999999998
300.0000000000001
300.0000000000001
300.0000000000001
299.9999999999999
300.0000000000001
300.0000000000002
300.0000000000001
300.0000000000001
299.9999999999999
300.0000000000003
299.9999999999999
300.0000000000002
300.0000000000001
300.0000000000002
300.0000000000001
300.0000000000002
299.9999999999999
300.0000000000002
300.0000000000002
300.0000000000002
300.0000000000001
300.0000000000003
300.0000000000001
300.0000000000002
300.0000000000001
300.0000000000004
299.9999999999999
300.0000000000003
300.0000000000002
300.0000000000003
300.0000000000003
300.0000000000002
300.0000000000003
300.0000000000001
300.0000000000002
300.0000000000003
300.0000000000001
300.0000000000003
300.0000000000002
300.0000000000002
300.0000000000001
)
;

boundaryField
{
    inlet
    {
        type            fixedValue;
        value           uniform 300;
    }
    outlet
    {
        type            inletOutlet;
        inletValue      uniform 300;
        value           uniform 300;
    }
    frontAndBack
    {
        type            empty;
    }
}


// ************************************************************************* //
