/*--------------------------------*- C++ -*----------------------------------*\
| =========                 |                                                 |
| \\      /  F ield         | OpenFOAM: The Open Source CFD Toolbox           |
|  \\    /   O peration     | Version:  v2012                                 |
|   \\  /    A nd           | Website:  www.openfoam.com                      |
|    \\/     M anipulation  |                                                 |
\*---------------------------------------------------------------------------*/
FoamFile
{
    version     2.0;
    format      ascii;
    class       volScalarField;
    location    "0.003";
    object      p;
}
// * * * * * * * * * * * * * * * * * * * * * * * * * * * * * * * * * * * * * //

dimensions      [1 -1 -2 0 0 0 0];


internalField   nonuniform List<scalar> 
1000
(
101311.4033855603
101313.5902032089
101306.7994312111
101301.7678857905
101296.2423533425
101291.2140984159
101286.5301198317
101281.9112886182
101277.5400405666
101275.4638592405
101274.9897719868
101275.0695260758
101275.5927268694
101276.409798764
101277.8952200503
101280.420910752
101284.1992821603
101289.1251641436
101294.7888023008
101300.7217523
101306.7376891276
101313.0085472919
101319.8163292286
101327.225586694
101334.8563887959
101341.9024209323
101347.7732969506
101352.9735355031
101358.9581592741
101366.6775645531
101373.0540847812
101375.0255369819
101374.9847438036
101374.6940467869
101374.4591761411
101374.55756129
101374.5910752681
101374.0369451734
101372.3943570301
101369.3426592942
101364.7685483104
101358.7929336654
101351.9417880663
101344.9892651759
101338.2823341668
101331.5081900801
101324.2680020438
101316.7501652869
101309.6771140532
101303.1234637995
101295.8220797312
101286.3901183468
101277.9178289908
101275.3514795543
101275.0880249058
101275.041429082
101274.8203088121
101274.6811775211
101274.8810807327
101275.2959923667
101276.046863512
101276.8118955686
101278.0361930756
101280.6271151367
101285.6118086202
101293.2737807806
101302.4347579335
101311.2200461147
101318.7162525572
101325.1708557342
101331.1829363623
101337.4861079526
101345.3967787891
101356.7097630877
101369.2529969528
101375.0591069758
101375.6350570672
101375.6018749032
101375.6447273544
101375.5630076678
101375.3562363485
101375.1138311302
101374.914845512
101374.8032290497
101374.5048830351
101373.6232227601
101371.7463898812
101368.3759570934
101362.7996923575
101354.2757832253
101343.0962788404
101331.9098600285
101323.6707868614
101317.9874309027
101312.3273010276
101303.3250457446
101288.5439966945
101276.7742831758
101274.3211061547
101274.1272749481
101274.0499806984
101274.1508700789
101274.3516683999
101274.5894106663
101274.7829833217
101274.8594125669
101274.8797667357
101275.0095394437
101275.475084217
101276.5736966362
101278.7464768775
101282.7594421569
101289.8565317509
101300.9993931502
101314.2355092407
101324.9891645369
101332.4654733831
101339.9051620354
101351.2733135205
101366.4499579773
101374.7472327067
101375.5831311908
101375.554846992
101375.4560242588
101375.4727818217
101375.4782952958
101375.4358970927
101375.3043562654
101375.1297495316
101374.9500416639
101374.8270707251
101374.6582010373
101374.2319801938
101373.2269392643
101371.092443041
101366.7913277612
101358.8786089296
101346.9573386002
101333.0899363803
101318.8209879857
101302.5244368888
101284.9740212465
101275.75527914
101274.6051075252
101274.5814912926
101274.5787159085
101274.5890474142
101274.6297656691
101274.7030056873
101274.798707976
101274.9013728249
101274.9938413294
101275.0604650991
101275.1205705125
101275.2537377825
101275.5716118337
101276.2125971612
101277.4644952523
101279.9150588552
101284.4260865436
101292.1855940388
101305.7094774822
101329.5297059019
101359.5650608827
101373.8413055192
101375.2138937701
101375.2140642616
101375.1867196545
101375.1715553338
101375.1757208264
101375.1704756472
101375.1373457956
101375.0783064872
101375.0047488326
101374.9286288342
101374.8593140227
101374.799083366
101374.7234164898
101374.5701876283
101374.2615970259
101373.702001163
101372.6683145823
101370.4897855626
101365.0842189674
101350.5899879199
101318.6325826875
101284.6039843091
101275.2715051111
101274.9194379102
101274.9224976409
101274.9271269827
101274.9264416255
101274.9479724644
101274.9843893954
101275.0119070801
101275.0189944892
101275.0420154809
101275.0959638669
101275.1583564935
101275.1979048652
101275.2501020235
101275.370760915
101275.56533589
101275.8431782914
101276.4592104189
101278.0842776878
101282.5642232644
101295.8870999033
101327.4000952333
101363.5762944028
101374.4905372264
101374.9567081211
101374.9643489921
101374.9797385143
101374.9545121571
101374.9191771735
101374.9058076276
101374.9190310294
101374.8959017088
101374.845498405
101374.8134623274
101374.8487923659
101374.8232736386
101374.7278870072
101374.6395054441
101374.6783515255
101374.5494678864
101373.9819690975
101373.0422005667
101369.2070532953
101357.3407725632
101327.2166342801
101289.019029245
101275.7822753452
101275.1013015264
101275.1066995166
101275.1162961305
101275.1039435925
101275.1171785027
101275.1549318934
101275.1821216464
101275.1423161481
101275.1352230025
101275.2293879882
101275.2902330397
101275.1438766529
101275.0863607405
101275.4302044638
101275.6975255531
101275.3457055024
101275.8004028278
101277.3682088042
101279.2712957029
101289.4462079223
101316.7831388717
101356.5723684466
101373.6420691854
101374.8614777897
101374.8827936903
101374.8403220014
101374.8052260973
101374.8458221263
101374.8573679935
101374.771557877
101374.711794846
101374.838747322
101374.9256948862
101374.7013015287
101374.5037181716
101374.8432601937
101375.1997607692
101374.3881671539
101373.4187476786
101373.805677288
101373.1714978919
101369.542897762
101363.2526318335
101340.0153239923
101299.8048400311
101277.3532188115
101275.1166577903
101275.0976227771
101275.0914897409
101275.114615846
101275.1788057916
101275.2361981084
101275.2238523246
101275.1644634314
101275.2064629333
101275.3166000485
101275.2652599818
101275.0896644757
101275.2643666894
101275.6019124617
101275.7378156445
101275.6238218287
101276.0815747178
101277.3456218274
101278.8741063298
101285.8966359606
101305.3509220569
101343.2083788161
101370.7612226804
101374.9398918242
101375.0240720876
101374.9609383244
101374.9047007861
101374.8846332248
101374.8244527311
101374.7393112161
101374.6899728795
101374.79352147
101374.8669241435
101374.6822162968
101374.5141195192
101374.7074176586
101374.75552343
101374.2128111998
101373.6290743638
101373.8546064923
101373.3188888546
101370.6442878015
101366.2552760458
101349.4502591975
101313.3029128881
101281.4298181684
101275.1397777947
101274.9541220805
101274.9047654592
101274.9904158363
101275.1413198558
101275.2163533739
101275.1886913845
101275.2032779476
101275.3065694604
101275.3300933641
101275.1871479531
101275.1835281589
101275.4940666805
101275.7898531481
101275.599012996
101275.6921256742
101276.3849426728
101277.3497855553
101277.9867048752
101283.0389412566
101296.6238951583
101329.5819535581
101365.2103827071
101374.8605834384
101375.2173613385
101375.1705324322
101375.1405254185
101375.0589530333
101374.862494905
101374.7221432577
101374.6817500587
101374.7814995131
101374.8106037886
101374.6121754399
101374.5011381272
101374.7157474085
101374.5437912937
101374.0378325621
101373.6849197713
101374.0230200149
101373.3529728862
101371.2228304016
101368.6374739799
101356.765599145
101327.1210576023
101288.9151722647
101275.390504935
101274.5959929135
101274.5305786952
101274.6607658845
101274.8657223573
101274.9972973683
101275.1219063324
101275.2785611908
101275.4187067313
101275.3989974236
101275.23486387
101275.4264357689
101275.786690573
101275.8668659526
101275.6346322463
101276.0724871435
101276.8559664863
101277.2165031703
101277.6135696807
101281.3640235293
101289.9171528263
101315.2268673449
101354.8222316209
101374.2137401576
101375.8576013311
101375.8150362608
101375.7633288055
101375.7036347531
101375.3734895434
101374.8690656239
101374.5339090868
101374.4357473668
101374.321553871
101374.1189788092
101374.0190994526
101374.214920599
101373.8918162297
101373.0159301733
101372.1222178088
101367.5244678866
101355.0060024538
101335.319036086
101325.7884369241
101325.0052043278
101325.0000010751
101325.0000000001
101325.0000000001
101325.0000000002
101325.0000000003
101325.0000000005
101325.0000000007
101325.0000000009
101325.0000000008
101325.0000000009
101325.0000000009
101325.0000000009
101325.000000001
101325.000000001
101325.0000000009
101325.0000000009
101325.0000000009
101325.0000000009
101325.0000000009
101325.0000000009
101325.0000000009
101325.0000000009
101325.0000000008
101325.0000000008
101325.0000000007
101325.0000000009
101325.0000000009
101325.0000000009
101325.0000000008
101325.0000000008
101325.0000000007
101325.0000000007
101325.0000000007
101325.0000000007
101325.0000000007
101325.0000000007
101325.0000000007
101325.0000000008
101325.0000000008
101325.0000000008
101325.0000000007
101325.0000000007
101325.0000000006
101325.0000000006
101325.0000000005
101325.0000000005
101325.0000000005
101325.0000000005
101325.0000000005
101325.0000000005
101325.0000000005
101325.0000000005
101325.0000000005
101325.0000000006
101325.0000000006
101325.0000000007
101325.0000000007
101325.0000000007
101325.0000000007
101325.0000000007
101325.0000000007
101325.0000000007
101325.0000000007
101325.0000000006
101325.0000000006
101325.0000000006
101325.0000000005
101325.0000000005
101325.0000000005
101325.0000000005
101325.0000000006
101325.0000000006
101325.0000000007
101325.0000000006
101325.0000000006
101325.0000000006
101325.0000000006
101325.0000000007
101325.0000000007
101325.0000000007
101325.0000000007
101325.0000000007
101325.0000000006
101325.0000000007
101325.0000000006
101325.0000000006
101325.0000000006
101325.0000000005
101325.0000000005
101325.0000000005
101325.0000000005
101325.0000000004
101325.0000000004
101325.0000000004
101325.0000000004
101325.0000000004
101325.0000000005
101325.0000000005
101325.0000000005
101325.0000000005
101325.0000000006
101325.0000000006
101325.0000000006
101325.0000000007
101325.0000000007
101325.0000000007
101325.0000000007
101325.0000000007
101325.0000000007
101325.0000000006
101325.0000000006
101325.0000000007
101325.0000000008
101325.0000000009
101325.0000000009
101325.0000000009
101325.0000000009
101325.000000001
101325.000000001
101325.000000001
101325.000000001
101325.000000001
101325.000000001
101325.000000001
101325.000000001
101325.0000000009
101325.0000000009
101325.0000000008
101325.0000000009
101325.0000000009
101325.000000001
101325.0000000009
101325.000000001
101325.0000000009
101325.0000000009
101325.000000001
101325.000000001
101325.000000001
101325.000000001
101325.0000000009
101325.0000000009
101325.0000000009
101325.0000000009
101325.0000000009
101325.0000000009
101325.0000000009
101325.0000000009
101325.0000000009
101325.000000001
101325.0000000009
101325.0000000009
101325.0000000009
101325.0000000009
101325.0000000009
101325.0000000008
101325.0000000008
101325.0000000008
101325.0000000009
101325.0000000009
101325.000000001
101325.000000001
101325.000000001
101325.000000001
101325.0000000009
101325.0000000009
101325.0000000009
101325.0000000008
101325.0000000008
101325.0000000008
101325.0000000008
101325.0000000008
101325.0000000009
101325.0000000008
101325.0000000008
101325.0000000008
101325.0000000008
101325.0000000007
101325.0000000006
101325.0000000006
101325.0000000006
101325.0000000007
101325.0000000007
101325.0000000007
101325.0000000007
101325.0000000006
101325.0000000007
101325.0000000007
101325.0000000007
101325.0000000007
101325.0000000005
101325.0000000005
101325.0000000006
101325.0000000006
101325.0000000007
101325.0000000007
101325.0000000007
101325.0000000007
101325.0000000007
101325.0000000008
101325.0000000009
101325.000000001
101325.0000000012
101325.0000000013
101325.0000000014
101325.0000000013
101325.0000000013
101325.0000000013
101325.0000000012
101325.0000000012
101325.0000000011
101325.0000000011
101325.0000000011
101325.000000001
101325.000000001
101325.000000001
101325.000000001
101325.000000001
101325.0000000011
101325.0000000011
101325.000000001
101325.0000000009
101325.0000000009
101325.000000001
101325.0000000009
101325.0000000009
101325.0000000009
101325.0000000009
101325.0000000008
101325.0000000007
101325.0000000006
101325.0000000007
101325.0000000007
101325.0000000007
101325.0000000009
101325.0000000009
101325.0000000009
101325.000000001
101325.000000001
101325.0000000011
101325.000000001
101325.000000001
101325.000000001
101325.000000001
101325.0000000009
101325.0000000008
101325.0000000008
101325.0000000006
101325.0000000004
101325.0000000001
101325.0000000001
101325.0000000001
101325.0000000001
101325.0000000002
101325.0000000002
101325.0000000004
101325.0000000005
101325.0000000006
101325.0000000005
101325.0000000005
101325.0000000005
101325.0000000005
101325.0000000005
101325.0000000006
101325.0000000005
101325.0000000005
101325.0000000004
101325.0000000004
101325.0000000004
101325.0000000004
101325.0000000004
101325.0000000004
101325.0000000005
101325.0000000005
101325.0000000005
101325.0000000004
101325.0000000003
101325.0000000002
101325.0000000002
101325.0000000002
101325.0000000003
101325.0000000003
101325.0000000002
101325.0000000003
101325.0000000004
101325.0000000006
101325.0000000009
101325.0000000009
101325.000000001
101325.000000001
101325.000000001
101325.0000000011
101325.0000000013
101325.0000000012
101325.0000000012
101325.0000000011
101325.0000000011
101325.0000000011
101325.0000000011
101325.0000000011
101325.0000000011
101325.0000000012
101325.0000000012
101325.0000000012
101325.0000000011
101325.0000000011
101325.000000001
101325.000000001
101325.000000001
101325.000000001
101325.000000001
101325.000000001
101325.000000001
101325.0000000009
101325.000000001
101325.0000000009
101325.000000001
101325.0000000011
101325.0000000011
101325.0000000012
101325.0000000013
101325.0000000013
101325.0000000013
101325.0000000013
101325.0000000014
101325.0000000014
101325.0000000015
101325.0000000016
101325.0000000016
101325.0000000016
101325.0000000015
101325.0000000015
101325.0000000015
101325.0000000015
101325.0000000015
101325.0000000015
101325.0000000014
101325.0000000015
101325.0000000015
101325.0000000015
101325.0000000015
101325.0000000015
101325.0000000015
101325.0000000015
101325.0000000015
101325.0000000015
101325.0000000015
101325.0000000015
101325.0000000015
101325.0000000015
101325.0000000015
101325.0000000016
101325.0000000016
101325.0000000016
101325.0000000016
101325.0000000015
101325.0000000015
101325.0000000015
101325.0000000015
101325.0000000015
101325.0000000015
101325.0000000015
101325.0000000016
101325.0000000017
101325.0000000017
101325.0000000017
101325.0000000016
101325.0000000017
101325.0000000016
101325.0000000015
101325.0000000015
101325.0000000016
101325.0000000016
101325.0000000016
101325.0000000015
101325.0000000015
101325.0000000015
101325.0000000015
101325.0000000014
101325.0000000014
101325.0000000014
101325.0000000014
101325.0000000014
101325.0000000014
101325.0000000014
101325.0000000014
101325.0000000015
101325.0000000014
101325.0000000014
101325.0000000014
101325.0000000014
101325.0000000014
101325.0000000014
101325.0000000014
101325.0000000014
101325.0000000014
101325.0000000014
101325.0000000014
101325.0000000014
101325.0000000013
101325.0000000013
101325.0000000014
101325.0000000013
101325.0000000014
101325.0000000014
101325.0000000013
101325.0000000014
101325.0000000015
101325.0000000014
101325.0000000014
101325.0000000014
101325.0000000014
101325.0000000014
101325.0000000015
101325.0000000015
101325.0000000015
101325.0000000015
101325.0000000015
101325.0000000015
101325.0000000014
101325.0000000014
101325.0000000014
101325.0000000014
101325.0000000014
101325.0000000014
101325.0000000013
101325.0000000012
101325.0000000013
101325.0000000013
101325.0000000012
101325.0000000012
101325.0000000011
101325.0000000012
101325.0000000012
101325.0000000013
101325.0000000013
101325.0000000012
101325.0000000012
101325.0000000011
101325.0000000011
101325.0000000011
101325.0000000011
101325.0000000011
101325.0000000012
101325.0000000012
101325.0000000012
101325.0000000012
101325.0000000012
101325.0000000013
101325.0000000012
101325.0000000012
101325.0000000012
101325.0000000012
101325.0000000013
101325.0000000013
101325.0000000013
101325.0000000014
101325.0000000015
101325.0000000015
101325.0000000015
101325.0000000015
101325.0000000014
101325.0000000015
101325.0000000015
101325.0000000015
101325.0000000016
101325.0000000016
101325.0000000016
101325.0000000016
101325.0000000017
101325.0000000017
101325.0000000017
101325.0000000017
101325.0000000018
101325.0000000017
101325.0000000017
101325.0000000018
101325.0000000019
101325.000000002
101325.000000002
101325.0000000019
101325.000000002
101325.000000002
101325.000000002
101325.0000000019
101325.000000002
101325.000000002
101325.000000002
101325.000000002
101325.0000000019
101325.0000000019
101325.000000002
101325.0000000019
101325.0000000019
101325.0000000019
101325.0000000019
101325.000000002
101325.000000002
101325.0000000021
101325.0000000021
101325.0000000021
101325.000000002
101325.000000002
101325.000000002
101325.0000000018
101325.0000000017
101325.0000000017
101325.0000000017
101325.0000000017
101325.0000000017
101325.0000000017
101325.0000000018
101325.0000000018
101325.0000000019
101325.0000000018
101325.0000000018
101325.0000000018
101325.0000000018
101325.0000000018
101325.0000000018
101325.0000000017
101325.0000000016
101325.0000000016
101325.0000000017
101325.0000000017
101325.0000000016
101325.0000000015
101325.0000000016
101325.0000000015
101325.0000000015
101325.0000000014
101325.0000000014
101325.0000000013
101325.0000000013
101325.0000000014
101325.0000000014
101325.0000000014
101325.0000000014
101325.0000000014
101325.0000000014
101325.0000000015
101325.0000000014
101325.0000000015
101325.0000000015
101325.0000000015
101325.0000000015
101325.0000000015
101325.0000000015
101325.0000000016
101325.0000000016
101325.0000000016
101325.0000000017
101325.0000000017
101325.0000000018
101325.0000000019
101325.0000000019
101325.000000002
101325.000000002
101325.000000002
101325.0000000019
101325.000000002
101325.0000000019
101325.0000000019
101325.0000000018
101325.0000000018
101325.0000000018
101325.0000000017
101325.0000000016
101325.0000000017
101325.0000000018
101325.0000000018
101325.0000000017
101325.0000000017
101325.0000000017
101325.0000000017
101325.0000000017
101325.0000000018
101325.0000000017
101325.0000000018
101325.0000000017
101325.0000000018
101325.0000000019
101325.0000000019
101325.0000000019
101325.0000000019
)
;

boundaryField
{
    inlet
    {
        type            uniformFixedValue;
        uniformValue    sine;
        uniformValueCoeffs
        {
            frequency       constant 3000;
            scale           constant 50;
            level           constant 101325;
        }
        value           uniform 101325;
    }
    outlet
    {
        type            waveTransmissive;
        gamma           1.4;
        fieldInf        101325;
        lInf            2.25;
        value           uniform 101325.000000002;
    }
    frontAndBack
    {
        type            empty;
    }
}


// ************************************************************************* //
