/*--------------------------------*- C++ -*----------------------------------*\
| =========                 |                                                 |
| \\      /  F ield         | OpenFOAM: The Open Source CFD Toolbox           |
|  \\    /   O peration     | Version:  v2012                                 |
|   \\  /    A nd           | Website:  www.openfoam.com                      |
|    \\/     M anipulation  |                                                 |
\*---------------------------------------------------------------------------*/
FoamFile
{
    version     2.0;
    format      ascii;
    class       volScalarField;
    location    "0.003";
    object      rho;
}
// * * * * * * * * * * * * * * * * * * * * * * * * * * * * * * * * * * * * * //

dimensions      [1 -3 0 0 0 0 0];


internalField   nonuniform List<scalar> 
1000
(
1.176299307737823
1.176318638028841
1.176264286544107
1.176223446340738
1.176176156744716
1.17613246021847
1.176092632534697
1.176054239973179
1.176018120816
1.176000933513139
1.175996978730076
1.175997553723237
1.176001791384408
1.176008587320628
1.176021017675644
1.176042070871052
1.176073460948398
1.176114326288889
1.176161290379576
1.176210480277321
1.176260355046874
1.17631234198601
1.17636878066006
1.176430207644677
1.176493473938808
1.176551894662956
1.176600574339249
1.176643694932624
1.176693318865048
1.176757324141342
1.176810192958758
1.176826538334371
1.176826199771122
1.176823788450568
1.176821839635141
1.176822654295568
1.176822931556013
1.176818337323143
1.176804719474224
1.176779418966568
1.176741495896133
1.17669195212393
1.176635148027379
1.176577502117093
1.176521891362342
1.176465722241854
1.176405687687955
1.176343349670576
1.176284698663936
1.176230353602502
1.176169806881212
1.176091590452555
1.176021330725345
1.176000048108167
1.175997863332208
1.175997476961213
1.175995643255178
1.175994489482626
1.175996147329005
1.175999588257939
1.176005815310732
1.176012159774383
1.176022312883128
1.176043799246989
1.176085136515989
1.176148674825743
1.176224642048186
1.176297492008254
1.176359651113693
1.176413172100173
1.176463022847781
1.176515286342166
1.17658087725985
1.176674675656264
1.176778671021552
1.176826808254669
1.176831583235868
1.176831308011102
1.176831663134902
1.176830985458761
1.176829271012703
1.176827261164111
1.176825611310826
1.176824685814934
1.176822212185859
1.176814902443991
1.176799341931213
1.17677139810171
1.176725165434337
1.176654492477372
1.176561798986217
1.176469045324506
1.176400728190763
1.17635360174982
1.176306667138537
1.176232017584589
1.176109444216412
1.176011839734608
1.175991495697559
1.175989888346945
1.175989247409746
1.175990084219109
1.175991749658849
1.175993721479417
1.175995327024496
1.175995961104924
1.175996130157411
1.175997206647673
1.176001067726679
1.176010178858958
1.176028198027008
1.17606147752314
1.176120332374969
1.1762127353624
1.176322493019039
1.176411662648311
1.176473654917957
1.176535342048943
1.176629599833261
1.176755430994834
1.176824223360033
1.176831154004367
1.176830919681204
1.176830101207569
1.176830241147476
1.176830287470795
1.176829936729787
1.176828847030339
1.176827400257307
1.176825911207758
1.176824892455132
1.176823493151055
1.176819960261674
1.176811628535478
1.176793932682863
1.17675827346451
1.176692669670853
1.176593827990816
1.176478846129157
1.176360529856296
1.176225394710398
1.176079855476427
1.17600340584658
1.175993867709035
1.175993671933036
1.175993648974819
1.175993734583434
1.175994072006849
1.175994678997288
1.175995472125864
1.175996322819402
1.175997088758773
1.175997640216043
1.175998137498799
1.175999240561637
1.176001875337757
1.176007189656022
1.176017570220564
1.176037891149778
1.176075298905501
1.176139644554505
1.176251788975001
1.176449304542099
1.176698337196758
1.17681669971269
1.176828078710588
1.17682807929856
1.176827851205
1.176827724288974
1.176827757927813
1.176827713515828
1.176827437894936
1.176826947601014
1.176826336924875
1.176825704990069
1.176825129489016
1.176824629353087
1.176824001298528
1.176822730265282
1.176820171245597
1.176815531250362
1.176806960696689
1.176788898468004
1.176744081039629
1.176623906914217
1.176358924352665
1.176076744495694
1.175999352108528
1.175996432251261
1.175996457362951
1.175996495353759
1.17599648937525
1.175996667620736
1.175996969312825
1.175997197259651
1.175997255805334
1.175997446501753
1.17599789368563
1.175998410916391
1.17599873870715
1.175999171392707
1.176000171829672
1.176001785267988
1.17600408925761
1.17600919786644
1.176022674393048
1.176059826082088
1.17617030850271
1.176431618005145
1.176731569254164
1.176822059524742
1.176825924437505
1.176825987691048
1.176826115183488
1.176825905952713
1.176825612877632
1.176825501915004
1.176825611449581
1.176825419580394
1.176825001565225
1.176824735840761
1.176825028663343
1.176824817022657
1.17682402611141
1.176823293259129
1.176823615224444
1.17682254657479
1.176817841489618
1.176810050016912
1.176778253472813
1.176679870011443
1.176430094454617
1.176113348765452
1.176003580313262
1.175997933054466
1.175997977776736
1.175998057291168
1.175997954772993
1.1759980644619
1.175998377476846
1.175998602877438
1.175998272684293
1.175998213793951
1.17599899463226
1.175999499132109
1.175998285309864
1.175997808257108
1.176000659685428
1.176002876483686
1.175999958745911
1.176003729471378
1.176016731209099
1.17603251335007
1.176116892014097
1.176343579134669
1.176673494289666
1.176815020947304
1.17682513095345
1.176825307654534
1.17682495550661
1.176824664505812
1.176825001060209
1.176825096776893
1.176824385353537
1.176823889890115
1.176824942446499
1.176825663336632
1.176823803005488
1.176822164963525
1.176824980089928
1.176827935807818
1.176821207181547
1.176813170096932
1.176816378137963
1.176811120408867
1.176781036576702
1.176728884555195
1.176536217468883
1.176202789998495
1.176016607886974
1.175998060600304
1.175997902791735
1.175997851999064
1.175998043833267
1.175998576199655
1.175999052192127
1.175998949831178
1.17599845732608
1.175998805638448
1.175999719011861
1.175999293239954
1.175997837007853
1.175999285808854
1.17600208506876
1.176003212092348
1.17600226671517
1.176006062836442
1.176016545558149
1.176029221199505
1.176087458084644
1.176248783425438
1.176562690711773
1.176791137339659
1.176825782537642
1.17682648044086
1.176825956993282
1.176825490706662
1.176825324305225
1.176824825346508
1.176824119437632
1.176823710366104
1.176824568838495
1.176825177381823
1.176823646008937
1.176822252353284
1.176823854925583
1.176824253753272
1.176819754273581
1.176814914669484
1.176816784502
1.176812343002925
1.176790168505233
1.176753779770038
1.176614447198608
1.176314720429774
1.176050413756956
1.175998251965688
1.17599671235413
1.175996303052835
1.175997013370782
1.175998264842335
1.175998887112982
1.175998657724065
1.175998778702702
1.175999635316338
1.175999830413909
1.175998644971782
1.175998614961137
1.176001190277794
1.176003643255313
1.176002060617677
1.176002832807977
1.176008578361836
1.176016579817517
1.17602186176897
1.176063759575614
1.176176415294508
1.176449706418115
1.176745114992148
1.176825125022447
1.176828083031307
1.176827694783224
1.176827445998561
1.176826769701454
1.176825140920241
1.176823977300741
1.17682364240901
1.176824469400632
1.176824710693259
1.176823065577947
1.176822144996528
1.176823924261099
1.1768224986202
1.176818303854476
1.176815377948477
1.176818181049403
1.176812625855377
1.176794965342822
1.176773530570552
1.176675100729022
1.176429301690034
1.176112487291879
1.176000331241763
1.175993742464316
1.175993199981175
1.175994279631377
1.175995979347418
1.175997070506302
1.175998103895012
1.175999403041223
1.176000565274747
1.176000401825183
1.175999040659247
1.176000629373408
1.176003616980758
1.176004281878256
1.176002355957567
1.1760059871009
1.176012484512148
1.176015474443608
1.176018767300682
1.176049869636564
1.176120798902494
1.176330676171619
1.176658984953057
1.176819761915177
1.176833391048295
1.176833038155749
1.176832609465001
1.176832114559873
1.1768293774253
1.176825195393286
1.176822416704659
1.176821602873084
1.176820656126083
1.176818976631234
1.176818148558438
1.176819772059142
1.176817093285675
1.176809831538763
1.176802421974027
1.176764302779415
1.17666051150101
1.176497278345068
1.176418253703501
1.176411759325515
1.176411716181108
1.176411716172194
1.176411716172194
1.176411716172194
1.176411716172195
1.176411716172197
1.176411716172199
1.1764117161722
1.1764117161722
1.176411716172201
1.176411716172201
1.176411716172201
1.176411716172201
1.176411716172201
1.1764117161722
1.176411716172199
1.176411716172199
1.176411716172199
1.176411716172199
1.176411716172199
1.176411716172199
1.176411716172199
1.176411716172199
1.176411716172199
1.176411716172198
1.176411716172199
1.176411716172199
1.176411716172199
1.1764117161722
1.1764117161722
1.176411716172199
1.176411716172199
1.176411716172199
1.176411716172199
1.176411716172199
1.176411716172199
1.176411716172199
1.176411716172199
1.176411716172199
1.176411716172199
1.176411716172198
1.176411716172197
1.176411716172197
1.176411716172197
1.176411716172197
1.176411716172198
1.176411716172197
1.176411716172197
1.176411716172197
1.176411716172197
1.176411716172196
1.176411716172196
1.176411716172197
1.176411716172197
1.176411716172198
1.176411716172198
1.176411716172199
1.176411716172199
1.176411716172199
1.176411716172198
1.176411716172199
1.176411716172199
1.176411716172198
1.176411716172198
1.176411716172197
1.176411716172197
1.176411716172196
1.176411716172195
1.176411716172195
1.176411716172196
1.176411716172196
1.176411716172196
1.176411716172196
1.176411716172196
1.176411716172196
1.176411716172196
1.176411716172197
1.176411716172197
1.176411716172197
1.176411716172197
1.176411716172197
1.176411716172197
1.176411716172196
1.176411716172196
1.176411716172196
1.176411716172196
1.176411716172197
1.176411716172197
1.176411716172197
1.176411716172196
1.176411716172196
1.176411716172196
1.176411716172196
1.176411716172196
1.176411716172196
1.176411716172195
1.176411716172195
1.176411716172196
1.176411716172196
1.176411716172196
1.176411716172196
1.176411716172196
1.176411716172197
1.176411716172198
1.176411716172198
1.176411716172198
1.176411716172199
1.176411716172198
1.176411716172198
1.176411716172198
1.176411716172198
1.176411716172198
1.176411716172199
1.1764117161722
1.176411716172201
1.176411716172201
1.176411716172201
1.176411716172201
1.176411716172201
1.176411716172201
1.176411716172201
1.176411716172201
1.176411716172201
1.176411716172201
1.176411716172202
1.176411716172201
1.176411716172201
1.176411716172201
1.176411716172201
1.176411716172201
1.176411716172202
1.176411716172201
1.176411716172201
1.1764117161722
1.176411716172201
1.176411716172201
1.176411716172202
1.176411716172202
1.176411716172201
1.176411716172201
1.176411716172201
1.176411716172201
1.176411716172201
1.176411716172202
1.176411716172202
1.176411716172202
1.176411716172202
1.176411716172203
1.176411716172203
1.176411716172202
1.176411716172202
1.176411716172201
1.176411716172201
1.1764117161722
1.1764117161722
1.1764117161722
1.1764117161722
1.1764117161722
1.176411716172201
1.176411716172201
1.176411716172202
1.176411716172202
1.176411716172203
1.176411716172203
1.176411716172202
1.176411716172202
1.176411716172201
1.176411716172201
1.176411716172201
1.176411716172201
1.176411716172201
1.176411716172203
1.176411716172203
1.176411716172202
1.176411716172201
1.1764117161722
1.176411716172199
1.176411716172199
1.176411716172199
1.176411716172199
1.176411716172199
1.176411716172199
1.1764117161722
1.176411716172199
1.176411716172199
1.176411716172199
1.176411716172199
1.176411716172199
1.176411716172199
1.176411716172198
1.176411716172198
1.176411716172198
1.176411716172198
1.176411716172199
1.176411716172199
1.176411716172199
1.176411716172198
1.176411716172198
1.176411716172199
1.176411716172201
1.176411716172202
1.176411716172203
1.176411716172204
1.176411716172205
1.176411716172205
1.176411716172204
1.176411716172205
1.176411716172204
1.176411716172204
1.176411716172203
1.176411716172203
1.176411716172203
1.176411716172202
1.176411716172202
1.176411716172202
1.176411716172202
1.176411716172202
1.176411716172203
1.176411716172203
1.176411716172202
1.176411716172201
1.176411716172201
1.176411716172201
1.176411716172201
1.176411716172201
1.176411716172201
1.1764117161722
1.1764117161722
1.176411716172199
1.176411716172198
1.176411716172199
1.1764117161722
1.1764117161722
1.176411716172201
1.1764117161722
1.1764117161722
1.176411716172201
1.176411716172201
1.176411716172203
1.176411716172203
1.176411716172203
1.176411716172202
1.176411716172202
1.176411716172201
1.176411716172201
1.1764117161722
1.176411716172198
1.176411716172197
1.176411716172195
1.176411716172194
1.176411716172194
1.176411716172194
1.176411716172195
1.176411716172195
1.176411716172197
1.176411716172197
1.176411716172198
1.176411716172198
1.176411716172198
1.176411716172197
1.176411716172197
1.176411716172197
1.176411716172198
1.176411716172198
1.176411716172198
1.176411716172197
1.176411716172197
1.176411716172197
1.176411716172197
1.176411716172197
1.176411716172196
1.176411716172197
1.176411716172197
1.176411716172197
1.176411716172197
1.176411716172197
1.176411716172196
1.176411716172196
1.176411716172196
1.176411716172197
1.176411716172197
1.176411716172196
1.176411716172197
1.176411716172197
1.176411716172199
1.176411716172201
1.176411716172202
1.176411716172203
1.176411716172202
1.176411716172202
1.176411716172202
1.176411716172203
1.176411716172203
1.176411716172203
1.176411716172202
1.176411716172202
1.176411716172202
1.176411716172202
1.176411716172202
1.176411716172203
1.176411716172204
1.176411716172205
1.176411716172204
1.176411716172204
1.176411716172203
1.176411716172202
1.176411716172202
1.176411716172202
1.176411716172202
1.176411716172201
1.176411716172201
1.176411716172201
1.176411716172201
1.176411716172201
1.176411716172201
1.176411716172201
1.176411716172202
1.176411716172203
1.176411716172204
1.176411716172205
1.176411716172205
1.176411716172204
1.176411716172204
1.176411716172205
1.176411716172205
1.176411716172206
1.176411716172207
1.176411716172207
1.176411716172207
1.176411716172207
1.176411716172206
1.176411716172206
1.176411716172207
1.176411716172206
1.176411716172206
1.176411716172205
1.176411716172206
1.176411716172206
1.176411716172206
1.176411716172206
1.176411716172205
1.176411716172205
1.176411716172205
1.176411716172205
1.176411716172206
1.176411716172207
1.176411716172207
1.176411716172207
1.176411716172207
1.176411716172207
1.176411716172208
1.176411716172208
1.176411716172208
1.176411716172207
1.176411716172207
1.176411716172206
1.176411716172206
1.176411716172206
1.176411716172206
1.176411716172205
1.176411716172205
1.176411716172206
1.176411716172207
1.176411716172207
1.176411716172207
1.176411716172207
1.176411716172207
1.176411716172207
1.176411716172207
1.176411716172207
1.176411716172207
1.176411716172207
1.176411716172207
1.176411716172206
1.176411716172206
1.176411716172206
1.176411716172206
1.176411716172206
1.176411716172206
1.176411716172206
1.176411716172206
1.176411716172205
1.176411716172206
1.176411716172206
1.176411716172206
1.176411716172207
1.176411716172206
1.176411716172206
1.176411716172206
1.176411716172206
1.176411716172205
1.176411716172206
1.176411716172206
1.176411716172206
1.176411716172206
1.176411716172206
1.176411716172206
1.176411716172205
1.176411716172204
1.176411716172205
1.176411716172206
1.176411716172206
1.176411716172206
1.176411716172206
1.176411716172205
1.176411716172205
1.176411716172206
1.176411716172205
1.176411716172205
1.176411716172205
1.176411716172205
1.176411716172205
1.176411716172206
1.176411716172207
1.176411716172207
1.176411716172207
1.176411716172206
1.176411716172206
1.176411716172205
1.176411716172205
1.176411716172205
1.176411716172205
1.176411716172205
1.176411716172205
1.176411716172205
1.176411716172204
1.176411716172205
1.176411716172205
1.176411716172204
1.176411716172203
1.176411716172203
1.176411716172204
1.176411716172204
1.176411716172205
1.176411716172204
1.176411716172204
1.176411716172204
1.176411716172203
1.176411716172203
1.176411716172204
1.176411716172204
1.176411716172204
1.176411716172204
1.176411716172204
1.176411716172203
1.176411716172203
1.176411716172203
1.176411716172204
1.176411716172204
1.176411716172204
1.176411716172204
1.176411716172204
1.176411716172204
1.176411716172204
1.176411716172205
1.176411716172206
1.176411716172207
1.176411716172206
1.176411716172206
1.176411716172206
1.176411716172205
1.176411716172205
1.176411716172205
1.176411716172205
1.176411716172205
1.176411716172206
1.176411716172205
1.176411716172206
1.176411716172207
1.176411716172207
1.176411716172207
1.176411716172207
1.176411716172208
1.176411716172207
1.176411716172207
1.176411716172208
1.176411716172208
1.176411716172208
1.176411716172208
1.176411716172208
1.176411716172208
1.176411716172208
1.176411716172209
1.176411716172209
1.176411716172209
1.17641171617221
1.17641171617221
1.176411716172209
1.176411716172209
1.176411716172209
1.176411716172209
1.176411716172209
1.176411716172209
1.176411716172208
1.176411716172208
1.176411716172208
1.176411716172209
1.176411716172209
1.176411716172209
1.17641171617221
1.17641171617221
1.176411716172209
1.176411716172208
1.176411716172208
1.176411716172207
1.176411716172207
1.176411716172207
1.176411716172207
1.176411716172207
1.176411716172207
1.176411716172208
1.176411716172208
1.176411716172208
1.176411716172207
1.176411716172207
1.176411716172207
1.176411716172207
1.176411716172208
1.176411716172208
1.176411716172207
1.176411716172207
1.176411716172207
1.176411716172207
1.176411716172207
1.176411716172206
1.176411716172205
1.176411716172206
1.176411716172205
1.176411716172205
1.176411716172205
1.176411716172205
1.176411716172205
1.176411716172206
1.176411716172206
1.176411716172206
1.176411716172207
1.176411716172206
1.176411716172205
1.176411716172205
1.176411716172205
1.176411716172205
1.176411716172205
1.176411716172206
1.176411716172205
1.176411716172205
1.176411716172206
1.176411716172206
1.176411716172206
1.176411716172207
1.176411716172207
1.176411716172207
1.176411716172207
1.176411716172207
1.176411716172208
1.176411716172209
1.176411716172209
1.176411716172209
1.176411716172209
1.176411716172209
1.176411716172209
1.176411716172209
1.176411716172208
1.176411716172208
1.176411716172208
1.176411716172207
1.176411716172207
1.176411716172207
1.176411716172207
1.176411716172207
1.176411716172207
1.176411716172207
1.176411716172207
1.176411716172207
1.176411716172207
1.176411716172207
1.176411716172208
1.176411716172207
1.176411716172207
1.176411716172207
1.176411716172207
1.176411716172207
1.176411716172208
1.176411716172209
1.17641171617221
)
;

boundaryField
{
    inlet
    {
        type            calculated;
        value           uniform 1.176411716172193;
    }
    outlet
    {
        type            calculated;
        value           uniform 1.176411716172215;
    }
    frontAndBack
    {
        type            empty;
    }
}


// ************************************************************************* //
