/*--------------------------------*- C++ -*----------------------------------*\
| =========                 |                                                 |
| \\      /  F ield         | OpenFOAM: The Open Source CFD Toolbox           |
|  \\    /   O peration     | Version:  v2012                                 |
|   \\  /    A nd           | Website:  www.openfoam.com                      |
|    \\/     M anipulation  |                                                 |
\*---------------------------------------------------------------------------*/
FoamFile
{
    version     2.0;
    format      ascii;
    class       volScalarField;
    location    "0.003";
    object      T;
}
// * * * * * * * * * * * * * * * * * * * * * * * * * * * * * * * * * * * * * //

dimensions      [0 0 0 1 0 0 0];


internalField   nonuniform List<scalar> 
1000
(
299.9884080321735
299.9899535376946
299.9837067002189
299.9792229423114
299.9749208665372
299.9711747122172
299.9674611143468
299.9635741684555
299.9598403876412
299.9580750710833
299.9576796476638
299.9577692027817
299.9582379376704
299.9589245255305
299.9601534590191
299.9622639905381
299.9654479305895
299.9696134031421
299.974407923215
299.9794319002448
299.9845265291183
299.9898368960673
299.995601287087
300.0018738589607
300.0083326453758
300.0142951700817
300.0192621549149
300.02366098914
300.0287231366128
300.0352528753396
300.0406466494711
300.0423142334692
300.0422798165117
300.0420342197656
300.0418359334133
300.0419194222511
300.0419479246308
300.0414791868268
300.0400895311063
300.0375077780729
300.0336380492105
300.0285825449077
300.0227861304549
300.0169036989341
300.0112288028076
300.0054967633568
299.9993700597402
299.9930080625408
299.9870221463111
299.9814755261109
299.9752957710705
299.9673122770978
299.9601405735465
299.9579680612682
299.9577450219277
299.9577055641825
299.9575183642698
299.957400571829
299.9575697870466
299.9579210112425
299.9585566319717
299.9592042400477
299.9602406259817
299.962433864902
299.9666533550982
299.9731388622673
299.9808927632095
299.9883282148494
299.994672288876
300.0001345841172
300.0052221664964
300.0105558470023
300.0172494502454
300.0268212895386
300.0374330911878
300.0423447728884
300.0428320016163
300.0428039627162
300.0428402519832
300.0427711641678
300.0425962919149
300.0423912680987
300.0422229697952
300.0421285787596
300.0418762285084
300.0411304286555
300.0395427550487
300.0366915235821
300.0319741064171
300.0247626886408
300.0153039306529
300.0058385549436
299.9988665707787
299.9940570229262
299.9892669413047
299.9816480797397
299.9691374424937
299.9591744714207
299.9570977202087
299.95693360808
299.9568681577968
299.9569535322407
299.9571234630629
299.9573246671351
299.9574884729452
299.957553109502
299.9575702751326
299.9576800610022
299.9580740839278
299.9590040095165
299.9608432213726
299.9642401106023
299.9702474978661
299.979678936628
299.9908811718873
299.9999815679603
300.006308045434
300.0126032529989
300.0222220034551
300.0350618737181
300.0420807517112
300.0427877519643
300.042763781424
300.0426799708407
300.0426938896362
300.0426983974411
300.0426623351054
300.0425508393133
300.0424029191519
300.0422506794342
300.0421464589049
300.0420034152305
300.0416426566376
300.0407922423268
300.038986358945
300.0353475561485
300.0286531917146
300.0185669131022
300.0068330537215
299.9947583035146
299.9809663673652
299.966111443416
299.9583075905558
299.9573338600722
299.9573138490105
299.9573114847021
299.9573202488434
299.9573547834478
299.9574168839924
299.9574980359534
299.9575851267156
299.9576636356435
299.9577203044394
299.9577714851488
299.9578845469179
299.9581539854677
299.9586969522356
299.9597570775104
299.9618318904006
299.9656508556548
299.9722194073939
299.9836664591786
300.0038257802004
300.0292400454748
300.0413176677542
300.0424789852514
300.0424793399505
300.0424565619256
300.0424440380783
300.042447790269
300.042443589212
300.0424158059548
300.0423660705926
300.0423040573672
300.0422398803235
300.0421814564306
300.0421307041122
300.0420668786979
300.0419374236891
300.0416765224403
300.0412032727338
300.0403289592064
300.0384861451278
300.0339132810988
300.0216508112217
299.9946098888978
299.9658090132822
299.9579087184733
299.9576107197341
299.9576133769339
299.9576173979963
299.957616893014
299.957635198878
299.9576661074564
299.9576894680708
299.9576955266016
299.9577150701779
299.9577607934924
299.9578136603971
299.9578471867191
299.9578914211667
299.957993611735
299.958158371108
299.9583936152027
299.9589151432001
299.9602908326281
299.9640831537948
299.9753603847419
300.0020308737538
300.0326400354133
300.0418726910722
300.0422670372903
300.0422735251325
300.0422865685902
300.0422652506975
300.0422353908658
300.0422241115554
300.0422353224134
300.0422157846698
300.0421731812599
300.0421461119678
300.0421760215846
300.042154452745
300.0420737839617
300.0419990455405
300.0420319315726
300.0419229323319
300.0414428892111
300.0406479195511
300.0374035653367
300.0273646941885
300.0018762179771
299.9695484013549
299.9583430473589
299.9577665609601
299.9577711416334
299.9577792835203
299.9577688465916
299.9577800679263
299.9578120466892
299.9578350854352
299.9578014103136
299.9577954227142
299.9578751558126
299.9579266862257
299.9578028118731
299.9577541408011
299.958045236414
299.9582715584901
299.9579737529448
299.9583586921461
299.9596859015345
299.9612969165308
299.9699097877469
299.9930471770922
300.0267158095984
300.0411559958172
300.0421874872251
300.0422055249906
300.0421696035629
300.0421399224371
300.042174268146
300.0421840369611
300.0421114459683
300.0420608863363
300.0421682727304
300.0422418165511
300.0420519809541
300.0418848205966
300.0421720320801
300.0424735897882
300.041787015405
300.040966911984
300.041294205787
300.0407577013024
300.0376880186955
300.0323665257777
300.0127061536692
299.9786779849794
299.9596729597595
299.9577795106383
299.9577633842087
299.9577581748235
299.9577777394952
299.9578320691118
299.9578806444968
299.9578701874873
299.9578199104312
299.9578554621564
299.9579486962986
299.9579052369937
299.9577565924885
299.9579044866572
299.9581902346524
299.958305287301
299.9582087940072
299.9585963040469
299.9596663571295
299.9609602528645
299.9669047687582
299.9833712299775
300.0154084064708
300.0387187188512
300.042253444265
300.0423246582455
300.0422712571544
300.042223693272
300.0422067242711
300.0421558202996
300.0420838021872
300.0420420704388
300.0421296711411
300.0421917696273
300.0420355214752
300.0418933250094
300.0420568455597
300.0420975409958
300.0416384400056
300.0411446309552
300.0413354174281
300.0408822301609
300.0386196304988
300.0349066430788
300.0206890248796
299.9901019537253
299.9631241225597
299.9577991768139
299.9576420029006
299.9576002168676
299.9576727189355
299.9578004597056
299.9578639743343
299.9578405542132
299.9578528992414
299.9579403355422
299.9579602459818
299.9578392355433
299.9578361691109
299.9580990476134
299.9583494369078
299.9581878836523
299.9582667053189
299.9588531922151
299.9596699507753
299.9602091169913
299.9644858326407
299.9759848088436
300.0038779869774
300.0340230908758
300.04218635235
300.042488146686
300.0424485333199
300.0424231506704
300.0423541467423
300.0421879564884
300.0420692287273
300.0420350593693
300.0421194419682
300.0421440630468
300.0419762054113
300.0418822751172
300.0420638216671
300.0419183575864
300.0414903464409
300.0411918019072
300.0414778154196
300.0409109945155
300.0391089902643
300.0369218707588
300.0268781858431
300.0017954049936
299.9694605468526
299.9580114290384
299.9573388100231
299.957283434332
299.9573936423604
299.9575671448885
299.957678527384
299.957784012797
299.9579166260075
299.958035263351
299.9580185786884
299.9578796343883
299.9580418058482
299.9583467717429
299.9584146422867
299.9582180496059
299.9585887060749
299.9592519390646
299.959557140876
299.9598932683107
299.9630680431179
299.9703080392134
299.9917296685705
300.0252347641305
300.0416392411832
300.0430297520105
300.0429937445423
300.0429500035979
300.0428995064879
300.0426202257327
300.0421935156454
300.0419099939937
300.0418269551001
300.0417303542545
300.0415589876494
300.0414744954408
300.0416401486839
300.0413668214463
300.0406258686911
300.0398698326467
300.0359802922473
300.0253895125812
300.0087322093478
300.0006672226163
300.0000044041686
300.0000000009097
299.9999999999999
300
300.0000000000001
300.0000000000001
300.0000000000003
300.0000000000005
300.0000000000005
300.0000000000005
300.0000000000006
300.0000000000006
300.0000000000006
300.0000000000007
300.0000000000008
300.0000000000008
300.0000000000008
300.0000000000009
300.0000000000009
300.0000000000009
300.000000000001
300.0000000000009
300.0000000000009
300.0000000000009
300.0000000000008
300.0000000000007
300.0000000000009
300.0000000000009
300.0000000000009
300.0000000000006
300.0000000000005
300.0000000000004
300.0000000000005
300.0000000000005
300.0000000000005
300.0000000000004
300.0000000000003
300.0000000000005
300.0000000000006
300.0000000000006
300.0000000000006
300.0000000000007
300.0000000000008
300.0000000000007
300.0000000000006
300.0000000000003
300.0000000000002
300.0000000000002
300.0000000000003
300.0000000000003
300.0000000000003
300.0000000000005
300.0000000000005
300.0000000000005
300.0000000000005
300.0000000000006
300.0000000000006
300.0000000000006
300.0000000000006
300.0000000000006
300.0000000000006
300.0000000000006
300.0000000000006
300.0000000000005
300.0000000000005
300.0000000000005
300.0000000000005
300.0000000000007
300.0000000000007
300.0000000000007
300.0000000000007
300.0000000000008
300.0000000000009
300.000000000001
300.0000000000008
300.0000000000007
300.0000000000007
300.0000000000008
300.0000000000009
300.0000000000009
300.0000000000009
300.0000000000009
300.0000000000009
300.0000000000009
300.000000000001
300.0000000000009
300.0000000000007
300.0000000000006
300.0000000000004
300.0000000000005
300.0000000000005
300.0000000000004
300.0000000000003
300.0000000000003
300.0000000000003
300.0000000000004
300.0000000000006
300.0000000000007
300.0000000000007
300.0000000000007
300.0000000000007
300.0000000000008
300.0000000000007
300.0000000000006
300.0000000000006
300.0000000000006
300.0000000000005
300.0000000000005
300.0000000000006
300.0000000000006
300.0000000000005
300.0000000000005
300.0000000000006
300.0000000000006
300.0000000000007
300.0000000000007
300.0000000000007
300.0000000000007
300.0000000000008
300.0000000000008
300.0000000000009
300.0000000000008
300.0000000000008
300.0000000000007
300.0000000000007
300.0000000000007
300.0000000000006
300.0000000000004
300.0000000000003
300.0000000000003
300.0000000000004
300.0000000000005
300.0000000000007
300.0000000000008
300.0000000000007
300.0000000000006
300.0000000000007
300.0000000000006
300.0000000000007
300.0000000000006
300.0000000000006
300.0000000000006
300.0000000000006
300.0000000000005
300.0000000000005
300.0000000000003
300.0000000000002
300.0000000000002
300.0000000000002
300.0000000000003
300.0000000000003
300.0000000000004
300.0000000000005
300.0000000000006
300.0000000000006
300.0000000000005
300.0000000000006
300.0000000000005
300.0000000000006
300.0000000000006
300.0000000000006
300.0000000000005
300.0000000000005
300.0000000000003
300.0000000000002
300.0000000000003
300.0000000000003
300.0000000000003
300.0000000000002
300.0000000000001
300.0000000000001
300
300
299.9999999999999
299.9999999999999
300.0000000000002
300.0000000000004
300.0000000000004
300.0000000000002
300.0000000000001
300.0000000000002
300.0000000000003
300.0000000000002
300.0000000000003
300.0000000000003
300.0000000000002
300.0000000000003
300.0000000000003
300.0000000000003
300.0000000000003
300.0000000000002
300.0000000000003
300.0000000000003
300.0000000000003
300.0000000000003
300.0000000000003
300.0000000000004
300.0000000000005
300.0000000000006
300.0000000000006
300.0000000000006
300.0000000000007
300.0000000000009
300.0000000000009
300.0000000000009
300.0000000000007
300.0000000000007
300.0000000000007
300.0000000000006
300.0000000000006
300.0000000000007
300.0000000000007
300.0000000000007
300.0000000000006
300.0000000000006
300.0000000000005
300.0000000000005
300.0000000000004
300.0000000000005
300.0000000000005
300.0000000000005
300.0000000000005
300.0000000000007
300.0000000000007
300.0000000000006
300.0000000000006
300.0000000000006
300.0000000000005
300.0000000000003
300.0000000000003
300.0000000000003
300.0000000000003
300.0000000000003
300.0000000000003
300.0000000000005
300.0000000000006
300.0000000000008
300.0000000000008
300.0000000000006
300.0000000000005
300.0000000000004
300.0000000000005
300.0000000000006
300.0000000000006
300.0000000000005
300.0000000000004
300.0000000000003
300.0000000000002
300.0000000000001
299.9999999999998
299.9999999999998
299.9999999999998
299.9999999999999
299.9999999999999
299.9999999999998
299.9999999999999
300.0000000000002
300.0000000000003
300.0000000000002
300.0000000000002
300.0000000000001
300.0000000000002
300.0000000000003
300.0000000000003
300.0000000000001
300
300.0000000000001
300.0000000000001
300.0000000000001
300.0000000000001
300.0000000000001
300.0000000000002
300.0000000000003
300.0000000000003
300.0000000000001
299.9999999999999
299.9999999999998
299.9999999999997
299.9999999999997
299.9999999999997
299.9999999999998
299.9999999999998
299.9999999999998
299.9999999999999
299.9999999999999
300.0000000000002
300.0000000000003
300.0000000000002
300.0000000000003
300.0000000000005
300.0000000000006
300.0000000000007
300.000000000001
300.0000000000009
300.0000000000009
300.0000000000009
300.0000000000009
300.0000000000009
300.0000000000009
300.0000000000009
300.0000000000006
300.0000000000006
300.0000000000005
300.0000000000005
300.0000000000005
300.0000000000006
300.0000000000006
300.0000000000006
300.0000000000007
300.0000000000008
300.0000000000007
300.0000000000007
300.0000000000007
300.0000000000006
300.0000000000007
300.0000000000007
300.0000000000006
300.0000000000007
300.0000000000006
300.0000000000006
300.0000000000007
300.0000000000008
300.0000000000009
300.0000000000009
300.0000000000009
300.0000000000009
300.000000000001
300.0000000000011
300.000000000001
300.000000000001
300.000000000001
300.000000000001
300.000000000001
300.000000000001
300.0000000000009
300.0000000000009
300.0000000000009
300.0000000000011
300.0000000000011
300.0000000000011
300.0000000000011
300.0000000000011
300.0000000000012
300.0000000000013
300.0000000000011
300.000000000001
300.0000000000009
300.0000000000007
300.0000000000006
300.0000000000007
300.0000000000008
300.0000000000009
300.0000000000008
300.0000000000008
300.0000000000009
300.0000000000009
300.000000000001
300.0000000000009
300.000000000001
300.0000000000011
300.0000000000012
300.0000000000011
300.0000000000012
300.0000000000013
300.0000000000014
300.0000000000014
300.0000000000013
300.0000000000013
300.000000000001
300.0000000000009
300.0000000000009
300.0000000000009
300.000000000001
300.000000000001
300.0000000000011
300.000000000001
300.000000000001
300.0000000000009
300.0000000000008
300.0000000000008
300.0000000000008
300.0000000000008
300.0000000000007
300.0000000000007
300.0000000000007
300.0000000000007
300.0000000000007
300.0000000000007
300.0000000000007
300.0000000000007
300.0000000000008
300.0000000000008
300.0000000000008
300.0000000000008
300.0000000000009
300.0000000000008
300.0000000000007
300.0000000000007
300.0000000000009
300.0000000000009
300.0000000000008
300.0000000000007
300.0000000000006
300.0000000000006
300.0000000000007
300.0000000000008
300.0000000000008
300.0000000000009
300.0000000000007
300.0000000000008
300.0000000000009
300.0000000000009
300.000000000001
300.0000000000009
300.0000000000008
300.0000000000009
300.000000000001
300.000000000001
300.000000000001
300.0000000000011
300.0000000000011
300.0000000000011
300.0000000000011
300.000000000001
300.0000000000009
300.0000000000007
300.0000000000006
300.0000000000007
300.0000000000007
300.0000000000007
300.0000000000007
300.0000000000007
300.0000000000007
300.0000000000006
300.0000000000007
300.0000000000007
300.0000000000007
300.0000000000007
300.0000000000006
300.0000000000005
300.0000000000004
300.0000000000004
300.0000000000004
300.0000000000006
300.0000000000007
300.0000000000009
300.0000000000009
300.0000000000009
300.0000000000009
300.0000000000007
300.0000000000007
300.0000000000007
300.0000000000007
300.0000000000008
300.0000000000007
300.0000000000007
300.0000000000008
300.0000000000009
300.0000000000009
300.0000000000009
300.000000000001
300.0000000000011
300.0000000000014
300.0000000000013
300.0000000000013
300.0000000000014
300.0000000000014
300.0000000000014
300.0000000000014
300.0000000000014
300.0000000000014
300.0000000000014
300.0000000000014
300.0000000000014
300.0000000000014
300.0000000000014
300.0000000000015
300.0000000000016
300.0000000000019
300.0000000000019
300.0000000000018
300.0000000000019
300.0000000000019
300.0000000000018
300.0000000000016
300.0000000000016
300.0000000000016
300.0000000000015
300.0000000000015
300.0000000000015
300.0000000000015
300.0000000000015
300.0000000000015
300.0000000000016
300.0000000000018
300.0000000000018
300.0000000000019
300.0000000000019
300.0000000000019
300.0000000000019
300.0000000000018
300.0000000000017
300.0000000000018
300.0000000000019
300.0000000000016
300.0000000000014
300.0000000000013
300.0000000000013
300.0000000000013
300.0000000000013
300.0000000000014
300.0000000000015
300.0000000000015
300.0000000000016
300.0000000000017
300.0000000000017
300.0000000000018
300.0000000000016
300.0000000000015
300.0000000000014
300.0000000000014
300.0000000000013
300.0000000000013
300.0000000000013
300.0000000000014
300.0000000000013
300.0000000000011
300.0000000000013
300.0000000000013
300.0000000000013
300.0000000000011
300.0000000000009
300.0000000000007
300.0000000000006
300.0000000000006
300.0000000000006
300.0000000000007
300.0000000000008
300.0000000000009
300.0000000000011
300.0000000000013
300.0000000000012
300.0000000000011
300.0000000000011
300.0000000000012
300.0000000000012
300.0000000000012
300.0000000000012
300.0000000000012
300.0000000000013
300.0000000000013
300.0000000000014
300.0000000000015
300.0000000000016
300.0000000000016
300.0000000000016
300.0000000000018
300.0000000000018
300.0000000000018
300.0000000000016
300.0000000000015
300.0000000000015
300.0000000000015
300.0000000000014
300.0000000000015
300.0000000000015
300.0000000000014
300.0000000000013
300.0000000000014
300.0000000000016
300.0000000000016
300.0000000000016
300.0000000000015
300.0000000000014
300.0000000000014
300.0000000000013
300.0000000000014
300.0000000000014
300.0000000000015
300.0000000000015
300.0000000000016
300.0000000000018
300.0000000000018
300.0000000000016
300.0000000000014
)
;

boundaryField
{
    inlet
    {
        type            fixedValue;
        value           uniform 300;
    }
    outlet
    {
        type            inletOutlet;
        inletValue      uniform 300;
        value           uniform 300;
    }
    frontAndBack
    {
        type            empty;
    }
}


// ************************************************************************* //
