/*--------------------------------*- C++ -*----------------------------------*\
| =========                 |                                                 |
| \\      /  F ield         | OpenFOAM: The Open Source CFD Toolbox           |
|  \\    /   O peration     | Version:  v2012                                 |
|   \\  /    A nd           | Website:  www.openfoam.com                      |
|    \\/     M anipulation  |                                                 |
\*---------------------------------------------------------------------------*/
FoamFile
{
    version     2.0;
    format      ascii;
    class       volVectorField;
    location    "0.003";
    object      U;
}
// * * * * * * * * * * * * * * * * * * * * * * * * * * * * * * * * * * * * * //

dimensions      [0 1 -1 0 0 0 0];


internalField   nonuniform List<vector> 
1000
(
(-0.001948060932147325 0 0)
(-0.03323578812515662 0 0)
(-0.04092457863821044 0 0)
(-0.05594032864579777 0 0)
(-0.07017557773967308 0 0)
(-0.08376647614261219 0 0)
(-0.09578461624843254 0 0)
(-0.1067457989317802 0 0)
(-0.1162775325872054 0 0)
(-0.1203144755520731 0 0)
(-0.1211273380767394 0 0)
(-0.1211526173492511 0 0)
(-0.1212056445600954 0 0)
(-0.1198207538910638 0 0)
(-0.1161379302435299 0 0)
(-0.1095108098239954 0 0)
(-0.09985804217398635 0 0)
(-0.08760987303400465 0 0)
(-0.07363421627190485 0 0)
(-0.05894775610884616 0 0)
(-0.04415019219705286 0 0)
(-0.02912436196395824 0 0)
(-0.01319401218945649 0 0)
(0.004340959764294638 0 0)
(0.0231898227176108 0 0)
(0.04139580645153603 0 0)
(0.05685657620846136 0 0)
(0.06995335557150148 0 0)
(0.0836882045891902 0 0)
(0.1012334126167088 0 0)
(0.1162291247649533 0 0)
(0.1213346830024803 0 0)
(0.1221760741077319 0 0)
(0.1229676858065202 0 0)
(0.122768867703236 0 0)
(0.121879483256729 0 0)
(0.1200223931665948 0 0)
(0.117937153611263 0 0)
(0.1148141553271114 0 0)
(0.1091315668315923 0 0)
(0.0992589141684577 0 0)
(0.08459557633922303 0 0)
(0.06657775317651414 0 0)
(0.04800757079828755 0 0)
(0.03069334282257489 0 0)
(0.01431832215224596 0 0)
(-0.002399782554127531 0 0)
(-0.01971987060657029 0 0)
(-0.03635295123318935 0 0)
(-0.05222017895639827 0 0)
(-0.07037613957632252 0 0)
(-0.09409960748786217 0 0)
(-0.1157658563543749 0 0)
(-0.1228036245397428 0 0)
(-0.1236949622000291 0 0)
(-0.1234302247891014 0 0)
(-0.1224371860007097 0 0)
(-0.1214861149300457 0 0)
(-0.1209106788741551 0 0)
(-0.1211594242999975 0 0)
(-0.121310823754262 0 0)
(-0.1199042608419978 0 0)
(-0.115726732016967 0 0)
(-0.107726336304841 0 0)
(-0.09482236351224757 0 0)
(-0.07675539552106288 0 0)
(-0.05567333711821364 0 0)
(-0.03501971743089864 0 0)
(-0.01639359060879188 0 0)
(0.0005018293373497659 0 0)
(0.01614784745097789 0 0)
(0.03152368891172213 0 0)
(0.04990748557233068 0 0)
(0.07687311302202561 0 0)
(0.1076993349081093 0 0)
(0.1224412020244245 0 0)
(0.1241933781280407 0 0)
(0.1242846915907198 0 0)
(0.1238547684385903 0 0)
(0.1233593894136489 0 0)
(0.123122237314563 0 0)
(0.1230402265879346 0 0)
(0.1227220003667218 0 0)
(0.1218971300901375 0 0)
(0.1205168756261856 0 0)
(0.118387367483325 0 0)
(0.1143954340857631 0 0)
(0.1066656813459227 0 0)
(0.09298690413717219 0 0)
(0.07166088645014161 0 0)
(0.04390275452470266 0 0)
(0.01655086341624213 0 0)
(-0.003243217320976738 0 0)
(-0.0167601099270722 0 0)
(-0.03056671819495236 0 0)
(-0.05306151141687486 0 0)
(-0.08973341654348192 0 0)
(-0.1186324866399977 0 0)
(-0.1243381064582269 0 0)
(-0.1243603907100475 0 0)
(-0.1240602226864792 0 0)
(-0.1238431099541764 0 0)
(-0.1238333962709205 0 0)
(-0.1238179572977824 0 0)
(-0.1236900020787008 0 0)
(-0.1233641476255687 0 0)
(-0.1227596398596733 0 0)
(-0.121843533582336 0 0)
(-0.1204782407293639 0 0)
(-0.1180806276631399 0 0)
(-0.1133915926816535 0 0)
(-0.1041071679149838 0 0)
(-0.08678742017521149 0 0)
(-0.05905380394132919 0 0)
(-0.02601422742276015 0 0)
(0.000731101635497622 0 0)
(0.01896802342765344 0 0)
(0.03655208360670459 0 0)
(0.06379135624451317 0 0)
(0.1007715626149075 0 0)
(0.1213084561700607 0 0)
(0.1238012743244265 0 0)
(0.1242425775141044 0 0)
(0.1241364120099536 0 0)
(0.1237507730767884 0 0)
(0.1232599008571222 0 0)
(0.1228644677617797 0 0)
(0.1227304824670163 0 0)
(0.1227020417247788 0 0)
(0.1226275037901203 0 0)
(0.1223025840053358 0 0)
(0.1215616970944617 0 0)
(0.1202468006737582 0 0)
(0.1178034050208032 0 0)
(0.1127834813584549 0 0)
(0.1023992164749417 0 0)
(0.08301249406197189 0 0)
(0.05374004810901526 0 0)
(0.01973762039784854 0 0)
(-0.0151713633849602 0 0)
(-0.05499445460914059 0 0)
(-0.09793736692222529 0 0)
(-0.1205590364770456 0 0)
(-0.1234323926201596 0 0)
(-0.1235083106292728 0 0)
(-0.123472247759086 0 0)
(-0.1233746275237704 0 0)
(-0.1232217066051413 0 0)
(-0.1230397934661737 0 0)
(-0.1228782669079853 0 0)
(-0.1227517367142 0 0)
(-0.1226129274777869 0 0)
(-0.1223882044870042 0 0)
(-0.1220376505055328 0 0)
(-0.1215693334019515 0 0)
(-0.1208915592415611 0 0)
(-0.1195301432819792 0 0)
(-0.1165475895601965 0 0)
(-0.1104685668804589 0 0)
(-0.09929079189752092 0 0)
(-0.08021037179158245 0 0)
(-0.04711004066942203 0 0)
(0.01109944113213472 0 0)
(0.08449686983513009 0 0)
(0.1194034358518697 0 0)
(0.122814837557329 0 0)
(0.122912834649296 0 0)
(0.1229521210616538 0 0)
(0.122893322728172 0 0)
(0.122799837772644 0 0)
(0.1226851227124911 0 0)
(0.1225873486154948 0 0)
(0.1224898226675246 0 0)
(0.1223885443728005 0 0)
(0.1222818186600304 0 0)
(0.1221434730405163 0 0)
(0.1219294649594976 0 0)
(0.121609022125728 0 0)
(0.1211692749995283 0 0)
(0.1204943333686439 0 0)
(0.1192431608940287 0 0)
(0.1167462139639734 0 0)
(0.1113580376203122 0 0)
(0.09806197502707623 0 0)
(0.06256917016751218 0 0)
(-0.01560118859061479 0 0)
(-0.09885549794698556 0 0)
(-0.1217078166112544 0 0)
(-0.1226105506135867 0 0)
(-0.1226500432895992 0 0)
(-0.1226095120725177 0 0)
(-0.1225421949177292 0 0)
(-0.1225072748199397 0 0)
(-0.1224968267946203 0 0)
(-0.1224416176232794 0 0)
(-0.1223374794390073 0 0)
(-0.1222332353316712 0 0)
(-0.1221858681008058 0 0)
(-0.1221123285661374 0 0)
(-0.1219421634173424 0 0)
(-0.1217096541062406 0 0)
(-0.1214929031503776 0 0)
(-0.1211351396911392 0 0)
(-0.1203290314271983 0 0)
(-0.1187281370209761 0 0)
(-0.1149862254320076 0 0)
(-0.1038542650550162 0 0)
(-0.0712297004284954 0 0)
(0.005852573089235677 0 0)
(0.09438017758115012 0 0)
(0.1211260928794084 0 0)
(0.1222907181500612 0 0)
(0.1222950182335907 0 0)
(0.1222442883483973 0 0)
(0.122224991988187 0 0)
(0.1222385260739284 0 0)
(0.1221786263524499 0 0)
(0.1220813316221845 0 0)
(0.122033550874313 0 0)
(0.1220911298127103 0 0)
(0.1220337612580691 0 0)
(0.1218642843727262 0 0)
(0.1217318261410644 0 0)
(0.1218289418381582 0 0)
(0.1217315862121323 0 0)
(0.121389131380794 0 0)
(0.1209347613897895 0 0)
(0.1204389063700017 0 0)
(0.1171893325437993 0 0)
(0.1083326168971721 0 0)
(0.0791403647313773 0 0)
(0.00539252141056991 0 0)
(-0.08808968602114912 0 0)
(-0.1204702411490829 0 0)
(-0.1221430443460456 0 0)
(-0.1221727276715768 0 0)
(-0.1221770280567012 0 0)
(-0.1221128544145269 0 0)
(-0.1220587043989127 0 0)
(-0.1221024175817232 0 0)
(-0.1220894506993351 0 0)
(-0.121954283798401 0 0)
(-0.1218647981011372 0 0)
(-0.1220519908954157 0 0)
(-0.1221142323555752 0 0)
(-0.1216962439885412 0 0)
(-0.1214211647516714 0 0)
(-0.1220397775867618 0 0)
(-0.122041615191786 0 0)
(-0.1203797962229989 0 0)
(-0.1187772108071937 0 0)
(-0.1190844967046021 0 0)
(-0.1108337027540378 0 0)
(-0.08733048350861886 0 0)
(-0.02009054988545586 0 0)
(0.07735138205387954 0 0)
(0.1190576061237467 0 0)
(0.1219535572298949 0 0)
(0.1219922814439318 0 0)
(0.1220528059175377 0 0)
(0.1220152755131893 0 0)
(0.1218738081467355 0 0)
(0.121783200278603 0 0)
(0.1219661021645861 0 0)
(0.1220593793335375 0 0)
(0.1217233692183661 0 0)
(0.1214669089662287 0 0)
(0.1219797688035656 0 0)
(0.1224148343087864 0 0)
(0.1215282700201955 0 0)
(0.1205466933601112 0 0)
(0.1215789462022738 0 0)
(0.1220730008459377 0 0)
(0.1184214275693714 0 0)
(0.1135995814680629 0 0)
(0.1127131879685915 0 0)
(0.09255578466367892 0 0)
(0.03677606212984755 0 0)
(-0.06157720453058155 0 0)
(-0.1165753976510003 0 0)
(-0.1221773785395172 0 0)
(-0.1222986882276782 0 0)
(-0.1221594038763321 0 0)
(-0.12199661721709 0 0)
(-0.1219809246708192 0 0)
(-0.1219862327267173 0 0)
(-0.1219257879525412 0 0)
(-0.1217642971453813 0 0)
(-0.1217864650510612 0 0)
(-0.1220154482670599 0 0)
(-0.1220129723328006 0 0)
(-0.1215815498013524 0 0)
(-0.1214162623891043 0 0)
(-0.1217540711930492 0 0)
(-0.1210666940155558 0 0)
(-0.1199182116342078 0 0)
(-0.1192542500089517 0 0)
(-0.1182774652870136 0 0)
(-0.1116989198398782 0 0)
(-0.09623900881243763 0 0)
(-0.04803396045547188 0 0)
(0.04470796846727074 0 0)
(0.1120030383175408 0 0)
(0.1220967924005134 0 0)
(0.122318835610638 0 0)
(0.1224141905684584 0 0)
(0.1222390506343164 0 0)
(0.1219327919213885 0 0)
(0.1217674417221641 0 0)
(0.1218690313993082 0 0)
(0.1219055951805049 0 0)
(0.121654741317822 0 0)
(0.1215115405035304 0 0)
(0.1218710698855803 0 0)
(0.1220553270115766 0 0)
(0.1212421239271499 0 0)
(0.1203980085673443 0 0)
(0.1209471443338877 0 0)
(0.1209352682313878 0 0)
(0.1188509953508729 0 0)
(0.1158082303982556 0 0)
(0.1143458807359841 0 0)
(0.09986141151415086 0 0)
(0.06002702415036992 0 0)
(-0.02847337373149747 0 0)
(-0.1066883467159314 0 0)
(-0.1222148795682715 0 0)
(-0.1226123187330909 0 0)
(-0.1224650073006536 0 0)
(-0.1223387981338729 0 0)
(-0.1222552941057897 0 0)
(-0.1220240097221957 0 0)
(-0.1217759801692541 0 0)
(-0.1216401470893323 0 0)
(-0.121902206436963 0 0)
(-0.1220733216497281 0 0)
(-0.1216103094244592 0 0)
(-0.1212272951980558 0 0)
(-0.1216517042315554 0 0)
(-0.1215635929789843 0 0)
(-0.1204174634849913 0 0)
(-0.1192577175698406 0 0)
(-0.1197382587859382 0 0)
(-0.1184635990936491 0 0)
(-0.1128271188797513 0 0)
(-0.1038570810561645 0 0)
(-0.0691911296599437 0 0)
(0.01136886581133382 0 0)
(0.09832587443414871 0 0)
(0.1218593007450695 0 0)
(0.1228609108975605 0 0)
(0.1230096811186132 0 0)
(0.1227317453072327 0 0)
(0.1222383172348962 0 0)
(0.1219783350545769 0 0)
(0.1219432762416587 0 0)
(0.1217782772976381 0 0)
(0.1214668796148016 0 0)
(0.1215311742964199 0 0)
(0.1219675423779425 0 0)
(0.1217204696882798 0 0)
(0.1208848272073439 0 0)
(0.1203684578871317 0 0)
(0.1210328211360134 0 0)
(0.1204212388264476 0 0)
(0.1185479785816855 0 0)
(0.116849566975523 0 0)
(0.1158573591998497 0 0)
(0.1052317896161725 0 0)
(0.07820743095965946 0 0)
(0.005302836267589594 0 0)
(-0.08849385202206153 0 0)
(-0.1216118355972778 0 0)
(-0.1233596146287285 0 0)
(-0.1233040166425199 0 0)
(-0.1233141731851059 0 0)
(-0.1230476273837016 0 0)
(-0.1223405610189066 0 0)
(-0.1217929241248499 0 0)
(-0.1216944058129464 0 0)
(-0.1218193015410216 0 0)
(-0.1216272507972911 0 0)
(-0.1211208741472082 0 0)
(-0.121071555061924 0 0)
(-0.1215297247941771 0 0)
(-0.1207701118835682 0 0)
(-0.1194499236092189 0 0)
(-0.1190344536998221 0 0)
(-0.119758270097438 0 0)
(-0.1178135177877607 0 0)
(-0.1131095386271712 0 0)
(-0.1087887863310695 0 0)
(-0.08539532783838473 0 0)
(-0.02367573361410311 0 0)
(0.07287702147548805 0 0)
(0.1201907315236792 0 0)
(0.1244147012462921 0 0)
(0.1246613947088079 0 0)
(0.1243236971258443 0 0)
(0.1236839814209216 0 0)
(0.1232595295142312 0 0)
(0.1224462023237095 0 0)
(0.121299535743402 0 0)
(0.1205969078206346 0 0)
(0.1203827125635049 0 0)
(0.1207153042014152 0 0)
(0.1204968394279231 0 0)
(0.1196718936338696 0 0)
(0.1190542223403501 0 0)
(0.1187757217253685 0 0)
(0.1146555400935752 0 0)
(0.104214737511559 0 0)
(0.07342831827404868 0 0)
(0.02525754327712557 0 0)
(0.001929892594933052 0 0)
(1.273889456874244e-05 0 0)
(2.629301229279106e-09 0 0)
(-2.320370414687233e-12 0 0)
(-2.433347251357221e-12 0 0)
(-2.242155681607821e-12 0 0)
(-2.033583060062848e-12 0 0)
(-1.590366239280089e-12 0 0)
(-1.103696789008509e-12 0 0)
(-7.734568048957321e-13 0 0)
(-7.908378566911545e-13 0 0)
(-8.169094343842952e-13 0 0)
(-6.691704941232381e-13 0 0)
(-6.517894423278652e-13 0 0)
(-7.908378566911086e-13 0 0)
(-7.734568048957795e-13 0 0)
(-6.778610200209147e-13 0 0)
(-7.386947013049159e-13 0 0)
(-6.691704941232714e-13 0 0)
(-5.561936574531227e-13 0 0)
(-5.127410279646104e-13 0 0)
(-5.996462869416534e-13 0 0)
(-7.213136495095083e-13 0 0)
(-9.038146933613795e-13 0 0)
(-7.995283825887981e-13 0 0)
(-8.342904861796263e-13 0 0)
(-8.342904861796222e-13 0 0)
(-9.733389005428649e-13 0 0)
(-1.008101004133707e-12 0 0)
(-1.199292573883225e-12 0 0)
(-1.286197832860195e-12 0 0)
(-1.251435729269526e-12 0 0)
(-1.095006263110718e-12 0 0)
(-9.820294264405652e-13 0 0)
(-9.733389005427934e-13 0 0)
(-1.121077840803884e-12 0 0)
(-1.225364151576295e-12 0 0)
(-1.173220996190081e-12 0 0)
(-1.051553633622203e-12 0 0)
(-8.690525897705133e-13 0 0)
(-7.560757531002735e-13 0 0)
(-6.865515459186437e-13 0 0)
(-5.909557610439428e-13 0 0)
(-7.386947013049562e-13 0 0)
(-8.082189084865987e-13 0 0)
(-7.473852272026338e-13 0 0)
(-6.952420718164083e-13 0 0)
(-7.821473307934798e-13 0 0)
(-7.213136495094422e-13 0 0)
(-8.429810120772692e-13 0 0)
(-9.385767969520119e-13 0 0)
(-1.060244159519918e-12 0 0)
(-1.025482055929071e-12 0 0)
(-1.025482055929082e-12 0 0)
(-9.907199523383693e-13 0 0)
(-1.051553633622247e-12 0 0)
(-1.138458892599184e-12 0 0)
(-1.060244159519948e-12 0 0)
(-8.25599960281931e-13 0 0)
(-6.344083905323701e-13 0 0)
(-5.040505020668611e-13 0 0)
(-5.475031315553794e-13 0 0)
(-6.257178646347294e-13 0 0)
(-7.126231236117647e-13 0 0)
(-6.778610200208783e-13 0 0)
(-6.344083905324192e-13 0 0)
(-4.953599761691492e-13 0 0)
(-5.301220797599226e-13 0 0)
(-5.388126056576583e-13 0 0)
(-4.345262948851934e-13 0 0)
(-3.563115618058491e-13 0 0)
(-2.346441992379873e-13 0 0)
(-2.520252510333732e-13 0 0)
(-1.129768366701087e-13 0 0)
(3.476210359086198e-14 0 0)
(1.564294661587012e-13 0 0)
(1.911915697495228e-13 0 0)
(2.085726215449423e-13 0 0)
(2.259536733403471e-13 0 0)
(1.651199920564169e-13 0 0)
(-1.73810517953707e-14 0 0)
(-1.390484143632409e-13 0 0)
(-1.564294661586573e-13 0 0)
(-1.303578884655245e-13 0 0)
(-2.607157769311032e-13 0 0)
(-2.694063028287927e-13 0 0)
(-6.95242071815837e-14 0 0)
(9.559578487478099e-14 0 0)
(2.172631474426074e-13 0 0)
(1.825010438517978e-13 0 0)
(9.559578487477468e-14 0 0)
(1.303578884655869e-13 0 0)
(6.952420718164629e-14 0 0)
(-5.214315538619115e-14 0 0)
(-1.216673625678367e-13 0 0)
(-2.520252510334208e-13 0 0)
(-2.867873546242071e-13 0 0)
(-2.433347251357208e-13 0 0)
(-1.998820956471857e-13 0 0)
(-6.083368128389936e-14 0 0)
(-8.690525897698901e-15 0 0)
(-4.345262948851276e-14 0 0)
(-1.564294661586535e-13 0 0)
(-2.607157769311183e-13 0 0)
(-2.954778805219033e-13 0 0)
(-4.692883984760136e-13 0 0)
(-6.170273387369809e-13 0 0)
(-7.213136495093668e-13 0 0)
(-7.126231236116979e-13 0 0)
(-6.604799682254569e-13 0 0)
(-6.517894423277345e-13 0 0)
(-6.17027338736964e-13 0 0)
(-5.648841833506986e-13 0 0)
(-5.735747092484882e-13 0 0)
(-4.519073466806103e-13 0 0)
(-2.172631474425661e-13 0 0)
(8.690525897706614e-14 0 0)
(1.21667362567897e-13 0 0)
(-1.651199920563575e-13 0 0)
(-1.911915697494483e-13 0 0)
(-2.954778805218857e-13 0 0)
(-2.607157769310776e-13 0 0)
(-4.866694502714134e-13 0 0)
(-6.7786102002086e-13 0 0)
(-6.430989164301188e-13 0 0)
(-6.865515459186267e-13 0 0)
(-6.170273387370109e-13 0 0)
(-5.214315538622274e-13 0 0)
(-3.823831394989245e-13 0 0)
(-4.171452430898003e-13 0 0)
(-3.650020877035699e-13 0 0)
(-2.346441992379618e-13 0 0)
(-1.82501043851764e-13 0 0)
(-6.952420718160523e-14 0 0)
(6.952420718167659e-14 0 0)
(1.129768366702228e-13 0 0)
(-4.34526294884634e-14 0 0)
(8.690525897743879e-15 0 0)
(9.559578487479835e-14 0 0)
(2.085726215449456e-13 0 0)
(2.694063028288874e-13 0 0)
(3.47621035908238e-13 0 0)
(2.954778805220075e-13 0 0)
(1.564294661587384e-13 0 0)
(4.345262948855216e-14 0 0)
(1.303578884655944e-13 0 0)
(6.952420718167844e-14 0 0)
(-1.129768366700962e-13 0 0)
(-1.21667362567831e-13 0 0)
(-2.607157769310649e-13 0 0)
(-3.736926136012353e-13 0 0)
(-3.736926136012347e-13 0 0)
(-2.520252510333352e-13 0 0)
(-1.998820956471375e-13 0 0)
(-7.821473307926952e-14 0 0)
(-1.738105179536196e-14 0 0)
(2.085726215449453e-13 0 0)
(4.519073466806484e-13 0 0)
(4.779789243737871e-13 0 0)
(5.561936574531529e-13 0 0)
(3.563115618059046e-13 0 0)
(6.08336812840027e-14 0 0)
(-1.303578884655002e-13 0 0)
(-2.867873546242073e-13 0 0)
(-2.954778805219107e-13 0 0)
(-4.171452430897252e-13 0 0)
(-4.692883984760087e-13 0 0)
(-3.910736653966819e-13 0 0)
(-3.302399841127235e-13 0 0)
(-4.866694502714247e-13 0 0)
(-6.257178646347224e-13 0 0)
(-4.432168207829201e-13 0 0)
(-2.346441992380223e-13 0 0)
(1.738105179541211e-14 0 0)
(4.34526294885358e-14 0 0)
(1.651199920564081e-13 0 0)
(1.738105179543942e-14 0 0)
(-1.564294661586216e-13 0 0)
(-5.909557610438715e-13 0 0)
(-8.169094343841831e-13 0 0)
(-1.086315737213073e-12 0 0)
(-1.338340988246352e-12 0 0)
(-1.286197832860276e-12 0 0)
(-1.155839944394663e-12 0 0)
(-1.060244159519836e-12 0 0)
(-9.646483746452185e-13 0 0)
(-1.121077840803893e-12 0 0)
(-1.355722040041857e-12 0 0)
(-1.477389402609788e-12 0 0)
(-1.442627299018742e-12 0 0)
(-1.607747291075346e-12 0 0)
(-1.755486231336285e-12 0 0)
(-1.755486231336125e-12 0 0)
(-1.7728672831318e-12 0 0)
(-1.816319912620211e-12 0 0)
(-1.746795705438682e-12 0 0)
(-1.729414653643188e-12 0 0)
(-1.746795705438503e-12 0 0)
(-1.694652550052419e-12 0 0)
(-1.68596202415468e-12 0 0)
(-1.538223083893598e-12 0 0)
(-1.121077840803941e-12 0 0)
(-6.344083905324463e-13 0 0)
(-1.477389402610156e-13 0 0)
(1.738105179538523e-14 0 0)
(1.390484143632588e-13 0 0)
(1.129768366701574e-13 0 0)
(1.825010438517972e-13 0 0)
(-1.129768366701628e-13 0 0)
(-2.346441992380333e-13 0 0)
(-3.476210359081927e-13 0 0)
(-3.650020877036166e-13 0 0)
(-3.650020877036008e-13 0 0)
(-2.694063028288333e-13 0 0)
(-3.215494582150708e-13 0 0)
(-4.171452430898638e-13 0 0)
(-3.736926136012865e-13 0 0)
(-4.258357689875421e-13 0 0)
(-3.997641912944551e-13 0 0)
(-4.692883984760521e-13 0 0)
(-5.214315538623031e-13 0 0)
(-4.171452430897939e-13 0 0)
(-3.736926136013049e-13 0 0)
(-1.390484143632841e-13 0 0)
(-7.821473307935531e-14 0 0)
(1.042863107724433e-13 0 0)
(3.389305100104917e-13 0 0)
(6.083368128393133e-13 0 0)
(6.257178646347296e-13 0 0)
(7.386947013047978e-13 0 0)
(8.169094343842186e-13 0 0)
(8.951241674635851e-13 0 0)
(1.077625211315198e-12 0 0)
(9.907199523383057e-13 0 0)
(1.068934685417613e-12 0 0)
(1.008101004133726e-12 0 0)
(9.298862710543924e-13 0 0)
(1.016791530031265e-12 0 0)
(9.385767969520767e-13 0 0)
(7.647662789979612e-13 0 0)
(7.126231236117145e-13 0 0)
(7.995283825888225e-13 0 0)
(7.821473307933903e-13 0 0)
(7.734568048957085e-13 0 0)
(4.4321682078289e-13 0 0)
(-1.738105179542878e-14 0 0)
(-1.998820956472356e-13 0 0)
(-2.085726215449352e-13 0 0)
(4.345262948850576e-14 0 0)
(2.607157769311133e-14 0 0)
(-2.433347251357175e-13 0 0)
(-6.083368128393509e-13 0 0)
(-6.430989164301336e-13 0 0)
(-6.517894423278007e-13 0 0)
(-7.560757531003307e-13 0 0)
(-7.647662789980118e-13 0 0)
(-6.691704941231909e-13 0 0)
(-4.345262948852174e-13 0 0)
(-5.040505020668933e-13 0 0)
(-4.171452430898233e-13 0 0)
(-5.475031315554082e-13 0 0)
(-6.691704941232179e-13 0 0)
(-8.60362063872742e-13 0 0)
(-8.342904861796798e-13 0 0)
(-7.213136495094315e-13 0 0)
(-5.822652351461908e-13 0 0)
(-3.389305100104583e-13 0 0)
(-9.559578487472901e-14 0 0)
(-4.345262948851591e-14 0 0)
(-1.738105179540631e-14 0 0)
(5.214315538622315e-14 0 0)
(1.216673625678502e-13 0 0)
(2.172631474425766e-13 0 0)
(2.520252510334448e-13 0 0)
(3.128589323173399e-13 0 0)
(5.214315538622624e-13 0 0)
(7.386947013048857e-13 0 0)
(1.008101004133628e-12 0 0)
(1.207983099780941e-12 0 0)
(1.416555721325796e-12 0 0)
(1.407865195428107e-12 0 0)
(1.347031514144135e-12 0 0)
(1.199292573883131e-12 0 0)
(9.733389005428895e-13 0 0)
(9.559578487474426e-13 0 0)
(7.647662789979182e-13 0 0)
(3.215494582150486e-13 0 0)
(-1.738105179541037e-13 0 0)
(-3.302399841127691e-13 0 0)
(-3.650020877035741e-13 0 0)
(-1.998820956471823e-13 0 0)
(-2.954778805219691e-13 0 0)
(-5.735747092484753e-13 0 0)
(-8.516715379749759e-13 0 0)
(-1.103696789008461e-12 0 0)
(-1.042863107724538e-12 0 0)
(-9.298862710543708e-13 0 0)
(-8.429810120773232e-13 0 0)
(-8.60362063872681e-13 0 0)
(-1.042863107724517e-12 0 0)
(-1.129768366701617e-12 0 0)
(-1.155839944394587e-12 0 0)
(-1.251435729269432e-12 0 0)
(-1.086315737213063e-12 0 0)
(-1.11238731490618e-12 0 0)
(-1.068934685417657e-12 0 0)
(-9.907199523382348e-13 0 0)
(-8.516715379750799e-13 0 0)
(-8.255999602819008e-13 0 0)
(-9.12505219258892e-13 0 0)
(-9.733389005428816e-13 0 0)
(-1.034172581826855e-12 0 0)
(-9.994104782360135e-13 0 0)
(-9.211957451566529e-13 0 0)
(-1.008101004133667e-12 0 0)
(-9.994104782359842e-13 0 0)
(-9.994104782360519e-13 0 0)
(-1.112387314906049e-12 0 0)
(-1.216673625678639e-12 0 0)
(-1.52084203209824e-12 0 0)
(-1.546913609791346e-12 0 0)
(-1.772867283131713e-12 0 0)
(-1.755486231336094e-12 0 0)
(-1.703343075950096e-12 0 0)
(-1.755486231336222e-12 0 0)
(-1.894534645699464e-12 0 0)
(-2.077035689551342e-12 0 0)
(-2.207393578016888e-12 0 0)
(-2.111797793142272e-12 0 0)
(-2.085726215449127e-12 0 0)
(-2.077035689551251e-12 0 0)
(-2.007511482369691e-12 0 0)
(-2.163940948528548e-12 0 0)
(-2.302989362891449e-12 0 0)
(-2.242155681607754e-12 0 0)
(-2.346441992380256e-12 0 0)
(-2.285608311096317e-12 0 0)
(-2.198703052119236e-12 0 0)
(-2.007511482369478e-12 0 0)
(-1.903225171597304e-12 0 0)
(-1.82501043851784e-12 0 0)
(-1.833700964415491e-12 0 0)
(-1.842391490313387e-12 0 0)
(-1.633818868768458e-12 0 0)
(-1.486079928507455e-12 0 0)
(-1.260126255167161e-12 0 0)
(-1.242745203371698e-12 0 0)
(-1.068934685417585e-12 0 0)
(-1.034172581826903e-12 0 0)
(-1.13845889259913e-12 0 0)
(-1.23405467747403e-12 0 0)
(-1.234054677474013e-12 0 0)
(-1.12976836670156e-12 0 0)
(-1.199292573883247e-12 0 0)
(-1.234054677473872e-12 0 0)
(-1.242745203371848e-12 0 0)
(-1.347031514144083e-12 0 0)
(-1.425246247223498e-12 0 0)
(-1.572985187484497e-12 0 0)
(-1.720724127745431e-12 0 0)
(-1.807629386722579e-12 0 0)
(-1.5903662392799e-12 0 0)
(-1.512151506200503e-12 0 0)
(-1.320959936450995e-12 0 0)
(-1.060244159520024e-12 0 0)
(-1.008101004133577e-12 0 0)
(-9.733389005428808e-13 0 0)
(-1.095006263110773e-12 0 0)
(-1.234054677474071e-12 0 0)
(-1.442627299018928e-12 0 0)
(-1.329650462348608e-12 0 0)
(-1.416555721325972e-12 0 0)
(-1.546913609791329e-12 0 0)
(-1.642509394666136e-12 0 0)
(-1.590366239279929e-12 0 0)
(-1.355722040041947e-12 0 0)
(-1.329650462348754e-12 0 0)
(-1.199292573883232e-12 0 0)
(-1.225364151576353e-12 0 0)
(-1.181911522087742e-12 0 0)
(-1.034172581826961e-12 0 0)
(-9.907199523382292e-13 0 0)
(-9.907199523383247e-13 0 0)
(-8.864336415658815e-13 0 0)
(-8.169094343842083e-13 0 0)
(-8.690525897704419e-13 0 0)
(-7.908378566911417e-13 0 0)
(-9.298862710544079e-13 0 0)
(-1.008101004133591e-12 0 0)
(-1.277507306962598e-12 0 0)
(-1.494770454405179e-12 0 0)
(-1.520842032098243e-12 0 0)
(-1.65989044646155e-12 0 0)
(-1.616437816973025e-12 0 0)
(-1.668580972359262e-12 0 0)
(-1.61643781697269e-12 0 0)
(-1.651199920563849e-12 0 0)
(-1.668580972359258e-12 0 0)
(-1.807629386722866e-12 0 0)
(-1.772867283131637e-12 0 0)
(-1.772867283131777e-12 0 0)
(-1.746795705438274e-12 0 0)
(-1.642509394666131e-12 0 0)
(-1.625128342870759e-12 0 0)
(-1.503460980302905e-12 0 0)
(-1.538223083893666e-12 0 0)
(-1.48607992850739e-12 0 0)
(-1.538223083893674e-12 0 0)
(-1.460008350814051e-12 0 0)
(-1.355722040041893e-12 0 0)
(-1.286197832860253e-12 0 0)
(-1.416555721325857e-12 0 0)
(-1.399174669530364e-12 0 0)
(-1.39048414363264e-12 0 0)
(-1.616437816973018e-12 0 0)
(-1.46000835081436e-12 0 0)
(-1.486079928507455e-12 0 0)
(-1.625128342870436e-12 0 0)
(-1.494770454405176e-12 0 0)
(-1.4860799285074e-12 0 0)
(-1.407865195428132e-12 0 0)
(-1.520842032098268e-12 0 0)
(-1.399174669530437e-12 0 0)
(-1.173220996190125e-12 0 0)
(-1.060244159519748e-12 0 0)
(-1.138458892599341e-12 0 0)
(-1.173220996190084e-12 0 0)
(-1.320959936451073e-12 0 0)
(-1.390484143632688e-12 0 0)
(-1.29488835875792e-12 0 0)
(-1.529532557995951e-12 0 0)
(-1.607747291075218e-12 0 0)
(-1.651199920563869e-12 0 0)
(-1.92060622339223e-12 0 0)
(-2.103107267244466e-12 0 0)
(-2.042273585960485e-12 0 0)
(-1.955368326983543e-12 0 0)
(-1.807629386722454e-12 0 0)
(-1.607747291075184e-12 0 0)
(-1.60774729107524e-12 0 0)
(-1.512151506200268e-12 0 0)
(-1.694652550052299e-12 0 0)
(-1.851082016210978e-12 0 0)
(-1.929296749290318e-12 0 0)
(-1.842391490313256e-12 0 0)
(-1.790248334927015e-12 0 0)
(-1.825010438517855e-12 0 0)
(-1.616437816972973e-12 0 0)
(-1.477389402609687e-12 0 0)
(-1.572985187484095e-12 0 0)
(-1.677271498256975e-12 0 0)
(-1.738105179540766e-12 0 0)
(-1.712033601847715e-12 0 0)
(-1.76417675723389e-12 0 0)
(-1.590366239279788e-12 0 0)
(-1.668580972359216e-12 0 0)
(-1.729414653642886e-12 0 0)
(-1.755486231336235e-12 0 0)
(-1.825010438517893e-12 0 0)
(-1.972749378778885e-12 0 0)
(-2.016202008267355e-12 0 0)
(-2.12917884493744e-12 0 0)
(-2.346441992380205e-12 0 0)
(-2.450728303152509e-12 0 0)
(-2.711444080083711e-12 0 0)
(-2.74620618367406e-12 0 0)
(-2.911326175730912e-12 0 0)
(-2.928707227526244e-12 0 0)
(-2.754896709572122e-12 0 0)
(-2.502871458538683e-12 0 0)
(-2.337751466482383e-12 0 0)
(-2.459418829050254e-12 0 0)
(-2.520252510333719e-12 0 0)
(-2.528943036231837e-12 0 0)
(-2.546324088027191e-12 0 0)
(-2.485490406743318e-12 0 0)
(-2.546324088027269e-12 0 0)
(-2.667991450595061e-12 0 0)
(-2.798349339060632e-12 0 0)
(-2.972159857014673e-12 0 0)
(-3.137279849071183e-12 0 0)
(-3.111208271377502e-12 0 0)
(-3.258947211639066e-12 0 0)
(-3.389305100104658e-12 0 0)
(-3.580496669854046e-12 0 0)
(-3.754307187808107e-12 0 0)
(-3.745616661910525e-12 0 0)
(-3.754307187808249e-12 0 0)
(-3.841212446784805e-12 0 0)
(-4.015022964739368e-12 0 0)
(-3.962879809353143e-12 0 0)
(-3.945498757557731e-12 0 0)
(-3.997641912943558e-12 0 0)
(-3.928117705762296e-12 0 0)
(-3.780378765501332e-12 0 0)
(-3.650020877035788e-12 0 0)
(-3.745616661909956e-12 0 0)
(-3.780378765501379e-12 0 0)
(-3.945498757557574e-12 0 0)
(-3.867284024478436e-12 0 0)
(-3.754307187807714e-12 0 0)
(-3.719545084217454e-12 0 0)
(-3.702164032422055e-12 0 0)
(-3.658711402933319e-12 0 0)
(-3.702164032421735e-12 0 0)
(-3.762997713705765e-12 0 0)
(-3.415376677797774e-12 0 0)
(-3.293709315229905e-12 0 0)
(-3.189423004457121e-12 0 0)
(-3.258947211639048e-12 0 0)
(-3.302399841127565e-12 0 0)
(-3.198113530355117e-12 0 0)
(-3.050374590094165e-12 0 0)
(-2.920016701628302e-12 0 0)
(-3.015612486503361e-12 0 0)
(-2.937397753423992e-12 0 0)
(-2.980850382912362e-12 0 0)
(-2.946088279321493e-12 0 0)
(-2.850492494446801e-12 0 0)
(-2.798349339060749e-12 0 0)
(-2.607157769311245e-12 0 0)
(-2.746206183674215e-12 0 0)
(-2.867873546242386e-12 0 0)
(-3.18942300445746e-12 0 0)
(-3.093827219582726e-12 0 0)
(-3.276328263434193e-12 0 0)
(-3.206804056252889e-12 0 0)
(-3.119898797275868e-12 0 0)
(-3.006921960605647e-12 0 0)
(-2.92870722752603e-12 0 0)
(-2.937397753423863e-12 0 0)
(-2.798349339060724e-12 0 0)
(-2.815730390855997e-12 0 0)
(-2.641919872901807e-12 0 0)
(-2.598467243413574e-12 0 0)
(-2.633229347004401e-12 0 0)
(-2.685372502390599e-12 0 0)
(-2.841801968549294e-12 0 0)
(-3.08513669368477e-12 0 0)
(-3.311090367025159e-12 0 0)
(-3.198113530355156e-12 0 0)
(-3.328471418820552e-12 0 0)
(-3.215494582150258e-12 0 0)
(-3.250256685741368e-12 0 0)
(-3.267637737536634e-12 0 0)
(-3.215494582150609e-12 0 0)
(-3.224185108047973e-12 0 0)
(-3.276328263434549e-12 0 0)
(-3.31109036702535e-12 0 0)
(-3.258947211639138e-12 0 0)
(-3.2589472116388e-12 0 0)
(-3.16335142676438e-12 0 0)
(-3.198113530355179e-12 0 0)
(-3.076446167787324e-12 0 0)
(-3.059065115991682e-12 0 0)
(-3.163351426764184e-12 0 0)
(-3.05037459009422e-12 0 0)
(-3.111208271378134e-12 0 0)
(-3.015612486503145e-12 0 0)
(-3.076446167787137e-12 0 0)
(-3.172041952662078e-12 0 0)
(-3.206804056252887e-12 0 0)
(-3.224185108048263e-12 0 0)
(-3.067755641889282e-12 0 0)
(-2.928707227526316e-12 0 0)
(-2.78096828726532e-12 0 0)
(-2.728825131878957e-12 0 0)
(-2.43334725135693e-12 0 0)
(-2.120488319039769e-12 0 0)
(-1.833700964415592e-12 0 0)
(-1.381793617734824e-12 0 0)
(-1.068934685417343e-12 0 0)
(-1.060244159519801e-12 0 0)
(-9.907199523382677e-13 0 0)
(-9.646483746451357e-13 0 0)
(-1.242745203371545e-12 0 0)
(-1.529532557995805e-12 0 0)
(-1.859772542108712e-12 0 0)
(-2.024892534165037e-12 0 0)
(-2.181322000323536e-12 0 0)
(-2.494180932640971e-12 0 0)
(-2.694063028288354e-12 0 0)
(-2.876564072139964e-12 0 0)
(-2.780968287265201e-12 0 0)
(-2.82442091675391e-12 0 0)
(-2.763587235469794e-12 0 0)
)
;

boundaryField
{
    inlet
    {
        type            zeroGradient;
    }
    outlet
    {
        type            pressureInletOutletVelocity;
        value           uniform (-2.763587235469794e-12 0 0);
    }
    frontAndBack
    {
        type            empty;
    }
}


// ************************************************************************* //
