/*--------------------------------*- C++ -*----------------------------------*\
| =========                 |                                                 |
| \\      /  F ield         | OpenFOAM: The Open Source CFD Toolbox           |
|  \\    /   O peration     | Version:  v2012                                 |
|   \\  /    A nd           | Website:  www.openfoam.com                      |
|    \\/     M anipulation  |                                                 |
\*---------------------------------------------------------------------------*/
FoamFile
{
    version     2.0;
    format      ascii;
    class       volScalarField;
    location    "0.009";
    object      p;
}
// * * * * * * * * * * * * * * * * * * * * * * * * * * * * * * * * * * * * * //

dimensions      [1 -1 -2 0 0 0 0];


internalField   nonuniform List<scalar> 
1000
(
101311.5927641797
101314.2379566787
101307.4605169865
101302.1336253683
101296.2290912515
101290.9036930284
101286.3129590229
101282.3853645037
101278.9768406851
101276.594511869
101275.8610010207
101275.8579793185
101276.1737409447
101277.0903681871
101278.9510179025
101281.8535288093
101285.6974942965
101290.2997763355
101295.5039423555
101301.2041817248
101307.3183669923
101313.7597142114
101320.424761161
101327.1920580203
101333.925672632
101340.4849818116
101346.745590185
101352.6344117305
101358.1610727811
101363.3766360427
101368.1376697481
101371.7050882667
101373.2172495716
101373.3936848449
101373.33885035
101373.1197464848
101372.470054428
101371.1444470081
101368.9068045439
101365.6276208301
101361.3253056398
101356.1542924462
101350.3353940607
101344.0767717767
101337.5343275904
101330.8199439773
101324.030174206
101317.2674986377
101310.6414205548
101304.2424850995
101298.0976582705
101292.1629981895
101286.460598494
101281.442107528
101278.1911298915
101277.1633633594
101277.0983078261
101277.1268468762
101277.3519262149
101277.9106142374
101279.0351733769
101280.9361208517
101283.7827487988
101287.6513334535
101292.4998151199
101298.1740969987
101304.4499161392
101311.0929874329
101317.9064271887
101324.7448010966
101331.5046930978
101338.1207522491
101344.5787195138
101350.9192804178
101357.1836314306
101363.2373187373
101368.4313506532
101371.5865210943
101372.4965445907
101372.5550615884
101372.4994501162
101372.3265542915
101371.8508262021
101370.9059920866
101369.294040641
101366.836755399
101363.4078532708
101358.9694846421
101353.5898116133
101347.4343053667
101340.7338138679
101333.7387284113
101326.6702890144
101319.6821225511
101312.8430222117
101306.1421037347
101299.5153926894
101292.9254075856
101286.5877881468
101281.3550928682
101278.4781466606
101277.7944975287
101277.7747995502
101277.8049538711
101277.9886851861
101278.4290384576
101279.2974663537
101280.766796875
101283.0055738492
101286.1471865058
101290.2616373735
101295.3307975305
101301.2389861904
101307.788337515
101314.7367302402
101321.8455962789
101328.9261795422
101335.8771090111
101342.7004724555
101349.4723470363
101356.2340533786
101362.7504191282
101368.1506552144
101371.1686488908
101371.9301492609
101371.9708565667
101371.9269943946
101371.7890478852
101371.4163702658
101370.6771862958
101369.4088204706
101367.4476577671
101364.6473610834
101360.9065698555
101356.1936462656
101350.5630901278
101344.1588799077
101337.1977420703
101329.9269925478
101322.565253423
101315.2499195046
101308.0164786587
101300.8281103454
101293.6909061815
101286.9344443523
101281.586442793
101278.8719953945
101278.2987301772
101278.2863988497
101278.3126166003
101278.4626283381
101278.8204907771
101279.5243916451
101280.7195990266
101282.5577223458
101285.1773405962
101288.683764422
101293.1254905031
101298.4746876061
101304.6211631157
101311.3846704299
101318.5448592014
101325.8868044938
101333.2543218045
101340.5872430394
101347.9047159103
101355.1909413517
101362.1285053015
101367.7367074377
101370.7471039505
101371.469889348
101371.5072988333
101371.4728185681
101371.3636329945
101371.0653880009
101370.4696427058
101369.4388035581
101367.8273260557
101365.4924207185
101362.3136743661
101358.2134052904
101353.1753796182
101347.2589398436
101340.6008437951
101333.3945220864
101325.8459838282
101318.1219986476
101310.3162961092
101302.4655789647
101294.6702385291
101287.4034579285
101281.859988525
101279.2204401833
101278.7093885542
101278.6998796948
101278.7219447863
101278.8463133564
101279.1427581398
101279.7266546152
101280.7223287182
101282.2647233083
101284.4862775325
101287.5026046047
101291.3936061744
101296.1846334916
101301.8346625324
101308.2359713954
101315.2274163642
101322.6246797465
101330.2659531169
101338.0526604391
101345.9432009918
101353.8432453907
101361.3257267765
101367.270602577
101370.3695687832
101371.0889162627
101371.1259947587
101371.0984648129
101371.0109609724
101370.7679400606
101370.278561753
101369.424906831
101368.0782051594
101366.1051154008
101363.3817456906
101359.8091840322
101355.3296413965
101349.9419240065
101343.7103646541
101336.7574604079
101329.2364367502
101321.2929054284
101313.0359747403
101304.5535019779
101296.0406440252
101288.1344260034
101282.2364078849
101279.5462209273
101279.0536861895
101279.0441196039
101279.062399385
101279.1665423389
101279.4156545095
101279.907928974
101280.7508506867
101282.0641921256
101283.9709139534
101286.587031741
101290.0069904395
101294.2877090868
101299.4363672188
101305.405147887
101312.0950954284
101319.3739113967
101327.1093494788
101335.2024068827
101343.5805386529
101352.0884838864
101360.1973949358
101366.6361281259
101369.9806147549
101370.759756342
101370.8022411717
101370.7805159187
101370.7105575127
101370.5107301754
101370.1037911865
101369.3875932125
101368.2482750098
101366.5636499236
101364.2131634407
101361.0892917793
101357.1103243224
101352.2341800095
101346.4689086812
101339.8718565614
101332.5338137936
101324.5543409824
101316.0239894637
101307.0465400824
101297.8769334936
101289.2769578466
101282.8412121216
101279.9023478738
101279.357124788
101279.3425570247
101279.3566595863
101279.4429791598
101279.6525790368
101280.0708181407
101280.7916983448
101281.9218076802
101283.5738859321
101285.8597507808
101288.8791971516
101292.7072842858
101297.3836687442
101302.9059685254
101309.2288453239
101316.2736492777
101323.9511893802
101332.1849763203
101340.8997514587
101349.9135684377
101358.6444413664
101365.7157053176
101369.5150349575
101370.4567704527
101370.5165583089
101370.5000146933
101370.4456605831
101370.2820433514
101369.942563631
101369.3374785475
101368.3656074563
101366.9157384858
101364.8736439647
101362.1300815398
101358.5903850506
101354.1857932746
101348.883176981
101342.686948462
101335.6306633653
101327.7631204916
101319.14074487
101309.8556668772
101300.1754287725
101290.9063292511
101283.7651854384
101280.3367858235
101279.6402105916
101279.6122979066
101279.6219404029
101279.6915606192
101279.8659036801
101280.2208796178
101280.8397878872
101281.8182775776
101283.2595076763
101285.2692697226
101287.9476671648
101291.3794292018
101295.6253782688
101300.7159536697
101306.648045014
101313.3896468605
101320.8947595839
101329.1180409689
101337.9997166994
101347.3646336678
101356.6409211672
101364.4314865136
101368.9081945729
101370.1553617241
101370.2552966253
101370.243432627
101370.2033442043
101370.071396753
101369.7896092147
101369.2778387167
101368.4453871635
101367.190900033
101365.4073345439
101362.9873014246
101359.8299999762
101355.8500979289
101350.9858393048
101345.2017889569
101338.4851067571
101330.8392067399
101322.2830125475
101312.8804681438
101302.8715659425
101293.0238558703
101285.0705485265
101280.9054491565
101279.9220447434
101279.8641596268
101279.869556449
101279.9236953111
101280.065725755
101280.3646812881
101280.8952714618
101281.7443022778
101283.0065927307
101284.7816067852
101287.1672417462
101290.2527091228
101294.1120551847
101298.7983778083
101304.3397902561
101310.7412543772
101317.9940817183
101326.0842534639
101334.9762518249
101344.5249219468
101354.2209748124
101362.7411882536
101368.0876832195
101369.8253954712
101370.0091314405
101370.0020736139
101369.9748256064
101369.8707667268
101369.6394948044
101369.208239699
101368.4949044211
101367.406606141
101365.8432717135
101363.7010123243
101360.8770522172
101357.2765224187
101352.8187820581
101347.4400996633
101341.0927824134
101333.7436595202
101325.3770048606
101316.0217728257
101305.8663247406
101295.579100036
101286.7973852635
101281.6799799262
101280.2273114542
101280.104961585
101280.1063012628
101280.1467124183
101280.2592795555
101280.507914485
101280.9603019391
101281.6961288388
101282.8031866821
101284.3750115077
101286.5062285795
101289.2874799266
101292.8006179576
101297.1136878277
101302.2767993263
101308.3225659353
101315.2720269311
101323.1386378913
101331.9131234374
101341.4913656243
101351.4568718967
101360.6371834127
101366.9763425117
101369.4233963549
101369.7692476516
101369.7711452738
101369.7546022189
101369.6747531563
101369.4879699215
101369.1272077657
101368.5175092012
101367.573161653
101366.200435937
101364.2995719822
101361.7683024636
101358.5069660233
101354.4231601125
101349.434020837
101343.4670599276
101336.4614115461
101328.3721075543
101319.1931645716
101309.0528586772
101298.4904413029
101288.9562978542
101282.7422298815
101280.5945227003
101280.3400509266
101280.3362396752
101280.3649126865
101280.451181678
101280.6546899796
101281.0371291166
101281.672444564
101282.6425221867
101284.0355905749
101285.9426945106
101288.454177653
101291.6560948958
101295.6258724013
101300.4285346568
101306.1166025671
101312.7336144646
101320.315277666
101328.8765753836
101338.3560015683
101348.4385718664
101358.1474396282
101365.5064011149
101368.8856652582
101369.5247241855
101369.5478879653
101369.5392611445
101369.4800750704
101369.3322555965
101369.0334965163
101368.5149548582
101367.696985592
101366.4915115532
101364.8030434773
101362.5312720038
101359.5748405446
101355.8345620523
101351.21526509
101345.6276219252
101338.990707028
101331.2362475573
101322.327239475
101312.3341554295
101301.6623611786
101291.5223285951
101284.1687241876
101281.0824403463
101280.5769726163
101280.5619257074
101280.5806628738
101280.6440232661
101280.8075193973
101281.1273104806
101281.6726652918
101282.5204419482
101283.7541699387
101285.4613612622
101287.7311139088
101290.6513284727
101294.3049485483
101298.7667870089
101304.1033036332
101310.374426002
101317.6329357836
101325.9143444036
101335.1957642164
101345.2575262115
101355.3300480409
101363.6365199367
101368.1315625874
101369.254484559
101369.330315324
101369.3271717084
101369.284849028
101369.1708800347
101368.926558446
101368.4885975409
101367.7825702232
101366.7254224871
101365.2258758941
101363.1864032149
101360.5059118213
101357.0818056739
101352.8115100813
101347.5948190159
101341.336791802
101333.9513338234
101325.3759147558
101315.6310203283
101304.9995713554
101294.4382216468
101286.0106164201
101281.7703295167
101280.8341907718
101280.7831971646
101280.7951990677
101280.8391581098
101280.9676064752
101281.2315336081
101281.6961708683
101282.4339771947
101283.5243103657
101285.0513334081
101287.1023895582
101289.7656985672
101293.1271212288
101297.2676862074
101302.2633718037
101308.1856460518
101315.0998874309
101323.0580584628
101332.0695030929
101341.9959181307
101352.2616393693
101361.3641031454
101367.0745172672
101368.9194042535
101369.1154418454
101369.1175561166
101369.0884699888
101369.0033384035
101368.8065314939
101368.4398653691
101367.8334771037
101366.9088513896
101365.5787887988
101363.7489865714
101361.3198185469
101358.1875374853
101354.2456255928
101349.3873126594
101343.5082050021
101336.5090525085
101328.3074646247
101318.8835360545
101308.416727373
101297.6253101886
101288.2799587108
101282.7502325188
101281.1442517901
101281.0017985983
101281.0086438774
101281.0369084491
101281.1352825665
101281.3497153736
101281.7420253619
101282.380623658
101283.3411158033
101284.7045309033
101286.5561758143
101288.983604594
101292.0738929559
101295.911849489
101300.5797530383
101306.1569109231
101312.7177290327
101320.3269023726
101329.019207402
101338.7213823378
101349.0244730103
101358.7253917346
101365.6407125948
101368.4570053619
101368.8973013634
101368.9094398398
101368.8909057507
101368.8298784422
101368.6740751464
101368.3703568886
101367.8528268426
101367.0471447739
101365.8700568366
101364.2306962296
101362.0316220852
101359.1694478097
101355.5361300672
101351.0213776809
101345.5146951147
101338.9074846945
101331.1026180268
101322.0490272031
101311.8432588983
101300.9973279589
101290.9471928299
101284.1064528324
101281.5626648884
101281.2229042782
101281.220930772
101281.2368563027
101281.3101427095
101281.4812101742
101281.8089541543
101282.3580117149
101283.2005485307
101284.414645682
101286.0834082159
101288.2930922113
101291.1308977881
101294.6837599837
101299.037924029
101304.2777930748
101310.4841100221
101317.7311897984
101326.0730234644
101335.4859263257
101345.6958995635
101355.7855121502
101363.7893302099
101367.7844014365
101368.6569858299
101368.7038979364
101368.6922889514
101368.6510348601
101368.5302523062
101368.2818413978
101367.8435076486
101367.1448215832
101366.1063436573
101364.6407161261
101362.6531029737
101360.0415026274
101356.6980210047
101352.5109472863
101347.3661222661
101341.148651498
101333.7509664038
101325.0987125637
101315.2243814858
101304.4718271199
101293.9491414106
101285.8940862692
101282.1706924496
101281.4590781684
101281.4310827711
101281.4388029276
101281.4914258745
101281.6249388014
101281.8954267921
101282.363816499
101283.0991066098
101284.1765455691
101285.6769023981
101287.6847310545
101290.2866867873
101293.5707333882
101297.6254430046
101302.5383978015
101308.3947483519
101315.2758630949
101323.249541361
101332.328350377
101342.3426133723
101352.6236908395
101361.5215095534
101366.8055770695
101368.3563872194
101368.4965327789
101368.493719878
101368.4716335998
101368.3845893594
101368.1871531734
101367.8185664361
101367.211326169
101366.2900720938
101364.9725749283
101363.1697627111
101360.7854847355
101357.7160701602
101353.8501894904
101349.0698836679
101343.2537564661
101336.2839748199
101328.0653897342
101318.5803999981
101308.0368086429
101297.2620112653
101288.1898548601
101283.1103206698
101281.7519716143
101281.6171830799
101281.5639061763
101281.5443805652
101281.5816631048
101281.7337964259
101282.0818352695
101282.7104101815
101283.7042784598
101285.1411970548
101287.0875961732
101289.5988168853
101292.7230653818
101296.5091904118
101301.0171760371
101306.3272970129
101312.5422406841
101319.7823065588
101328.1446137748
101337.6047938297
101347.7769698848
101357.2693439238
101363.8997259756
101366.8011112986
101367.8334942912
101368.8684664719
101369.8434067793
101370.9210501265
101372.1210543765
101373.4047128291
101374.6707876776
101375.7580430795
101376.4448580684
101376.5589327828
101375.9264604939
101374.2952452934
101371.4220230647
101367.1906426718
101361.4732276422
101354.1169898958
101345.0084910278
101334.2228008736
101322.1751664326
101309.722215096
101298.7236474583
101291.4457238573
101287.7404312018
101285.9133947271
101284.9719624964
101284.7188355525
101284.7751380011
101284.9714126552
101285.3084578948
101285.8538217466
101286.7045021593
101287.9400919448
101289.6296474381
101291.8422990143
101294.6586624413
101298.1645182097
101302.4348984927
101307.5359293212
101313.5474549866
101320.5777919852
101328.7131637697
101337.8563565853
101347.5784583064
101357.0450530198
101364.7298543326
101369.4041498282
101370.9991210829
101372.0020511554
101372.8391847375
101373.6620933582
101374.5125653735
101375.4009021392
101376.3019908137
101377.1419580336
101377.7934745948
101378.0639825418
101377.7567612174
101376.6373018809
101374.3961309344
101370.8443602637
101365.8198274636
101359.1868833347
101350.8881312277
101340.9439345649
101329.6042973357
101317.5312988623
101306.0170094402
101297.2095442179
101292.2119283716
101289.7153134576
101288.3885761705
101287.815725848
101287.823311197
101288.1012820077
101288.5261575446
101289.132986375
101289.9837632757
101291.134922607
101292.6592185399
101294.6313919741
101297.1420849586
101300.2934286993
101304.1876135109
101308.9198378285
101314.5829596821
101321.2736932588
101329.0693370455
101337.9219594203
101347.5334419985
101357.2264911871
101365.9001475103
101372.1350718162
101374.9418911436
101376.1765702373
101377.1347144995
101377.8683672631
101378.4933214223
101379.0387786353
101379.5153393922
101379.9300275314
101380.2460356326
101380.3755475905
101380.1398317094
101379.2735862062
101377.5066768568
101374.6085387749
101370.3641638336
101364.5910747783
101357.1722153151
101348.095310983
101337.5113779059
101325.9059208816
101314.1834364347
101304.0811626741
101297.5545102653
101294.1989292639
101292.3616417241
101291.3512783955
101291.0690551131
101291.237849109
101291.6784424965
101292.2990542641
101293.1510076938
101294.255238261
101295.6837411886
101297.5116502856
101299.8326780476
101302.7449795062
101306.3419148518
101310.711176957
101315.9431126776
101322.1400963449
101329.4139688666
101337.8155634011
101347.1996300931
101357.0811619367
101366.5462969724
101374.3137893118
101378.7094792593
101380.7706136413
101382.2649840949
101383.1989589671
101383.807353798
101384.1788074564
101384.3122171548
101384.2723956248
101384.1524104575
101383.9100408898
101383.4439324236
101382.571529354
101381.0467487155
101378.5926079575
101374.9464948746
101369.905742236
101363.3470632263
101355.2298897492
101345.5707318054
101334.6332072987
101323.1428309256
101312.2805682348
101304.0800693802
101299.5438020053
101296.9807399819
101295.3339851641
101294.583077131
101294.4043756837
101294.6851619526
101295.3222571436
101296.2097438028
101297.3398528648
101298.6924813296
101300.3429674153
101302.4234809474
101305.0934111973
101308.4868721171
101312.6840364471
101317.7153950532
101323.5972000309
101330.3795343892
101338.1583054583
101346.9303155751
101356.457519825
101366.0604294784
101375.0932527071
101381.3800974003
101384.9374499644
101387.5502699778
101389.193859764
101390.1745149253
101390.6926731834
101390.7047477452
101390.3315832809
101389.8041957433
101389.0793906335
101388.1527014999
101386.9619470609
101385.3641428789
101383.1372617566
101379.9885771027
101375.6058146321
101369.732909337
101362.2559685678
101353.2596919233
101343.0299080142
101332.1162627399
101321.4241726131
101312.2645905976
101306.2868007432
101302.9816784562
101300.231525836
101298.5036121882
101297.6766958089
101297.5676532861
101298.1385517317
101299.1558452692
101300.333000835
101301.7004804788
101303.3243528697
101305.2912173784
101307.7129497782
101310.7341565445
101314.5152168293
101319.1890836327
101324.8423299294
101331.5259080952
101339.231514054
101348.0295345311
101356.7486980708
101370.1703024158
)
;

boundaryField
{
    inlet
    {
        type            uniformFixedValue;
        uniformValue    sine;
        uniformValueCoeffs
        {
            frequency       constant 3000;
            scale           constant 50;
            level           constant 101325;
        }
        value           uniform 101325;
    }
    outlet
    {
        type            characteristicVelocityInletOutletPressure;
        UName           U;
        pName           p;
        TName           T;
        phiName         phi;
        rhoName         rho;
        U               (0 0 0);
        p               101325;
        T               300;
        value           uniform 101370.1703024158;
    }
    frontAndBack
    {
        type            empty;
    }
}


// ************************************************************************* //
