/*--------------------------------*- C++ -*----------------------------------*\
| =========                 |                                                 |
| \\      /  F ield         | OpenFOAM: The Open Source CFD Toolbox           |
|  \\    /   O peration     | Version:  v2012                                 |
|   \\  /    A nd           | Website:  www.openfoam.com                      |
|    \\/     M anipulation  |                                                 |
\*---------------------------------------------------------------------------*/
FoamFile
{
    version     2.0;
    format      ascii;
    class       volScalarField;
    location    "0.009";
    object      pMean;
}
// * * * * * * * * * * * * * * * * * * * * * * * * * * * * * * * * * * * * * //

dimensions      [1 -1 -2 0 0 0 0];


internalField   nonuniform List<scalar> 
1000
(
101325.0326430015
101325.0039831669
101325.0194555616
101325.0341315338
101325.0547482769
101325.0796694142
101325.107248365
101325.1402163697
101325.1753762192
101325.2136933845
101325.2530286892
101325.2923570059
101325.3315413599
101325.3702327052
101325.4078136433
101325.443518611
101325.4765096445
101325.5061897769
101325.5318846497
101325.5533251676
101325.5699621202
101325.5816628966
101325.5880470715
101325.5891307327
101325.5847457557
101325.5751083123
101325.5602733075
101325.5406432365
101325.5163936957
101325.4879011848
101325.4552973982
101325.4192985935
101325.3811625157
101325.3425134981
101325.3038063262
101325.2652460155
101325.227018112
101325.1895831455
101325.1535578163
101325.11973323
101325.0889215034
101325.0618851118
101325.0392252644
101325.0213826893
101325.008645429
101325.0012023131
101324.9991578077
101325.0025366588
101325.0112750827
101325.025215905
101325.04417012
101325.0679632181
101325.0964474117
101325.1292997528
101325.1655731566
101325.2035520321
101325.2418785687
101325.2801951312
101325.3183739521
101325.3562924709
101325.3934856165
101325.4295332902
101325.4636364975
101325.495120296
101325.5230737086
101325.5468850819
101325.5658754862
101325.5797633532
101325.5882218085
101325.5912797184
101325.5888501091
101325.5811284851
101325.5681233564
101325.5500545028
101325.5268877557
101325.4988153779
101325.4660858618
101325.4299525233
101325.3921802348
101325.3541820046
101325.3161511158
101325.2782381775
101325.2405742167
101325.2034790313
101325.1673932982
101325.1329301651
101325.1008034967
101325.0718144052
101325.0467333314
101325.026259812
101325.0109105948
101325.0010348566
101324.9967677698
101324.998126863
101325.005002403
101325.0172954169
101325.0349061882
101325.0578307692
101325.0859764435
101325.1188717545
101325.155094161
101325.1926844874
101325.230466437
101325.2682464869
101325.3059015257
101325.3433572832
101325.3802420662
101325.4162503093
101325.4507327663
101325.4831260256
101325.5125756071
101325.5384151757
101325.5598241394
101325.5763106291
101325.5873541076
101325.5928336901
101325.5925954017
101325.5868057825
101325.575460628
101325.5587298551
101325.5365263239
101325.5090140671
101325.4765663961
101325.4406977841
101325.4033344609
101325.3657984579
101325.3282306706
101325.2907646864
101325.2534848867
101325.2166603348
101325.1806172774
101325.1458719424
101325.1130045013
101325.082754906
101325.0558580138
101325.0331006138
101325.0151303786
101325.0025097264
101324.995556085
101324.9944638292
101324.9992173835
101325.0097956569
101325.0261234339
101325.0482185195
101325.075925437
101325.1086167041
101325.1445936208
101325.1818161552
101325.2191835832
101325.2565563426
101325.2938196707
101325.3309274778
101325.3675653685
101325.4034980201
101325.438177037
101325.4711311099
101325.5015969673
101325.528943103
101325.5523369291
101325.5711906473
101325.5848399625
101325.5929768398
101325.5952747162
101325.5917471166
101325.5822995758
101325.567042322
101325.5458845357
101325.5190300557
101325.4869837304
101325.4514407097
101325.4144367062
101325.3772678468
101325.3400655318
101325.302951851
101325.2659789534
101325.2293791528
101325.1934058258
101325.1585000005
101325.1251440786
101325.0939995046
101325.06573456
101325.0411307314
101325.0208765194
101325.0056585384
101324.995955828
101324.9921641228
101324.9944527927
101325.0029609169
101325.0177084986
101325.0387595708
101325.0658958083
101325.0983111091
101325.1340455604
101325.1709583165
101325.2079912285
101325.2450352133
101325.2819821942
101325.3188056862
101325.3552346001
101325.3910822391
101325.4258761445
101325.4592187461
101325.490430435
101325.5189357709
101325.5439348216
101325.5648137109
101325.5808363261
101325.5915567394
101325.5964874342
101325.5954594487
101325.5882234834
101325.5747652027
101325.5549330091
101325.528930191
101325.4973780746
101325.4621616349
101325.4254630887
101325.3885975977
101325.3516974243
101325.3148746212
101325.2781604507
101325.241757215
101325.2058663128
101325.1708686979
101325.1371698799
101325.1053588689
101325.0760329993
101325.0499355296
101325.0277509917
101325.010220729
101324.9979303842
101324.9914386949
101324.9911004717
101324.9972508197
101325.010073357
101325.029743165
101325.0560497905
101325.088045598
101325.1235113232
101325.1601554171
101325.1969121768
101325.2336823446
101325.2703671129
101325.3069529417
101325.3432020514
101325.3789636886
101325.4138269153
101325.4474522818
101325.4792349988
101325.5086558839
101325.5349663702
101325.5575584021
101325.5756716258
101325.5887746145
101325.5962609074
101325.5977951306
101325.5929658398
101325.5815945925
101325.5634131249
101325.5385584846
101325.507702252
101325.4728804647
101325.4364664239
101325.3998601447
101325.3632180883
101325.3266432657
101325.2901531848
101325.2539242096
101325.2181200137
101325.1830727741
101325.1491265324
101325.1168047385
101325.0866406074
101325.0593255521
101325.0355184716
101325.0159736952
101325.0013389509
101324.9922851289
101324.9893242203
101324.992974265
101325.0036037439
101325.0215419897
101325.0466630872
101325.0779763082
101325.1130763243
101325.1494642871
101325.1859823476
101325.2225156983
101325.2589756075
101325.2953551081
101325.3314470549
101325.3671259972
101325.4020313315
101325.4358691261
101325.4681014534
101325.4982600746
101325.5256525139
101325.5496925934
101325.5696259956
101325.5848717973
101325.5947459294
101325.5987822732
101325.5964270578
101325.5873364043
101325.571103287
101325.547742042
101325.517875672
101325.4835926804
101325.4474746997
101325.4110999062
101325.3746865124
101325.3383304128
101325.302039643
101325.2659680505
101325.230251343
101325.1951799158
101325.161050587
101325.128328224
101325.0974901555
101325.0691729074
101325.0440006326
101325.0227154873
101325.0059953169
101324.9945807488
101324.9891008565
101324.9902213174
101324.9984807016
101325.0143725664
101325.037918556
101325.0682126317
101325.1027911237
101325.1389098658
101325.1752115416
101325.2115303495
101325.2477880391
101325.2839820009
101325.3199313559
101325.3555291592
101325.3904583093
101325.4244603182
101325.4570547939
101325.487817781
101325.516112726
101325.5413820292
101325.5628938121
101325.5800435981
101325.5921036952
101325.598513138
101325.5986093614
101325.5919060291
101325.5778602394
101325.5563287296
101325.5277904428
101325.4942527587
101325.4584764852
101325.4223184108
101325.3861137233
101325.3499577202
101325.3138501815
101325.2779248583
101325.2422961248
101325.2072184608
101325.1729515156
101325.139909438
101325.1085211381
101325.0793703188
101325.0530435606
101325.030257293
101325.0116971999
101324.9981395558
101324.990292352
101324.9889273117
101324.9947209505
101325.0083181906
101325.0299248436
101325.0588356565
101325.0926837125
101325.128490795
101325.1645868641
101325.2007051011
101325.2367737521
101325.2727938417
101325.3086077373
101325.3441241838
101325.3790617382
101325.4131915804
101325.4460822024
101325.47734824
101325.5064045912
101325.5327246166
101325.5556067626
101325.5744420288
101325.5884834424
101325.5971082367
101325.5995784761
101325.5952973512
101325.5836039727
101325.5641897637
101325.5373206164
101325.5047860529
101325.4694396612
101325.4334973296
101325.3974881474
101325.3615202523
101325.3255859488
101325.2898013356
101325.2542629622
101325.2191948702
101325.184825568
101325.1515256665
101325.1196828564
101325.0898322071
101325.0625225282
101325.0384379153
101325.0182564705
101325.0027653183
101324.9927189853
101324.9889575235
101324.99225897
101325.0033947593
101325.0227615584
101325.0499306987
101325.0827872454
101325.118200489
101325.1540910161
101325.1900174087
101325.2259045935
101325.2617570098
101325.2974377606
101325.3328691747
101325.3678004802
101325.40202812
101325.4351620707
101325.4668512563
101325.4965563503
101325.523781988
101325.5478602031
101325.5681893319
101325.5840208002
101325.5946966946
101325.5994324138
101325.5975528094
101325.5883037988
101325.5712237183
101325.546335238
101325.5151005634
101325.4803259788
101325.4446159686
101325.4087936842
101325.3730063612
101325.3372396654
101325.3015942825
101325.26615104
101325.2311073781
101325.1966655119
101325.1631584817
101325.1309380052
101325.100495205
101325.0723426694
101325.0471290986
101325.02551516
101325.0082820456
101324.9962051016
101324.9901624953
101324.9910003948
101324.9995867835
101325.0164928884
101325.0415948897
101325.073155228
101325.10803961
101325.1437106156
101325.179451049
101325.2151611282
101325.2508483882
101325.2863947657
101325.3217350403
101325.3566452996
101325.390944003
101325.4242771511
101325.4563238392
101325.4865855404
101325.5145975907
101325.5397259364
101325.5613842561
101325.5788340101
101325.5914019823
101325.5982797104
101325.5987408881
101325.5919641426
101325.5773591756
101325.5547107825
101325.5250899374
101325.4910904826
101325.4556571429
101325.4200175802
101325.3844058759
101325.3488037638
101325.3132985134
101325.2779566654
101325.2429522764
101325.2084645153
101325.1747935177
101325.1422592417
101325.1113131964
101325.0824336135
101325.0562330313
101325.0333485382
101325.0145439682
101325.0005974737
101324.9924023481
101324.9908450615
101324.9968610045
101325.0111662196
101325.0339298211
101325.0638663405
101325.0980238117
101325.1334374646
101325.1689952008
101325.2045308846
101325.2400535466
101325.2754624288
101325.3107040015
101325.34557801
101325.3799230884
101325.4134166453
101325.4457650507
101325.4765063441
101325.5052050263
101325.5312607194
101325.5541068829
101325.5730228042
101325.5873339348
101325.5962248075
101325.5989395343
101325.5946128897
101325.5825551607
101325.5623417952
101325.5346386407
101325.5016758828
101325.466605399
101325.431151096
101325.3957112837
101325.3602722324
101325.3249094955
101325.2896762673
101325.2547258071
101325.220216559
101325.1864195415
101325.1536260571
101325.1222517824
101325.0927424692
101325.0656749147
101325.0416591243
101325.0214343136
101325.0057690796
101324.9955548803
101324.9916971709
101324.9951727476
101325.0068087899
101325.0270293736
101325.055019655
101325.0881886833
101325.1232692738
101325.1586431328
101325.1940063801
101325.2293642028
101325.2646316484
101325.2997661428
101325.3345888048
101325.3689568899
101325.4025758978
101325.435177095
101325.4663316673
101325.4956319304
101325.5225100178
101325.5464218666
101325.566669351
101325.5825861584
101325.5933618006
101325.5982271584
101325.5962926851
101325.5867974155
101325.5691471544
101325.5436295712
101325.512007318
101325.4774423846
101325.4421888249
101325.4069179831
101325.371641112
101325.3364236594
101325.3013065056
101325.2664238939
101325.231915725
101325.1980264422
101325.1650215059
101325.1332836712
101325.1032281033
101325.0753968921
101325.0503708105
101325.0288604766
101325.0116161348
101324.9995161905
101324.9934683723
101324.9944703971
101325.0034276565
101325.0209702762
101325.046724863
101325.0785939619
101325.1132119084
101325.1483905497
101325.1835832528
101325.2187754769
101325.2538975278
101325.288916299
101325.3236732409
101325.3580421781
101325.3917548911
101325.4245649865
101325.4560747432
101325.4859023252
101325.513511631
101325.5383820983
101325.5598412216
101325.577237322
101325.5897729187
101325.5966780051
101325.5970535723
101325.5900924292
101325.5750714964
101325.5519534981
101325.5219907989
101325.4881394917
101325.4531263932
101325.4180230912
101325.3829076696
101325.3478384719
101325.3128445044
101325.2780429092
101325.243556524
101325.2096054077
101325.1764314609
101325.1443867197
101325.113857889
101325.0853529456
101325.0594233274
101325.0367479358
101325.0180539524
101325.0041979287
101324.9960788186
101324.9946983099
101325.0010124889
101325.0158066133
101325.0390900528
101325.0693236729
101325.1032830504
101325.1382350646
101325.1732582413
101325.2082844488
101325.2432572371
101325.2781523517
101325.3128296895
101325.3471791097
101325.3809560719
101325.4139356042
101325.4457483913
101325.47603767
101325.5042974675
101325.530031606
101325.552594661
101325.5713536725
101325.5855298359
101325.5943605467
101325.5969493769
101325.5924621458
101325.5800849746
101325.559518118
101325.5315191961
101325.4986511961
101325.4639585661
101325.4290250711
101325.3940704688
101325.3591520054
101325.3242877065
101325.2895791458
101325.255133396
101325.2211479913
101325.1878429279
101325.1555417851
101325.1246041152
101325.0955053057
101325.068767088
101325.0450358007
101325.0250117943
101325.0095246902
101324.9994560668
101324.9957995839
101324.999539008
101325.0115694145
101325.0322107376
101325.0604812109
101325.0935186176
101325.1281773228
101325.1630292407
101325.1978893559
101325.2327096774
101325.2674737677
101325.302058867
101325.336369773
101325.3701841293
101325.4032969779
101325.4353658234
101325.466057595
101325.4948954753
101325.5214075759
101325.5449766451
101325.5649908215
101325.5806939398
101325.5913367908
101325.596034361
101325.5939402173
101325.5841801002
101325.5662549047
101325.5404825658
101325.5089083986
101325.4746710864
101325.4399168435
101325.4051216112
101325.3703573916
101325.335633581
101325.3010366286
101325.2666573376
101325.2326689453
101325.1992674814
101325.1667480082
101325.1354454966
101325.1058029697
101325.0783155652
101325.0536125367
101325.0323605467
101325.015361419
101325.0035011025
101324.9977239545
101324.9990086596
101325.0083628036
101325.0263149072
101325.0523619677
101325.0841821625
101325.1184452563
101325.1531112357
101325.1877806347
101325.2223736623
101325.2568737247
101325.2911645065
101325.3251897516
101325.3587564818
101325.3917139044
101325.4237944081
101325.4547493988
101325.4840963624
101325.5113936217
101325.5360192846
101325.5573003723
101325.5744205055
101325.5865597624
101325.592671276
101325.5920406443
101325.5839182716
101325.5674760663
101325.542853158
101325.5119287863
101325.4775013247
101325.4422267357
101325.4076371036
101325.3737638789
101325.3406964292
101325.3088453636
101325.2785505885
101325.2496367798
101325.2231705834
101325.1987585683
101325.1771361751
101325.1578402171
101325.1418025161
101325.1291280901
101325.1198978426
101325.114532293
101325.1136520048
101325.1173398439
101325.1268710424
101325.1421353972
101325.1662657671
101325.1962444011
101325.2322589064
101325.2696665167
101325.3073209548
101325.3454407849
101325.3829675418
101325.4201357354
101325.4569763307
101325.4934290556
101325.5291975204
101325.5652307421
101325.600132217
101325.6339227161
101325.6657453619
101325.6959120316
101325.7239369786
101325.7487021771
101325.769683812
101325.7850870972
101325.7959134636
101325.7998744313
101325.7965052587
101325.7860427701
101325.7675251832
101325.7426549676
101325.7124468712
101325.6793243159
101325.6469288432
101325.6147322669
101325.5833114012
101325.5530147481
101325.5241602062
101325.4965473055
101325.4715318463
101325.4484689234
101325.4278163548
101325.4093611168
101325.3937528868
101325.3818688515
101325.3733285391
101325.3688420242
101325.3675321079
101325.3721310447
101325.38177344
101325.3976871024
101325.4204103999
101325.4521241953
101325.4890431116
101325.5292721294
101325.5690912485
101325.6098280334
101325.6501980354
101325.6899184542
101325.7295022515
101325.7686460483
101325.8070249656
101325.8453337054
101325.8832922746
101325.920280039
101325.9554123912
101325.9883477888
101326.0197532817
101326.0481810678
101326.0732067315
101326.0920384154
101326.1069776456
101326.1155526553
101326.1175744397
101326.1109645211
101326.1000760929
101326.0803887643
101326.0557887305
101326.0265766363
101325.9970242073
101325.9681455541
101325.9392027911
101325.9117310547
101325.8855182446
101325.8602527145
101325.8368034828
101325.8161677682
101325.797641948
101325.7807897696
101325.7662065656
101325.7553415313
101325.7480671073
101325.7446211795
101325.7444293979
101325.7491574475
101325.7599877861
101325.7771431569
101325.7991978656
101325.8322331631
101325.8703414828
101325.9139265132
101325.956940124
101325.9999018899
101326.0435855562
101326.0858497962
101326.128257436
101326.1705079245
101326.211502498
101326.2515729487
101326.2932265778
101326.3331824963
101326.3709503872
101326.4069477814
101326.4414398246
101326.4737663554
101326.5024615531
101326.5266950318
101326.5438000994
101326.5577187921
101326.5643082818
101326.5632127485
101326.5560073044
101326.5432030158
101326.5242764892
101326.4996168861
101326.4735044311
101326.4484246471
101326.4231526938
101326.3993241697
101326.3770225127
101326.3552349498
101326.3343726191
101326.3171230887
101326.3013945792
101326.2868666368
101326.274533583
101326.26522699
101326.2596502744
101326.2574515297
101326.2600253136
101326.2634484229
101326.2765445137
101326.2939781873
101326.3191149193
101326.3491914989
101326.3920684512
101326.4378187732
101326.4846654701
101326.530922694
101326.5774607404
101326.6231566728
101326.6681602136
101326.7133966289
101326.7572634126
101326.8000954842
101326.8427838844
101326.8863239935
101326.9278041361
101326.9666634965
101327.003914723
101327.039397387
101327.0717331585
101327.1008658378
101327.1218128057
101327.1401887198
101327.1516500472
101327.1569035099
101327.151590396
101327.1463892386
101327.1316628144
101327.1112353899
101327.0891598878
101327.0674353668
101327.0470578112
101327.0269219641
101327.0095462248
101326.9933846374
101326.9767826189
101326.9615181055
101326.9510455085
101326.9415370265
101326.9310877187
101326.9241905758
101326.9211157217
101326.9211798899
101326.9252184595
101326.9322237232
101326.9442480003
101326.9642855771
101326.9900745953
101327.021502149
101327.0642028212
101327.1137440034
101327.1662321822
101327.2153273839
101327.2659483921
101327.3157574738
101327.3633636709
101327.4111650544
101327.458858956
101327.5044529289
101327.5482607699
101327.5950738486
101327.6395441751
101327.6816036273
101327.7221242296
101327.7603615152
101327.7963171514
101327.8283764511
101327.8553512618
101327.8766952198
101327.8933381548
101327.9006424798
101327.9043915533
101327.8981466683
)
;

boundaryField
{
    inlet
    {
        type            calculated;
        value           uniform 101325.0000000688;
    }
    outlet
    {
        type            calculated;
        value           uniform 101327.8981466683;
    }
    frontAndBack
    {
        type            empty;
    }
}


// ************************************************************************* //
