/*--------------------------------*- C++ -*----------------------------------*\
| =========                 |                                                 |
| \\      /  F ield         | OpenFOAM: The Open Source CFD Toolbox           |
|  \\    /   O peration     | Version:  v2012                                 |
|   \\  /    A nd           | Website:  www.openfoam.com                      |
|    \\/     M anipulation  |                                                 |
\*---------------------------------------------------------------------------*/
FoamFile
{
    version     2.0;
    format      ascii;
    class       volScalarField;
    location    "0.009";
    object      rho;
}
// * * * * * * * * * * * * * * * * * * * * * * * * * * * * * * * * * * * * * //

dimensions      [1 -3 0 0 0 0 0];


internalField   nonuniform List<scalar> 
1000
(
1.176304266343791
1.176327974293657
1.176274127797849
1.17623056885502
1.176179514163406
1.176132819549138
1.176093258838125
1.176060002675323
1.176031266290537
1.176010964154421
1.176004403166261
1.176003834275949
1.176005899834474
1.17601331519956
1.17602878392848
1.176052962091478
1.176084988443184
1.176123339378065
1.176166704886259
1.176214187620827
1.17626508401123
1.176318655356763
1.17637403225959
1.176430204466038
1.176486048517977
1.17654040681054
1.176592259004382
1.176641011658542
1.176686757087546
1.1767299286598
1.176769345050983
1.176798884958235
1.176811405336237
1.176812864634235
1.176812420855239
1.176810631774974
1.17680527661114
1.176794312000299
1.176775780061778
1.176748606689485
1.176712943351662
1.176670070479578
1.176621820037913
1.176569919642159
1.176515663744873
1.176459981646575
1.176403675148313
1.176347594694207
1.176292648463487
1.176239587016391
1.176188633455409
1.176139422785799
1.176092137522081
1.176050522618786
1.176023564419939
1.176015042129786
1.176014502828495
1.176014739079258
1.176016604503028
1.176021236431734
1.176030561409433
1.176046325192138
1.176069931565502
1.176102012878629
1.176142220012878
1.176189274692388
1.17624131682432
1.176296403327351
1.176352901412703
1.176409605054659
1.176465656749834
1.17652051469797
1.176574060771072
1.176626632409008
1.176678571260002
1.176728762629086
1.176771825926715
1.176797984920567
1.176805529748663
1.176806014916987
1.176805553876954
1.176804120456465
1.176800176298485
1.176792342855127
1.176778978422371
1.176758605353074
1.17673017649329
1.17669337779709
1.176648774097736
1.176597737020764
1.176542180309933
1.176484179872384
1.176425570050269
1.176367624681353
1.17631091424879
1.176255348568045
1.176200397198445
1.176145749358537
1.176093193330734
1.17604979943445
1.176025941128282
1.176020271641599
1.176020108277002
1.176020358331325
1.176021881998566
1.176025533827446
1.176032735654902
1.176044920703208
1.17606348662185
1.176089539458262
1.176123659521914
1.176165696195499
1.176214689863342
1.176268999418366
1.176326616868263
1.176385563824031
1.176444275080814
1.176501910122279
1.17655848632254
1.176614634523371
1.176670697349268
1.176724725003184
1.17676949802238
1.176794519744688
1.176800833188513
1.176801170675131
1.176800807012969
1.176799663316427
1.176796573514895
1.176790445076353
1.176779929264871
1.176763669520136
1.17674045247256
1.176709437572004
1.176670362256798
1.176623678078138
1.176570578461163
1.176512860067026
1.17645257331034
1.176391530834385
1.176330871884841
1.176270890760885
1.176211282173301
1.176152096666133
1.17609606739764
1.176051717333318
1.176029206644446
1.17602445257516
1.176024350302918
1.176024567711465
1.176025811740756
1.176028779470378
1.176034616875333
1.176044528634922
1.17605977198624
1.176081496055662
1.176110574011556
1.176147407799621
1.176191766336945
1.176242735526001
1.176298820382604
1.176358193462778
1.176419072440581
1.17648016218959
1.176540963812117
1.176601636088162
1.176662048038714
1.176719568010201
1.17676606533109
1.1767910240941
1.176797016561518
1.176797326701948
1.176797040817125
1.176796135563374
1.176793662858647
1.176788723632068
1.176780177104525
1.176766816553547
1.176747458055409
1.176721103144519
1.176687107564867
1.176645336451898
1.176596281503518
1.176541076284683
1.176481324314909
1.176418733516318
1.176354686568466
1.176289960603105
1.176224859931533
1.176160217040607
1.176099955976261
1.176053984979674
1.176032095436605
1.176027857299565
1.176027778427976
1.176027961388992
1.176028992750261
1.176031451135734
1.176036293338655
1.176044550372163
1.176057341273324
1.176075764277968
1.176100778032082
1.176133044964445
1.176172775061977
1.176219627832831
1.176272709676812
1.176330684035474
1.176392022269283
1.176455382491649
1.176519947221403
1.176585371453555
1.176650873033553
1.176712911149322
1.176762199901612
1.176787893011008
1.176793856974635
1.176794164364733
1.176793936096063
1.176793210591796
1.1767911957302
1.176787138362541
1.176780060829912
1.176768895494883
1.176752536788799
1.1767299574393
1.176700337216543
1.176663196768175
1.176618525910382
1.176566857710986
1.176509207498218
1.176446845432338
1.176380978621304
1.176312511573513
1.176242172654054
1.176171580088411
1.176106016572043
1.176057105447871
1.176034795984397
1.176030711406678
1.176030632052303
1.176030783615274
1.176031647239697
1.176033713091582
1.176037795470627
1.17604478573249
1.176055677116925
1.176071489273707
1.176093184214551
1.176121545012225
1.176157043479805
1.17619973889404
1.176249234426363
1.176304709174551
1.176365065779684
1.176429207376886
1.176496312822984
1.176565780414989
1.176636322687226
1.176703554877595
1.176756938320288
1.176784667049492
1.176791126759792
1.176791478970928
1.176791298825559
1.176790718783117
1.176789062027219
1.176785688144533
1.176779750240272
1.176770304291567
1.17675633722645
1.176736849467146
1.17671094941987
1.176677959441235
1.176637530387445
1.176589728695045
1.176535029491806
1.176474185197179
1.176408020974884
1.176337287325897
1.176262844505182
1.17618680634202
1.176115490039541
1.176062119784139
1.176037748104076
1.17603322658911
1.176033105760317
1.176033222682447
1.176033938496843
1.176035676673871
1.176039145080154
1.17604512325921
1.176054495119552
1.176068195562874
1.176087151809589
1.176112191329528
1.176143936405573
1.176182715672756
1.17622850909937
1.176280940400401
1.176339357048861
1.176403019124147
1.176471292058094
1.176543551524108
1.176618288665393
1.17669067801796
1.176749305974067
1.176780805820752
1.176788613581714
1.176789109251603
1.176788972068774
1.176788521400037
1.176787164856006
1.176784350266606
1.17677933358154
1.176771275915588
1.176759255197546
1.176742324322907
1.176719577476846
1.176690229637759
1.176653710494382
1.176609745093525
1.176558369684554
1.176499862109081
1.176434626571144
1.17636313050019
1.176286137408776
1.176205865460873
1.176129000800151
1.176069781049812
1.176041349773517
1.176035573115859
1.176035341621435
1.176035421561394
1.176035998891449
1.176037444687755
1.176040388458583
1.176045520994276
1.176053635491963
1.176065587409818
1.176082254009931
1.176104465344384
1.176132923918003
1.176168133922785
1.176210347531651
1.176259538649716
1.176315441531916
1.176377674366788
1.176445860784163
1.176519504748297
1.176597153599942
1.176674065586226
1.176738657582585
1.17677577361009
1.176786113677734
1.176786942204979
1.176786843824834
1.176786511434656
1.176785417461965
1.176783081191344
1.176778838165325
1.17677193641103
1.176761535590567
1.176746748181874
1.17672668375492
1.176700506456033
1.176667508617914
1.176627177974453
1.176579220415644
1.176523529102377
1.176460131902366
1.176389185230346
1.176311218775391
1.176228222102458
1.176146559827727
1.176080605323346
1.176046064793645
1.176037909501876
1.176037429452424
1.176037474189326
1.17603792313779
1.176039100970901
1.176041580171696
1.176045980295813
1.176053021208487
1.17606348921189
1.176078209106137
1.176097992666493
1.176123579593976
1.176155583772735
1.176194445306174
1.17624039704684
1.176293479805996
1.176353621151359
1.176420704407148
1.176494434598245
1.176573607690507
1.176654000651322
1.176724642604737
1.176768970125311
1.176783377264432
1.176784900578862
1.176784842050917
1.176784616123515
1.176783753373553
1.176781835922824
1.176778260440642
1.176772346266639
1.176763323305927
1.176750361830837
1.176732600449513
1.176709186956639
1.176679334646124
1.176642374709107
1.176597778456247
1.176545150093643
1.176484214147299
1.176414839700774
1.176337266250087
1.176253055108641
1.176167748817236
1.176094924998352
1.176052487295353
1.176040440468111
1.176039425822342
1.176039436919184
1.176039772029249
1.176040705528373
1.176042767427398
1.176046519026172
1.176052621154151
1.176061801840242
1.176074836734031
1.176092510490632
1.17611557469464
1.176144707990689
1.176180474464301
1.176223289403513
1.176273422939169
1.176331049155714
1.176396279184286
1.176469035610243
1.176548454586039
1.176631082341846
1.176707197748178
1.17675975562943
1.176780043880949
1.176782911276
1.176782927000215
1.176782789830647
1.176782127803526
1.17678057920424
1.176777588171077
1.176772533237696
1.176764703760813
1.176753322617378
1.176737562659108
1.176716575914863
1.176689535970334
1.176655676530573
1.176614310308945
1.17656483595474
1.176506748381424
1.17643967421042
1.176363563212497
1.176279478389576
1.176191890825293
1.176112827918129
1.176061296021042
1.17604348535925
1.176041375042266
1.176041343427041
1.176041581199013
1.176042296611781
1.176043984281825
1.176047155807861
1.176052424407509
1.176060469138746
1.176072021644184
1.176087836897942
1.176108664027011
1.176135216548448
1.17616813636818
1.176207962484142
1.176255130134921
1.176309999993157
1.176372867711269
1.176443857013584
1.176522457333151
1.176606056433966
1.176686554796013
1.176747568170865
1.176775585361179
1.17678088370797
1.17678107574961
1.176781004217292
1.176780513505931
1.176779287951112
1.176776810978112
1.176772511816095
1.176765730129946
1.176755735662673
1.176741736684725
1.176722901473535
1.176698389581061
1.176667378489169
1.176629078899602
1.176582749874722
1.17652772003536
1.176463422791358
1.176389550698835
1.17630668741144
1.1762181936531
1.176134107008238
1.176073125513018
1.17604753143051
1.176043339635685
1.1760432148473
1.176043370226232
1.176043895661759
1.176045251515828
1.176047903508855
1.17605242607598
1.176059456583584
1.176069687710803
1.176083845144069
1.176102667693992
1.176126884202445
1.176157182353508
1.176194182343715
1.176238435028112
1.176290437010917
1.176350625548166
1.176419294592104
1.176496253773891
1.176579681087592
1.176663195279142
1.176732064925476
1.176769333075687
1.176778643085099
1.176779271783658
1.176779245715017
1.176778894817616
1.176777949913419
1.176775924274998
1.176772293198217
1.176766439611344
1.176757674908352
1.17674524227911
1.176728333079915
1.176706109069219
1.176677719488934
1.176642313689422
1.176599060572836
1.1765471725912
1.176485935417747
1.176414829973961
1.176334025415478
1.176245867033213
1.176158287353614
1.176088399897558
1.176053235966652
1.176045472678079
1.176045049789574
1.176045149316192
1.176045513859669
1.176046579066679
1.176048767786122
1.17605262097195
1.17605873951088
1.176067781491021
1.176080444833717
1.176097453809096
1.176119539921773
1.176147415068296
1.176181751015887
1.176223177580687
1.176272287094392
1.176329621296486
1.176395610574192
1.176470331822571
1.176552637644019
1.176637754456175
1.176713224280995
1.176760569218184
1.176775864988744
1.176777490308234
1.176777507833964
1.176777266680919
1.176776560864242
1.17677492916391
1.176771889183061
1.176766861692503
1.176759195719564
1.176748168279085
1.176732997471383
1.176712857228514
1.176686887268791
1.176654204277209
1.176613922764164
1.176565176841498
1.176507143143513
1.176439137952812
1.17636099552289
1.176274203188813
1.176184716500121
1.176107219032651
1.176061362212838
1.176048044034864
1.176046862683969
1.176046919448803
1.176047153840874
1.176047969645603
1.176049747913842
1.176053001297593
1.176058297117217
1.176066262347546
1.176077568926861
1.17609292424744
1.17611305430713
1.176138681095912
1.176170507749835
1.176209216360094
1.176255464295626
1.176309868185583
1.176372964026385
1.176445039617198
1.176525486847219
1.176610914278444
1.176691346621278
1.17674868172439
1.176772031386421
1.176775681825839
1.176775782462255
1.176775628796368
1.176775122825336
1.176773831080461
1.176771312992066
1.176767022214486
1.17676034239285
1.176750583259509
1.176736991410436
1.176718758908665
1.176695028480896
1.176664904188252
1.176627471379343
1.176581813611262
1.176527030055954
1.176462314838849
1.176387243851332
1.176302616888085
1.176212679000576
1.176129337709674
1.176072609235013
1.176051514006915
1.176048696411869
1.176048680044413
1.176048812111097
1.17604941986631
1.176050838510243
1.176053556454969
1.176058109724271
1.176065096769425
1.176075165086163
1.176089003815491
1.176107328203117
1.176130861286873
1.176160323857742
1.17619643092426
1.17623988214244
1.176291346723426
1.176351440468323
1.176420610533404
1.176498659895347
1.176583316026495
1.176666971830263
1.176733332110873
1.176766455045157
1.176773689548021
1.176774078489145
1.176773982239322
1.176773640205784
1.176772638813103
1.176770579270462
1.176766945099568
1.17676115237131
1.176752542446113
1.176740391020181
1.176723911764078
1.176702258903523
1.176674537758952
1.176639821937209
1.17659716465485
1.176545612917427
1.176484274331985
1.17641253174737
1.176330653827481
1.176241491101882
1.176154231931487
1.176087433877109
1.176056556466912
1.176050655143853
1.176050422980443
1.176050487001718
1.176050923397204
1.176052030605177
1.176054273731952
1.176058158032234
1.176064255696103
1.176073190732752
1.176085632917597
1.176102283391058
1.176123860686665
1.176151094145397
1.176184718095804
1.176225458584644
1.176274021406455
1.176331080888276
1.176397198721175
1.176472478498624
1.176555512653959
1.176640756713595
1.176714529757238
1.176758339880615
1.176771197507114
1.176772359436821
1.176772336114714
1.176772152999358
1.176771431326525
1.176769794408436
1.176766738501231
1.176761703940568
1.176754065910664
1.176743142632686
1.176728195575393
1.176708427487561
1.1766829787247
1.176650926082896
1.176611291309228
1.176563067544854
1.176505277339455
1.176437131170608
1.176358482369206
1.176271053262348
1.176181704309428
1.176106472312726
1.176064348860619
1.17605308427414
1.176051966488315
1.176051524667965
1.176051362743523
1.17605167192319
1.176052933548196
1.176055819795022
1.17606103248898
1.176069274497035
1.176081190617485
1.176097331695692
1.176118156589295
1.176144064955102
1.17617546173882
1.176212844177378
1.17625687770388
1.176308413519191
1.176368448752658
1.1764377881784
1.17651622908866
1.176600571337818
1.176679274918916
1.176734247840662
1.176758303098117
1.176766862477284
1.176775443292908
1.176783526370619
1.176792460919327
1.176802409908894
1.176813052419907
1.176823549109763
1.176832563224884
1.176838257392137
1.17683920314415
1.176833959504954
1.176820435560858
1.176796614350009
1.176761532625537
1.176714129758399
1.176653138358927
1.176577617014913
1.176488187049719
1.176388290385074
1.176285029345925
1.176193825260243
1.176133472601123
1.176102745722932
1.176087594526697
1.17607978741482
1.176077688281161
1.176078155188084
1.176079782856677
1.176082577907524
1.176087100503586
1.176094155019643
1.176104401477469
1.176118412504738
1.176136761321191
1.176160116360405
1.176189188841186
1.176224600793634
1.176266900324351
1.176316749212863
1.176375045228393
1.176442502812662
1.176518315283348
1.176598925743414
1.176677415575408
1.176741130645309
1.176779884808567
1.176793108464349
1.17680142355949
1.176808364051432
1.176815186591376
1.176822237633139
1.17682960257986
1.176837073227488
1.176844037118061
1.176849438614537
1.176851681297249
1.176849134227604
1.176839853160469
1.176821272277732
1.176791825369172
1.176750167634336
1.176695173878486
1.176626367461621
1.176543916248761
1.176449892059402
1.176349783775548
1.176254305111975
1.176181269934019
1.176139826821331
1.176119123214177
1.176108120959139
1.176103370465036
1.176103433371597
1.176105738512794
1.176109261891146
1.176114294154889
1.176121349401721
1.17613089560741
1.176143536069556
1.176159890543025
1.176180710618859
1.176206843123252
1.176239135316504
1.176278376406032
1.176325336101348
1.176380815978036
1.17644545649061
1.1765188596062
1.176598552871125
1.176678920269246
1.17675083379915
1.176802526686132
1.17682579736317
1.176836033728401
1.176843977399149
1.17685005987028
1.176855241145838
1.176859763328593
1.176863714306581
1.176867152315675
1.176869772204663
1.176870845929793
1.176868891700684
1.176861710000036
1.176847061202464
1.176823033646997
1.17678784451186
1.17673998048771
1.176678470428558
1.176603211704059
1.176515455413647
1.176419226170407
1.176322023360038
1.176238252814209
1.176184130983346
1.176156304647638
1.17614106872392
1.17613269013878
1.176130349759931
1.176131749513782
1.176135403204919
1.176140549716938
1.176147614650061
1.176156771602301
1.176168617579489
1.176183775597345
1.176203022712649
1.176227172787054
1.17625699987343
1.176293230967508
1.176336614995229
1.176388000518398
1.176448314472146
1.176517977792397
1.176595785499611
1.176677715704435
1.176756191335727
1.176820590239572
1.176857033549643
1.176874121611204
1.176886510788746
1.17689425394938
1.176899297865382
1.176902377405786
1.176903483435756
1.176903153286609
1.176902158534469
1.17690014915476
1.176896284869412
1.176889052188875
1.176876410919917
1.176856064631899
1.176825835920763
1.176784044201332
1.176729666812054
1.176662366699485
1.176582279865097
1.176491591093571
1.176396315309093
1.17630624488064
1.176238244175909
1.176200627582306
1.176179373387334
1.176165717594054
1.176159490640182
1.176158008748475
1.176160337192927
1.176165620349652
1.176172979876248
1.176182351336512
1.17619356801167
1.176207254622025
1.17622450714036
1.176246647215732
1.17627478684683
1.176309590666266
1.176351311265572
1.17640008310503
1.176456321103406
1.176520820052293
1.176593552901739
1.176672545382588
1.176752163431703
1.176827052889946
1.176879174912533
1.176908667250084
1.176930328707635
1.176943954728501
1.17695208472245
1.176956380429147
1.176956480523195
1.176953386853251
1.176949014635462
1.176943005810536
1.176935323357003
1.176925451698443
1.176912205256174
1.176893743047996
1.17686763791726
1.176831300654203
1.176782608043262
1.176720615623412
1.176646025906809
1.176561209999113
1.176470726915363
1.176382083859974
1.176306147401997
1.176256588818356
1.176229183071094
1.17620635994907
1.176191975818382
1.176185029563205
1.176184064795298
1.17618875613663
1.176197153231265
1.176206946850091
1.176218433794761
1.176232210275517
1.176249051071004
1.176269925006541
1.176295974114079
1.176328271104424
1.176367450014447
1.176413713870269
1.176467255713266
1.176528394016984
1.176598667388645
1.176669042925039
1.17677900517934
)
;

boundaryField
{
    inlet
    {
        type            calculated;
        value           uniform 1.176411716172193;
    }
    outlet
    {
        type            calculated;
        value           uniform 1.176778476190616;
    }
    frontAndBack
    {
        type            empty;
    }
}


// ************************************************************************* //
