/*--------------------------------*- C++ -*----------------------------------*\
| =========                 |                                                 |
| \\      /  F ield         | OpenFOAM: The Open Source CFD Toolbox           |
|  \\    /   O peration     | Version:  v2012                                 |
|   \\  /    A nd           | Website:  www.openfoam.com                      |
|    \\/     M anipulation  |                                                 |
\*---------------------------------------------------------------------------*/
FoamFile
{
    version     2.0;
    format      ascii;
    class       volScalarField;
    location    "0.009";
    object      T;
}
// * * * * * * * * * * * * * * * * * * * * * * * * * * * * * * * * * * * * * //

dimensions      [0 0 0 1 0 0 0];


internalField   nonuniform List<scalar> 
1000
(
299.9877042154471
299.989490566711
299.9831544494401
299.9784894938294
299.9740253107363
299.9701638085598
299.966658235798
299.9635083942039
299.9607428989054
299.9588653583986
299.9583663351464
299.958502489945
299.9589108573817
299.9597343047807
299.9612995759592
299.9637290387597
299.9669448878863
299.97079322871
299.9751447912489
299.9799149887447
299.9850399625424
299.9904510414137
299.9960635235241
300.0017754004219
300.0074706931923
300.0130282862864
300.0183401459167
300.0233413071259
300.028036804669
300.0324673576964
300.0365096830536
300.0395370216634
300.0408204701811
300.0409706129643
300.0409214621516
300.0407291118008
300.0401715302343
300.0390435687573
300.0371455077808
300.0343678098296
300.0307262255152
300.0263512558802
300.0214292754733
300.0161358561151
300.0106023642466
300.0049230004961
299.9991791271689
299.9934572820202
299.9878501070449
299.9824343378963
299.9772329813226
299.972209052502
299.967381476878
299.963132753431
299.9603802887489
299.9595100209194
299.9594548979986
299.9594791649279
299.959669994516
299.9601432560918
299.961095452959
299.9627047762489
299.9651145083394
299.9683891661458
299.9724930924458
299.9772957994757
299.9826074212575
299.9882296303996
299.993995777878
299.9997827763154
300.0055031109127
300.0111014878427
300.0165658509584
300.0219306332722
300.0272306942663
300.0323522871306
300.0367464001833
300.0394155627802
300.0401853949238
300.0402348930064
300.0401878428505
300.0400415763869
300.0396391327814
300.0388398470416
300.0374761977299
300.035397396439
300.0324965692726
300.0287416341301
300.0241901801224
300.0189821220298
300.0133127045639
300.0073937394685
300.0014124089374
299.9954987131642
299.9897108824877
299.984039723307
299.9784311048634
299.972853309546
299.967488869833
299.9630594990887
299.9606241483855
299.9600454298056
299.9600287575843
299.9600542875329
299.960209822349
299.9605825899366
299.9613177252517
299.9625615203406
299.9644566292374
299.9671159307963
299.9705986275542
299.9748893035547
299.9798899628885
299.9854330557676
299.991313600955
299.9973296598772
300.0033214847039
300.0092033020164
300.0149768944685
300.0207066453469
300.0264275190389
300.0319405561895
300.0365091157971
300.0390622345218
300.0397064303648
300.0397408691403
300.0397037663943
300.0395870728301
300.0392718061216
300.0386464884764
300.0375734966671
300.0359144034429
300.0335453837852
300.0303806428259
300.0263933507751
300.0216295372161
300.0162109329615
300.0103208351055
300.0041684543575
299.9979387592253
299.9917480139762
299.9856262592454
299.9795423410623
299.9735014197342
299.9677824735251
299.9632555044776
299.960957713288
299.9604724377563
299.9604620013881
299.9604841987702
299.9606111890932
299.960914126446
299.9615099870718
299.9625217358976
299.9640776979189
299.9662951553935
299.9692632122156
299.9730228617294
299.9775504736133
299.9827526989433
299.9884769045879
299.9945365394117
300.0007496769624
300.0069841324815
300.0131889919065
300.0193804601963
300.0255451710777
300.0314145891886
300.0361591037638
300.0387058034963
300.0393172515865
300.0393489019535
300.0393197372189
300.0392273755667
300.038975076423
300.0384711027008
300.0375990514928
300.0362357870814
300.0342604939531
300.0315712711221
300.0281023492961
300.0238399261874
300.0188341272613
300.0132005761389
300.0071028625313
300.0007152468019
299.9941788158274
299.9875728706493
299.9809284633633
299.9743305584254
299.9681796893458
299.9634872729677
299.9612528903548
299.9608202824052
299.9608122368705
299.9608309213229
299.9609362063366
299.9611871541805
299.9616814311876
299.9625242760973
299.9638299091641
299.9657104219976
299.9682636495334
299.9715571806095
299.9756124119662
299.98039454498
299.9858123241485
299.9917292887359
299.9979893864275
300.0044556408779
300.0110446080226
300.0177210683404
300.0244051969074
300.0307356828317
300.0357650446241
300.0383866799817
300.0389952231602
300.0390265952654
300.0390033119946
300.0389292941692
300.0387237136016
300.0383097232878
300.0375875653059
300.0364482972276
300.0347791018859
300.0324751441472
300.0294527054704
300.0256628392123
300.0211044628831
300.0158319225746
300.0099487769907
300.0035845973222
299.9968625320928
299.9898748601175
299.9826958929802
299.9754907762098
299.9687987130712
299.9638061978155
299.9615289553917
299.9611120242513
299.961103930927
299.9611194126834
299.9612075777743
299.9614184588546
299.961835177809
299.9625487183148
299.9636604611631
299.9652744790332
299.9674889548037
299.9703837977206
299.974007136045
299.9783649806763
299.983416781853
299.9890787047959
299.9952387033647
300.0017847912929
300.0086331318691
300.0157222907533
300.0229208612823
300.0297814018617
300.0352285995952
300.0380579474747
300.0387170762399
300.0387530225105
300.0387346502681
300.0386754759197
300.0385064357584
300.038162186098
300.0375563122935
300.036592486173
300.0351673308703
300.0331788409201
300.0305360213157
300.0271696983536
300.0230442077891
300.0181662826025
300.012584354545
300.0063751512822
299.9996228275236
299.9924039240959
299.9848061901957
299.9770453320637
299.9697661266026
299.9643184707031
299.9618307295803
299.9613691983574
299.9613568715129
299.9613688170001
299.9614418945541
299.9616193279039
299.9619733750332
299.9625836068238
299.9635402449952
299.9649387134818
299.9668736470767
299.9694294914105
299.972669739188
299.9766279004781
299.9813018884228
299.9866532484876
299.9926153299328
299.9991125648663
300.0060801418311
300.0134542990738
300.0210810174441
300.0284678648247
300.0344502371453
300.0376643838653
300.0384610619831
300.0385116454829
300.0384976559943
300.0384516817391
300.0383132733316
300.0380260908739
300.0375142140575
300.0366920433614
300.0354654888746
300.0337379021015
300.0314168411099
300.0284221808565
300.0246956949952
300.0202092852291
300.01496659998
300.0089959342511
300.0023384740684
299.9950418559592
299.9871839349681
299.9789910413014
299.9711455826204
299.96510088227
299.9621987613974
299.9616091097536
299.9615854856385
299.9615936543636
299.9616525949385
299.9618001821829
299.9621006755298
299.962624586778
299.963452878964
299.964672868198
299.9663740921864
299.9686412637264
299.9715460686846
299.9751399416721
299.9794485842098
299.9844692870845
299.9901748748376
299.996526322427
300.0034851584045
300.0110006982628
300.0189246383974
300.026773064768
300.0333640503031
300.0371512670206
300.0382063303388
300.038290875681
300.0382808437068
300.0382469364711
300.0381353184621
300.037896940235
300.0374640031718
300.036759776602
300.0356985115135
300.0341896410391
300.0321422962556
300.0294711696894
300.0261040244984
300.021988551886
300.0170946929838
300.0114114881652
300.0049417145588
299.9977012592691
299.9897440986045
299.9812732091341
299.972938150093
299.9662060661713
299.9626803535126
299.9618478996707
299.9617989027447
299.9618034759194
299.9618493101802
299.9619695434344
299.9622226138789
299.9626717623756
299.9633904671425
299.9644589861934
299.9659615039896
299.9679808705267
299.9705925722226
299.973859244755
299.9778257764166
299.9825158919357
299.9879337060508
299.9940717676462
300.000918103283
300.0084425372654
300.0165221224701
300.0247258534052
300.0319342422671
300.0364573228169
300.0379273735343
300.0380828104049
300.0380768429654
300.0380537968762
300.0379657704839
300.0377701253994
300.0374053003576
300.0368018416901
300.0358811685724
300.0345586128101
300.0327462709072
300.0303571704177
300.0273110139539
300.0235395240269
300.0189887093209
300.0136181267993
300.0073995982297
300.0003196841088
299.9924027355299
299.9838080042379
299.9751011131167
299.9676679373821
299.9633361449258
299.962106459124
299.9620028914875
299.9620040288469
299.962038241273
299.9621335326398
299.9623440052443
299.9627269537599
299.9633498307864
299.9642869468612
299.965617470799
299.9674214865145
299.9697756965134
299.9727493506488
299.9763999965656
299.9807699841534
299.9858868370054
299.9917682652741
299.9984255435314
300.0058506938637
300.0139554747391
300.0223873601062
300.0301543499216
300.0355172765195
300.0375874159238
300.037879995735
300.0378816032685
300.0378676119118
300.0378000651609
300.0376420548832
300.0373368634345
300.0368210774864
300.0360221830734
300.0348608807563
300.033252763079
300.0311112924957
300.0283521236686
300.0248970362176
300.0206758601175
300.0156271807882
300.0096993915669
300.0028543098505
299.9950867151284
299.9865049907037
299.9775653757257
299.9694954639296
299.964235427456
299.9624173964016
299.9622019865897
299.9621987626067
299.9622230371834
299.962296066329
299.9624683381044
299.9627920742461
299.9633298677787
299.9641510311248
299.9653302421719
299.966944556908
299.9690704295108
299.9717806726886
299.975140781303
299.9792057365004
299.9840199178545
299.9896200823405
299.9960363379869
300.0032812329677
300.0113025729
300.0198336925052
300.0280480291625
300.0342737988369
300.0371325805057
300.0376732039428
300.0376928011909
300.0376855053964
300.0376354381299
300.0375103890935
300.0372576493714
300.0368189787604
300.036126997057
300.0351071877724
300.0336787589898
300.0317568334419
300.0292556370352
300.0260912165054
300.0221829971933
300.0174553255532
300.0118396299151
300.0052780137268
299.997739007317
299.9892820672975
299.9802500868033
299.9716675150596
299.9654429844936
299.9628304655629
299.9624025867186
299.9623898509382
299.9624057136984
299.9624593500312
299.9625977507292
299.9628684544796
299.9633300959432
299.9640477323419
299.965092065217
299.9665371624345
299.9684584272253
299.9709302393883
299.9740227700062
299.9777992922606
299.982315990693
299.9876235000611
299.993766383757
300.0007745645204
300.0086285234998
300.0171422274575
300.025664422609
300.0326919189643
300.0364946599486
300.0374446170933
300.0375087683224
300.0375061102981
300.0374703082605
300.0373738950469
300.0371672070548
300.0367967048294
300.0361994230117
300.0353050957333
300.0340364953545
300.0323111014072
300.0300433676639
300.0271464628951
300.023533556567
300.0191198000446
300.0138247725351
300.0075755061804
300.0003189370256
299.9920722187617
299.9830745956225
299.9741356205546
299.9670021175988
299.9634127752138
299.9626203333953
299.9625771681373
299.9625873287842
299.962624541327
299.962733273578
299.9629566879372
299.9633500017362
299.9639745489285
299.9648975008585
299.966190092424
299.9679262443805
299.9701806107425
299.9730258371633
299.9765304644857
299.9807587409676
299.9857710763156
299.9916227020156
299.9983574686725
300.0059831342952
300.0143825046209
300.0230683592171
300.0307694370209
300.0356004246364
300.0371611476376
300.0373269897029
300.0373287791759
300.0373041742484
300.0372321561979
300.0370656636964
300.0367554743676
300.0362424844963
300.0354602687474
300.0343350518488
300.0327870437793
300.0307319427841
300.0280819490248
300.024746902873
300.0206364104125
300.0156620623303
300.0097397695893
300.0027996721246
299.9948247479632
299.9859666724229
299.9768331880214
299.9689230231845
299.9642422457131
299.9628827867377
299.9627622005113
299.9627679956439
299.9627919223978
299.9628751964481
299.9630567135025
299.9633888021234
299.9639293702977
299.9647424140323
299.965896516949
299.9674638784588
299.9695185925578
299.9721343379413
299.97538286079
299.9793337491478
299.984054055447
299.9896066595218
299.9960461951327
300.0034019478094
300.0116117574926
300.0203294327417
300.0285370052379
300.0343874288613
300.0367699493926
300.0371424265241
300.037152695833
300.0371370171266
300.0370853903054
300.0369535853318
300.0366966477981
300.036258829583
300.0355772380749
300.0345814371772
300.0331945457761
300.0313341141143
300.0289126520877
300.0258387156255
300.0220189397883
300.0173597621028
300.011769195145
300.0051649193123
299.9975035510441
299.9888665954573
299.9796871954802
299.9711806707286
299.9653902404559
299.9632369423688
299.9629493353069
299.9629476650887
299.9629611465475
299.9630231836329
299.9631679917219
299.9634454251714
299.9639101976232
299.9646233939907
299.9656511036998
299.9670636643932
299.9689340743375
299.9713361216286
299.9743433576729
299.9780287342505
299.9824636244593
299.9877162799605
299.9938494848132
300.000908792986
300.0088739992441
300.0175130871701
300.0260497122717
300.0328211360188
300.0362009080705
300.0369390892845
300.0369787758455
300.036968955296
300.0369340558307
300.0368318771928
300.0366217279199
300.0362509076519
300.0356598327495
300.0347812949806
300.0335413836066
300.0318598553048
300.0296503957126
300.026821692562
300.0232791871008
300.0189262262234
300.0136655055764
300.0074058836007
300.0000842830411
299.9917280062825
299.9826278571587
299.97372157117
299.9669033918786
299.9637515933142
299.9631492132125
299.9631255153673
299.963132050745
299.963176596097
299.9632896141889
299.9635185804776
299.9639150680516
299.9645374815778
299.965449513734
299.9667195264579
299.9684190797701
299.9706215041488
299.9734012265596
299.9768331743682
299.9809914186658
299.9859479500622
299.9917715315098
299.998519411923
300.0062020695031
300.0146757542049
300.0233745778312
300.0309024996625
300.0353727986829
300.0366847442
300.036803303458
300.0368009240002
300.03678223982
300.036708602724
300.0365415765467
300.0362297604239
300.0357160468761
300.0349366794244
300.0338220872891
300.0322969057095
300.0302797736084
300.0276829567297
300.024412225999
300.0203677225728
300.0154466521459
300.0095492008145
300.0025947083743
299.9945680954729
299.9856450159302
299.9765255711431
299.9688466299868
299.9645469312865
299.9633970957194
299.9632829978767
299.963237899459
299.9632213712954
299.9632529308772
299.9633817108281
299.9636763229215
299.964208404621
299.965049698223
299.9662660163827
299.9679135783351
299.9700392095839
299.9726836877701
299.9758883245207
299.9797038445453
299.9841981304156
299.9894580115072
299.9955851925837
300.0026617242156
300.0106668178585
300.0192737932116
300.0273049940391
300.0329144185627
300.0353689588068
300.0362423352765
300.0371178971047
300.0379426672503
300.0388543139734
300.0398694652852
300.0409553752021
300.0420264011458
300.0429461486672
300.0435271459025
300.0436236459808
300.0430886225156
300.041708722899
300.0392781258518
300.0356985057382
300.0308615738741
300.0246379097404
300.0169313162998
300.0078050333186
299.9976101451496
299.9870713609374
299.9777626132921
299.9716024573091
299.9684661193217
299.9669196010683
299.9661227057264
299.9659084396984
299.9659560981078
299.966122239895
299.9664075399397
299.9668691735777
299.9675892438844
299.9686351188143
299.970065243058
299.9719381173105
299.9743219549938
299.9772893291578
299.9809037008799
299.9852209768719
299.9903086547639
299.9962583020568
300.0031427547137
300.010879592804
300.0191057474009
300.0271151626565
300.0336166453081
300.0375710070941
300.0389202890834
300.0397687226279
300.0404768950458
300.0411730297941
300.0418924781863
300.0426439542466
300.043406213486
300.0441167640316
300.0446678964306
300.044896724747
300.0446368422279
300.0436898681787
300.0417939892278
300.0387893683188
300.0345387337928
300.028927189347
300.0219059820926
300.0134920972208
300.0038967996399
299.993680113987
299.9839354143976
299.9764809821639
299.9722509085091
299.9701376765452
299.9690146591894
299.9685297656561
299.9685361855177
299.9687714755274
299.9691311137364
299.9696447646474
299.9703649010214
299.971339287608
299.9726294998984
299.9742987898435
299.9764238609311
299.9790911304284
299.9823870513079
299.9863921410262
299.9911849147321
299.9968471245518
300.0034440596909
300.0109350083422
300.0190675637879
300.0272685736459
300.0346066233043
300.0398811801621
300.0422555818057
300.0433000342156
300.0441105512016
300.0447311610769
300.0452598187699
300.0457212279898
300.0461243564371
300.0464751457633
300.0467424602966
300.0468520163606
300.0466526245762
300.0459198614573
300.0444252048468
300.0419735829392
300.0383830478157
300.0334991215201
300.0272226112481
300.0195429137698
300.0105875458192
300.0007670729098
299.9908467590701
299.9822968977264
299.9767728567942
299.973932658563
299.9723775326988
299.9715223260267
299.9712834405386
299.9714263137795
299.9717992478479
299.972324554643
299.9730456726196
299.9739803178185
299.9751894226564
299.9767365721789
299.9787010701722
299.981165971129
299.9842102589135
299.9879081055927
299.9923359107668
299.9975802292025
300.0037355959794
300.0108448843316
300.0187850276921
300.0271455223331
300.0351531652817
300.0417241715692
300.0454425883783
300.0471861136514
300.0484501950772
300.0492402319443
300.0497548616235
300.0500690670011
300.0501819164035
300.0501482344192
300.050046745164
300.0498417327368
300.0494474610655
300.048709505675
300.0474196990107
300.0453437205181
300.0422593769944
300.0379951414387
300.0324465867516
300.0255792115813
300.0174067594724
300.0081520315013
299.998428745944
299.9892362508114
299.9822958633288
299.9784564762599
299.9762871128929
299.9748932857888
299.9742577034978
299.974106445898
299.9743441083891
299.974883356231
299.9756345363002
299.9765910677174
299.9777359294176
299.9791328802943
299.9808937758368
299.9831534995902
299.9860255284333
299.9895776695309
299.9938356671742
299.9988132010578
300.0045525636731
300.0111347990304
300.0185570612354
300.0266177959626
300.0347420297464
300.0423834629557
300.0477015909153
300.050710703519
300.0529208059549
300.0543110458075
300.0551405314405
300.0555788144699
300.0555890297491
300.0552733925054
300.0548272999119
300.0542142027981
300.053430316225
300.0524230535693
300.0510715003057
300.0491878899104
300.0465246246047
300.0428174988893
300.037849753867
300.0315247669352
300.0239137070467
300.0152576346879
300.0060208212421
299.9969693396823
299.9892138000971
299.9841518898006
299.9813541955371
299.9790310468068
299.9775827022203
299.9769055140346
299.9768286585417
299.9773227915661
299.9781937179749
299.9791818603815
299.9803017226034
299.9815968848454
299.9831261750325
299.9849737693409
299.9872765715417
299.9902358351735
299.9940834267916
299.9990237383718
300.0051581763616
300.0123806697264
300.0205069455499
300.0283727744552
300.0400629752879
)
;

boundaryField
{
    inlet
    {
        type            fixedValue;
        value           uniform 300;
    }
    outlet
    {
        type            characteristicVelocityInletOutletTemperature;
        UName           U;
        pName           p;
        TName           T;
        phiName         phi;
        rhoName         rho;
        U               (0 0 0);
        p               101325;
        T               300;
        value           uniform 300.040197850129;
    }
    frontAndBack
    {
        type            empty;
    }
}


// ************************************************************************* //
