/*--------------------------------*- C++ -*----------------------------------*\
| =========                 |                                                 |
| \\      /  F ield         | OpenFOAM: The Open Source CFD Toolbox           |
|  \\    /   O peration     | Version:  v2012                                 |
|   \\  /    A nd           | Website:  www.openfoam.com                      |
|    \\/     M anipulation  |                                                 |
\*---------------------------------------------------------------------------*/
FoamFile
{
    version     2.0;
    format      ascii;
    class       volVectorField;
    location    "0.009";
    object      U;
}
// * * * * * * * * * * * * * * * * * * * * * * * * * * * * * * * * * * * * * //

dimensions      [0 1 -1 0 0 0 0];


internalField   nonuniform List<vector> 
1000
(
(-0.001006076732825043 0 0)
(-0.03285270534808691 0 0)
(-0.04106896491047398 0 0)
(-0.05635178021526886 0 0)
(-0.07038202156773174 0 0)
(-0.08350164418605106 0 0)
(-0.09471049499205328 0 0)
(-0.1043030096132143 0 0)
(-0.1126642270847045 0 0)
(-0.1185500783376239 0 0)
(-0.1203214267859661 0 0)
(-0.1202573547587005 0 0)
(-0.1195594654905822 0 0)
(-0.1172895849246666 0 0)
(-0.1127385752406455 0 0)
(-0.1056318131020485 0 0)
(-0.09621918039818458 0 0)
(-0.08494850420678574 0 0)
(-0.07220668888334465 0 0)
(-0.05825367286431447 0 0)
(-0.04328546834345048 0 0)
(-0.02751239218432401 0 0)
(-0.01119521438702838 0 0)
(0.005363346115252276 0 0)
(0.02184029379834658 0 0)
(0.03790237832337543 0 0)
(0.05323383586845562 0 0)
(0.06763582726981691 0 0)
(0.08114235001052408 0 0)
(0.09391317474109868 0 0)
(0.1055927927712212 0 0)
(0.1143187992311632 0 0)
(0.1179825642985345 0 0)
(0.1183992094645907 0 0)
(0.1183324577865187 0 0)
(0.1177480748597351 0 0)
(0.1161747624642959 0 0)
(0.1129289156447451 0 0)
(0.1074520323312545 0 0)
(0.09942766503727757 0 0)
(0.08890318255628876 0 0)
(0.07625059354361298 0 0)
(0.06200650796911968 0 0)
(0.04668729764155861 0 0)
(0.03068099666470833 0 0)
(0.01425238189780117 0 0)
(-0.002374376745808526 0 0)
(-0.01893814903575472 0 0)
(-0.03515019608808283 0 0)
(-0.05079839756787576 0 0)
(-0.06585014634182659 0 0)
(-0.08040860051459256 0 0)
(-0.09436777332733381 0 0)
(-0.1066154333590034 0 0)
(-0.1145671575571666 0 0)
(-0.1171300409487383 0 0)
(-0.1173210018574743 0 0)
(-0.1171647769011288 0 0)
(-0.11666796427066 0 0)
(-0.1152828838730758 0 0)
(-0.1125314841408347 0 0)
(-0.1078780639514643 0 0)
(-0.1009086382735205 0 0)
(-0.09143349077807628 0 0)
(-0.07956070576944103 0 0)
(-0.06567164967071959 0 0)
(-0.05030955749069374 0 0)
(-0.03404172585400123 0 0)
(-0.01735761427885668 0 0)
(-0.000624481875312103 0 0)
(0.01591252099334878 0 0)
(0.03211223634640539 0 0)
(0.04793305065639546 0 0)
(0.06344443686603192 0 0)
(0.07874922542777003 0 0)
(0.09356426655021784 0 0)
(0.1063082991343901 0 0)
(0.1140380675353967 0 0)
(0.1162261009525319 0 0)
(0.1163395965658439 0 0)
(0.1162773398517586 0 0)
(0.1158090822996769 0 0)
(0.114658818241498 0 0)
(0.1123454421766752 0 0)
(0.1084003171632411 0 0)
(0.102386447406311 0 0)
(0.09399821780855058 0 0)
(0.0831392912863741 0 0)
(0.06997193375183572 0 0)
(0.05490511765268364 0 0)
(0.03851017428887301 0 0)
(0.02139479995253927 0 0)
(0.004089749786494755 0 0)
(-0.01302440839256877 0 0)
(-0.0297623152333041 0 0)
(-0.04615259946331039 0 0)
(-0.06237809639528829 0 0)
(-0.07853438923330765 0 0)
(-0.0940550135166449 0 0)
(-0.1068401558688329 0 0)
(-0.1138704335295192 0 0)
(-0.1155725565187781 0 0)
(-0.1156540458581032 0 0)
(-0.1155191171275184 0 0)
(-0.1151030035866015 0 0)
(-0.1140147683848682 0 0)
(-0.1118892549171046 0 0)
(-0.1082922889705389 0 0)
(-0.102811251017243 0 0)
(-0.09511691261243803 0 0)
(-0.08504129614623099 0 0)
(-0.07263240861840822 0 0)
(-0.05816958743976349 0 0)
(-0.04213222082226464 0 0)
(-0.02511834035577486 0 0)
(-0.0077207675286449 0 0)
(0.009603734644049389 0 0)
(0.02662121148230058 0 0)
(0.0433327983033158 0 0)
(0.05990210357465333 0 0)
(0.07643047916028932 0 0)
(0.09237650727409458 0 0)
(0.1056155299175761 0 0)
(0.1130087443758844 0 0)
(0.1148447327940323 0 0)
(0.1149204997204637 0 0)
(0.1148667516082413 0 0)
(0.1144975164487415 0 0)
(0.1135950119429631 0 0)
(0.1117854983010916 0 0)
(0.1086814034915597 0 0)
(0.103881619617042 0 0)
(0.09703096588301949 0 0)
(0.08787892631793856 0 0)
(0.07634420818155259 0 0)
(0.0625628668614336 0 0)
(0.04689245968535007 0 0)
(0.02985969216918527 0 0)
(0.01206111623201002 0 0)
(-0.005965170578935537 0 0)
(-0.02386960324124521 0 0)
(-0.04156632471905048 0 0)
(-0.05916580400422929 0 0)
(-0.07665676371457258 0 0)
(-0.0932027484508814 0 0)
(-0.1062772203913314 0 0)
(-0.1129118948251488 0 0)
(-0.1143355221175026 0 0)
(-0.1143932564732892 0 0)
(-0.1142826361910327 0 0)
(-0.1139401785398495 0 0)
(-0.1130566487330194 0 0)
(-0.1113336528227767 0 0)
(-0.1084077372349894 0 0)
(-0.1039075934741673 0 0)
(-0.09749173916105493 0 0)
(-0.08890503154149082 0 0)
(-0.07803170739383473 0 0)
(-0.06493673929410898 0 0)
(-0.04988587692443528 0 0)
(-0.03332499064248451 0 0)
(-0.01580071717998478 0 0)
(0.002165506845830335 0 0)
(0.02020268397276174 0 0)
(0.03815931806178461 0 0)
(0.05606403213038007 0 0)
(0.07387991557030167 0 0)
(0.09085781696605254 0 0)
(0.1046010386925999 0 0)
(0.11197274010695 0 0)
(0.1137188971129904 0 0)
(0.113792429464163 0 0)
(0.113751269841224 0 0)
(0.1134580093413391 0 0)
(0.1127359828809612 0 0)
(0.111277603947389 0 0)
(0.1087548861323954 0 0)
(0.1048108555698982 0 0)
(0.09909867006253319 0 0)
(0.09132183118256507 0 0)
(0.08128688965001814 0 0)
(0.06895613788800883 0 0)
(0.05447926912220231 0 0)
(0.0381880061243872 0 0)
(0.02054819043547607 0 0)
(0.002066306888229198 0 0)
(-0.01683837208566483 0 0)
(-0.03593742809443282 0 0)
(-0.05515808989550736 0 0)
(-0.07425727131419588 0 0)
(-0.09205198897187186 0 0)
(-0.1056088684140104 0 0)
(-0.1120622276322107 0 0)
(-0.1133294810760616 0 0)
(-0.1133758143633587 0 0)
(-0.1132838171555708 0 0)
(-0.112999473888381 0 0)
(-0.1122677035879552 0 0)
(-0.1108384230114248 0 0)
(-0.1084009738515126 0 0)
(-0.1046248409166064 0 0)
(-0.09918390117534726 0 0)
(-0.09179733920420986 0 0)
(-0.08227200936390418 0 0)
(-0.07054311722255653 0 0)
(-0.05670775938249153 0 0)
(-0.04103376653762527 0 0)
(-0.02392171723906347 0 0)
(-0.005818542391655786 0 0)
(0.01288898043509861 0 0)
(0.0319550034978196 0 0)
(0.05126237796202663 0 0)
(0.07058327987972558 0 0)
(0.0888957720444656 0 0)
(0.1034596479871839 0 0)
(0.1110456570677445 0 0)
(0.1127867043910423 0 0)
(0.1128637577197323 0 0)
(0.1128326000818974 0 0)
(0.1125959638189059 0 0)
(0.1120080629738214 0 0)
(0.1108100027053761 0 0)
(0.1087209568281959 0 0)
(0.1054249141085682 0 0)
(0.1005978425760832 0 0)
(0.09393515789298873 0 0)
(0.08519192533320971 0 0)
(0.07422831242877204 0 0)
(0.06104524865639121 0 0)
(0.04579773189370126 0 0)
(0.02877899954533016 0 0)
(0.01036587809695267 0 0)
(-0.009075890023987784 0 0)
(-0.02928046661183147 0 0)
(-0.05004748732022812 0 0)
(-0.07090087481109733 0 0)
(-0.09026020733853259 0 0)
(-0.1046877882747402 0 0)
(-0.1112671937072243 0 0)
(-0.1124868676743806 0 0)
(-0.1125289168142827 0 0)
(-0.1124525529353618 0 0)
(-0.112214539605452 0 0)
(-0.111599568200736 0 0)
(-0.1103945894943864 0 0)
(-0.1083310891507662 0 0)
(-0.1051156965272094 0 0)
(-0.1004458191239826 0 0)
(-0.0940393456464084 0 0)
(-0.08566704345738342 0 0)
(-0.07518712754689839 0 0)
(-0.06257932862538115 0 0)
(-0.04796446106122206 0 0)
(-0.03158979197525325 0 0)
(-0.0137751444504668 0 0)
(0.005163269209127888 0 0)
(0.02497810248403016 0 0)
(0.04547895950401834 0 0)
(0.06629016600127315 0 0)
(0.08613694827547291 0 0)
(0.1019067013791854 0 0)
(0.1100909103034986 0 0)
(0.111980937254119 0 0)
(0.1120752068381493 0 0)
(0.112052722849003 0 0)
(0.1118614804882491 0 0)
(0.1113786892069226 0 0)
(0.1103823155412548 0 0)
(0.1086296704555952 0 0)
(0.1058412092173081 0 0)
(0.1017198640462798 0 0)
(0.09596941576656004 0 0)
(0.08832435164393268 0 0)
(0.07858614452152368 0 0)
(0.06665502121903123 0 0)
(0.05254841055555159 0 0)
(0.03640111990589079 0 0)
(0.01843721017391007 0 0)
(-0.00109187260208114 0 0)
(-0.02196650989456733 0 0)
(-0.04394537060590216 0 0)
(-0.06640439642815521 0 0)
(-0.08746066875381225 0 0)
(-0.1032065270014482 0 0)
(-0.1103975213792752 0 0)
(-0.1117454715741211 0 0)
(-0.1117946603365951 0 0)
(-0.1117334570581899 0 0)
(-0.1115372138976128 0 0)
(-0.111019424506456 0 0)
(-0.1099957862904685 0 0)
(-0.1082310641289345 0 0)
(-0.1054641876468723 0 0)
(-0.1014179418505423 0 0)
(-0.09582032143155349 0 0)
(-0.08842846603277214 0 0)
(-0.0790563163013018 0 0)
(-0.06760480576742493 0 0)
(-0.05408335601498496 0 0)
(-0.0386068138374311 0 0)
(-0.02136360904005608 0 0)
(-0.002566366860053992 0 0)
(0.01759193027760682 0 0)
(0.03891671169742965 0 0)
(0.0609686058870942 0 0)
(0.0823392050743235 0 0)
(0.09965435006867238 0 0)
(0.1089485794997889 0 0)
(0.1112389707918247 0 0)
(0.1113792692948767 0 0)
(0.1113652972528734 0 0)
(0.1112134654499824 0 0)
(0.1108192163573129 0 0)
(0.109987763852529 0 0)
(0.1085070149315127 0 0)
(0.1061284322002937 0 0)
(0.10258147498887 0 0)
(0.0975854115960626 0 0)
(0.09087104234820011 0 0)
(0.08220821672493503 0 0)
(0.07143119039028704 0 0)
(0.05845647073929722 0 0)
(0.04329037762675472 0 0)
(0.02601739236809436 0 0)
(0.006763190743426249 0 0)
(-0.01433743705303869 0 0)
(-0.03706977998373396 0 0)
(-0.06077669685532514 0 0)
(-0.08346892141386907 0 0)
(-0.100943152868183 0 0)
(-0.1093363186999288 0 0)
(-0.1110543066704391 0 0)
(-0.1111311729899296 0 0)
(-0.1110844937849154 0 0)
(-0.1109284688652086 0 0)
(-0.11049697817422 0 0)
(-0.1096284124553153 0 0)
(-0.1081133347096766 0 0)
(-0.1057175493646769 0 0)
(-0.1021876694199387 0 0)
(-0.09726635178650886 0 0)
(-0.09070940496332576 0 0)
(-0.08230715564483124 0 0)
(-0.07190951222291551 0 0)
(-0.05944548082699234 0 0)
(-0.04492525078842601 0 0)
(-0.0284228669824735 0 0)
(-0.0100471492972571 0 0)
(0.01008434397628186 0 0)
(0.03181763876854608 0 0)
(0.05473170560375598 0 0)
(0.07743896930328401 0 0)
(0.09651157987705726 0 0)
(0.1074605291443636 0 0)
(0.110501041129453 0 0)
(0.1107425514009053 0 0)
(0.1107371412498983 0 0)
(0.1106202784813934 0 0)
(0.1103040012010958 0 0)
(0.1096134331817759 0 0)
(0.1083610267366248 0 0)
(0.1063237526113004 0 0)
(0.1032548742656258 0 0)
(0.09889115499142297 0 0)
(0.09296847709112101 0 0)
(0.08524185308138282 0 0)
(0.07550424685245365 0 0)
(0.06360183917503313 0 0)
(0.04944458774653502 0 0)
(0.03300409424433639 0 0)
(0.01429331607010914 0 0)
(-0.006646169402781137 0 0)
(-0.02966649041527763 0 0)
(-0.0541755215887189 0 0)
(-0.07828176195392976 0 0)
(-0.09774613975228577 0 0)
(-0.1079468725703428 0 0)
(-0.1103657016885891 0 0)
(-0.1105119803758823 0 0)
(-0.1104781845341208 0 0)
(-0.110360332835143 0 0)
(-0.110007514504476 0 0)
(-0.1092763959666285 0 0)
(-0.1079775043901435 0 0)
(-0.1058985412745368 0 0)
(-0.1028069076139284 0 0)
(-0.09846065028259521 0 0)
(-0.09262037674741307 0 0)
(-0.0850655448670274 0 0)
(-0.07561453434692982 0 0)
(-0.06414073930864413 0 0)
(-0.05057654457140447 0 0)
(-0.0349054385709497 0 0)
(-0.01714695798365155 0 0)
(0.002657515992773038 0 0)
(0.02441641141097672 0 0)
(0.04778338368093821 0 0)
(0.07151943380742472 0 0)
(0.09237446375378996 0 0)
(0.1054498821014374 0 0)
(0.1096935330333549 0 0)
(0.1101424270837412 0 0)
(0.1101468111634521 0 0)
(0.1100604262169891 0 0)
(0.1098134245423 0 0)
(0.1092460101577377 0 0)
(0.1081906682819483 0 0)
(0.1064450273879759 0 0)
(0.1037827826290188 0 0)
(0.09995767614645981 0 0)
(0.09471474007011654 0 0)
(0.08780427916898664 0 0)
(0.07899510830339279 0 0)
(0.06808700338598064 0 0)
(0.05492195205033696 0 0)
(0.03938678629223123 0 0)
(0.02140308517062166 0 0)
(0.0009265025623872387 0 0)
(-0.0219781309566874 0 0)
(-0.04684301714359157 0 0)
(-0.07202298770613523 0 0)
(-0.09351801043632456 0 0)
(-0.1060533829881123 0 0)
(-0.1096189076760371 0 0)
(-0.109920372282956 0 0)
(-0.1098980417350728 0 0)
(-0.1098148458832298 0 0)
(-0.1095333099924523 0 0)
(-0.1089258057092123 0 0)
(-0.1078182818633559 0 0)
(-0.1060163548658596 0 0)
(-0.1033049560164087 0 0)
(-0.09945646618541738 0 0)
(-0.09423892598150933 0 0)
(-0.08742853892135176 0 0)
(-0.07882539784745493 0 0)
(-0.06826593858408103 0 0)
(-0.05562734707980264 0 0)
(-0.04082573423628812 0 0)
(-0.02380992591238881 0 0)
(-0.00455388039638638 0 0)
(0.01691827517220947 0 0)
(0.04036087312696045 0 0)
(0.06475701455155515 0 0)
(0.08722427882900169 0 0)
(0.1027276021837674 0 0)
(0.108708894100243 0 0)
(0.1095609902741139 0 0)
(0.1095804807886611 0 0)
(0.1095204830320274 0 0)
(0.1093343096575554 0 0)
(0.1088750775550401 0 0)
(0.1079923537810584 0 0)
(0.1065004577159743 0 0)
(0.1041903885625567 0 0)
(0.1008314173840309 0 0)
(0.0961792719182952 0 0)
(0.08998547010408124 0 0)
(0.08200626176068575 0 0)
(0.07201269146256192 0 0)
(0.05980126266451923 0 0)
(0.04519826047870191 0 0)
(0.0280555104024668 0 0)
(0.008256647424471825 0 0)
(-0.01421603158941344 0 0)
(-0.03904069314872904 0 0)
(-0.06489293121253849 0 0)
(-0.08823295030458929 0 0)
(-0.103455021821196 0 0)
(-0.1087202901953045 0 0)
(-0.1093421912828223 0 0)
(-0.1093345805151649 0 0)
(-0.1092815172950722 0 0)
(-0.1090630355667259 0 0)
(-0.1085665813096465 0 0)
(-0.1076301410906866 0 0)
(-0.106074212331917 0 0)
(-0.1036984023463266 0 0)
(-0.1002877992901605 0 0)
(-0.09561872395896136 0 0)
(-0.08946854179540308 0 0)
(-0.08162775317694486 0 0)
(-0.07190917717585742 0 0)
(-0.06015232035236227 0 0)
(-0.04622535279396793 0 0)
(-0.03002384753726402 0 0)
(-0.0114662915476211 0 0)
(0.00948555650441924 0 0)
(0.03268923808679898 0 0)
(0.0573715679805052 0 0)
(0.08112932065723454 0 0)
(0.09912766287912991 0 0)
(0.107394617479393 0 0)
(0.108968008826581 0 0)
(0.1090317547242613 0 0)
(0.1089923597578253 0 0)
(0.1088586687621715 0 0)
(0.1084938139672787 0 0)
(0.1077630519734767 0 0)
(0.1064943297557348 0 0)
(0.1044933825016171 0 0)
(0.1015434304939663 0 0)
(0.09741119878857959 0 0)
(0.09185275840449576 0 0)
(0.08461943911177404 0 0)
(0.07546605208538966 0 0)
(0.06416023065350991 0 0)
(0.050486666454766 0 0)
(0.03424620806883575 0 0)
(0.01526586930613522 0 0)
(-0.006544980705110735 0 0)
(-0.03100622086450423 0 0)
(-0.05712581546159178 0 0)
(-0.08195190307752245 0 0)
(-0.0999651581576364 0 0)
(-0.1075259892515012 0 0)
(-0.1087559404788493 0 0)
(-0.1087839318185524 0 0)
(-0.1087544137918031 0 0)
(-0.1085902974084791 0 0)
(-0.1081925804115995 0 0)
(-0.1074092605510482 0 0)
(-0.1060735603161357 0 0)
(-0.1039974270331461 0 0)
(-0.1009770820801949 0 0)
(-0.09679717271077505 0 0)
(-0.09123869683822909 0 0)
(-0.08408808911208515 0 0)
(-0.07514377113336265 0 0)
(-0.06422048591225504 0 0)
(-0.05115349372048016 0 0)
(-0.03579954454056332 0 0)
(-0.01803357788449365 0 0)
(0.002235183696703717 0 0)
(0.02495649485658552 0 0)
(0.04958661594575742 0 0)
(0.07423185802382584 0 0)
(0.09455076147804227 0 0)
(0.1055527914770838 0 0)
(0.1083090778184197 0 0)
(0.1084974068076543 0 0)
(0.1084721338452292 0 0)
(0.1083819350227819 0 0)
(0.1080985943978493 0 0)
(0.1075014386757401 0 0)
(0.1064299466268004 0 0)
(0.1047027506501992 0 0)
(0.1021155788205686 0 0)
(0.09844589045956945 0 0)
(0.09345613098703767 0 0)
(0.08689768488530604 0 0)
(0.07851769030216763 0 0)
(0.06806664267705964 0 0)
(0.05530173013801799 0 0)
(0.03998799236284212 0 0)
(0.02191008629914346 0 0)
(0.0009174391034702303 0 0)
(-0.02293373602174861 0 0)
(-0.04895515584355885 0 0)
(-0.07481520291230193 0 0)
(-0.0954573337201516 0 0)
(-0.1058389932309346 0 0)
(-0.1081229245376787 0 0)
(-0.1082440158944889 0 0)
(-0.1082302961372322 0 0)
(-0.1081117400134326 0 0)
(-0.1078008708890936 0 0)
(-0.1071539534837384 0 0)
(-0.1060159341223069 0 0)
(-0.1042092878261753 0 0)
(-0.1015400534064137 0 0)
(-0.09780096540545699 0 0)
(-0.0927779703156381 0 0)
(-0.08625685451541665 0 0)
(-0.07802789503806071 0 0)
(-0.06789030967278871 0 0)
(-0.05565749630551868 0 0)
(-0.04115851034123456 0 0)
(-0.02423525377867774 0 0)
(-0.00475547426023934 0 0)
(0.01730632959816091 0 0)
(0.041603237555913 0 0)
(0.06672025358777657 0 0)
(0.08899069130371483 0 0)
(0.1029695216298044 0 0)
(0.107490039415661 0 0)
(0.1079698091601534 0 0)
(0.1079578608783837 0 0)
(0.1079027085471399 0 0)
(0.107688145634907 0 0)
(0.1072078645496455 0 0)
(0.1063107843057603 0 0)
(0.1048272143833864 0 0)
(0.1025642432852867 0 0)
(0.09930956904482149 0 0)
(0.09483296292678384 0 0)
(0.08888908135618556 0 0)
(0.08122311183564786 0 0)
(0.07157645783893825 0 0)
(0.05968902050605988 0 0)
(0.04530182201215661 0 0)
(0.02816918368670996 0 0)
(0.00809356513031996 0 0)
(-0.01497024400689635 0 0)
(-0.04059004803197591 0 0)
(-0.06701478788984026 0 0)
(-0.0899010347617039 0 0)
(-0.1034365192652826 0 0)
(-0.1073625655638402 0 0)
(-0.1077102048740471 0 0)
(-0.1077089782567198 0 0)
(-0.1076265141747735 0 0)
(-0.107390670417978 0 0)
(-0.1068644246687779 0 0)
(-0.105903637949616 0 0)
(-0.1043400927865241 0 0)
(-0.1019886840391675 0 0)
(-0.09864992251950941 0 0)
(-0.09411534827189191 0 0)
(-0.08817217918281878 0 0)
(-0.08060678036462876 0 0)
(-0.07120932614159248 0 0)
(-0.05977917703604391 0 0)
(-0.04612594918272318 0 0)
(-0.03006723282147917 0 0)
(-0.01143964658869262 0 0)
(0.009841230738109602 0 0)
(0.03358729369194667 0 0)
(0.058796363543695 0 0)
(0.0825353791779663 0 0)
(0.09946450465255467 0 0)
(0.106359677968331 0 0)
(0.1074297548444329 0 0)
(0.1074499524287476 0 0)
(0.1074208608936291 0 0)
(0.1072630139001126 0 0)
(0.1068839582735099 0 0)
(0.1061407359200209 0 0)
(0.1048744277426037 0 0)
(0.1029025292399349 0 0)
(0.1000224544935061 0 0)
(0.09601178862099119 0 0)
(0.09063053715503558 0 0)
(0.08362567469526606 0 0)
(0.07473493532285494 0 0)
(0.06368828608471347 0 0)
(0.05021168712207072 0 0)
(0.03403866249672233 0 0)
(0.01493610213111902 0 0)
(-0.007220513062952519 0 0)
(-0.03220305833171533 0 0)
(-0.05876115598171487 0 0)
(-0.08336923013579627 0 0)
(-0.1001128659342477 0 0)
(-0.1063367260075942 0 0)
(-0.1071728801699453 0 0)
(-0.1071892375781755 0 0)
(-0.1071355747151619 0 0)
(-0.1069630203661619 0 0)
(-0.1065422530656233 0 0)
(-0.1057397979082027 0 0)
(-0.104395616107501 0 0)
(-0.1023328585313896 0 0)
(-0.09935953198638597 0 0)
(-0.09527302396882401 0 0)
(-0.08986325695593889 0 0)
(-0.08291558602242551 0 0)
(-0.07421562715488912 0 0)
(-0.06355409738074115 0 0)
(-0.05072718917959317 0 0)
(-0.03553519038964023 0 0)
(-0.01779234643090821 0 0)
(0.002629985570224928 0 0)
(0.02566650997972254 0 0)
(0.0506496650753159 0 0)
(0.07534401169451813 0 0)
(0.09493691900588294 0 0)
(0.1047113374822265 0 0)
(0.1068379646524718 0 0)
(0.1069488839914664 0 0)
(0.1069363981283301 0 0)
(0.1068244619715833 0 0)
(0.1065323409885367 0 0)
(0.1059241166294225 0 0)
(0.1048514833877665 0 0)
(0.1031415033825188 0 0)
(0.1006008136685663 0 0)
(0.09701507066213631 0 0)
(0.09215094926297637 0 0)
(0.0857595844750053 0 0)
(0.0775786822625516 0 0)
(0.06733359605325323 0 0)
(0.05474190486779384 0 0)
(0.03952358425964106 0 0)
(0.02141934383735421 0 0)
(0.0002448496402245412 0 0)
(-0.02392787367465388 0 0)
(-0.05025592837562805 0 0)
(-0.07601705107980458 0 0)
(-0.09573273805391704 0 0)
(-0.1048491084086861 0 0)
(-0.1065993292143166 0 0)
(-0.1066728556426101 0 0)
(-0.1066396474040359 0 0)
(-0.1065197914676542 0 0)
(-0.1061900463908476 0 0)
(-0.1055282079744786 0 0)
(-0.1043816749864026 0 0)
(-0.1025814068373201 0 0)
(-0.09994264257375009 0 0)
(-0.09626864357629089 0 0)
(-0.09135283943580919 0 0)
(-0.08498163964372303 0 0)
(-0.07693925098773809 0 0)
(-0.0670115401897828 0 0)
(-0.05498582467185609 0 0)
(-0.04065067583461591 0 0)
(-0.02380470779837282 0 0)
(-0.004286464362288896 0 0)
(0.01793141679698908 0 0)
(0.04244106993178332 0 0)
(0.06761220478821078 0 0)
(0.08939636079890256 0 0)
(0.1023265080449743 0 0)
(0.1061175095099091 0 0)
(0.106459208636135 0 0)
(0.1064506735324704 0 0)
(0.1063645823992644 0 0)
(0.106135508664677 0 0)
(0.1056385311092606 0 0)
(0.1047398678135171 0 0)
(0.1032775216946386 0 0)
(0.1010659887883684 0 0)
(0.09789519292999362 0 0)
(0.09353217126056698 0 0)
(0.08772446197355875 0 0)
(0.08020503449880466 0 0)
(0.07069762354080089 0 0)
(0.05892090960753481 0 0)
(0.04459328724290425 0 0)
(0.02744464090119757 0 0)
(0.007256296509351889 0 0)
(-0.01600803854922971 0 0)
(-0.04183496535774091 0 0)
(-0.06819821938508669 0 0)
(-0.09036721764022122 0 0)
(-0.1027219288310462 0 0)
(-0.1059289405672709 0 0)
(-0.1061355147356213 0 0)
(-0.1060379652288305 0 0)
(-0.1057616633286807 0 0)
(-0.1053187296661127 0 0)
(-0.1046114359215736 0 0)
(-0.1035268446791647 0 0)
(-0.1019470988210249 0 0)
(-0.09972139368820812 0 0)
(-0.09665478050327965 0 0)
(-0.09250577493961784 0 0)
(-0.08699076661458098 0 0)
(-0.0797976266163493 0 0)
(-0.07060996715016335 0 0)
(-0.05913742414420907 0 0)
(-0.04514115383643266 0 0)
(-0.02845239757745378 0 0)
(-0.008981268274260936 0 0)
(0.01321750468013303 0 0)
(0.03777058314563231 0 0)
(0.06346933834882809 0 0)
(0.0867175504173381 0 0)
(0.1019804262778554 0 0)
(0.1070836453253052 0 0)
(0.1070737499900763 0 0)
(0.1054218713040504 0 0)
(0.1027943817725888 0 0)
(0.09943102245423713 0 0)
(0.09540614324778979 0 0)
(0.09066253273186602 0 0)
(0.08509218738184073 0 0)
(0.0786610196691951 0 0)
(0.07138864536397294 0 0)
(0.06261896336638231 0 0)
(0.05382697770959207 0 0)
(0.04429869825187288 0 0)
(0.03384762337787908 0 0)
(0.02230824560156366 0 0)
(0.009518253878031731 0 0)
(-0.004673234788346528 0 0)
(-0.02063355608246293 0 0)
(-0.03898593871278601 0 0)
(-0.05986833574392818 0 0)
(-0.08200094589219255 0 0)
(-0.10128829071958 0 0)
(-0.1126007690560208 0 0)
(-0.1164961774618931 0 0)
(-0.1172042365515334 0 0)
(-0.1166212484919204 0 0)
(-0.1151909962961294 0 0)
(-0.1135868243588224 0 0)
(-0.1123520207553683 0 0)
(-0.1110802089598005 0 0)
(-0.1094881645544339 0 0)
(-0.1073511624556259 0 0)
(-0.1044435151566043 0 0)
(-0.1005716060234361 0 0)
(-0.09551158666449668 0 0)
(-0.08896856363082008 0 0)
(-0.08060456692794729 0 0)
(-0.07009793150176387 0 0)
(-0.05718350554295051 0 0)
(-0.04164701560893976 0 0)
(-0.02330600702992565 0 0)
(-0.002118525613413243 0 0)
(0.02144152526719733 0 0)
(0.0460517571134809 0 0)
(0.06940230461324025 0 0)
(0.08758518666282769 0 0)
(0.09758582909352292 0 0)
(0.09956491606795083 0 0)
(0.09871843645333611 0 0)
(0.09676685038357097 0 0)
(0.09394285939687048 0 0)
(0.09039062543269566 0 0)
(0.08609755978815302 0 0)
(0.08102695705636935 0 0)
(0.07515785279528119 0 0)
(0.06843883800387038 0 0)
(0.06048033396855471 0 0)
(0.05186169615017729 0 0)
(0.04246426774817223 0 0)
(0.03203531106420093 0 0)
(0.02053284998372684 0 0)
(0.007832511201798554 0 0)
(-0.006324972139933497 0 0)
(-0.02224948675297927 0 0)
(-0.04027620435653569 0 0)
(-0.06041550932608128 0 0)
(-0.08190572276256171 0 0)
(-0.1023904905588928 0 0)
(-0.1171060461088245 0 0)
(-0.1237239948531537 0 0)
(-0.1254808535917752 0 0)
(-0.1254991702399139 0 0)
(-0.1245192226734983 0 0)
(-0.1225754614386494 0 0)
(-0.121052221150051 0 0)
(-0.119444432280344 0 0)
(-0.1176537083015028 0 0)
(-0.1155102086336548 0 0)
(-0.1127837681678142 0 0)
(-0.1092643862511232 0 0)
(-0.1046860210850397 0 0)
(-0.09871982910909599 0 0)
(-0.09099648612978171 0 0)
(-0.08117470933816555 0 0)
(-0.06899962069887941 0 0)
(-0.05431085608992219 0 0)
(-0.03700486853201773 0 0)
(-0.01705641285074223 0 0)
(0.005214670598458201 0 0)
(0.02881154092721316 0 0)
(0.05183738307464015 0 0)
(0.0715792683716435 0 0)
(0.08466944133019504 0 0)
(0.08881132062799589 0 0)
(0.08866327567026944 0 0)
(0.08716584111061638 0 0)
(0.08480548926268952 0 0)
(0.08182221292591729 0 0)
(0.07820551403874727 0 0)
(0.07387090630313929 0 0)
(0.06876126134860615 0 0)
(0.06283068585100934 0 0)
(0.05582814452226127 0 0)
(0.04797121202123551 0 0)
(0.03904495157782274 0 0)
(0.02895336847838579 0 0)
(0.01764208332719322 0 0)
(0.004955435047943247 0 0)
(-0.009296818504252315 0 0)
(-0.0252481154501988 0 0)
(-0.04302317822947825 0 0)
(-0.06273504794363093 0 0)
(-0.08388995181384178 0 0)
(-0.1049496874155473 0 0)
(-0.1222942599287954 0 0)
(-0.1317179914864007 0 0)
(-0.1344901660626663 0 0)
(-0.1347356312341028 0 0)
(-0.1338265574113138 0 0)
(-0.1320606510638836 0 0)
(-0.1300826980307633 0 0)
(-0.1282247402963152 0 0)
(-0.1261452504530853 0 0)
(-0.1238385118640751 0 0)
(-0.1210843255730449 0 0)
(-0.1177330911609724 0 0)
(-0.1135527608411187 0 0)
(-0.1082169822539697 0 0)
(-0.101299882355807 0 0)
(-0.09236291110578841 0 0)
(-0.08105443651748324 0 0)
(-0.06716420560134054 0 0)
(-0.05062393966138085 0 0)
(-0.03150011431258158 0 0)
(-0.01012139917728546 0 0)
(0.01266454325936048 0 0)
(0.03530602040134211 0 0)
(0.05559561731821971 0 0)
(0.07063299702094845 0 0)
(0.07657188270653019 0 0)
(0.07685948847086944 0 0)
(0.07534963937510129 0 0)
(0.07285324955628709 0 0)
(0.07002025354702394 0 0)
(0.06693340161838661 0 0)
(0.06319612283975858 0 0)
(0.05899554402402939 0 0)
(0.05411413837177224 0 0)
(0.04834063491968646 0 0)
(0.04148609348966709 0 0)
(0.03340716485728636 0 0)
(0.02401935165743657 0 0)
(0.01326269771933605 0 0)
(0.001029420927429749 0 0)
(-0.01287808238569198 0 0)
(-0.02868737445760866 0 0)
(-0.04648139073005306 0 0)
(-0.06619616471799765 0 0)
(-0.08740957953037803 0 0)
(-0.1088582518694164 0 0)
(-0.128081604962098 0 0)
(-0.140674390221262 0 0)
(-0.1448610860142898 0 0)
(-0.1450346295301091 0 0)
(-0.1437833295571384 0 0)
(-0.1416285255770525 0 0)
(-0.1391537302821789 0 0)
(-0.1368944656220523 0 0)
(-0.1347439537989994 0 0)
(-0.1323115915459011 0 0)
(-0.129538477918224 0 0)
(-0.1261997532014418 0 0)
(-0.1221088824546997 0 0)
(-0.117026116032336 0 0)
(-0.1106700267671164 0 0)
(-0.1026946017217567 0 0)
(-0.0926908353035772 0 0)
(-0.0802304850087863 0 0)
(-0.06496680544107125 0 0)
(-0.04677273036321486 0 0)
(-0.0258793170041102 0 0)
(-0.003124781915430154 0 0)
(0.02001976934625664 0 0)
(0.0411355960930506 0 0)
(0.05793050452375533 0 0)
(0.06536155215571746 0 0)
(0.06534891652406234 0 0)
(0.06263341461522998 0 0)
(0.05891690753115659 0 0)
(0.05536835701330434 0 0)
(0.05235844607499702 0 0)
(0.04868721098987978 0 0)
(0.04550704295813394 0 0)
(0.04159063729779189 0 0)
(0.03696194562257527 0 0)
(0.03143443511400721 0 0)
(0.02475996164166024 0 0)
(0.01663979453171722 0 0)
(0.006801469373262422 0 0)
(-0.004872295043764221 0 0)
(-0.01834712301435652 0 0)
(-0.03356737545102798 0 0)
(-0.05059668329962555 0 0)
(-0.0696212111877632 0 0)
(-0.09066467300375054 0 0)
(-0.1128907974109991 0 0)
(-0.1341155617283786 0 0)
(-0.1506173149060951 0 0)
(-0.1577890214109958 0 0)
(-0.1579862291404046 0 0)
(-0.1555680482774848 0 0)
(-0.1520585584492738 0 0)
(-0.1485354021946051 0 0)
(-0.1452027664820641 0 0)
(-0.1428435111846709 0 0)
(-0.1406997459025766 0 0)
(-0.1381524744917944 0 0)
(-0.1350158166726385 0 0)
(-0.1310594431727043 0 0)
(-0.1261380103922543 0 0)
(-0.1200588687863161 0 0)
(-0.1125245968662875 0 0)
(-0.1032027134963594 0 0)
(-0.09177468242861596 0 0)
(-0.07797444595917274 0 0)
(-0.06163100685619809 0 0)
(-0.04277527912275537 0 0)
(-0.02128129659911472 0 0)
(-5.120297231703702e-05 0 0)
(0.03251808071643321 0 0)
)
;

boundaryField
{
    inlet
    {
        type            zeroGradient;
    }
    outlet
    {
        type            characteristicPressureInletOutletVelocity;
        UName           U;
        pName           p;
        TName           T;
        phiName         phi;
        rhoName         rho;
        U               (0 0 0);
        p               101325;
        T               300;
        value           uniform (0.03251808071643321 0 0);
    }
    frontAndBack
    {
        type            empty;
    }
}


// ************************************************************************* //
