/*--------------------------------*- C++ -*----------------------------------*\
| =========                 |                                                 |
| \\      /  F ield         | OpenFOAM: The Open Source CFD Toolbox           |
|  \\    /   O peration     | Version:  v2012                                 |
|   \\  /    A nd           | Website:  www.openfoam.com                      |
|    \\/     M anipulation  |                                                 |
\*---------------------------------------------------------------------------*/
FoamFile
{
    version     2.0;
    format      ascii;
    class       volVectorField;
    location    "0.009";
    object      UMean;
}
// * * * * * * * * * * * * * * * * * * * * * * * * * * * * * * * * * * * * * //

dimensions      [0 1 -1 0 0 0 0];


internalField   nonuniform List<vector> 
1000
(
(-3.409346009672934e-05 0 0)
(6.268570590074411e-06 0 0)
(2.892013120786037e-05 0 0)
(7.241000537911722e-05 0 0)
(0.0001234427349174442 0 0)
(0.0001807361704696965 0 0)
(0.000251900057523651 0 0)
(0.0003288403543067923 0 0)
(0.0004170210739422893 0 0)
(0.0005100674079199014 0 0)
(0.0006066537792233592 0 0)
(0.0007029221273265914 0 0)
(0.0007988136470772307 0 0)
(0.000893474579057879 0 0)
(0.0009855075188292719 0 0)
(0.001072898757259644 0 0)
(0.001153714745423953 0 0)
(0.001226264156088068 0 0)
(0.001289294293202164 0 0)
(0.001341626184048325 0 0)
(0.001382520033144406 0 0)
(0.001410995052550602 0 0)
(0.001426794923894156 0 0)
(0.001429280649218343 0 0)
(0.001418706607858418 0 0)
(0.001394952566631773 0 0)
(0.001358801827617886 0 0)
(0.001310610568292434 0 0)
(0.001251404087628604 0 0)
(0.001181514692915257 0 0)
(0.00110186449977591 0 0)
(0.001013640435704073 0 0)
(0.0009204493905849623 0 0)
(0.0008257149200985916 0 0)
(0.0007310950587443991 0 0)
(0.0006366727721588907 0 0)
(0.0005431437553470706 0 0)
(0.0004515133036407213 0 0)
(0.0003633609151095169 0 0)
(0.0002805689607945238 0 0)
(0.0002051671545458452 0 0)
(0.0001389938547846626 0 0)
(8.353750477714368e-05 0 0)
(3.986289859110812e-05 0 0)
(8.683032327329063e-06 0 0)
(-9.531405205306385e-06 0 0)
(-1.453664028226369e-05 0 0)
(-6.265871144556754e-06 0 0)
(1.511143913835152e-05 0 0)
(4.924564780653843e-05 0 0)
(9.564816933324387e-05 0 0)
(0.0001538994813557355 0 0)
(0.0002236068117028421 0 0)
(0.0003040397309288842 0 0)
(0.0003928566567975327 0 0)
(0.0004858515430952802 0 0)
(0.0005796641479573023 0 0)
(0.0006734304575378675 0 0)
(0.0007670034909760935 0 0)
(0.0008597057176746393 0 0)
(0.000950899040919392 0 0)
(0.001039013927311883 0 0)
(0.00112263981490389 0 0)
(0.001199578837532901 0 0)
(0.001268148543431652 0 0)
(0.001326304204220348 0 0)
(0.001372925295310426 0 0)
(0.001406783272113672 0 0)
(0.001427624893640714 0 0)
(0.00143497744124788 0 0)
(0.001429161512214672 0 0)
(0.00141012020099411 0 0)
(0.001378424327797377 0 0)
(0.001334075366321942 0 0)
(0.001277507602764489 0 0)
(0.00120865470483579 0 0)
(0.001128684772295885 0 0)
(0.001040139647582681 0 0)
(0.0009478393615720511 0 0)
(0.0008547053874863176 0 0)
(0.0007617223231986914 0 0)
(0.0006689010691715056 0 0)
(0.000576742134725257 0 0)
(0.0004859481064636806 0 0)
(0.0003976471731186405 0 0)
(0.0003132915787035811 0 0)
(0.0002346780104792699 0 0)
(0.0001637172958906215 0 0)
(0.0001023479891779242 0 0)
(5.222184550460321e-05 0 0)
(1.466669056856759e-05 0 0)
(-9.521220161040158e-06 0 0)
(-1.994618810505652e-05 0 0)
(-1.663970996055208e-05 0 0)
(2.026484415886012e-07 0 0)
(3.027550080782327e-05 0 0)
(7.341351042159865e-05 0 0)
(0.0001295139098954309 0 0)
(0.0001984255803679846 0 0)
(0.0002789328753502406 0 0)
(0.0003676476303802522 0 0)
(0.0004596625859860889 0 0)
(0.0005521792550752448 0 0)
(0.0006446082819425011 0 0)
(0.0007369017073194417 0 0)
(0.0008284793340051225 0 0)
(0.0009189065962877728 0 0)
(0.001006936577461583 0 0)
(0.001091480466593124 0 0)
(0.001170657747656487 0 0)
(0.001242879654347989 0 0)
(0.001306012267392257 0 0)
(0.001358544834445482 0 0)
(0.001398775987273952 0 0)
(0.001425934626931126 0 0)
(0.001439225086044127 0 0)
(0.001438763455469423 0 0)
(0.001424462904471579 0 0)
(0.001396818954817247 0 0)
(0.001355752638496128 0 0)
(0.001301533011448027 0 0)
(0.001234064620092546 0 0)
(0.001154775088429809 0 0)
(0.001066882444052141 0 0)
(0.0009755723836198184 0 0)
(0.0008835822981848266 0 0)
(0.0007917334191299919 0 0)
(0.0006999905145182953 0 0)
(0.0006087938159707901 0 0)
(0.00051863874051078 0 0)
(0.000430465547727245 0 0)
(0.0003453972923279046 0 0)
(0.0002649936563633748 0 0)
(0.0001909265794826647 0 0)
(0.0001251350999479242 0 0)
(6.939955948010438e-05 0 0)
(2.545117510472322e-05 0 0)
(-5.47528178284821e-06 0 0)
(-2.245642856997948e-05 0 0)
(-2.516908118630232e-05 0 0)
(-1.350067833695595e-05 0 0)
(1.235549398758314e-05 0 0)
(5.236935043030543e-05 0 0)
(0.0001064209772539196 0 0)
(0.0001742793016129105 0 0)
(0.0002542702043221517 0 0)
(0.0003423976400473304 0 0)
(0.0004334937076190933 0 0)
(0.0005250141042814617 0 0)
(0.0006164384655181234 0 0)
(0.0007077700703850742 0 0)
(0.000798502981432807 0 0)
(0.000888317639124657 0 0)
(0.0009761708141351011 0 0)
(0.001061188328882548 0 0)
(0.001141747256603862 0 0)
(0.001216449564389821 0 0)
(0.001283278697105143 0 0)
(0.001340663404425675 0 0)
(0.001386698347771665 0 0)
(0.001420228526191927 0 0)
(0.001440031171389593 0 0)
(0.001445770310018298 0 0)
(0.001437015048806102 0 0)
(0.001414008236483157 0 0)
(0.001376554271602067 0 0)
(0.001324886054238272 0 0)
(0.001259036818442607 0 0)
(0.001180723234417229 0 0)
(0.001093632419247001 0 0)
(0.001003193124014266 0 0)
(0.0009121096300021606 0 0)
(0.0008211550627547223 0 0)
(0.0007302674525847035 0 0)
(0.0006398312562204614 0 0)
(0.0005502164670344614 0 0)
(0.0004622238453431659 0 0)
(0.0003767535647789674 0 0)
(0.0002951644657317776 0 0)
(0.0002188980771908138 0 0)
(0.0001497682619513052 0 0)
(8.950565077990963e-05 0 0)
(3.997713149223071e-05 0 0)
(2.685157374913095e-06 0 0)
(-2.101607926727835e-05 0 0)
(-3.034422138527737e-05 0 0)
(-2.470000932315534e-05 0 0)
(-3.919588322408696e-06 0 0)
(3.223291219298617e-05 0 0)
(8.372011822551459e-05 0 0)
(0.0001501909860851157 0 0)
(0.0002294993087027277 0 0)
(0.0003170393229771949 0 0)
(0.0004073682310240458 0 0)
(0.0004980779181777974 0 0)
(0.0005886953698673909 0 0)
(0.0006792487941654631 0 0)
(0.0007692919565856351 0 0)
(0.0008585886158648873 0 0)
(0.0009462403816170894 0 0)
(0.00103153276160158 0 0)
(0.001113050007879663 0 0)
(0.001189572009128031 0 0)
(0.00125924633537199 0 0)
(0.001320554921452733 0 0)
(0.001371555149465903 0 0)
(0.001410888859427939 0 0)
(0.00143702252286784 0 0)
(0.001449200137390317 0 0)
(0.001446570665048177 0 0)
(0.001428970448425577 0 0)
(0.001395925055965928 0 0)
(0.001347494132568221 0 0)
(0.00128373736869742 0 0)
(0.001206627521550494 0 0)
(0.001120341077761421 0 0)
(0.001030641504554751 0 0)
(0.0009403076617517586 0 0)
(0.0008500911435299351 0 0)
(0.0007599126118611693 0 0)
(0.0006701142817926608 0 0)
(0.000580975869457202 0 0)
(0.0004931898365471392 0 0)
(0.0004074907703994504 0 0)
(0.0003250674884487497 0 0)
(0.0002471661202962231 0 0)
(0.0001754446299906705 0 0)
(0.0001115231368064622 0 0)
(5.727540603614752e-05 0 0)
(1.432063148143792e-05 0 0)
(-1.570981207661233e-05 0 0)
(-3.165006015883227e-05 0 0)
(-3.24313208531313e-05 0 0)
(-1.742598822977584e-05 0 0)
(1.401694504762337e-05 0 0)
(6.211890942711045e-05 0 0)
(0.0001265634206556324 0 0)
(0.0002048421672145049 0 0)
(0.0002917263310936499 0 0)
(0.0003813934451760401 0 0)
(0.0004714306167482471 0 0)
(0.0005613796983767532 0 0)
(0.0006512854123968918 0 0)
(0.0007407541622132678 0 0)
(0.0008296030982537057 0 0)
(0.0009170523743850701 0 0)
(0.001002507157676749 0 0)
(0.001084724922828206 0 0)
(0.001162637432665527 0 0)
(0.00123456149194784 0 0)
(0.00129907361436935 0 0)
(0.001354276600659823 0 0)
(0.001398720740814916 0 0)
(0.001430695021917508 0 0)
(0.001449120834253002 0 0)
(0.001452772080854964 0 0)
(0.001441054612371232 0 0)
(0.001413124717558329 0 0)
(0.001368725105163682 0 0)
(0.001307787895379407 0 0)
(0.001232373702424912 0 0)
(0.00114706036545006 0 0)
(0.001058047586516897 0 0)
(0.0009683568984656985 0 0)
(0.0008787683046766919 0 0)
(0.0007891973673804863 0 0)
(0.000699948244265879 0 0)
(0.0006112359675314813 0 0)
(0.000523662790817798 0 0)
(0.0004378420485156913 0 0)
(0.0003548142239219502 0 0)
(0.0002756630005640224 0 0)
(0.0002018908069594481 0 0)
(0.0001349899380976725 0 0)
(7.677221079736633e-05 0 0)
(2.888759127408645e-05 0 0)
(-6.880567359430882e-06 0 0)
(-2.909137908922969e-05 0 0)
(-3.629152828669723e-05 0 0)
(-2.740587298412105e-05 0 0)
(-1.332462621896499e-06 0 0)
(4.253033240888244e-05 0 0)
(0.0001040730260749104 0 0)
(0.0001806821750593293 0 0)
(0.0002666697663749311 0 0)
(0.0003557094088780588 0 0)
(0.0004451613045233951 0 0)
(0.0005345361729061549 0 0)
(0.0006238833798137258 0 0)
(0.0007128564097945827 0 0)
(0.0008013115835868427 0 0)
(0.0008885676697693731 0 0)
(0.0009741166154021068 0 0)
(0.001056864413833034 0 0)
(0.001135868776937368 0 0)
(0.001209608529508766 0 0)
(0.00127676078715536 0 0)
(0.001335519130635309 0 0)
(0.001384410348260169 0 0)
(0.001421639760941126 0 0)
(0.001445901912724714 0 0)
(0.001455688157290641 0 0)
(0.001450017396840987 0 0)
(0.001427678092541622 0 0)
(0.001388037129640578 0 0)
(0.001330765230133731 0 0)
(0.001257764949600272 0 0)
(0.001173778759142864 0 0)
(0.001085479879802295 0 0)
(0.0009963652375445508 0 0)
(0.0009073313917279679 0 0)
(0.0008182986678774228 0 0)
(0.0007295351964307937 0 0)
(0.0006412106093026108 0 0)
(0.0005538493124823254 0 0)
(0.0004679722455943159 0 0)
(0.000384494212646974 0 0)
(0.0003043656624821344 0 0)
(0.0002289419371481458 0 0)
(0.0001595916764690961 0 0)
(9.803089205300039e-05 0 0)
(4.589026470706392e-05 0 0)
(5.015586549659452e-06 0 0)
(-2.297015335329359e-05 0 0)
(-3.633802293729697e-05 0 0)
(-3.364077609756582e-05 0 0)
(-1.337261322740426e-05 0 0)
(2.548271597011597e-05 0 0)
(8.31669635828818e-05 0 0)
(0.0001572851857714436 0 0)
(0.0002419924835327636 0 0)
(0.0003303747150012521 0 0)
(0.0004192932478172855 0 0)
(0.0005081507083000552 0 0)
(0.0005969937957312675 0 0)
(0.0006855220836409684 0 0)
(0.0007736190389769982 0 0)
(0.0008606859662896547 0 0)
(0.00094628431302857 0 0)
(0.001029443680101038 0 0)
(0.001109325834805036 0 0)
(0.001184554786422811 0 0)
(0.001253907900739077 0 0)
(0.001315685378225178 0 0)
(0.001368432146888287 0 0)
(0.001410331934972396 0 0)
(0.001439936333882167 0 0)
(0.001455541600400026 0 0)
(0.001455862800960102 0 0)
(0.001439374900121501 0 0)
(0.001405077720134855 0 0)
(0.001352294035927245 0 0)
(0.001282535853187422 0 0)
(0.001200381427701777 0 0)
(0.001112908350830662 0 0)
(0.001024333214319151 0 0)
(0.0009358056816169569 0 0)
(0.0008472657324486844 0 0)
(0.000758947432003655 0 0)
(0.0006709848214487373 0 0)
(0.0005838351213419058 0 0)
(0.0004979466793892095 0 0)
(0.000414128681954629 0 0)
(0.0003332217251483737 0 0)
(0.0002564478514829633 0 0)
(0.0001850619641192254 0 0)
(0.0001206726213725988 0 0)
(6.486262951726072e-05 0 0)
(1.948121089527872e-05 0 0)
(-1.374579422985074e-05 0 0)
(-3.291084332275386e-05 0 0)
(-3.629295058532477e-05 0 0)
(-2.206532065252776e-05 0 0)
(1.117587059015506e-05 0 0)
(6.410916875707764e-05 0 0)
(0.0001348457347226888 0 0)
(0.0002177602859275857 0 0)
(0.0003053817482320526 0 0)
(0.0003937926270837419 0 0)
(0.0004821673322041188 0 0)
(0.0005705385902182604 0 0)
(0.0006586499706609803 0 0)
(0.000746407164892878 0 0)
(0.0008332831186968628 0 0)
(0.0009188941509582661 0 0)
(0.001002374975270787 0 0)
(0.001082974263028247 0 0)
(0.00115944318489692 0 0)
(0.001230652669160128 0 0)
(0.001295011328033331 0 0)
(0.001351105309371112 0 0)
(0.001397139217401299 0 0)
(0.001431586376026975 0 0)
(0.001452623422215427 0 0)
(0.001458748076056194 0 0)
(0.001448195959779912 0 0)
(0.001419647919215753 0 0)
(0.001372055176449504 0 0)
(0.001306374717680691 0 0)
(0.001226681246188031 0 0)
(0.001140251216544169 0 0)
(0.001052212043853514 0 0)
(0.0009641593367514116 0 0)
(0.0008760821743706388 0 0)
(0.0007881848141705252 0 0)
(0.0007005703560225492 0 0)
(0.0006136379541233166 0 0)
(0.0005277770582545669 0 0)
(0.0004437048756129787 0 0)
(0.0003621711922328524 0 0)
(0.0002842813309506286 0 0)
(0.0002111868001609346 0 0)
(0.0001443889233362759 0 0)
(8.540575544294278e-05 0 0)
(3.605218258949075e-05 0 0)
(-1.902663355936552e-06 0 0)
(-2.645339835154557e-05 0 0)
(-3.569692466407016e-05 0 0)
(-2.757423823343979e-05 0 0)
(-3.556875240541714e-07 0 0)
(4.709134494331974e-05 0 0)
(0.0001135686069539448 0 0)
(0.0001940504964917499 0 0)
(0.0002807101784307319 0 0)
(0.0003686138102355189 0 0)
(0.0004565265853920594 0 0)
(0.0005444453059685301 0 0)
(0.0006321537265719303 0 0)
(0.0007195779902399047 0 0)
(0.0008062526821182449 0 0)
(0.0008918417622059298 0 0)
(0.0009755690502398172 0 0)
(0.001056757512382066 0 0)
(0.001134269171933287 0 0)
(0.00120706063814226 0 0)
(0.001273643773471404 0 0)
(0.001332659409080144 0 0)
(0.0013823570886715 0 0)
(0.001421180195608293 0 0)
(0.001447245650198753 0 0)
(0.001458909379762044 0 0)
(0.001454240931908642 0 0)
(0.001431669090060949 0 0)
(0.00138979664036122 0 0)
(0.001328957094877042 0 0)
(0.001252449309378928 0 0)
(0.001167410962382156 0 0)
(0.001079947543957359 0 0)
(0.0009923493808296909 0 0)
(0.0009047154480198078 0 0)
(0.0008172258990168531 0 0)
(0.0007299554309646898 0 0)
(0.0006432523891970248 0 0)
(0.0005574549099777764 0 0)
(0.0004732018099582749 0 0)
(0.0003911649763575515 0 0)
(0.0003123473229089692 0 0)
(0.0002378075462485937 0 0)
(0.0001689439581437802 0 0)
(0.0001072016859862071 0 0)
(5.433876048169326e-05 0 0)
(1.212428886508578e-05 0 0)
(-1.73990813516232e-05 0 0)
(-3.222223539964955e-05 0 0)
(-3.01342665397677e-05 0 0)
(-9.153331489304619e-06 0 0)
(3.226725177191159e-05 0 0)
(9.368758256268093e-05 0 0)
(0.0001709909024233614 0 0)
(0.0002563578079929682 0 0)
(0.0003437208561860625 0 0)
(0.0004311853348334594 0 0)
(0.0005186626660758854 0 0)
(0.0006059734046511923 0 0)
(0.0006930626936307038 0 0)
(0.0007795200441272876 0 0)
(0.000865051965344432 0 0)
(0.0009489591068718354 0 0)
(0.001030629719018716 0 0)
(0.001109022169353343 0 0)
(0.001183171334252898 0 0)
(0.001251685588538043 0 0)
(0.001313266878909906 0 0)
(0.001366223904188276 0 0)
(0.001409003839585009 0 0)
(0.001439707218296225 0 0)
(0.001456608692977716 0 0)
(0.001457674382379062 0 0)
(0.001441148565680116 0 0)
(0.001405340455177186 0 0)
(0.001349977199772629 0 0)
(0.001277421925180666 0 0)
(0.001194274456613116 0 0)
(0.001107495159515763 0 0)
(0.001020340958018257 0 0)
(0.0009331373299646998 0 0)
(0.0008460490655541567 0 0)
(0.0007591242127859631 0 0)
(0.0006726661768644568 0 0)
(0.0005869680233521523 0 0)
(0.000502599608108092 0 0)
(0.0004201647424337536 0 0)
(0.0003405759602065945 0 0)
(0.0002648080759807396 0 0)
(0.0001941625252586334 0 0)
(0.0001300080085538517 0 0)
(7.403238221105195e-05 0 0)
(2.797540341898774e-05 0 0)
(-6.125954497589872e-06 0 0)
(-2.621461535453125e-05 0 0)
(-2.999338350157626e-05 0 0)
(-1.530152242995738e-05 0 0)
(1.975001576671732e-05 0 0)
(7.544836705919899e-05 0 0)
(0.0001487710275446051 0 0)
(0.0002323602679965727 0 0)
(0.0003190912429482337 0 0)
(0.0004061141619959828 0 0)
(0.0004931570835145507 0 0)
(0.0005800709523052605 0 0)
(0.0006668185571625997 0 0)
(0.0007530387967101944 0 0)
(0.0008384775680550812 0 0)
(0.0009225028214945804 0 0)
(0.001004561652894197 0 0)
(0.00108369730809 0 0)
(0.001159016500594678 0 0)
(0.001229216635502718 0 0)
(0.001293063655713243 0 0)
(0.00134893328187181 0 0)
(0.001395298586109568 0 0)
(0.00143027437018083 0 0)
(0.001452098824482612 0 0)
(0.001458684647476263 0 0)
(0.001448151947506192 0 0)
(0.001418583659976687 0 0)
(0.001369174056959276 0 0)
(0.001301314147744897 0 0)
(0.001220699332689136 0 0)
(0.001134814402574525 0 0)
(0.00104810998414955 0 0)
(0.0009613269779168912 0 0)
(0.000874637197271238 0 0)
(0.0007880630567565501 0 0)
(0.0007018682189353984 0 0)
(0.0006163046998345108 0 0)
(0.0005318812055010518 0 0)
(0.0004491404905720487 0 0)
(0.0003689147337598127 0 0)
(0.0002921018365769809 0 0)
(0.0002199127567017217 0 0)
(0.000153639338724431 0 0)
(9.489210608125764e-05 0 0)
(4.536272470337247e-05 0 0)
(7.052444214662043e-06 0 0)
(-1.797528610629815e-05 0 0)
(-2.738857710762584e-05 0 0)
(-1.891160555414956e-05 0 0)
(9.603736225819647e-06 0 0)
(5.907853222040101e-05 0 0)
(0.0001276311707816332 0 0)
(0.0002088028945028112 0 0)
(0.0002947174671538219 0 0)
(0.0003812939879215647 0 0)
(0.0004679081732667036 0 0)
(0.0005544240512154594 0 0)
(0.000640820977133994 0 0)
(0.0007267828061541901 0 0)
(0.0008120922435224068 0 0)
(0.0008961775261250787 0 0)
(0.0009785397029739864 0 0)
(0.001058298035243831 0 0)
(0.001134625641563113 0 0)
(0.001206302506765461 0 0)
(0.001272159026919203 0 0)
(0.001330641591355438 0 0)
(0.001380263487490152 0 0)
(0.001419174267104338 0 0)
(0.001445607991381719 0 0)
(0.001457461871040404 0 0)
(0.001452781473544553 0 0)
(0.001429489310238158 0 0)
(0.001386347002691833 0 0)
(0.00132383803144701 0 0)
(0.001246500595532167 0 0)
(0.001161858219758231 0 0)
(0.001075641231188568 0 0)
(0.0009892714655942783 0 0)
(0.0009029786059193641 0 0)
(0.000816761637549479 0 0)
(0.0007308482307010464 0 0)
(0.0006454534713175584 0 0)
(0.0005610299946772384 0 0)
(0.0004780659616536685 0 0)
(0.0003973202480767745 0 0)
(0.0003196202976097652 0 0)
(0.0002460923183801943 0 0)
(0.000177952119766792 0 0)
(0.0001167302920095958 0 0)
(6.40574460295462e-05 0 0)
(2.188074069530806e-05 0 0)
(-7.760795213446262e-06 0 0)
(-2.253724521173003e-05 0 0)
(-2.011205324732337e-05 0 0)
(1.844138784928007e-06 0 0)
(4.476387151183635e-05 0 0)
(0.0001078387556146925 0 0)
(0.0001858307942780898 0 0)
(0.0002706115484609049 0 0)
(0.0003567131743399032 0 0)
(0.0004429031235058464 0 0)
(0.0005290198355480399 0 0)
(0.0006150558299586901 0 0)
(0.0007007384940700728 0 0)
(0.0007858829717297631 0 0)
(0.0008699743503517814 0 0)
(0.000952561805680127 0 0)
(0.001032835638722919 0 0)
(0.001110029198192842 0 0)
(0.001183000895208702 0 0)
(0.001250643817538952 0 0)
(0.001311477026672912 0 0)
(0.001364062419604353 0 0)
(0.001406597842066485 0 0)
(0.001437336287641571 0 0)
(0.001454186186081075 0 0)
(0.001455158332481392 0 0)
(0.001438071339626761 0 0)
(0.001401359566394348 0 0)
(0.001344724920575126 0 0)
(0.001271447235375823 0 0)
(0.001188554902925275 0 0)
(0.001102922473663026 0 0)
(0.001016962283850362 0 0)
(0.0009310657514428157 0 0)
(0.0008452120843879045 0 0)
(0.000759598136171001 0 0)
(0.000674403997496459 0 0)
(0.000590031302237312 0 0)
(0.0005069183914169726 0 0)
(0.0004257564555982702 0 0)
(0.0003473083815331507 0 0)
(0.0002726195380682383 0 0)
(0.0002028331735452276 0 0)
(0.0001393975077402417 0 0)
(8.387671483806066e-05 0 0)
(3.814955896861582e-05 0 0)
(4.212201790367759e-06 0 0)
(-1.563666141430455e-05 0 0)
(-1.903975839166363e-05 0 0)
(-3.556012794313151e-06 0 0)
(3.263605990638115e-05 0 0)
(8.965741953465361e-05 0 0)
(0.0001636486396383251 0 0)
(0.0002468155951982154 0 0)
(0.0003323643119074314 0 0)
(0.00041813333472904 0 0)
(0.0005038495707696014 0 0)
(0.0005895157143519601 0 0)
(0.0006748988556104431 0 0)
(0.0007598454436312135 0 0)
(0.0008438918518085057 0 0)
(0.0009266335892328534 0 0)
(0.001007325274700912 0 0)
(0.001085258006500698 0 0)
(0.001159362890474394 0 0)
(0.001228595369012709 0 0)
(0.001291546310961858 0 0)
(0.001346831795102216 0 0)
(0.001392706583066899 0 0)
(0.001427457658976202 0 0)
(0.001449024883120123 0 0)
(0.001455412319433672 0 0)
(0.00144438308651411 0 0)
(0.001414137071552935 0 0)
(0.001363749049584933 0 0)
(0.001295275376294642 0 0)
(0.001214792406225263 0 0)
(0.001129938899093875 0 0)
(0.001044395799225846 0 0)
(0.0009588937638516043 0 0)
(0.0008734090263762444 0 0)
(0.0007881106156040431 0 0)
(0.0007031463275601672 0 0)
(0.0006188706975821541 0 0)
(0.0005356760133977375 0 0)
(0.0004541910208420725 0 0)
(0.0003751178718647403 0 0)
(0.0002994262671847004 0 0)
(0.0002281886282306138 0 0)
(0.0001627721904476442 0 0)
(0.0001046699233472232 0 0)
(5.568547090377017e-05 0 0)
(1.775779783252708e-05 0 0)
(-6.864445518515138e-06 0 0)
(-1.583546794404156e-05 0 0)
(-6.656829777223303e-06 0 0)
(2.277010926880398e-05 0 0)
(7.332062443325992e-05 0 0)
(0.0001425087551783276 0 0)
(0.0002234166342383052 0 0)
(0.0003082475025987257 0 0)
(0.0003935932340119449 0 0)
(0.0004789085401292514 0 0)
(0.0005641968338623686 0 0)
(0.000649262376209544 0 0)
(0.0007339802510225338 0 0)
(0.0008179349164123018 0 0)
(0.0009007651627040466 0 0)
(0.0009817860024794163 0 0)
(0.001060342706528842 0 0)
(0.001135435843334656 0 0)
(0.001206081059385263 0 0)
(0.001270940739286031 0 0)
(0.001328687265673258 0 0)
(0.001377638221467161 0 0)
(0.001416123971287517 0 0)
(0.001442129343141737 0 0)
(0.001453672772568781 0 0)
(0.001448499358495336 0 0)
(0.001424652172716994 0 0)
(0.001380734209664867 0 0)
(0.00131771144158458 0 0)
(0.001240403734893228 0 0)
(0.001156671910630017 0 0)
(0.001071586177684656 0 0)
(0.0009864775125565505 0 0)
(0.0009013619592441851 0 0)
(0.0008163808566153839 0 0)
(0.0007316534265054696 0 0)
(0.0006474953710578762 0 0)
(0.0005642646987853379 0 0)
(0.0004825376721776482 0 0)
(0.0004029665721058319 0 0)
(0.0003264522092748993 0 0)
(0.000253988899566831 0 0)
(0.0001868520024146444 0 0)
(0.0001264718130502106 0 0)
(7.452599448502528e-05 0 0)
(3.285799248397306e-05 0 0)
(3.731589370901535e-06 0 0)
(-1.062197718492146e-05 0 0)
(-7.644177939368936e-06 0 0)
(1.499102327294198e-05 0 0)
(5.875366319066522e-05 0 0)
(0.0001222513100804996 0 0)
(0.0002000164585381969 0 0)
(0.0002837662858823461 0 0)
(0.0003686706103088957 0 0)
(0.0004536878158068665 0 0)
(0.000538808557939937 0 0)
(0.0006238642658686193 0 0)
(0.0007087551765574051 0 0)
(0.0007931586256618288 0 0)
(0.0008766485835151429 0 0)
(0.0009585116706594476 0 0)
(0.001038022634421392 0 0)
(0.001114269798350092 0 0)
(0.001186157944233707 0 0)
(0.001252540303281456 0 0)
(0.001312141665372054 0 0)
(0.001363574120811638 0 0)
(0.001405455343446813 0 0)
(0.001436338178069112 0 0)
(0.001453970685090856 0 0)
(0.001456381191829253 0 0)
(0.001441402863749122 0 0)
(0.001406440623287082 0 0)
(0.001352158680444352 0 0)
(0.001282049974442957 0 0)
(0.001202934976685035 0 0)
(0.001120071250921164 0 0)
(0.001035127610869736 0 0)
(0.0009484558115061128 0 0)
(0.0008594590382599045 0 0)
(0.0007685191952514478 0 0)
(0.0006754300222293386 0 0)
(0.0005789974377798056 0 0)
(0.0004806324133226229 0 0)
(0.0003802504608882293 0 0)
(0.000279198256533202 0 0)
(0.000177760806258813 0 0)
(8.053839368953968e-05 0 0)
(-1.317955528069337e-05 0 0)
(-9.973353495642981e-05 0 0)
(-0.0001767105607706428 0 0)
(-0.0002404231258933487 0 0)
(-0.0002885754884434266 0 0)
(-0.0003167596437142806 0 0)
(-0.0003243228921695814 0 0)
(-0.000307315755947339 0 0)
(-0.0002666026995470925 0 0)
(-0.0002079628088719601 0 0)
(-0.0001378982460296603 0 0)
(-6.349058954565884e-05 0 0)
(1.368845947192582e-05 0 0)
(9.196719294183483e-05 0 0)
(0.0001724192024083537 0 0)
(0.0002510422274615323 0 0)
(0.0003297772749619534 0 0)
(0.0004069972684749078 0 0)
(0.0004842713139031878 0 0)
(0.0005554199402017542 0 0)
(0.0006260842767442132 0 0)
(0.000691254446813688 0 0)
(0.0007546966743437995 0 0)
(0.0008113197423246575 0 0)
(0.000860219889980653 0 0)
(0.0009006476804256311 0 0)
(0.0009299048335550848 0 0)
(0.0009458725198359336 0 0)
(0.000947402882633373 0 0)
(0.0009314062295851328 0 0)
(0.0008960742806783841 0 0)
(0.0008416295594619874 0 0)
(0.000770357874705595 0 0)
(0.0006887638149319033 0 0)
(0.0005996397265544648 0 0)
(0.0005080009520779718 0 0)
(0.0004147099279812661 0 0)
(0.0003216176369432531 0 0)
(0.0002256945353360368 0 0)
(0.0001284442974901634 0 0)
(2.886367373003018e-05 0 0)
(-7.084098812254914e-05 0 0)
(-0.0001766748975041386 0 0)
(-0.0002801911512654846 0 0)
(-0.000387270000898196 0 0)
(-0.0004884566541302179 0 0)
(-0.0005862994329836813 0 0)
(-0.0006793001200165975 0 0)
(-0.0007629363045827063 0 0)
(-0.000835471490861705 0 0)
(-0.0008938437207543603 0 0)
(-0.0009342296389853841 0 0)
(-0.0009541863390965883 0 0)
(-0.0009531423878064267 0 0)
(-0.0009286789857579042 0 0)
(-0.0008834584279875353 0 0)
(-0.0008226730801769551 0 0)
(-0.0007564292382944267 0 0)
(-0.0006870613225351197 0 0)
(-0.0006154127395040928 0 0)
(-0.0005412825042297058 0 0)
(-0.0004667836601539396 0 0)
(-0.0003951371934846231 0 0)
(-0.0003235139970488506 0 0)
(-0.0002526349427805499 0 0)
(-0.0001866852689725994 0 0)
(-0.0001237651592705458 0 0)
(-6.65909425165647e-05 0 0)
(-9.042314847644132e-06 0 0)
(4.455356964121647e-05 0 0)
(8.964583936322529e-05 0 0)
(0.000127686688177695 0 0)
(0.0001555415638258362 0 0)
(0.0001701059314487553 0 0)
(0.0001707603434069572 0 0)
(0.000155737593072885 0 0)
(0.0001189751473264457 0 0)
(6.381938192404051e-05 0 0)
(-8.245452005159011e-06 0 0)
(-9.455199489556401e-05 0 0)
(-0.0001898868694218409 0 0)
(-0.0002898890629443281 0 0)
(-0.0003915988086744184 0 0)
(-0.0004946640443432356 0 0)
(-0.0005948832869074684 0 0)
(-0.0007013676105114112 0 0)
(-0.0008067057329867565 0 0)
(-0.0009134688938292275 0 0)
(-0.001020427918864168 0 0)
(-0.001133254035232529 0 0)
(-0.001244350952593623 0 0)
(-0.0013527165301925 0 0)
(-0.001454787878506713 0 0)
(-0.001554297943032029 0 0)
(-0.001646074003263239 0 0)
(-0.001727224487044702 0 0)
(-0.001796711997761102 0 0)
(-0.001850315816737312 0 0)
(-0.001883076427733081 0 0)
(-0.001899309893208871 0 0)
(-0.001891148168837203 0 0)
(-0.001860726504377336 0 0)
(-0.001813406000650624 0 0)
(-0.001755696215435176 0 0)
(-0.001694936827746209 0 0)
(-0.00163062010665819 0 0)
(-0.001566349915567074 0 0)
(-0.001493121623638676 0 0)
(-0.001429445023804952 0 0)
(-0.001363226584921166 0 0)
(-0.001300768866590009 0 0)
(-0.001234651883966235 0 0)
(-0.001184010352711852 0 0)
(-0.001130064060214369 0 0)
(-0.001081992006189827 0 0)
(-0.001032445747810365 0 0)
(-0.0009910565711625562 0 0)
(-0.0009574828470054465 0 0)
(-0.0009314176956147599 0 0)
(-0.0009182970587095649 0 0)
(-0.0009192762567753014 0 0)
(-0.0009335425074639588 0 0)
(-0.0009683877672488438 0 0)
(-0.001023605942604641 0 0)
(-0.001097809932023844 0 0)
(-0.001187073989698457 0 0)
(-0.001287541868438718 0 0)
(-0.00139609392093439 0 0)
(-0.001507572631100245 0 0)
(-0.001622501785989545 0 0)
(-0.00173129509916709 0 0)
(-0.001847823640873423 0 0)
(-0.001962905324087539 0 0)
(-0.002079704519466961 0 0)
(-0.00219207302512359 0 0)
(-0.00231296722343966 0 0)
(-0.002431475298073006 0 0)
(-0.002548607365747415 0 0)
(-0.002657778037860507 0 0)
(-0.002762968847850696 0 0)
(-0.002863849529531584 0 0)
(-0.00295370483649903 0 0)
(-0.003034304998884129 0 0)
(-0.003101270286628658 0 0)
(-0.003148959106164043 0 0)
(-0.003176515608448051 0 0)
(-0.003189168319288884 0 0)
(-0.003177520413206125 0 0)
(-0.003143127800813602 0 0)
(-0.003096927345114999 0 0)
(-0.003046021960479189 0 0)
(-0.002990724156064993 0 0)
(-0.002933506633336819 0 0)
(-0.002870736491747529 0 0)
(-0.00280765273445953 0 0)
(-0.002749721161540353 0 0)
(-0.002691438405312338 0 0)
(-0.002635001793689336 0 0)
(-0.002581624155753805 0 0)
(-0.00254046949348835 0 0)
(-0.002497813299982658 0 0)
(-0.002454834422414209 0 0)
(-0.002416234071679037 0 0)
(-0.002386771993758952 0 0)
(-0.00236403960298914 0 0)
(-0.002353588853082666 0 0)
(-0.002357380907635329 0 0)
(-0.002373178128341887 0 0)
(-0.002403647558364943 0 0)
(-0.002461181876642838 0 0)
(-0.002535537181807175 0 0)
(-0.002622661144361821 0 0)
(-0.002727634108411899 0 0)
(-0.002842884207967467 0 0)
(-0.002964162924431961 0 0)
(-0.003089051986977063 0 0)
(-0.003216225530026091 0 0)
(-0.003336432963848436 0 0)
(-0.003468584038733809 0 0)
(-0.003595441787367365 0 0)
(-0.003723539560955118 0 0)
(-0.003844756423493145 0 0)
(-0.003982068999857178 0 0)
(-0.004108132979147793 0 0)
(-0.00422439662739512 0 0)
(-0.004338610386525389 0 0)
(-0.004448041576157932 0 0)
(-0.004549099787298039 0 0)
(-0.004640292342480425 0 0)
(-0.004721378412980337 0 0)
(-0.004784803176335449 0 0)
(-0.004825650342033936 0 0)
(-0.004852898126793142 0 0)
(-0.004859015571790366 0 0)
(-0.004845704388690007 0 0)
(-0.004813055705211998 0 0)
(-0.004772932959445948 0 0)
(-0.00472982228127906 0 0)
(-0.004680189526931438 0 0)
(-0.004629023761865437 0 0)
(-0.004567497155499348 0 0)
(-0.004515887104119119 0 0)
(-0.004463326063148692 0 0)
(-0.004414499216411118 0 0)
(-0.004361620158187687 0 0)
(-0.004330230146743999 0 0)
(-0.004294634478599172 0 0)
(-0.004256287780851606 0 0)
(-0.004222567616313316 0 0)
(-0.004196863822970485 0 0)
(-0.004178727463155112 0 0)
(-0.004168352505637643 0 0)
(-0.004176783750295471 0 0)
(-0.004195017414320268 0 0)
(-0.00423177030970158 0 0)
(-0.004258064719927387 0 0)
(-0.004404618240123808 0 0)
)
;

boundaryField
{
    inlet
    {
        type            calculated;
        value           uniform (-3.409346009672934e-05 0 0);
    }
    outlet
    {
        type            calculated;
        value           uniform (-0.004404618240123808 0 0);
    }
    frontAndBack
    {
        type            empty;
    }
}


// ************************************************************************* //
