/*--------------------------------*- C++ -*----------------------------------*\
| =========                 |                                                 |
| \\      /  F ield         | OpenFOAM: The Open Source CFD Toolbox           |
|  \\    /   O peration     | Version:  v2012                                 |
|   \\  /    A nd           | Website:  www.openfoam.com                      |
|    \\/     M anipulation  |                                                 |
\*---------------------------------------------------------------------------*/
FoamFile
{
    version     2.0;
    format      ascii;
    class       volScalarField;
    location    "0.007";
    object      p;
}
// * * * * * * * * * * * * * * * * * * * * * * * * * * * * * * * * * * * * * //

dimensions      [1 -1 -2 0 0 0 0];


internalField   nonuniform List<scalar> 
1000
(
101310.9424093984
101313.5797504035
101306.8390925795
101301.5406115352
101295.7023513308
101290.4602475755
101285.9453896588
101282.0822442086
101278.7669843729
101276.5398592597
101275.9433332011
101275.9624062265
101276.3305369741
101277.3487526772
101279.3287272526
101282.3334160613
101286.2501652935
101290.9032173381
101296.1463156162
101301.8773709491
101308.0121841326
101314.4600033092
101321.114495706
101327.8537581614
101334.54404677
101341.0498012663
101347.2535270876
101353.0833244623
101358.5315129208
101363.6141911198
101368.1777985077
101371.5682573778
101373.0170844375
101373.1815314074
101373.1155450056
101372.8497109794
101372.1097208274
101370.6562751626
101368.282030321
101364.8920814693
101360.5268250282
101355.3396509943
101349.5343243013
101343.3017488738
101336.7903789037
101330.1135454398
101323.3716567762
101316.667643738
101310.1067646959
101303.7783230788
101297.7266566561
101291.9493578004
101286.4977930054
101281.7455071516
101278.5845087797
101277.507846022
101277.4347327456
101277.4762587326
101277.7363631594
101278.3786554222
101279.6279795181
101281.676167828
101284.6596797915
101288.621866252
101293.5009115569
101299.1443270645
101305.3476036964
101311.9016036465
101318.627670951
101325.388272827
101332.0806787657
101338.6327533953
101345.0084082853
101351.2062412902
101357.2204890147
101362.9230396789
101367.8253000051
101370.9812153798
101372.0186790194
101372.0943561874
101372.0380252994
101371.8327310871
101371.2864645895
101370.2246036605
101368.4617552005
101365.8467699785
101362.2891746427
101357.7830122915
101352.412918256
101346.3397753573
101339.7709847229
101332.9238760594
101325.9904585633
101319.1119943971
101312.3700080813
101305.7929991995
101299.3758203569
101293.1302827274
101287.2279769656
101282.2691804199
101279.2680359143
101278.3941789857
101278.3498433218
101278.386253072
101278.5941722425
101279.0994270508
101280.0781532205
101281.6958261506
101284.0978436517
101287.3838647024
101291.5882096198
101296.6667540633
101302.4976697925
101308.8998136393
101315.6642758783
101322.5888652259
101329.5080818832
101336.3154162389
101342.971380081
101349.4833046882
101355.838618077
101361.8615362659
101366.9727451999
101370.1767761293
101371.2021236828
101371.2804789009
101371.2379232988
101371.0800343452
101370.6532442117
101369.8138968851
101368.4019320278
101366.2707665465
101363.3044483192
101359.4384227391
101354.6746151595
101349.0876465809
101342.819949847
101336.0633527788
101329.0269217494
101321.8987328405
101314.8156098909
101307.8522046372
101301.0368213075
101294.4140494844
101288.2038219765
101283.0643585165
101280.0141938688
101279.1358737791
101279.0862306917
101279.1136209528
101279.2777238269
101279.6852596992
101280.4837435708
101281.8175034904
101283.8233958843
101286.6128067824
101290.255637398
101294.7650621165
101300.0887447881
101306.1113585983
101312.6689367615
101319.5722281455
101326.6365546323
101333.7136577234
101340.7128885573
101347.5923140994
101354.2990221212
101360.6281337169
101365.9841791255
101369.3688160705
101370.4945963546
101370.5947451503
101370.564133729
101370.445782108
101370.1090917129
101369.4311052446
101368.2703517479
101366.4907760989
101363.9729030734
101360.6296656503
101356.4202806786
101351.3608257775
101345.5292136347
101339.0603040002
101332.1274896439
101324.9136061772
101317.5808751261
101310.2509799846
101303.0083851132
101295.9548226143
101289.366125109
101283.9476939234
101280.731777629
101279.7790755363
101279.7137963209
101279.7343343044
101279.8651063883
101280.1972157036
101280.8588699218
101281.9784355607
101283.6830878772
101286.0849033145
101289.2683819995
101293.2771196697
101298.1036177055
101303.6858750314
101309.9118203678
101316.6314349604
101323.6776064653
101330.8940071467
101338.1587925351
101345.3844142902
101352.470118552
101359.1726592609
101364.8755304463
101368.5591451999
101369.8622959421
101370.0012064405
101369.9795758488
101369.8902850567
101369.6216541322
101369.0670607663
101368.1003064593
101366.5956952078
101364.4358214773
101361.5241997357
101357.7968572551
101353.2328325982
101347.8621576707
101341.7674644046
101335.0751957923
101327.937256256
101320.5088877385
101312.9301184136
101305.3235944452
101297.8403882765
101290.8087760153
101284.9851214762
101281.46095532
101280.3604049673
101280.2691048384
101280.2824523074
101280.3848939138
101280.6557150753
101281.2091431009
101282.1598949648
101283.6249831418
101285.712857338
101288.5138054649
101292.0886789051
101296.4591459316
101301.6021254891
101307.4491787641
101313.8915719395
101320.7933886945
101328.0124467406
101335.4201882083
101342.9039691257
101350.3295118953
101357.4259647687
101363.5628660431
101367.6789645191
101369.2622353138
101369.4677162994
101369.4540583251
101369.3894297855
101369.1761810392
101368.7206787474
101367.9090015321
101366.6257402038
101364.7586270662
101362.2084055349
101358.8982405031
101354.7832884902
101349.8592910712
101344.1669845468
101337.789100101
101330.8401711785
101323.4522700239
101315.7610606151
101307.903615086
101300.0591259472
101292.5871938708
101286.2733579216
101282.28417647
101280.9160400165
101280.771582772
101280.7795194032
101280.8585129193
101281.07819353
101281.5412843342
101282.3521104698
101283.6192159853
101285.4463834285
101287.9249975822
101291.1249450324
101295.0863718683
101299.8138144144
101305.2730374318
101311.391767396
101318.0672413438
101325.1807739175
101332.612328304
101340.2423153462
101347.9217608573
101355.3729689577
101361.9772222124
101366.6449592356
101368.6471720074
101368.9739461404
101368.968806572
101368.9255985031
101368.7588133028
101368.3865777134
101367.7042500148
101366.6052047394
101364.9829825202
101362.7390019999
101359.7899844973
101356.0761659621
101351.5693497482
101346.2782805227
101340.2490248904
101333.5604317211
101326.3161582237
101318.6356558504
101310.6536558372
101302.5559840542
101294.7029632292
101287.8666581122
101283.2717282958
101281.4875838515
101281.2428836754
101281.2443099189
101281.3021262134
101281.4766998069
101281.861589384
101282.5527775346
101283.6514880836
101285.2566294428
101287.4586551297
101290.3321288394
101293.9289247404
101298.2727241437
101303.3548142986
101309.1325566243
101315.5333147001
101322.4638846459
101329.819999841
101337.486962493
101345.3164755598
101353.0437830537
101360.092507763
101365.3874427886
101367.9628034858
101368.4995755165
101368.5125961613
101368.485899324
101368.3588607943
101368.0581490129
101367.4869729722
101366.545850978
101365.1336154135
101363.1536847815
101360.519904049
101357.1634386087
101353.0397903949
101348.1341324765
101342.4635702679
101336.0763512233
101329.048341408
101321.4779371795
101313.4872692089
101305.2529364407
101297.1113202526
101289.7796025621
101284.4895631103
101282.1247615773
101281.6981356558
101281.6903378988
101281.7283045342
101281.8626852819
101282.1779132901
101282.7634998402
101283.7149329812
101285.1266411045
101287.0871564102
101289.6731582235
101292.9439383976
101296.9363710221
101301.66040908
101307.0965771468
101313.1976273325
101319.8940089947
101327.0993619625
101334.7104352529
101342.5897625888
101350.4987497937
101357.9259023158
101363.8608610428
101367.1446018644
101368.0206325353
101368.0752456945
101368.0599275159
101367.9669796674
101367.7290103349
101367.2553872277
101366.4526876096
101365.2242385421
101363.4758749848
101361.1204845059
101358.0837887958
101354.3104304057
101349.7687696615
101344.4537852137
101338.3886385661
101331.6245073841
101324.238348686
101316.3347906776
101308.0716872563
101299.7470793508
101291.9952377712
101285.9895693371
101282.887561599
101282.154978042
101282.1196301239
101282.1442225191
101282.2425956239
101282.4962303878
101282.9876235348
101283.807808413
101285.0474603415
101286.793154035
101289.122497674
101292.0995416304
101295.770194705
101300.157902014
101305.2609256896
101311.0525096851
101317.4833572451
101324.4843795198
101331.9665868659
101339.8085509964
101347.8037678835
101355.5165727223
101362.0450952356
101366.128682895
101367.5049487624
101367.6495817958
101367.6424986877
101367.5789630807
101367.396146448
101367.0089718674
101366.3288777784
101365.2632801501
101363.7205315581
101361.6137396677
101358.8655991906
101355.4134404915
101351.2134339011
101346.243927486
101340.5084040412
101334.0371129524
101326.8866751054
101319.1427812607
101310.9411929178
101302.5366370836
101294.4678326921
101287.7939257973
101283.8440093245
101282.6430984764
101282.5387945464
101282.5541644886
101282.6225916149
101282.8217015094
101283.2283767043
101283.9298904855
101285.0139015428
101286.5654242593
101288.6624431766
101291.372148735
101294.7468455817
101298.8197579746
101303.602278832
101309.0836286411
101315.2316780499
101321.9933716747
101329.2939554942
101337.0286215214
101345.0233299603
101352.9187542979
101359.9462079816
101364.8531957407
101366.9041175286
101367.2316824865
101367.2364281965
101367.1936520186
101367.0571440515
101366.7447480452
101366.1734266048
101365.2538097594
101363.8965533149
101362.0153183212
101359.5308484835
101356.3751095242
101352.4953425424
101347.8578344553
101342.4510834505
101336.2878513136
101329.4065276146
101321.8751797579
101313.8077183972
101305.4152168123
101297.1396232881
101289.8936593381
101285.0544041575
101283.2058628949
101282.9558060526
101282.9592493677
101283.0046844035
101283.1548846036
101283.4852525633
101284.0792904507
101285.0220939424
101286.397098107
101288.2823443521
101290.7469412013
101293.8474357314
101297.6243863717
101302.0997600515
101307.2754493769
101313.1327379182
101319.6324427277
101326.7144413318
101334.2907565039
101342.2158354564
101350.1984040592
101357.6078848895
101363.288748113
101366.1542651088
101366.801174411
101366.8282272457
101366.8055426841
101366.7082050425
101366.4630460398
101365.9900494356
101365.2029502948
101364.0142288213
101362.33821114
101360.0947704155
101357.2128029902
101353.6333934932
101349.3134466385
101344.2296301201
101338.3810117076
101331.7903874287
101324.5083907423
101316.6277177698
101308.3221444391
101299.9485593698
101292.2621019855
101286.5683647932
101283.9009574704
101283.3746943047
101283.3621375719
101283.3860055905
101283.4975590753
101283.7610730033
101284.2585053241
101285.0723651918
101286.2848546766
101287.9740236402
101290.2107722754
101293.0552698309
101296.5535897333
101300.7354863153
101305.6129842086
101311.1788383228
101317.4054154759
101324.2445338324
101331.623375227
101339.4223180849
101347.4075963803
101355.0741286731
101361.4209929598
101365.1853163762
101366.3343001674
101366.4349167296
101366.4200956243
101366.3551833348
101366.165779103
101365.7785757123
101365.1096440244
101364.0737836853
101362.586315923
101360.5664330137
101357.9402898459
101354.6443149601
101350.628635753
101345.8603849877
101340.3266391909
101334.0372462035
101327.0290095655
101319.3756517261
101311.2162711231
101302.8343442215
101294.839646365
101288.3932892023
101284.8006230882
101283.8251051099
101283.7582396471
101283.7725475911
101283.8485828142
101284.0531152746
101284.4629846553
101285.1589399099
101286.2221401325
101287.7305882068
101289.7560883786
101292.3612039312
101295.5964530862
101299.4979687716
101304.0855314772
101309.360991525
101315.3073903161
101321.8882368843
101329.0436109669
101336.6745104857
101344.5950578738
101352.4096267238
101359.2882314777
101363.9464266452
101365.7756758946
101366.0361700197
101366.0335377747
101365.9924044738
101365.8523657167
101365.5422450204
101364.9811578386
101364.0855173343
101362.771510656
101360.9582589835
101358.5703904897
101355.5408589958
101351.8144876866
101347.3513970338
101342.1294411413
101336.1467896787
101329.426831928
101322.0271597694
101314.0596870186
101305.7478612419
101297.5728441066
101290.515586271
101285.9685904924
101284.347749176
101284.1535399901
101284.1560720031
101284.2085860626
101284.3625047646
101284.6953637989
101285.2844065877
101286.2097000526
101287.5492025475
101289.375931443
101291.7547799996
101294.7399308343
101298.3728052612
101302.6799112119
101307.6707116633
101313.3366488592
101319.6509573737
101326.5656053747
101333.9990766673
101341.8019878551
101349.6660580174
101356.9276784575
101362.4028175068
101365.0660935666
101365.62861765
101365.646924065
101365.6257515415
101365.5243967598
101365.2805160176
101364.8151168091
101364.0470508647
101362.8934900639
101361.2733564275
101359.1098653547
101356.3333889873
101352.8844874829
101348.7169438037
101343.8007215889
101338.1251252279
101331.7027762104
101324.5761914585
101316.833347114
101308.6506806881
101300.4045108827
101292.8913007611
101287.4423380561
101284.9984828802
101284.5512152536
101284.5420771785
101284.5712506448
101284.6834145857
101284.9477674801
101285.4401259068
101286.2393825635
101287.4232616825
101289.0653354338
101291.232060153
101293.9805210458
101297.3564371878
101301.3917416875
101306.1024023426
101311.4876596728
101317.5296729862
101324.1904418726
101331.4027558655
101339.0468797866
101346.8844943207
101354.3970854988
101360.5625281079
101364.1387033439
101365.1837159542
101365.2670855264
101365.2581184273
101365.188783545
101365.0030255607
101364.6230256866
101363.9702830313
101362.9630249803
101361.5205399721
101359.5655309276
101357.0267043784
101353.8414308559
101349.9586081812
101345.3416907465
101339.9718143533
101333.8513806122
101327.0096778275
101319.5150648337
101311.5064830073
101303.2765157042
101295.4568611868
101289.2297673816
101285.8548090878
101284.984115213
101284.9308368297
101284.945630609
101285.0226235103
101285.2261892187
101285.6303086338
101286.3124280567
101287.3500951306
101288.8175262558
101290.7829243996
101293.3060576822
101296.4360074843
101300.2090980714
101304.6472070002
101309.7565273068
101315.5263603232
101321.9269549844
101328.9039611532
101336.3617731136
101344.1143663313
101351.7598323582
101358.4579480349
101362.9362699617
101364.6506534137
101364.8837204118
101364.8816698186
101364.8391114007
101364.701655066
101364.39776258
101363.850219965
101362.9788409949
101361.7033074972
101359.9455607836
101357.6326396815
101354.699445714
101351.0909885035
101346.7649063669
101341.6952028344
101335.8763766853
101329.3273722444
101322.0997705008
101314.3018970023
101306.16161169
101298.1715595288
101291.3207482062
101286.9758123543
101285.4733720815
101285.3035059629
101285.3129126867
101285.3609236176
101285.5158213156
101285.8439838639
101286.422424729
101287.3275637182
101288.633756416
101290.4102341674
101292.7190187857
101295.612609511
101299.1315454874
101303.3027310733
101308.1385882893
101313.6356709236
101319.7719427896
101326.5027014557
101333.7502536994
101341.3693786257
101349.0517136615
101356.1297742325
101361.4296446062
101363.9718066632
101364.4981853745
101364.5169371912
101364.490299346
101364.3926465799
101364.1522865107
101363.6969962336
101362.9476647133
101361.8248515543
101360.2505974069
101358.1509123928
101355.4582091407
101352.1138884918
101348.0711195291
101343.2978538947
101337.7802006659
101331.5267526291
101324.5759600402
101317.0130160899
101309.0141950137
101300.9590589568
101293.6485272403
101288.4012415787
101286.0975853127
101285.69212733
101285.6856619111
101285.714584042
101285.8261347071
101286.0863137114
101286.5689213188
101287.3499680379
101288.5040330458
101290.1016009018
101292.2065707537
101294.8740401227
101298.1483065178
101302.0610690479
101306.6298823007
101311.85684116
101317.7270921443
101324.2058260385
101331.2299191861
101338.6833685131
101346.3290365857
101353.649456524
101359.6340902458
101363.0763876846
101364.0675722385
101364.1445690765
101364.1325877509
101364.0657658017
101363.8827055737
101363.5113805182
101362.8750028431
101361.8948624599
101360.493053039
101358.5945956114
101356.1299559137
101353.0378806129
101349.2678413117
101344.7823671315
101339.5605131992
101333.6026534077
101326.9362589506
101319.6271632236
101311.8118203043
101303.7827301916
101296.1716809686
101290.146885121
101286.9197935217
101286.1023664253
101286.0532015212
101286.071825288
101286.1479315049
101286.3507692009
101286.7488417445
101287.4173120441
101288.4304417839
101289.859505193
101291.7701656685
101294.2202119246
101297.2574782322
101300.918021749
101305.2245079835
101310.1847486069
101315.7902648749
101322.0140879604
101328.8049683854
101336.0700466265
101343.6255446737
101351.0732493814
101357.5836462459
101361.9119528325
101363.550367984
101363.7684674104
101363.7654370477
101363.7242455599
101363.5894804495
101363.2929949595
101362.759671046
101361.911781634
101360.6714863346
101358.96336762
101356.7166421022
101353.8674574283
101350.3615722273
101346.1572247554
101341.2279791522
101335.5661339722
101329.1880826865
101322.1442472481
101314.541951015
101306.6058290733
101298.8237203452
101292.1758223744
101287.997676176
101286.577720245
101286.4221910136
101286.427891037
101286.4791446547
101286.6308462869
101286.9530287622
101287.5185320796
101288.4014538212
101289.6735905867
101291.4018828953
101293.646105641
101296.4567935404
101299.8733616678
101303.9224367006
101308.6163769815
101313.9518368321
101319.9078387248
101326.4416410249
101333.4773213449
101340.8731580312
101348.3355390527
101355.2386498175
101360.4746222756
101363.0669854746
101363.6406547622
101363.6654630747
101363.649213113
101363.5759265143
101363.3916688584
101363.0363178031
101362.4474497528
101361.5642167604
101360.330659963
101358.6989380403
101356.6326971811
101354.110569924
101351.1298573751
101347.7107290507
101343.9022811382
101339.7946948725
101335.5482849022
101331.4572279803
101328.0325988281
101325.8908680056
101325.1188810823
101325.004800224
101325.0000383236
101325.0000000433
101325.0000000025
101325.0000000025
101325.0000000025
101325.0000000025
101325.0000000025
101325.0000000026
101325.0000000026
101325.0000000026
101325.0000000026
101325.0000000025
101325.0000000025
101325.0000000026
101325.0000000026
101325.0000000025
101325.0000000025
101325.0000000025
101325.0000000024
101325.0000000025
101325.0000000024
)
;

boundaryField
{
    inlet
    {
        type            uniformFixedValue;
        uniformValue    sine;
        uniformValueCoeffs
        {
            frequency       constant 3000;
            scale           constant 50;
            level           constant 101325;
        }
        value           uniform 101323.6440830864;
    }
    outlet
    {
        type            waveTransmissive;
        gamma           1.4;
        fieldInf        101325;
        lInf            2.25;
        value           uniform 101325.0000000024;
    }
    frontAndBack
    {
        type            empty;
    }
}


// ************************************************************************* //
