/*--------------------------------*- C++ -*----------------------------------*\
| =========                 |                                                 |
| \\      /  F ield         | OpenFOAM: The Open Source CFD Toolbox           |
|  \\    /   O peration     | Version:  v2012                                 |
|   \\  /    A nd           | Website:  www.openfoam.com                      |
|    \\/     M anipulation  |                                                 |
\*---------------------------------------------------------------------------*/
FoamFile
{
    version     2.0;
    format      ascii;
    class       volScalarField;
    location    "0.007";
    object      pMean;
}
// * * * * * * * * * * * * * * * * * * * * * * * * * * * * * * * * * * * * * //

dimensions      [1 -1 -2 0 0 0 0];


internalField   nonuniform List<scalar> 
1000
(
101325.0306008676
101325.0055149273
101325.0252793676
101325.0439334994
101325.0705858186
101325.1027038419
101325.1387893851
101325.1811032304
101325.2263478456
101325.2754541869
101325.3257785024
101325.3763011545
101325.4265199977
101325.4761807102
101325.5242977851
101325.5700379927
101325.6122204849
101325.6501840179
101325.6830152066
101325.7103753222
101325.7315776996
101325.7464286304
101325.7544721538
101325.7557293186
101325.7499900774
101325.7375261169
101325.7184181788
101325.6931740441
101325.6620234721
101325.6254900117
101325.5838156142
101325.537885345
101325.4891731247
101325.4397070592
101325.3901706312
101325.3408307046
101325.2919554808
101325.2441501591
101325.1982166645
101325.1551559025
101325.1159774572
101325.0816253336
101325.0528508587
101325.0302122327
101325.0140888193
101325.0047242759
101325.0022499498
101325.0066972334
101325.0179792452
101325.035906354
101325.0602197973
101325.0906506391
101325.1269193613
101325.1685781767
101325.2145637586
101325.2629277188
101325.3118545764
101325.3607716561
101325.4095128366
101325.457871971
101325.5052597472
101325.551081852
101325.5943540248
101325.6342055764
101325.6695429671
101325.6996072674
101325.7235830703
101325.7411003149
101325.75174966
101325.7555363024
101325.7523475222
101325.7423937416
101325.7257202207
101325.7026203884
101325.673167413
101325.637684098
101325.5965280687
101325.5510027811
101325.5030981441
101325.4547196571
101325.4063027422
101325.3580373764
101325.3101197189
101325.262987593
101325.2172305906
101325.173652491
101325.1331447376
101325.0966965801
101325.0652299797
101325.0395816264
101325.0203689391
101325.0080270153
101325.002744994
101325.0045746271
101325.013405644
101325.0291076689
101325.0514925029
101325.0804336801
101325.1156934679
101325.1567298897
101325.2021325149
101325.2496879896
101325.2976704187
101325.3456527148
101325.3934808604
101325.4410191859
101325.4877845292
101325.5333302032
101325.5768317204
101325.6175474266
101325.6544493924
101325.6867151581
101325.7133948293
101325.7338961539
101325.74761259
101325.7543675258
101325.7539574653
101325.7465410593
101325.7321377543
101325.7110039451
101325.6831790261
101325.6489736505
101325.6088106803
101325.5641334869
101325.5170657625
101325.4695256071
101325.4219369312
101325.3744787437
101325.3272769888
101325.2807061123
101325.2352186423
101325.1915008623
101325.150301573
101325.11254406
101325.0791132373
101325.0509408625
101325.0287736511
101325.0132695053
101325.0048037457
101325.0036266078
101325.0097334075
101325.023087366
101325.0435176371
101325.0709153452
101325.1049800138
101325.1451019952
101325.1897056819
101325.2365017488
101325.283719225
101325.3309502353
101325.3780516071
101325.424926472
101325.4711672096
101325.5164149633
101325.5599584827
101325.6011662365
101325.6390959381
101325.6729739997
101325.7018215141
101325.7249605947
101325.7416314098
101325.751471896
101325.7541011427
101325.7495176515
101325.7376419873
101325.7186733481
101325.6926426132
101325.6598905725
101325.6208888267
101325.5771545655
101325.5308699674
101325.4840450484
101325.4371531398
101325.390373004
101325.3437812371
101325.2977030072
101325.2525006581
101325.2087710722
101325.1671535644
101325.1284908178
101325.0935986395
101325.0634130447
101325.0387210208
101325.0203141593
101325.0087217485
101325.0043978919
101325.0075097696
101325.0181791241
101325.0363240532
101325.0618796781
101325.0945209307
101325.1335697641
101325.1773367405
101325.2234318189
101325.2699900148
101325.3165807822
101325.3630567373
101325.4093630741
101325.455135414
101325.5000890342
101325.5435949491
101325.5851100794
101325.6237776458
101325.6588810883
101325.6894702131
101325.7148350189
101325.7341382999
101325.7468897638
101325.7525467624
101325.7509464597
101325.7418549541
101325.7253662908
101325.7014449406
101325.6704150528
101325.6327667531
101325.5900464845
101325.5445123723
101325.498311779
101325.4520241022
101325.4058328614
101325.3597798611
101325.3141520264
101325.2692376793
101325.2255699338
101325.1836920292
101325.1443749543
101325.1083600922
101325.0765529746
101325.0497425978
101325.028781558
101325.0143037788
101325.0069190679
101325.0069614336
101325.0147281973
101325.0302719015
101325.0536316017
101325.0845189906
101325.1222581994
101325.1650953496
101325.2105171686
101325.2564943095
101325.3025166489
101325.3484433231
101325.3942402678
101325.4395880951
101325.4842523856
101325.52767317
101325.5693796639
101325.6085911219
101325.6446523073
101325.6766561636
101325.7038954633
101325.7255027051
101325.740902966
101325.7494398602
101325.7508015437
101325.7446128389
101325.7308287251
101325.7093152804
101325.6803215466
101325.6442917808
101325.6027400478
101325.5579776608
101325.5123529202
101325.4666084575
101325.420948169
101325.3753850698
101325.3301746324
101325.2855511162
101325.2419882064
101325.1999568537
101325.160157992
101325.1232652753
101325.0901391852
101325.0615477893
101325.0383661221
101325.0212896257
101325.0110368475
101325.0080773543
101325.0128676446
101325.0256067032
101325.0464666191
101325.0752539892
101325.1113671279
101325.1530802123
101325.1977882159
101325.243226916
101325.2887343006
101325.3341635533
101325.3794933037
101325.4244487366
101325.4688283701
101325.5121376691
101325.55395766
101325.5935809136
101325.6304033107
101325.6635713542
101325.6923948743
101325.7160057591
101325.733778066
101325.7449819158
101325.749188795
101325.745903305
101325.7349425683
101325.71606259
101325.6893967564
101325.655294866
101325.6151457002
101325.5712538529
101325.5261893584
101325.4809469817
101325.4357765163
101325.3906703393
101325.3458548457
101325.3015198567
101325.258092102
101325.2159783058
101325.1758226131
101325.1382327571
101325.1040244573
101325.0739290099
101325.0488233661
101325.0294305141
101325.0165409391
101325.010724745
101325.0125677751
101325.0224040884
101325.0405419749
101325.0669141119
101325.1010600604
101325.1413862262
101325.1852809702
101325.230190596
101325.2752188216
101325.3201801821
101325.3650728986
101325.4096521135
101325.4537526142
101325.4969269851
101325.5388063075
101325.5787414675
101325.6161791397
101325.6503167327
101325.6804900635
101325.705845813
101325.7257320108
101325.7393760563
101325.7462625646
101325.7458044836
101325.7376969986
101325.7215910493
101325.6974912564
101325.6656164961
101325.627154375
101325.5843014696
101325.5398190577
101325.4950540436
101325.4503422597
101325.4056745694
101325.361236295
101325.3171965741
101325.2739221878
101325.2317863829
101325.1913619742
101325.1532188768
101325.1181075757
101325.0867384372
101325.0599576898
101325.0385106942
101325.0232161276
101325.0147259518
101325.0137125046
101325.0206328218
101325.0359099145
101325.0596223305
101325.0914796592
101325.1301202727
101325.1730308934
101325.2173905309
101325.2619565407
101325.3064722713
101325.35094039
101325.395156191
101325.4389718292
101325.4819953591
101325.5238862234
101325.5640604662
101325.6019960973
101325.6369514775
101325.668280481
101325.6951640366
101325.7169316521
101325.7327977566
101325.7421799592
101325.7444302768
101325.7391404889
101325.72587243
101325.7045041331
101325.6751085403
101325.6386275957
101325.5970396212
101325.553216355
101325.5089164671
101325.4646495429
101325.4204046589
101325.3763431091
101325.3326008857
101325.2895072926
101325.2473905779
101325.2067772073
101325.1681871068
101325.1323258033
101325.0998647724
101325.071626536
101325.0483512645
101325.0308766476
101325.0198995296
101325.016160715
101325.0202070522
101325.032565208
101325.0534463457
101325.082745899
101325.1193859922
101325.1610803635
101325.2048226061
101325.2489374213
101325.2930196919
101325.3370751018
101325.3809268063
101325.4244539551
101325.4673025834
101325.5091687736
101325.5495150808
101325.5878587425
101325.6235042334
101325.6558341796
101325.6840592096
101325.7075088287
101325.725393532
101325.737089858
101325.7419068512
101325.7393567305
101325.7289296425
101325.7103881341
101325.6836672133
101325.6494404554
101325.6093908887
101325.5663558231
101325.5225334026
101325.4786963069
101325.4348696998
101325.3911812547
101325.3477475525
101325.3048536822
101325.2627992566
101325.2220577484
101325.1831158047
101325.1466247413
101325.1132295245
101325.0837125949
101325.0588116118
101325.0393565417
101325.0260812779
101325.0197612996
101325.0210209144
101325.0304606983
101325.0484178394
101325.0749565104
101325.1093051452
101325.1494998899
101325.1925007891
101325.2361572278
101325.2798156531
101325.323461188
101325.3669461352
101325.4101736171
101325.45282425
101325.4946297721
101325.5350909169
101325.5737660872
101325.6099947539
101325.6431970133
101325.6726039166
101325.6975647581
101325.7172819836
101325.7311224168
101325.7383517304
101325.7384414125
101325.7308050643
101325.7151301773
101325.6912050734
101325.6594764821
101325.6212557932
101325.5792163908
101325.5358984785
101325.4924865152
101325.4490658225
101325.4057542383
101325.3626372905
101325.3199695673
101325.2780144571
101325.2372053509
101325.1979892458
101325.1609753407
101325.1267741525
101325.0961350081
101325.069779142
101325.0485271787
101325.0331282684
101325.0243815581
101325.0229624948
101325.0295326024
101325.0445313902
101325.0681752751
101325.0999817197
101325.138372476
101325.1804446287
101325.2236119395
101325.2668523978
101325.3100853022
101325.3532055138
101325.3961147629
101325.4385535195
101325.4802565467
101325.5207900426
101325.5597186011
101325.5964473603
101325.6303992476
101325.6608612205
101325.6871715196
101325.7085677556
101325.7243817885
101325.7338848255
101325.7364857821
101325.7315746093
101325.7187429728
101325.6976885304
101325.6686203155
101325.6325146033
101325.5917154718
101325.5489991364
101325.5060063101
101325.4629964709
101325.4200674733
101325.3772797098
101325.3348617543
101325.2930383775
101325.2522133432
101325.2127893299
101325.1753454833
101325.1404488365
101325.1088262593
101325.0811666292
101325.0582863239
101325.040925731
101325.0299086476
101325.0259328926
101325.02971798
101325.0417717009
101325.062451887
101325.091518465
101325.1278038456
101325.1686894083
101325.2112985888
101325.2541217612
101325.2969538618
101325.3396926951
101325.3822834675
101325.4244730837
101325.4660507279
101325.5065949674
101325.5457249083
101325.5828608496
101325.6174740931
101325.6488629977
101325.6763992199
101325.6993193248
101325.7169657288
101325.7285898632
101325.7335829793
101325.7312929493
101325.7212595374
101325.7030879314
101325.6768086294
101325.6430674899
101325.6038079139
101325.5618315271
101325.5192683171
101325.4766624106
101325.4341080985
101325.3916678409
101325.3495104742
101325.307864723
101325.2670622179
101325.2275088004
101325.1897068311
101325.1542301746
101325.1217311722
101325.092917176
101325.0685426774
101325.0493869734
101325.0362326641
101325.0298440414
101325.0309297058
101325.0401051611
101325.0577869237
101325.0839939417
101325.1178925143
101325.1573134117
101325.1992250259
101325.2416333448
101325.2840478558
101325.3264216794
101325.3686588656
101325.4106018463
101325.452001081
101325.4925347927
101325.5317874822
101325.5692774832
101325.6044415953
101325.636668615
101325.6652899468
101325.6896178087
101325.7089409398
101325.7225641998
101325.7298076085
101325.7300472672
101325.7227263205
101325.7074270944
101325.6839861664
101325.652812146
101325.6153789283
101325.5743591106
101325.5322602589
101325.4900644311
101325.4478910712
101325.4058067099
101325.363935214
101325.322490575
101325.281759074
101325.2421239427
101325.204043866
101325.1680671919
101325.1348090652
101325.1049542339
101325.0792335188
101325.0584155533
101325.0432812216
101325.0346031368
101325.0331173996
101325.039481345
101325.054201886
101325.0774606933
101325.1087633287
101325.1463858491
101325.1874185156
101325.2293682392
101325.2713864211
101325.3133688806
101325.3552661839
101325.3969137595
101325.4381279832
101325.4785800891
101325.5179253375
101325.5556740739
101325.5913329517
101325.6242769094
101325.6539004714
101325.6794909276
101325.7003879424
101325.7158550217
101325.7252457257
101325.7278749376
101325.7231964053
101325.7106926619
101325.6901302024
101325.6616401595
101325.6263352798
101325.5865167753
101325.5449893023
101325.5031835302
101325.4614073733
101325.4196755705
101325.3781202708
101325.3368976873
101325.2962904618
101325.2566214612
101325.218342647
101325.1819425007
101325.1480313167
101325.1172403876
101325.0903038306
101325.0679491702
101325.0509750856
101325.0401331203
101325.0361996859
101325.0398411736
101325.0516529078
101325.0719290142
101325.1004771436
101325.1360007018
101325.175904053
101325.2173237972
101325.2589481559
101325.3005431545
101325.3420852234
101325.3834316423
101325.4244260897
101325.4647707462
101325.5041491745
101325.5421046117
101325.5781697938
101325.611750197
101325.6422598179
101325.6690093126
101325.6913456856
101325.7085430667
101325.7199459339
101325.724863689
101325.7227187359
101325.7129566119
101325.6952477458
101325.6695445689
101325.6365907917
101325.5982798007
101325.557450221
101325.5160591816
101325.4746653704
101325.4333005722
101325.3920614661
101325.3510925717
101325.3106304533
101325.2709840382
101325.2325556718
101325.195819583
101325.16133696
101325.1297288104
101325.1016859257
101325.0779354694
101325.0592455209
101325.0463844724
101325.0401184227
101325.0411576295
101325.0501285317
101325.0674504861
101325.0931344888
101325.1263106499
101325.1647752903
101325.2055463143
101325.2467526614
101325.2879601154
101325.3291260485
101325.3701557576
101325.4108938687
101325.4510980705
101325.4904553052
101325.5285648258
101325.5649613531
101325.5991032997
101325.6304017969
101325.6582129283
101325.6818714005
101325.7006856397
101325.7139750879
101325.721067551
101325.7213413597
101325.7142344862
101325.6993249627
101325.6764454136
101325.6460133737
101325.6095095188
101325.5695843569
101325.5286564321
101325.4876466999
101325.4466581784
101325.4057568169
101325.36506641
101325.3247912357
101325.2852123881
101325.2466977645
101325.2096929608
101325.1747253825
101325.1423905838
101325.1133512003
101325.088317375
101325.0680391296
101325.0532816132
101325.0448105497
101325.0433562951
101325.0495772317
101325.063975662
101325.0867333342
101325.1173372508
101325.1540487565
101325.1939830364
101325.2347569214
101325.2755851243
101325.3163899432
101325.3570870583
101325.3975646132
101325.437586448
101325.4768909368
101325.5150848685
101325.5517540333
101325.5863624019
101325.6183676161
101325.6471253749
101325.6720077834
101325.6923122879
101325.7073832142
101325.7165242707
101325.7191220055
101325.7145680075
101325.702409815
101325.6823500682
101325.654586159
101325.6201601455
101325.5814123663
101325.5410113156
101325.5003872368
101325.4597632242
101325.4192037617
101325.3788039811
101325.3387424542
101325.2992703822
101325.2607243062
101325.2235183965
101325.1881487943
101325.1551818794
101325.1252530411
101325.0990501031
101325.0773059967
101325.0607764461
101325.050225285
101325.046393278
101325.0499670706
101325.0615113202
101325.0813418854
101325.1092297772
101325.143895447
101325.182738095
101325.2230093724
101325.2634505531
101325.3038762449
101325.3442340702
101325.3844144715
101325.424233311
101325.4634321823
101325.5016722542
101325.5385423605
101325.5735587073
101325.6061782093
101325.6358027023
101325.661796623
101325.6834946836
101325.700222944
101325.7113091491
101325.7161075053
101325.7140153645
101325.7045168027
101325.6872528884
101325.6622096093
101325.6300920353
101325.5928030284
101325.5530858344
101325.5128564531
101325.472610855
101325.4324050923
101325.3923163044
101325.3524973875
101325.3131683198
101325.2746384366
101325.2372881297
101325.2015869888
101325.1680686541
101325.1373457889
101325.1100788099
101325.0869866272
101325.0688073164
101325.0563040892
101325.0502173051
101325.0512585133
101325.0600316723
101325.0769592869
101325.1020309285
101325.1343887958
101325.1718389776
101325.2114886196
101325.2515350883
101325.2915875261
101325.3315960806
101325.3714662222
101325.4110517286
101325.4501088033
101325.488341378
101325.5253534807
101325.5607024577
101325.5938573284
101325.6242554531
101325.6512664724
101325.6742515658
101325.692532075
101325.7054503778
101325.7123428716
101325.7126048014
101325.7056776629
101325.6911506242
101325.6688543418
101325.6392079654
101325.6036683691
101325.5648356867
101325.5250474075
101325.4851852776
101325.4453416483
101325.4055869218
101325.3660340563
101325.3268902442
101325.2884202459
101325.2509894486
101325.2150221071
101325.1810382215
101325.1496080977
101325.1213829836
101325.0970458864
101325.077335486
101325.06299167
101325.0547704919
101325.0533804155
101325.0594755265
101325.0735417498
101325.0957587482
101325.1256025929
101325.161358847
101325.2001982178
101325.2398305034
101325.2795083193
101325.319159826
101325.3587139792
101325.3980399663
101325.4369328278
101325.4751120923
101325.5122218809
101325.5478344131
101325.5814559802
101325.6125351907
101325.6404732697
101325.6646361993
101325.6843684865
101325.6990084087
101325.7079048592
101325.7104368481
101325.7060395769
101325.6942492136
101325.6747995476
101325.6478440829
101325.6143796411
101325.5765953947
101325.5371091915
101325.4973546692
101325.4576043926
101325.4178971344
101325.3783128717
101325.3389898743
101325.3001294225
101325.2619964268
101325.2249164137
101325.1892691651
101325.1554789785
101325.1240014237
101325.0953064539
101325.0698575895
101325.0480862329
101325.0303578421
101325.0169199956
101325.0078078747
101325.002670768
101325.0005620919
101325.0000547297
101325.0000016994
101325.0000000125
101325.0000000015
101325.0000000014
101325.0000000014
101325.0000000014
101325.0000000014
101325.0000000015
101325.0000000015
101325.0000000015
101325.0000000015
101325.0000000015
101325.0000000014
101325.0000000015
101325.0000000015
101325.0000000015
101325.0000000015
101325.0000000015
101325.0000000015
101325.0000000015
101325.0000000015
101325.0000000015
)
;

boundaryField
{
    inlet
    {
        type            calculated;
        value           uniform 101325.0000000001;
    }
    outlet
    {
        type            calculated;
        value           uniform 101325.0000000015;
    }
    frontAndBack
    {
        type            empty;
    }
}


// ************************************************************************* //
