/*--------------------------------*- C++ -*----------------------------------*\
| =========                 |                                                 |
| \\      /  F ield         | OpenFOAM: The Open Source CFD Toolbox           |
|  \\    /   O peration     | Version:  v2012                                 |
|   \\  /    A nd           | Website:  www.openfoam.com                      |
|    \\/     M anipulation  |                                                 |
\*---------------------------------------------------------------------------*/
FoamFile
{
    version     2.0;
    format      ascii;
    class       volScalarField;
    location    "0.007";
    object      rho;
}
// * * * * * * * * * * * * * * * * * * * * * * * * * * * * * * * * * * * * * //

dimensions      [1 -3 0 0 0 0 0];


internalField   nonuniform List<scalar> 
1000
(
1.17629754142835
1.176321246416098
1.176267747585089
1.17622443310144
1.17617397742638
1.176128097116164
1.176089322833479
1.176056770273951
1.176028986126221
1.17601016013083
1.176004891776129
1.176004659119871
1.176007332562805
1.176015709060442
1.176032231302694
1.176057292958863
1.176089926283193
1.17612866701421
1.176172295797836
1.176219955383925
1.176270935285636
1.17632447401193
1.176379687272612
1.176435568057165
1.17649101556708
1.176544915822603
1.176596304429048
1.176644593627694
1.176689726149429
1.176731839263344
1.176769660660354
1.176797766470066
1.176809784912859
1.176811158371199
1.176810626583931
1.176808441694721
1.176802318799163
1.176790275244727
1.176770593952812
1.176742488215545
1.17670629327878
1.176663281678477
1.176615143693003
1.176563462844401
1.176509470488492
1.17645410650892
1.176398203388503
1.176342614342097
1.176288211811717
1.176235735973703
1.176185554238617
1.176137646520853
1.176092438809457
1.176053028984264
1.176026814794783
1.176017885725758
1.176017279020865
1.176017622827342
1.176019779439978
1.176025105847541
1.176035466460702
1.176052452003463
1.176077193976599
1.176110051648454
1.176150512098782
1.176197310483605
1.176248750637215
1.176303098114011
1.176358871346948
1.176414929867207
1.176470421860282
1.176524749252122
1.176577612886432
1.176629001215636
1.176678866529445
1.176726146730946
1.176766791083371
1.176792956312591
1.176801557720222
1.176802185137891
1.176801718100101
1.176800016034212
1.176795487038755
1.176786683340624
1.176772067832601
1.176750387261543
1.176720891355752
1.176683530489883
1.176639006094841
1.176588651785114
1.176534186934339
1.176477413345534
1.176419922997812
1.176362887197734
1.176306981987764
1.176252443760846
1.176199229909268
1.17614743845298
1.176098492434268
1.176057370035493
1.176032481825947
1.176025234973008
1.176024867294496
1.176025169232512
1.176026893493087
1.176031083546393
1.176039200062411
1.176052615279235
1.176072534885484
1.176099785197158
1.176134650616994
1.176176764970635
1.176225117696758
1.176278206401481
1.176334298527945
1.176391717346756
1.176449090492967
1.176505534832436
1.176560723004041
1.176614715865555
1.176667409249148
1.176717345802308
1.176759722643486
1.176786286850023
1.176794787824148
1.176795437448195
1.176795084623171
1.176793775591318
1.176790237151844
1.176783278268121
1.176771571877496
1.176753902616052
1.17672930901944
1.176697255686874
1.176657758337644
1.176611435377785
1.176559467461075
1.176503444851599
1.176445100850959
1.176385994838647
1.176327261327959
1.176269519374578
1.176213003749144
1.176158084288907
1.176106584936517
1.176063964409697
1.176038669737943
1.176031385888337
1.176030974196936
1.176031201336299
1.176032562226909
1.176035941894682
1.176042563661819
1.176053624403572
1.176070258999539
1.176093391055116
1.176123600086296
1.176160995124482
1.176205141899517
1.176255083779755
1.176309460829328
1.176366703530207
1.17642528039302
1.17648396202623
1.176541996807307
1.176599037093907
1.176654644241068
1.176707119675828
1.176751526585426
1.176779588243188
1.176788921906036
1.176789752216566
1.176789498416031
1.176788517176371
1.176785725729995
1.176780104651085
1.176770481006504
1.176755726736951
1.176734851200218
1.17670713238929
1.17667223197155
1.176630282994856
1.176581931162515
1.176528294354902
1.176470810005666
1.176410993940182
1.176350191165451
1.176289410647186
1.176229352799494
1.176170861289496
1.17611622361987
1.176071289800445
1.176044620628905
1.176036719947551
1.176036178586042
1.176036348898065
1.176037433373651
1.176040187526856
1.176045674566217
1.176054959005578
1.176069095454672
1.176089013270379
1.176115413070908
1.176148656204596
1.176188680256714
1.176234970813592
1.176286598257711
1.176342318340712
1.176400745148898
1.176460582291301
1.176520819399511
1.176580730551118
1.176639480394438
1.176695052232805
1.176742334841196
1.176772875373124
1.176783679607281
1.176784831285622
1.176784651942586
1.176783911638134
1.176781684456236
1.176777086402581
1.176769071169889
1.176756596596998
1.176738689223253
1.176714548985543
1.176683645325316
1.176645804233387
1.176601274446636
1.176550740802558
1.17649525141163
1.176436065555844
1.17637447027567
1.176311626555961
1.176248551341065
1.176186497389987
1.176128187065062
1.176079892990951
1.176050667618172
1.176041540861311
1.176040783711001
1.176040894391717
1.176041743922762
1.176043989814187
1.176048579336701
1.176056463813896
1.176068613586762
1.17608592795443
1.176109155559415
1.176138800880828
1.176175043409606
1.176217691503544
1.176266177369042
1.176319599080924
1.1763768293546
1.176436689018894
1.176498111958005
1.176560164091456
1.176621732047614
1.176680570198619
1.17673145157836
1.176765577901662
1.176778704600768
1.17678040820817
1.176780294965578
1.176779759131223
1.176777991111521
1.176774214602609
1.176767485087803
1.176756845700616
1.176741365593166
1.17672022175186
1.176692777008052
1.176658659379809
1.176617833326881
1.176570636331873
1.176517754060018
1.176460135886191
1.176398876663699
1.176335101103643
1.176269945683512
1.176204896262117
1.176142934893759
1.176090576098596
1.176057494525725
1.176046148728975
1.176044950754468
1.176045016565284
1.176045671643214
1.176047493428684
1.176051333789753
1.176058057873907
1.176068565801364
1.176083718180427
1.176104272770399
1.176130809004647
1.176163659635825
1.176202862069439
1.176248132160856
1.176298870323089
1.176354224157893
1.176413209280037
1.176474830161393
1.17653809506044
1.17660176867692
1.176663548566807
1.176718305068148
1.176757005136268
1.176773605273595
1.176776314511152
1.176776271894935
1.176775913655629
1.176774530857536
1.176771444698681
1.176765787600694
1.176756675527311
1.176743225798094
1.176724621015939
1.176700170614046
1.176669378933745
1.176632011990085
1.176588142037608
1.17653815074733
1.176482691596331
1.176422623784895
1.176358937525367
1.176292749803674
1.176225601397096
1.176160480256397
1.176103789073437
1.17606568427635
1.176050888610739
1.176048859336455
1.176048871159309
1.176049350617765
1.176050798334557
1.176053990178856
1.176059722116063
1.176068833565606
1.17608214472511
1.176100405646901
1.176124234572561
1.176154061538814
1.176190082740413
1.176232225699998
1.176280136584247
1.176333212802323
1.176390681233292
1.176451677064926
1.176515249051208
1.176580167435914
1.176644236984046
1.176702678986955
1.176746579327026
1.176767931436085
1.176772381747919
1.176772489697233
1.176772268352579
1.176771215088676
1.176768721922895
1.176763986367392
1.176756183617906
1.176744474875609
1.17672805933804
1.176706222610896
1.176678393856975
1.176644203962724
1.176603529771039
1.176556512841701
1.176503552919798
1.176445278749079
1.17638250591234
1.176316246847641
1.176247965740414
1.176180451910469
1.176119652805394
1.176075783799651
1.176056172879333
1.176052634922371
1.176052570253491
1.17605288510295
1.176053999504562
1.176056613651825
1.17606146984553
1.176069359942604
1.176081066995966
1.176097325137137
1.176118770169893
1.17614589366619
1.176179001248568
1.176218175249116
1.176263253929098
1.176313845229776
1.17636937215244
1.176429118333372
1.176492227394259
1.176557559322533
1.176623135722471
1.176684715731956
1.176733922763682
1.176761148086008
1.17676841116781
1.176768863957439
1.176768736953673
1.176767966331788
1.176765993354872
1.176762066597402
1.176755411492086
1.176745226511243
1.176730730897914
1.176711202336254
1.176686024876737
1.176654739394925
1.17661708336175
1.176573014898193
1.176522725760907
1.176466639981623
1.176405395348215
1.176339859124323
1.176271339992759
1.17620230924642
1.176138026651841
1.176088223364163
1.176062498993253
1.176056423781216
1.17605613064405
1.176056334583986
1.176057150378547
1.176059253739219
1.176063328796983
1.176070130469175
1.176080410690809
1.176094887370144
1.176114204028201
1.176138891716965
1.176169331002803
1.176205716124708
1.176248032450779
1.176296057858043
1.176349383295064
1.176407435596011
1.17646947660404
1.17653449924085
1.176600791115534
1.176664739982521
1.176718868595603
1.176752725537349
1.17676413604641
1.17676533518338
1.17676527645704
1.176764749689204
1.176763233976162
1.176760023952158
1.176754385355421
1.176745550563715
1.176732759701971
1.176715292292301
1.176692507306533
1.176663885016597
1.17662906184854
1.176587858057503
1.17654030225277
1.176486644943837
1.176427355287605
1.176363143492735
1.176295135000647
1.176225441851841
1.17615853131663
1.176103186843522
1.176070431047451
1.176060472086567
1.176059607108298
1.176059734568655
1.176060302025281
1.17606195321712
1.17606532571824
1.176071143266335
1.176080132784485
1.176092999249316
1.176110389314846
1.176132860088838
1.176160845195711
1.176194619989868
1.176234278746072
1.176279731839603
1.176330712581457
1.176386780751329
1.176447316214302
1.176511449669285
1.176577737847702
1.176643201353539
1.176701467030867
1.176742150951379
1.176759155024277
1.17676187083637
1.176761910182351
1.176761555529293
1.176760423755784
1.176757833711514
1.176753096936525
1.176745472459669
1.176734219508586
1.176718622204298
1.176698023358115
1.176671858782865
1.176639690893453
1.176601239966003
1.176556410386976
1.176505307680296
1.176448249836489
1.176385800920632
1.176318905153271
1.176249312524993
1.176180687724171
1.176120599767735
1.176080469058577
1.176065139442485
1.176063065759826
1.176063094314841
1.176063471101442
1.176064716690959
1.17606745638498
1.176072382649429
1.176080201156252
1.1760916037915
1.176107237690662
1.176127675881322
1.17615338718613
1.176184707798338
1.176221819697507
1.176264738358245
1.1763133083265
1.176367204416818
1.176425927810322
1.176488748740655
1.176554460099223
1.176620646659224
1.176682080211424
1.176729180595115
1.176752938504602
1.176758301982912
1.176758526275948
1.176758338200754
1.176757531184069
1.176755498593744
1.176751577019068
1.176745051235248
1.17673519560129
1.176721299761177
1.17670269932142
1.1766788046634
1.176649127178369
1.176613309374793
1.176571157570032
1.17652266376191
1.17646801665481
1.176407635752781
1.176342289346306
1.176273418103354
1.176203981270087
1.176140240928703
1.176093024464536
1.176070904208545
1.176066539997592
1.17606643586705
1.176066633801593
1.176067558898776
1.176069744180389
1.176073869307533
1.176080618505319
1.176090673440009
1.176104681325547
1.17612323005916
1.176146818516139
1.176175828641179
1.176210507009985
1.176250953134136
1.176297106697693
1.176348738295778
1.176405448120852
1.176466632091066
1.17653129808085
1.176597507626986
1.17666107291675
1.176713695470278
1.176744905473173
1.17675443163506
1.17675526584009
1.176755142960175
1.176754604778814
1.176753034445008
1.176749824172603
1.176744278104803
1.176735689835247
1.176723357265628
1.176706610368232
1.176684836809823
1.176657509395964
1.176624214464079
1.176584679296269
1.176538796485481
1.176486647389477
1.176428536843569
1.176365075801946
1.17629741735195
1.17622791190863
1.176161615969538
1.176108158570698
1.176078365444161
1.176070275655843
1.176069721152486
1.176069839806749
1.176070470355877
1.176072166511771
1.176075565491263
1.176081336924582
1.176090153833006
1.176102663047865
1.176119459973564
1.176141063351716
1.176167892002181
1.17620024541335
1.176238287429882
1.176282033174167
1.176331341768953
1.176385910352883
1.176445241787209
1.176508514897989
1.176574188244108
1.17663898143971
1.176696013086421
1.176734634352756
1.176749800596502
1.176751960337986
1.176751938514986
1.176751597483008
1.176750436433206
1.176747865245491
1.176743213307079
1.176735787592578
1.176724893189016
1.176709859488513
1.176690061512716
1.176664943274491
1.176634047152606
1.176597042309502
1.176553744892239
1.176504139446344
1.176448419591178
1.176387062528197
1.176320995909922
1.17625207232334
1.176184281621587
1.176125758623011
1.176088051632082
1.176074610329956
1.17607299978899
1.176073020787336
1.176073456278802
1.176074732701698
1.176077493045076
1.176082377869984
1.176090051143947
1.176101159334908
1.176116307916213
1.176136034963112
1.176160789697611
1.17619091547908
1.17622663195679
1.176268017396594
1.176315000596745
1.176367359349723
1.176424695095924
1.176486331639266
1.176551030100535
1.176616234232759
1.176676441948895
1.176721836763768
1.176743917962531
1.176748581824175
1.176748733602306
1.176748558063307
1.176747717738649
1.17674569573995
1.176741837142264
1.176735469140866
1.176725904992117
1.176712472444861
1.176694534818756
1.176671514736622
1.176642919249868
1.176608364995343
1.176567602718244
1.176520543476871
1.176467291622693
1.176408199364905
1.176343995856302
1.176276143830456
1.176207763648265
1.176145460066431
1.176100273542566
1.176080007215119
1.176076298112701
1.176076222333065
1.17607646426446
1.176077394421256
1.176079586653209
1.176083669689981
1.176090297764187
1.176100115407097
1.176113732700367
1.176131700691778
1.176154492686733
1.176182487699713
1.176215950385199
1.176255012966535
1.176299668922644
1.17634977006255
1.176405001012292
1.176464804191952
1.17652818653327
1.176593171815529
1.176655460844452
1.176706579322857
1.176736229469547
1.176744893638794
1.176745584852626
1.176745510507688
1.176744935657268
1.176743395549209
1.176740244990392
1.176734833127365
1.176726481971623
1.176714522316593
1.176698313242744
1.176677263576409
1.176650853939903
1.176618660485522
1.176580380008865
1.17653585585907
1.176485107665788
1.17642837796045
1.176366233229141
1.176299825259026
1.17623157998113
1.176166735684914
1.17611509666832
1.176087109015997
1.176079888536554
1.176079446710006
1.176079569392878
1.176080207881687
1.176081896014816
1.176085247299707
1.17609090397638
1.176099509115726
1.176111678148319
1.176127976615451
1.176148900082925
1.176174855461749
1.176206143836154
1.176242946452306
1.176285314457152
1.17633315889554
1.176386232805643
1.176444085244515
1.176505923205081
1.176570204028565
1.176633595237678
1.176689130536068
1.176726260563246
1.176740474500825
1.176742406851677
1.176742389850924
1.176742037002112
1.176740897359143
1.176738377800791
1.176733838144835
1.176726613558665
1.176716038102892
1.176701464551996
1.176682287917027
1.176657968364455
1.176628049826654
1.176592180896286
1.176550145806093
1.176501898677483
1.176447596286746
1.176387666005401
1.176323005739769
1.176255504668901
1.176189247869838
1.17613243696213
1.176096405690893
1.176083946300974
1.176082537636989
1.176082615645667
1.176083013791837
1.176084298329027
1.176087019716222
1.176091816605619
1.176099322718431
1.176110154644901
1.176124886462429
1.17614403243676
1.1761680278352
1.176197208709268
1.176231798005882
1.176271898540874
1.176317481512147
1.176368363940506
1.176424174885198
1.176484269859009
1.176547444502367
1.176611141890334
1.176669827787338
1.176713769544961
1.1767348466491
1.176739210844377
1.176739366315588
1.176739145462908
1.176738335828524
1.176736343012895
1.176732568215552
1.176726355520744
1.176717046271303
1.176703994072629
1.176686585417155
1.17666425984936
1.176636531397264
1.176603011616957
1.17656343458293
1.176517684872818
1.176465833447469
1.176408198809406
1.176345487046701
1.176279159547449
1.176212363571573
1.1761517408203
1.176108226845411
1.176089123209727
1.176085760836668
1.176085707220759
1.176085947066705
1.176086872134375
1.176089029745744
1.176093031907671
1.176099508949747
1.176109079321023
1.176122327498488
1.176139783325619
1.176161903628403
1.176189055639027
1.176221502080276
1.176259388344872
1.176302731593593
1.176351408419186
1.176405129922232
1.176463372421856
1.176525173804058
1.176588567651374
1.176649263445026
1.17669888293025
1.176727423172226
1.176735641079048
1.176736279458522
1.176736180122137
1.17673562610407
1.176734108357808
1.17673102971142
1.176725753512993
1.176717627164098
1.176706004715949
1.176690264469491
1.17666982983954
1.176644192863165
1.176612934457586
1.176575743756822
1.176532446870484
1.176483046628963
1.176427770511203
1.176367164076994
1.176302358501089
1.176235779030909
1.176172664697245
1.176122703378009
1.176095942019287
1.176089163290007
1.176088755576633
1.176088910019923
1.176089541153167
1.17609122324333
1.176094524371844
1.176100067841337
1.176108469471782
1.176120320294772
1.176136164792772
1.176156482119987
1.176181668850805
1.176212023862005
1.176247734943616
1.176288866676529
1.176335348526585
1.176386956615812
1.176443265724418
1.176503505627019
1.176566152299411
1.176627903902695
1.176681882908204
1.17671776924433
1.176731353369014
1.176733161629489
1.176733136505052
1.176732794987756
1.176731677653654
1.176729219498291
1.176724797714967
1.176717767858441
1.176707484531893
1.176693322408108
1.176674694556278
1.176651071478661
1.176622003324136
1.176587143668512
1.176546273112818
1.176499327548783
1.176446442616468
1.176388036091683
1.17632499758491
1.176259189545399
1.176194657197992
1.176139529082044
1.176104881038667
1.17609310570655
1.176091815939007
1.176091863208201
1.176092288243456
1.176093546271873
1.176096218058717
1.176100907644709
1.176108229492051
1.176118778969352
1.176133111157361
1.176151721690942
1.176175029550448
1.1762033614724
1.176236938109859
1.176275861761692
1.176320104472609
1.176369492056766
1.176423669847855
1.176482008057187
1.17654333135234
1.176605205116038
1.176662440589522
1.176705852672114
1.17672734604826
1.176732102339746
1.176732308025229
1.17673217329723
1.176731565679759
1.176730038003242
1.176727091792553
1.176722209489197
1.176714886591744
1.176704659124074
1.176691130399128
1.1766739989568
1.176653087572229
1.176628373787487
1.176600024739177
1.176568447400204
1.176534389407661
1.17649917994672
1.176465258212895
1.176436861990206
1.176419103126963
1.176412701919102
1.176411755975072
1.176411716489971
1.176411716172556
1.176411716172217
1.176411716172217
1.176411716172217
1.176411716172217
1.176411716172217
1.176411716172217
1.176411716172216
1.176411716172216
1.176411716172215
1.176411716172214
1.176411716172214
1.176411716172214
1.176411716172214
1.176411716172213
1.176411716172213
1.176411716172213
1.176411716172212
1.176411716172213
1.176411716172213
)
;

boundaryField
{
    inlet
    {
        type            calculated;
        value           uniform 1.176395973595895;
    }
    outlet
    {
        type            calculated;
        value           uniform 1.176411716172221;
    }
    frontAndBack
    {
        type            empty;
    }
}


// ************************************************************************* //
