/*--------------------------------*- C++ -*----------------------------------*\
| =========                 |                                                 |
| \\      /  F ield         | OpenFOAM: The Open Source CFD Toolbox           |
|  \\    /   O peration     | Version:  v2012                                 |
|   \\  /    A nd           | Website:  www.openfoam.com                      |
|    \\/     M anipulation  |                                                 |
\*---------------------------------------------------------------------------*/
FoamFile
{
    version     2.0;
    format      ascii;
    class       volScalarField;
    location    "0.007";
    object      T;
}
// * * * * * * * * * * * * * * * * * * * * * * * * * * * * * * * * * * * * * //

dimensions      [0 0 0 1 0 0 0];


internalField   nonuniform List<scalar> 
1000
(
299.9874935131688
299.9892573860466
299.9829414730708
299.9782982692095
299.9738775415722
299.9700550033247
299.9665735441746
299.9634351060079
299.960702944584
299.9589085675149
299.9584855585497
299.9586013915719
299.9590098143802
299.9598889907091
299.9615389526052
299.9640456769169
299.9673222492352
299.9712214987156
299.9756211718775
299.9804374775185
299.9856021874257
299.9910406958643
299.9966636035104
300.0023667379497
300.0080348261891
300.0135506219769
300.0188122580984
300.0237568332153
300.0283762929902
300.0326833637999
300.0365479892059
300.0394172025663
300.0406411728338
300.0407777192408
300.0407179999182
300.0404882542931
300.039859149912
300.0386278962188
300.036618543606
300.0337506882985
300.0300583026225
300.0256708185578
300.0207602827703
300.0154879296737
300.0099791704533
300.0043297980762
299.9986247670419
299.992951245669
299.9873984237017
299.9820420098418
299.9769196506942
299.9720293989027
299.9674147865324
299.9633920522995
299.9607163254303
299.9598049981449
299.9597432026053
299.959778500044
299.9599987927606
299.9605425301991
299.9616000884207
299.963333856264
299.9658593187863
299.9692131287495
299.9733429033947
299.9781195032577
299.983369765825
299.9889166312476
299.9946088632219
300.0003300523197
300.0059932611611
300.0115374581778
300.0169321240792
300.0221760929423
300.0272645090989
300.0320890089015
300.0362362842663
300.0389060846956
300.0397837316978
300.0398477523919
300.0398001018128
300.0396264363368
300.0391643219319
300.0382660309363
300.0367747157312
300.0345624833513
300.0315527524695
300.0277404235457
300.0231970279409
300.0180586071564
300.012500576893
300.0067067808201
300.0008396686832
299.995018775675
299.9893131034713
299.9837467889772
299.9783154946689
299.9730292355397
299.968033273925
299.9638357735762
299.9612953025432
299.9605555718707
299.9605180422192
299.9605488653223
299.9607248730714
299.9611525774585
299.9619810755547
299.9633504327756
299.9653837066612
299.9681652207087
299.971723972827
299.9760225469957
299.98095775232
299.9863762035666
299.9921010373627
299.9979611060102
300.0038163427149
300.0095766233451
300.0152085494421
300.0207183416865
300.0260953796867
300.0311909641395
300.035515039202
300.0382255605721
300.039092963084
300.0391592492168
300.0391232502349
300.038989684128
300.0386286374543
300.0379185801593
300.0367240989559
300.0349211717134
300.0324116747976
300.0291409488397
300.0251105606411
300.0203835699639
300.0150804111821
300.0093633268935
300.003409172444
299.997377072792
299.9913828097235
299.9854895694142
299.9797213225369
299.9741158277058
299.9688592691599
299.9645088649834
299.9619269118302
299.961183406728
299.9611413843505
299.9611645721751
299.9613034882346
299.9616484710927
299.9623243908773
299.9634534145698
299.9651513755553
299.9675125338806
299.9705960177247
299.9744129224533
299.9789188817645
299.9840162117056
299.989566070755
299.9954082394381
300.00138639614
300.007375066998
300.0132975488025
300.0191183715991
300.0247927825737
300.0301474690299
300.0346787110294
300.0375420384575
300.0384944083621
300.038579131716
300.0385532373583
300.038453118313
300.0381682918035
300.0375947387766
300.0366127740646
300.0351072866721
300.032977180597
300.0301487619868
300.0265874770422
300.0223068635074
300.0173727674123
300.0118992200313
300.0060328714021
299.9999283861139
299.9937230126998
299.9875197190826
299.9813899931322
299.9754199521888
299.9698430961816
299.9652565870314
299.9625343411604
299.9617278754554
299.9616726175674
299.9616900051661
299.9618007066259
299.96208183986
299.9626419317609
299.9635896396132
299.9650326055761
299.9670656807365
299.9697603600467
299.9731534994274
299.9772386928961
299.9819633945561
299.9872326803728
299.9929195202992
299.9988824376796
300.0049891071619
300.0111364074776
300.0172502564449
300.0232454136797
300.0289161020012
300.033740804124
300.0368570814316
300.0379595061422
300.0380770210442
300.0380587242096
300.0379831896589
300.0377559385134
300.0372867708675
300.0364689230118
300.0351960506075
300.0333688141371
300.0309055599171
300.0277521253821
300.0238907213992
300.019346689649
300.0141898704613
300.0085271778673
300.002487084583
299.9962009090796
299.9897871195898
299.983349497392
299.9770159051375
299.9710642232102
299.966134749613
299.9631515910361
299.9622199752345
299.9621426908772
299.962153991789
299.9622407111489
299.9624699630382
299.9629384402402
299.9637432467733
299.9649834246297
299.9667507595971
299.969121652797
299.972147574959
299.9758468166982
299.9801997806105
299.9851484732198
299.9906007994759
299.9964416704447
300.0025507125962
300.0088191029907
300.015151505387
300.0214342990905
300.0274383389147
300.0326302918764
300.0361124700079
300.0374518737917
300.0376257053456
300.0376141527756
300.0375594813821
300.0373790811354
300.0369937404039
300.0363070824455
300.0352214674134
300.0336419062548
300.0314844071546
300.0286839339699
300.0252025015739
300.0210364477563
300.0162201691174
300.0108235911855
300.0049435540208
299.9986917520624
299.9921829383663
299.9855330802018
299.9788938190589
299.9725695312452
299.9672251976048
299.9638484344701
299.962690311788
299.9625680298111
299.9625747499398
299.9626416199717
299.9628275805741
299.9632195861971
299.9639059450307
299.9649785324438
299.9665251869151
299.9686232432916
299.971331827225
299.9746848775657
299.9786861798134
299.9833066941312
299.9884851828933
299.9941346082045
300.0001544682054
300.0064431334262
300.0128993719708
300.0193971096612
300.025701393079
300.0312888076328
300.0352377028779
300.0369315288409
300.0372079709471
300.0372036242423
300.0371670733362
300.0370259791139
300.0367110785377
300.03613384574
300.0352040731903
300.0338316884361
300.0319332755352
300.0294383535204
300.0262963218801
300.0224832733155
300.0180065428593
300.0129050352998
300.0072453917023
300.0011152507474
299.9946156289363
299.9878604919556
299.9810070732981
299.9743603374466
299.9685738366153
299.964684354725
299.9631740898861
299.9629669524192
299.9629681609642
299.9630171038467
299.9631648806628
299.9634906880848
299.9640757729039
299.9650058153225
299.9663645304491
299.9682284688724
299.9706607208502
299.9737051591686
299.9773817809839
299.9816831540883
299.9865731251092
299.9919901506605
299.997855285751
300.0040802337723
300.0105678860448
300.0171927235618
300.0237307212515
300.0296942621044
300.0341738156835
300.0363525256018
300.0368066209741
300.0368176368979
300.0367950532683
300.0366875829474
300.0364331886292
300.0359499862931
300.0351538129792
300.0339590750976
300.0322840521212
300.030055834832
300.027216155407
300.0237273221044
300.0195767333385
300.014778793931
300.0093742518129
300.0034272238007
299.997020897815
299.9902585598691
299.9832896143214
299.9763987375359
299.970192996443
299.9657151734846
299.9637133989395
299.9633522626087
299.9633456626056
299.9633778020564
299.963491555165
299.9637583934928
299.9642540862844
299.9650594594771
299.9662544378303
299.9679139487335
299.9701028777716
299.9728713821353
299.9762506320332
299.9802489998517
299.9848499409108
299.990013399869
299.9956804459484
300.0017779280255
300.0082184119483
300.0148855279985
300.0215773672614
300.0278611801888
300.0328822651233
300.0356602750182
300.0364013767572
300.0364475785792
300.0364346204269
300.0363559893374
300.0361546728153
300.0357539970948
300.0350749257488
300.03403566923
300.0325565540739
300.0305638652399
300.027994734939
300.024802290461
300.0209597121855
300.0164626890586
300.0113307457968
300.0056071073253
299.9993568131107
299.9926683262821
299.9856751706586
299.9786295494806
299.9720683187746
299.9669848105887
299.9643590212119
299.963738895193
299.963708973783
299.9637297914979
299.9638130638423
299.9640277632049
299.9644437212526
299.965137993831
299.9661873302834
299.9676650035375
299.969636689106
299.9721565768525
299.9752634898745
299.9789772261457
299.983296258526
299.9881978776102
299.9936402932674
299.9995649664223
300.0058965232792
300.0125321532209
300.0192970824507
300.0258226924391
300.0313460274101
300.0348007346714
300.0359650293298
300.0360873857783
300.0360813938939
300.0360276443943
300.0358729852289
300.0355454423707
300.0349700924145
300.034068606206
300.0327634423371
300.0309810753207
300.0286560811109
300.0257354063426
300.0221819242227
300.0179772587076
300.0131242883465
300.0076485310075
300.0015978154302
299.9950445721451
299.9881036161008
299.9809904722437
299.974161089206
299.968512036992
299.9651685428703
299.9641519860289
299.964063693815
299.9640767044445
299.964134627363
299.9643031713863
299.9646474158953
299.9652412344458
299.9661588240425
299.9674721388522
299.969247176001
299.9715407873542
299.9743972146263
299.9778445383512
299.9818923501762
299.9865314663703
299.9917346275845
299.9974568622746
300.003634838719
300.0101798018441
300.0169444334696
300.0236246806391
300.0295702275394
300.0337215811256
300.0354566329929
300.0357337463515
300.035737761189
300.0357015733642
300.0355860899635
300.0353218077469
300.0348384770274
300.0340604886529
300.0329122514723
300.0313207109182
300.0292187962673
300.0265489204895
300.0232664079457
300.0193426838172
300.0147679532218
300.0095529403746
300.0037300474403
299.9973567882255
299.9905294776759
299.9834266799429
299.9764224101849
299.9702892526326
299.966193008075
299.9646282491385
299.9644165788495
299.964419493547
299.9644579536183
299.9645850957472
299.9648647466003
299.9653675879116
299.9661656480684
299.9673295460294
299.9689253295782
299.971011477629
299.9736358272141
299.9768326716068
299.9806205572567
299.9850010300254
299.989958185261
299.9954587923446
300.0014518994997
300.0078629884186
300.0145688349736
300.0213229464114
300.0275918194875
300.0323979471856
300.0348221558368
300.0353694299544
300.0353923160936
300.035373125216
300.0352907788917
300.0350833775751
300.0346832276524
300.0340173475083
300.0330116908113
300.0315937679072
300.0296957748623
300.0272575321982
300.0242291608422
300.0205741536743
300.0162727115489
300.0113239761955
300.0057471574568
299.9995850157379
299.9929159081094
299.9858868221868
299.9787997584939
299.9722938780494
299.9674744162074
299.9652165190121
299.9647710446623
299.9647604154462
299.9647806191761
299.9648750470983
299.9650981065693
299.9655191724072
299.9662080842742
299.9672344187758
299.9686642329821
299.9705575253781
299.9729652027951
299.9759262310279
299.9794657525892
299.9835938933734
299.9883044610365
299.993574001644
299.9993616682643
300.0056057675615
300.012205010487
300.0189615481606
300.0254480259367
300.0308176906746
300.0340023171958
300.0349743423477
300.03505946224
300.0350469236282
300.034992008436
300.0348317744645
300.0345042039859
300.0339382919545
300.0330619553769
300.0318035483359
300.030094693669
300.0278728963647
300.0250843428224
300.0216867972588
300.0176523986798
300.0129701477906
300.0076483018627
300.00171791983
299.9952413004182
299.9883360763014
299.9812420977726
299.974475452629
299.969019024081
299.9659779478773
299.9651521893383
299.9650955886477
299.965107699865
299.9651720619548
299.9653451942755
299.9656921392786
299.9662812471884
299.9671812128484
299.968458055342
299.9701725409684
299.9723776063666
299.9751159836283
299.9784182186908
299.9823010064346
299.9867658565247
299.9917983521096
299.9973675412322
300.0034226440403
300.0098798147945
300.0165817138443
300.023193570999
300.0290132077119
300.0329541012719
300.0345016319307
300.0347220063525
300.0347197793125
300.0346849807025
300.0345665090388
300.0343041492417
300.0338294723258
300.0330717611951
300.0319601040444
300.0304260659338
300.0284058635185
300.0258427476783
300.0226899999416
300.0189138317463
300.0144954459199
300.0094332228037
300.0037468731629
299.9974850455476
299.9907423623823
299.9837078567646
299.9767887304469
299.9708153193484
299.9669664810685
299.9655944760327
299.9654300814034
299.965432224499
299.9654766762375
299.965606964734
299.9658887216725
299.9663873303118
299.9671705618789
299.9683043992721
299.9698506378906
299.9718641895837
299.9743908918185
299.9774657709219
299.9811112202348
299.9853351966683
299.9901303967122
299.9954741012567
300.0013255913098
300.0076158150993
300.0142183049183
300.020872175727
300.0270159755437
300.0316480812339
300.0339012108104
300.0343771002212
300.0343925870698
300.0343746750471
300.0342889294262
300.0340826076704
300.033688881675
300.0330390980253
300.0320631792724
300.0306925240153
300.0288621565721
300.0265131474306
300.023595175988
300.0200690968481
300.0159094420021
300.0111070954489
300.0056726603109
299.9996420301361
299.9930895677084
299.9861645118985
299.979185306265
299.9728260874321
299.9682138386237
299.9661451872652
299.9657665845451
299.9657588491715
299.9657835435754
299.9658784873674
299.9661022550706
299.9665190224178
299.9671955673667
299.9681976758818
299.9695876148884
299.971421621945
299.9737479947333
299.9766054012302
299.9800208309175
299.9840077504796
299.9885654602356
299.993678796989
299.9993155323058
300.0054187191699
300.0118869722202
300.0185185888411
300.024874847164
300.0300910508159
300.0331165236902
300.0340005974613
300.0340711272311
300.0340635409285
300.0340048837557
300.033847733159
300.0335262541363
300.0329740334347
300.032121887582
300.0309015268609
300.0292475445173
300.0270996052527
300.0244046941106
300.0211195374397
300.0172131650725
300.0126695545285
300.0074906656671
300.0017012006959
299.9953589210616
299.9885813270519
299.9816159761856
299.9749975106769
299.96972670113
299.9668699265417
299.9661329055789
299.9660878065014
299.9661003288504
299.9661655010772
299.9663378136503
299.9666798886217
299.9672572801457
299.9681356257437
299.9693777393068
299.9710413391679
299.9731769969495
299.9758262301806
299.9790197490835
299.9827760264296
299.9871002507311
299.9919833064448
299.9973999484685
300.0033041128612
300.0096148291781
300.0161746336492
300.0226434396675
300.0283104032103
300.0320991462186
300.0335495123464
300.0337466854165
300.0337449504661
300.0337089459684
300.033592658099
300.033335565271
300.0328723433092
300.0321351516419
300.0310560347949
300.0295689438576
300.0276121356044
300.0251305100209
300.0220775083664
300.0184172446366
300.0141276667745
300.0092040523693
300.0036623542718
299.9975461373591
299.9909469893751
299.9840576786635
299.9772951260589
299.9714964841775
299.9678187045352
299.9665469330032
299.9664031455303
299.9664111079207
299.9664517476043
299.9665828637787
299.9668606430507
299.9673502735572
299.9681164389631
299.9692220723677
299.9707257646283
299.9726799977283
299.9751291855374
299.9781076096432
299.9816380015404
299.9857308257356
299.9903831081805
299.9955761353778
300.0012720088134
300.0074049142009
300.013851907475
300.0203520343376
300.0263405604947
300.030824412552
300.0329750956723
300.033420410078
300.0334362739128
300.0334137381866
300.0333311238589
300.0331277790152
300.0327426021562
300.0321086629447
300.0311587496847
300.0298268993709
300.0280505011294
300.0257723527379
300.0229428464797
300.0195223198809
300.0154836055025
300.0108148870461
300.0055233621969
299.9996414866173
299.9932412709055
299.9864718179122
299.9796543171775
299.9734666749796
299.969025161695
299.967075198965
299.9667319900531
299.9667265171444
299.9667509987023
299.9668454227004
299.9670656556232
299.9674741659952
299.968135291685
299.9691121562323
299.9704644130676
299.9722461356681
299.9745039402375
299.9772752930923
299.980586987889
299.9844538371401
299.9888775601406
299.9938455251712
299.9993282077457
300.0052721222268
300.0115790435543
300.0180482701485
300.0242419646503
300.0293052270482
300.0322174589413
300.0330560011757
300.0331211402665
300.0331110039577
300.0330544723842
300.0328996029414
300.0325854604122
300.0320470804032
300.0312178700249
300.0300319127157
300.0284257631318
300.026340575024
300.0237244989904
300.0205347487689
300.0167395739101
300.0123211945492
300.0072798582685
300.0016387333429
299.99545344776
299.9888394000254
299.9820440791179
299.97560220258
299.9705026539734
299.967771062372
299.9670791359571
299.9670375192725
299.9670532836023
299.9671177048777
299.9672893999372
299.9676263538464
299.968192187508
299.9690497566882
299.9702593847869
299.971876640809
299.9739504216944
299.9765211907128
299.9796194339306
299.9832642935248
299.9874623309149
299.9922063126107
299.9974733514672
300.003220010704
300.0093676465073
300.0157606979351
300.022062204932
300.027570378834
300.0312322309055
300.0326183386086
300.0328028507531
300.0328002869998
300.0327654387886
300.032651426903
300.0324005985273
300.0319494022277
300.031232077522
300.0301827649748
300.02873765024
300.0268368330665
300.0244262687381
300.0214600338359
300.0179027522181
300.0137320029748
300.0089412054342
300.0035441576789
299.9975834475676
299.9911498183968
299.984433312185
299.9778467825871
299.9722199200879
299.9686833436057
299.9674814019344
299.967349751414
299.9673545762471
299.9673979605714
299.9675263704757
299.9677990857688
299.9682777614708
299.969025115227
299.9701019139088
299.9715648094436
299.9734643824739
299.9758433850967
299.9787351491158
299.9821621732437
299.9861348709139
299.9906503565179
299.9956908162747
300.0012200149757
300.007173640712
300.0134317137121
300.0197457618125
300.0255863021069
300.0300161244151
300.0322092930605
300.0326946183397
300.0327156061833
300.0327018586379
300.0326398578466
300.0324839749157
300.0321833455121
300.0316851574866
300.0309379300143
300.0298943159141
300.0285138320954
300.0267657099482
300.0246318552437
300.0221099639442
300.019217077013
300.0159947089863
300.0125191398197
300.0089260011085
300.0054642132664
300.002566267689
300.0007538826207
300.0001006013927
300.0000040621159
300.0000000324297
300.0000000000356
300.0000000000011
300.0000000000011
300.0000000000013
300.0000000000014
300.0000000000014
300.0000000000015
300.0000000000016
300.0000000000019
300.000000000002
300.000000000002
300.000000000002
300.000000000002
300.0000000000022
300.0000000000022
300.0000000000022
300.0000000000023
300.0000000000022
300.0000000000022
300.0000000000019
)
;

boundaryField
{
    inlet
    {
        type            fixedValue;
        value           uniform 300;
    }
    outlet
    {
        type            inletOutlet;
        inletValue      uniform 300;
        value           uniform 300;
    }
    frontAndBack
    {
        type            empty;
    }
}


// ************************************************************************* //
