/*--------------------------------*- C++ -*----------------------------------*\
| =========                 |                                                 |
| \\      /  F ield         | OpenFOAM: The Open Source CFD Toolbox           |
|  \\    /   O peration     | Version:  v2012                                 |
|   \\  /    A nd           | Website:  www.openfoam.com                      |
|    \\/     M anipulation  |                                                 |
\*---------------------------------------------------------------------------*/
FoamFile
{
    version     2.0;
    format      ascii;
    class       volVectorField;
    location    "0.007";
    object      U;
}
// * * * * * * * * * * * * * * * * * * * * * * * * * * * * * * * * * * * * * //

dimensions      [0 1 -1 0 0 0 0];


internalField   nonuniform List<vector> 
1000
(
(-0.00278090336929932 0 0)
(-0.03443220324744475 0 0)
(-0.04262122036931038 0 0)
(-0.05779014413955518 0 0)
(-0.07166977293782842 0 0)
(-0.08458882247817646 0 0)
(-0.09561375815570942 0 0)
(-0.1050421329848181 0 0)
(-0.1131703295195314 0 0)
(-0.118672973441996 0 0)
(-0.1201448356104641 0 0)
(-0.1199948312505543 0 0)
(-0.1191741034227271 0 0)
(-0.1166569780791874 0 0)
(-0.1118129963466713 0 0)
(-0.1044560993797154 0 0)
(-0.09486551814448328 0 0)
(-0.08347077121328357 0 0)
(-0.07063345104648062 0 0)
(-0.05660478952100954 0 0)
(-0.04158645967932165 0 0)
(-0.02579803613782549 0 0)
(-0.009506402212377056 0 0)
(0.00698413520445776 0 0)
(0.02335453735275066 0 0)
(0.03928435352911414 0 0)
(0.05447687296496775 0 0)
(0.0687361797102973 0 0)
(0.08205076947955171 0 0)
(0.09449351324972974 0 0)
(0.1056887586252615 0 0)
(0.1139857313469274 0 0)
(0.117496268735311 0 0)
(0.1178812799443195 0 0)
(0.1177827592907261 0 0)
(0.1170900998752065 0 0)
(0.1152929263607955 0 0)
(0.111734589157421 0 0)
(0.1059241956942441 0 0)
(0.09762893122065236 0 0)
(0.08694924207324155 0 0)
(0.07425668502607093 0 0)
(0.0600472348173112 0 0)
(0.04479244137565466 0 0)
(0.02886007564018902 0 0)
(0.01252166719986327 0 0)
(-0.003985480488470087 0 0)
(-0.02040283862566507 0 0)
(-0.03645819590266925 0 0)
(-0.05193878544824976 0 0)
(-0.06675974490868435 0 0)
(-0.08092510737476191 0 0)
(-0.09427220033061021 0 0)
(-0.1058786211905128 0 0)
(-0.1136103998116503 0 0)
(-0.1162825428426658 0 0)
(-0.1164848876451421 0 0)
(-0.1163200977012801 0 0)
(-0.115721658885498 0 0)
(-0.1141372976015857 0 0)
(-0.1110797730321736 0 0)
(-0.1060652670699068 0 0)
(-0.09876024159799937 0 0)
(-0.08905698476322609 0 0)
(-0.07711011477566945 0 0)
(-0.06329543375964464 0 0)
(-0.04810995728458671 0 0)
(-0.03206193023587577 0 0)
(-0.01559374890986768 0 0)
(0.0009507545021722812 0 0)
(0.01732570925775807 0 0)
(0.03336694882420742 0 0)
(0.04898115468647488 0 0)
(0.06414453835876034 0 0)
(0.07884492962836087 0 0)
(0.09280058448497758 0 0)
(0.1048214804553389 0 0)
(0.1125498781266456 0 0)
(0.1150581958230743 0 0)
(0.1152243315789775 0 0)
(0.1151396486535168 0 0)
(0.1146046125312057 0 0)
(0.1132778494478526 0 0)
(0.1106782747813725 0 0)
(0.1063642023011422 0 0)
(0.09996513597549059 0 0)
(0.09126134097995982 0 0)
(0.08023551044656599 0 0)
(0.0670922003156634 0 0)
(0.05222809013358812 0 0)
(0.03615448734886633 0 0)
(0.01939922206190033 0 0)
(0.002425291068277515 0 0)
(-0.01441754393288253 0 0)
(-0.03091812313020176 0 0)
(-0.04700932518127481 0 0)
(-0.06272235306165917 0 0)
(-0.0780294973240052 0 0)
(-0.09248246035385289 0 0)
(-0.1046025424146074 0 0)
(-0.1119415757232241 0 0)
(-0.1141057973604255 0 0)
(-0.1142372816298164 0 0)
(-0.1141001551824491 0 0)
(-0.1136181815058867 0 0)
(-0.1123730144115223 0 0)
(-0.1099775224250643 0 0)
(-0.1060170157766347 0 0)
(-0.1001357460657334 0 0)
(-0.09208845578480485 0 0)
(-0.08179360287085938 0 0)
(-0.06936114253256487 0 0)
(-0.0550865335381809 0 0)
(-0.03941057856426178 0 0)
(-0.02284888017263726 0 0)
(-0.005901706619003336 0 0)
(0.0110304490832032 0 0)
(0.02769595893118566 0 0)
(0.04399367575069752 0 0)
(0.05992639058125567 0 0)
(0.07546611083639686 0 0)
(0.09020671171431964 0 0)
(0.1027325557701035 0 0)
(0.1105753711313966 0 0)
(0.1130624212631993 0 0)
(0.1132399939005679 0 0)
(0.1131764581375521 0 0)
(0.1127645718404642 0 0)
(0.1117280960855751 0 0)
(0.1096732382419717 0 0)
(0.1062179446246445 0 0)
(0.1010028376207372 0 0)
(0.09374549813059177 0 0)
(0.0842859569020268 0 0)
(0.07262703441864315 0 0)
(0.05895354625512254 0 0)
(0.04361659441209046 0 0)
(0.02708224555988297 0 0)
(0.009857205946532537 0 0)
(-0.007594637191200022 0 0)
(-0.0249301869787933 0 0)
(-0.04196995707991671 0 0)
(-0.0586581468740921 0 0)
(-0.07488426611891727 0 0)
(-0.09008884476361104 0 0)
(-0.1026565603187933 0 0)
(-0.1101205800548419 0 0)
(-0.1122908510482968 0 0)
(-0.1124256708072464 0 0)
(-0.1123239631663936 0 0)
(-0.1119429610238931 0 0)
(-0.1109387251969441 0 0)
(-0.1089844986340368 0 0)
(-0.1057191019150244 0 0)
(-0.1008075673179455 0 0)
(-0.09397642653630298 0 0)
(-0.08505668073254721 0 0)
(-0.07401724875959266 0 0)
(-0.06098371142361173 0 0)
(-0.04623682846697687 0 0)
(-0.03018207972624479 0 0)
(-0.01328647696365723 0 0)
(0.004002709904245883 0 0)
(0.02132911698001699 0 0)
(0.0384652063817669 0 0)
(0.05529668653254159 0 0)
(0.07169951072608903 0 0)
(0.08719179853813461 0 0)
(0.1003134436080387 0 0)
(0.1085941839471079 0 0)
(0.111330235340439 0 0)
(0.1115665753757127 0 0)
(0.1115260969150392 0 0)
(0.1112129236711029 0 0)
(0.1103966347305154 0 0)
(0.1087365098982439 0 0)
(0.10589599451214 0 0)
(0.1015412850044167 0 0)
(0.09538111810951558 0 0)
(0.08720073057656796 0 0)
(0.07689888342186289 0 0)
(0.06451684632798675 0 0)
(0.05024715119075344 0 0)
(0.03441671839685148 0 0)
(0.01744601204884311 0 0)
(-0.0002141292788448528 0 0)
(-0.01816038626605923 0 0)
(-0.0360985963726028 0 0)
(-0.05383261702215134 0 0)
(-0.07111065393635999 0 0)
(-0.08724050458099693 0 0)
(-0.1004944936119372 0 0)
(-0.1083673002988928 0 0)
(-0.1107155331944137 0 0)
(-0.1108850494343902 0 0)
(-0.1108062827451509 0 0)
(-0.1105041370406038 0 0)
(-0.1096852157454868 0 0)
(-0.1080660171957022 0 0)
(-0.1053250106027209 0 0)
(-0.1011510183938499 0 0)
(-0.09526909946741319 0 0)
(-0.08747419629217087 0 0)
(-0.07766030280667222 0 0)
(-0.06584354199309422 0 0)
(-0.05217481134914306 0 0)
(-0.0369321885041489 0 0)
(-0.02048546551941898 0 0)
(-0.003239197275293321 0 0)
(0.0144283801612212 0 0)
(0.03221298561410287 0 0)
(0.04989185442515119 0 0)
(0.06722532117716631 0 0)
(0.0836329245945882 0 0)
(0.09759951289651113 0 0)
(0.106609065729109 0 0)
(0.1097833263522374 0 0)
(0.1101182073636016 0 0)
(0.1100939232673192 0 0)
(0.1098539737840572 0 0)
(0.1092039741968889 0 0)
(0.107845647479275 0 0)
(0.1054798829287386 0 0)
(0.10179810669937 0 0)
(0.09651385960764826 0 0)
(0.08938945731863977 0 0)
(0.08026738832629006 0 0)
(0.06909823923663164 0 0)
(0.05595671788382144 0 0)
(0.04104188940747058 0 0)
(0.02466031774178175 0 0)
(0.00718743269140663 0 0)
(-0.01099217220617494 0 0)
(-0.02954059421396673 0 0)
(-0.04816608502768123 0 0)
(-0.06649371113360014 0 0)
(-0.08370568461646545 0 0)
(-0.09795388564386405 0 0)
(-0.1065851419695763 0 0)
(-0.1092932816004169 0 0)
(-0.1095221007825577 0 0)
(-0.1094648972959433 0 0)
(-0.1092313803879959 0 0)
(-0.1085624645779114 0 0)
(-0.1072084445636586 0 0)
(-0.1048806888730701 0 0)
(-0.1012931788200175 0 0)
(-0.09618012035133001 0 0)
(-0.08932201633235037 0 0)
(-0.08057012285979928 0 0)
(-0.06986942741793584 0 0)
(-0.05727624786441767 0 0)
(-0.04296151249521541 0 0)
(-0.0271927704827691 0 0)
(-0.01029844447039749 0 0)
(0.007375882211523658 0 0)
(0.02550915424508137 0 0)
(0.04382004089907816 0 0)
(0.06198808684725046 0 0)
(0.07936105206984055 0 0)
(0.09438650082056668 0 0)
(0.1044520893503192 0 0)
(0.108315125982084 0 0)
(0.1088154835376238 0 0)
(0.1088075292787981 0 0)
(0.1086281922643337 0 0)
(0.1081140898872545 0 0)
(0.1069979747554235 0 0)
(0.1050117872161211 0 0)
(0.1018717232314886 0 0)
(0.09730368418593412 0 0)
(0.09106346844838518 0 0)
(0.0829625446373204 0 0)
(0.07289274344852212 0 0)
(0.06084419222386262 0 0)
(0.04691386626340549 0 0)
(0.03130248842451343 0 0)
(0.01429356942691741 0 0)
(-0.003786942519855708 0 0)
(-0.02261172552793313 0 0)
(-0.04185083355234707 0 0)
(-0.06106004366090253 0 0)
(-0.07934931885335487 0 0)
(-0.09480109971813354 0 0)
(-0.1045724963668001 0 0)
(-0.1079319868849234 0 0)
(-0.108288520430992 0 0)
(-0.1082496540756543 0 0)
(-0.1080712833888416 0 0)
(-0.1075280039547715 0 0)
(-0.1063952508441695 0 0)
(-0.1044100330899013 0 0)
(-0.1013072002540578 0 0)
(-0.09683265018806915 0 0)
(-0.09076395025230935 0 0)
(-0.08292978395095869 0 0)
(-0.07323017496565315 0 0)
(-0.06165448445838025 0 0)
(-0.04828953665184738 0 0)
(-0.03331250043115171 0 0)
(-0.01697095176570615 0 0)
(0.0004451829073913567 0 0)
(0.0186356241904596 0 0)
(0.03730483151891984 0 0)
(0.05609713542869814 0 0)
(0.07433919383958174 0 0)
(0.09050511731131179 0 0)
(0.1019192453707593 0 0)
(0.1068102197424738 0 0)
(0.1076092148322692 0 0)
(0.1076206307624952 0 0)
(0.1074925171332118 0 0)
(0.1070931146816006 0 0)
(0.1061803063409104 0 0)
(0.104510795737251 0 0)
(0.1018215711659548 0 0)
(0.09785259682910116 0 0)
(0.09236160278840208 0 0)
(0.08514469601429167 0 0)
(0.07605684448140344 0 0)
(0.06502901752174781 0 0)
(0.05208039602622425 0 0)
(0.03732297170703778 0 0)
(0.02095239117562147 0 0)
(0.003223392763463535 0 0)
(-0.01557606921646983 0 0)
(-0.03511926821856303 0 0)
(-0.05494568790738425 0 0)
(-0.07416749789668618 0 0)
(-0.09090136954896187 0 0)
(-0.102156806769768 0 0)
(-0.1065318271676094 0 0)
(-0.1071321198064777 0 0)
(-0.1071126905639383 0 0)
(-0.1069849430993639 0 0)
(-0.1065521906164651 0 0)
(-0.1056110537438846 0 0)
(-0.1039186691263693 0 0)
(-0.1012280961772015 0 0)
(-0.09729735950538179 0 0)
(-0.09190600643446242 0 0)
(-0.084870917297083 0 0)
(-0.07606379189059656 0 0)
(-0.06542763608827656 0 0)
(-0.05298620096549252 0 0)
(-0.03884316258882582 0 0)
(-0.02317305830950745 0 0)
(-0.006205071125082566 0 0)
(0.01179981624295124 0 0)
(0.03056069680186414 0 0)
(0.04972298536755976 0 0)
(0.06864059415459549 0 0)
(0.08589123391858965 0 0)
(0.0988390008422442 0 0)
(0.1051348709138492 0 0)
(0.1064562293758715 0 0)
(0.1065010505503605 0 0)
(0.1064158068729612 0 0)
(0.1061148529004455 0 0)
(0.1053764999138186 0 0)
(0.1039791696380765 0 0)
(0.1016764048684644 0 0)
(0.09822108966719914 0 0)
(0.0933761296603129 0 0)
(0.08693088911767169 0 0)
(0.0787177294737476 0 0)
(0.06862730061216092 0 0)
(0.05662173863604202 0 0)
(0.04274296390725727 0 0)
(0.02711090591539863 0 0)
(0.009910873735651096 0 0)
(-0.008619764366689025 0 0)
(-0.02818277902540437 0 0)
(-0.04834129549803545 0 0)
(-0.0682701558189575 0 0)
(-0.08621974240326895 0 0)
(-0.09917676072185198 0 0)
(-0.1049714717923952 0 0)
(-0.1060124910940903 0 0)
(-0.1060235267046805 0 0)
(-0.1059410465922044 0 0)
(-0.105607115722289 0 0)
(-0.1048365962587352 0 0)
(-0.1034026370534769 0 0)
(-0.1010726889898691 0 0)
(-0.09761580486161922 0 0)
(-0.09281580249015055 0 0)
(-0.08648423372655042 0 0)
(-0.07847523969254976 0 0)
(-0.06869975881272398 0 0)
(-0.05713491390637537 0 0)
(-0.04382712988537325 0 0)
(-0.02889007680526959 0 0)
(-0.01249611469033756 0 0)
(0.005139326773997577 0 0)
(0.02376536834737823 0 0)
(0.0430516820665954 0 0)
(0.06241253483978573 0 0)
(0.08058647821814434 0 0)
(0.09510165653884269 0 0)
(0.1031357329703455 0 0)
(0.1052881133615209 0 0)
(0.1054272884500819 0 0)
(0.1053734326709763 0 0)
(0.1051563181474923 0 0)
(0.104570975114505 0 0)
(0.1034124455824298 0 0)
(0.101448483790785 0 0)
(0.09844286632229474 0 0)
(0.0941643624706089 0 0)
(0.08840038773662871 0 0)
(0.08097004617063547 0 0)
(0.07173687732497964 0 0)
(0.06062179487982627 0 0)
(0.04761343579353053 0 0)
(0.03277059598624811 0 0)
(0.01621687294152995 0 0)
(-0.001863443656336723 0 0)
(-0.02121310059456496 0 0)
(-0.04143994596072695 0 0)
(-0.06181542950695145 0 0)
(-0.08079538142450776 0 0)
(-0.09550692586830545 0 0)
(-0.1031040554433605 0 0)
(-0.1048902934857148 0 0)
(-0.1049718890961741 0 0)
(-0.1049249068084065 0 0)
(-0.1046760760691352 0 0)
(-0.1040574000848543 0 0)
(-0.1028537564911622 0 0)
(-0.1008452887591796 0 0)
(-0.09780986273030161 0 0)
(-0.09353574561260514 0 0)
(-0.0878323166277603 0 0)
(-0.08054264728846734 0 0)
(-0.07155538072396338 0 0)
(-0.06081362610999493 0 0)
(-0.04832049509678257 0 0)
(-0.03414102805421728 0 0)
(-0.01839805596556899 0 0)
(-0.001262285856488061 0 0)
(0.01705085937956382 0 0)
(0.03624647841476754 0 0)
(0.05581555924970259 0 0)
(0.07468748583627242 0 0)
(0.09065971121337207 0 0)
(0.1006544805508695 0 0)
(0.1040262756629646 0 0)
(0.1043809055636736 0 0)
(0.1043542432381876 0 0)
(0.1042065633996994 0 0)
(0.103756409158934 0 0)
(0.1028095159587885 0 0)
(0.101145575918091 0 0)
(0.09853828963463666 0 0)
(0.09476287560195244 0 0)
(0.08960745258337273 0 0)
(0.08288332967583632 0 0)
(0.0744359162670392 0 0)
(0.06415686885169711 0 0)
(0.05199461271091317 0 0)
(0.03795907490778696 0 0)
(0.02212179241856062 0 0)
(0.004618150688086717 0 0)
(-0.01433950143273607 0 0)
(-0.03441404487902038 0 0)
(-0.05498544900708564 0 0)
(-0.07474313797915985 0 0)
(-0.0910904463486575 0 0)
(-0.1007605753210747 0 0)
(-0.1036933450959223 0 0)
(-0.1039455523607115 0 0)
(-0.1039230668119731 0 0)
(-0.1037446876598418 0 0)
(-0.1032607765109254 0 0)
(-0.1022642158941186 0 0)
(-0.1005463021255053 0 0)
(-0.09789210970399349 0 0)
(-0.0940935356714734 0 0)
(-0.08895873673640543 0 0)
(-0.08232342265985011 0 0)
(-0.07406101403252446 0 0)
(-0.06409020144761181 0 0)
(-0.05238116502709126 0 0)
(-0.03896038641547882 0 0)
(-0.0239099594772698 0 0)
(-0.0073607407909655 0 0)
(0.01050882835445813 0 0)
(0.02944406678367458 0 0)
(0.04901191259735006 0 0)
(0.06832832788026802 0 0)
(0.08552156778055747 0 0)
(0.09753445181528607 0 0)
(0.1025591713349112 0 0)
(0.1033605124288429 0 0)
(0.1033545696311413 0 0)
(0.1032665625177031 0 0)
(0.1029261312878254 0 0)
(0.1021632367907032 0 0)
(0.1007650754812948 0 0)
(0.09851488894564196 0 0)
(0.09519367644163233 0 0)
(0.09059038533046403 0 0)
(0.08451100924869885 0 0)
(0.07678867971698733 0 0)
(0.06729413638109583 0 0)
(0.05594512350964195 0 0)
(0.04271333914278543 0 0)
(0.0276291375772194 0 0)
(0.01078601341535927 0 0)
(-0.007648826736659376 0 0)
(-0.02739642751224409 0 0)
(-0.04794158647946836 0 0)
(-0.06820326453809357 0 0)
(-0.0859449536306339 0 0)
(-0.0977930487871668 0 0)
(-0.1023184720906704 0 0)
(-0.1029307535471704 0 0)
(-0.1029249824579369 0 0)
(-0.1028112329142901 0 0)
(-0.1024444625511211 0 0)
(-0.1016352422778504 0 0)
(-0.1001806650755869 0 0)
(-0.09787219480701263 0 0)
(-0.09450547604611174 0 0)
(-0.08988927559865995 0 0)
(-0.08385463572705559 0 0)
(-0.07626345913744445 0 0)
(-0.06701630174250485 0 0)
(-0.05605912444589916 0 0)
(-0.04338784314804216 0 0)
(-0.02904917981782048 0 0)
(-0.01313886170260207 0 0)
(0.004196791045734064 0 0)
(0.02274172605641772 0 0)
(0.04213772474255508 0 0)
(0.06167214844981116 0 0)
(0.0798044809018362 0 0)
(0.09370759545881725 0 0)
(0.1007197959702961 0 0)
(0.1023001971409262 0 0)
(0.1023652059936174 0 0)
(0.1023136211252678 0 0)
(0.1020729092460094 0 0)
(0.1014737588296622 0 0)
(0.1003165154737853 0 0)
(0.09839040239599449 0 0)
(0.0954813401368287 0 0)
(0.09138046862922877 0 0)
(0.08589129289613466 0 0)
(0.07883856905312689 0 0)
(0.07007849110944178 0 0)
(0.05950725297498444 0 0)
(0.04706701626067764 0 0)
(0.03275240646698058 0 0)
(0.01661933862357311 0 0)
(-0.001204098133263245 0 0)
(-0.02049111488016786 0 0)
(-0.04082337639060529 0 0)
(-0.06132895515418765 0 0)
(-0.08014953765006719 0 0)
(-0.09408385881553702 0 0)
(-0.1006106184366961 0 0)
(-0.1019052829109222 0 0)
(-0.1019463303343262 0 0)
(-0.1018724521674498 0 0)
(-0.101606920368057 0 0)
(-0.1009595667046097 0 0)
(-0.09974181340684943 0 0)
(-0.097749243109756 0 0)
(-0.09478049380764787 0 0)
(-0.09064406291731317 0 0)
(-0.08516722777644539 0 0)
(-0.07820330010645435 0 0)
(-0.06963839993531665 0 0)
(-0.05939886949690323 0 0)
(-0.04745714076772328 0 0)
(-0.03383285626761828 0 0)
(-0.01859156420508924 0 0)
(-0.001848447626724421 0 0)
(0.01621496920081306 0 0)
(0.03530044016680468 0 0)
(0.05483920163958175 0 0)
(0.07360371495996391 0 0)
(0.08914153094450643 0 0)
(0.09835100285841972 0 0)
(0.1011544775346094 0 0)
(0.1013974890847859 0 0)
(0.1013766956287405 0 0)
(0.1012068925088604 0 0)
(0.1007469064672462 0 0)
(0.09979875163941446 0 0)
(0.09816202781188071 0 0)
(0.09562731694816934 0 0)
(0.09198758954478367 0 0)
(0.08704497570885426 0 0)
(0.08061864338682065 0 0)
(0.07255302459305903 0 0)
(0.06272603224191549 0 0)
(0.05105691161279888 0 0)
(0.03751364953690071 0 0)
(0.02212027320568084 0 0)
(0.004966835337543052 0 0)
(-0.01376675769472041 0 0)
(-0.03374073198537952 0 0)
(-0.05426106231397162 0 0)
(-0.07383423707094647 0 0)
(-0.08961729609186007 0 0)
(-0.09841425100276448 0 0)
(-0.1008035139421189 0 0)
(-0.100967397287109 0 0)
(-0.1009313246725842 0 0)
(-0.1007459279570023 0 0)
(-0.1002448003477939 0 0)
(-0.09924125865859566 0 0)
(-0.09753722777110942 0 0)
(-0.09493388421682274 0 0)
(-0.0912402703989412 0 0)
(-0.08628087052513291 0 0)
(-0.07990254135629574 0 0)
(-0.07198131626819534 0 0)
(-0.06242886958630586 0 0)
(-0.05119750019832592 0 0)
(-0.0382829253701555 0 0)
(-0.02372603587380824 0 0)
(-0.007616193398112679 0 0)
(0.009898417633431605 0 0)
(0.02857468093382714 0 0)
(0.04795926637394417 0 0)
(0.06708501670358605 0 0)
(0.08391858333217615 0 0)
(0.09531568027228729 0 0)
(0.09979027914902751 0 0)
(0.1004275602559921 0 0)
(0.1004255185478324 0 0)
(0.1003206692119296 0 0)
(0.09997974221312485 0 0)
(0.0992205958241295 0 0)
(0.09784745356031667 0 0)
(0.09565585353783883 0 0)
(0.09244094017005684 0 0)
(0.0880039578731006 0 0)
(0.08216016411550567 0 0)
(0.07474658096687299 0 0)
(0.06562851732339042 0 0)
(0.05470646661868046 0 0)
(0.0419251192390469 0 0)
(0.02728231361011763 0 0)
(0.01083680295040641 0 0)
(-0.007274398712045139 0 0)
(-0.02678106132885269 0 0)
(-0.0471315198506571 0 0)
(-0.06714182393456217 0 0)
(-0.0844160808683929 0 0)
(-0.09555305773522292 0 0)
(-0.099528053868867 0 0)
(-0.1000050015258479 0 0)
(-0.09998426624110698 0 0)
(-0.09986766016398915 0 0)
(-0.09948643711122802 0 0)
(-0.09867243637789475 0 0)
(-0.09723013909036791 0 0)
(-0.09496434602362581 0 0)
(-0.0916842652765808 0 0)
(-0.08721177035847837 0 0)
(-0.08138763172349905 0 0)
(-0.07407836998745766 0 0)
(-0.06518320764765731 0 0)
(-0.0546388213825173 0 0)
(-0.04242160651647072 0 0)
(-0.02855044021997082 0 0)
(-0.01309166298622243 0 0)
(0.00383327215319905 0 0)
(0.02202480641447136 0 0)
(0.04112271072816198 0 0)
(0.06037315816848254 0 0)
(0.07814422799687594 0 0)
(0.09153623801568328 0 0)
(0.09804965951272432 0 0)
(0.09943211749116702 0 0)
(0.09948430581290471 0 0)
(0.09941974023161622 0 0)
(0.09917824746444984 0 0)
(0.09857979828362028 0 0)
(0.09744127855608066 0 0)
(0.09556184439840708 0 0)
(0.09273919757308176 0 0)
(0.08877472595618313 0 0)
(0.08348053842907026 0 0)
(0.07668635263801504 0 0)
(0.0682465481182178 0 0)
(0.05804761037998727 0 0)
(0.046015903509747 0 0)
(0.03212542368467654 0 0)
(0.01640675428426465 0 0)
(-0.001036941750421802 0 0)
(-0.01999065204532828 0 0)
(-0.04002184256452079 0 0)
(-0.06020922745333424 0 0)
(-0.07860395682848166 0 0)
(-0.09194652507539895 0 0)
(-0.09793089647907659 0 0)
(-0.09902542822620378 0 0)
(-0.09904652402431904 0 0)
(-0.09897702357740852 0 0)
(-0.0987012471823589 0 0)
(-0.09805441687659947 0 0)
(-0.09684889800818461 0 0)
(-0.09489158499439068 0 0)
(-0.09199268104702273 0 0)
(-0.08797247822731571 0 0)
(-0.08266750292857235 0 0)
(-0.07593744479706242 0 0)
(-0.06767163023038802 0 0)
(-0.05779304970889673 0 0)
(-0.04626112657491931 0 0)
(-0.03307610319883486 0 0)
(-0.01828413591865686 0 0)
(-0.001981658925545539 0 0)
(0.01566946351692789 0 0)
(0.03438135370654948 0 0)
(0.0535672499061477 0 0)
(0.0719494351746861 0 0)
(0.08702991302231526 0 0)
(0.09578208829425024 0 0)
(0.09834717026758885 0 0)
(0.09855451415322203 0 0)
(0.0985173574681389 0 0)
(0.09835825367146878 0 0)
(0.09790045047250434 0 0)
(0.09697131033008291 0 0)
(0.09537395835742117 0 0)
(0.0929092464087215 0 0)
(0.08937954861773025 0 0)
(0.08459564121619875 0 0)
(0.07838292910951132 0 0)
(0.07058813975383789 0 0)
(0.06108620951406948 0 0)
(0.0497874152435571 0 0)
(0.03664515583954658 0 0)
(0.02166520449496309 0 0)
(0.004919356978429537 0 0)
(-0.01342551532731725 0 0)
(-0.03303026339811006 0 0)
(-0.05317876616236389 0 0)
(-0.07232344588959504 0 0)
(-0.08756919993381354 0 0)
(-0.09583264344970088 0 0)
(-0.09796561727002065 0 0)
(-0.09809688743059063 0 0)
(-0.09805872111518511 0 0)
(-0.09787128748242353 0 0)
(-0.0973725815941438 0 0)
(-0.09638311195752675 0 0)
(-0.09471284972864306 0 0)
(-0.09217209786215284 0 0)
(-0.0885791307987335 0 0)
(-0.0837668607002707 0 0)
(-0.07758903471900604 0 0)
(-0.06992577643423981 0 0)
(-0.06068825472654494 0 0)
(-0.04982274740973712 0 0)
(-0.03731426359666087 0 0)
(-0.02318968553103188 0 0)
(-0.007522174906181318 0 0)
(0.00955570549294011 0 0)
(0.02780999586513749 0 0)
(0.04678415291358114 0 0)
(0.06549383787928863 0 0)
(0.08188445174618489 0 0)
(0.09284380753873724 0 0)
(0.0970395955372228 0 0)
(0.09760988937138736 0 0)
(0.09760243568285096 0 0)
(0.09750074448750745 0 0)
(0.09716331820595644 0 0)
(0.0964198485092377 0 0)
(0.0950803034893332 0 0)
(0.09294812324485099 0 0)
(0.08982649166092231 0 0)
(0.08552522651913769 0 0)
(0.0798660532623589 0 0)
(0.07268833065772805 0 0)
(0.06385680457979466 0 0)
(0.05326951249801424 0 0)
(0.04086372058768743 0 0)
(0.02662301511910433 0 0)
(0.01059141866652287 0 0)
(-0.007101270244806853 0 0)
(-0.02618630763778101 0 0)
(-0.04611126209149007 0 0)
(-0.06567696639558342 0 0)
(-0.08245562216593719 0 0)
(-0.09309056621110233 0 0)
(-0.09676259256297136 0 0)
(-0.09717686428361297 0 0)
(-0.09716924426503144 0 0)
(-0.09703918592805565 0 0)
(-0.09666438810475186 0 0)
(-0.09585980781983035 0 0)
(-0.09444342444290157 0 0)
(-0.09222730661762556 0 0)
(-0.08902934934328802 0 0)
(-0.0846793968799599 0 0)
(-0.0790260322098765 0 0)
(-0.07194177760810061 0 0)
(-0.06332698706113676 0 0)
(-0.05311438162178699 0 0)
(-0.04127429199219597 0 0)
(-0.02781781639041204 0 0)
(-0.01279863369381967 0 0)
(0.003677475035845299 0 0)
(0.02142006482302002 0 0)
(0.04006752153850915 0 0)
(0.05886390129782242 0 0)
(0.07618417644780175 0 0)
(0.08915921117863478 0 0)
(0.09538371697145141 0 0)
(0.09666574214402097 0 0)
(0.09670332585595312 0 0)
(0.09665159698518233 0 0)
(0.0964059672898627 0 0)
(0.09581954355482747 0 0)
(0.0947051541454252 0 0)
(0.09287162056369667 0 0)
(0.09012411393152669 0 0)
(0.08627191305229902 0 0)
(0.08113390391085949 0 0)
(0.07454461186399562 0 0)
(0.0663605397156468 0 0)
(0.05646696417201983 0 0)
(0.04478526986344562 0 0)
(0.03128121111022138 0 0)
(0.01597556835606826 0 0)
(-0.001037780953740353 0 0)
(-0.01955059415028087 0 0)
(-0.03913170307755177 0 0)
(-0.05885208332282582 0 0)
(-0.07675068710706168 0 0)
(-0.08959840040197981 0 0)
(-0.09523891666810969 0 0)
(-0.0962318020821938 0 0)
(-0.0962477092350474 0 0)
(-0.09617674852630242 0 0)
(-0.09590367552968886 0 0)
(-0.09526660456271858 0 0)
(-0.09408491572214119 0 0)
(-0.09217247843106449 0 0)
(-0.08934672925338867 0 0)
(-0.08543511802486528 0 0)
(-0.08028119657557443 0 0)
(-0.07375012036161553 0 0)
(-0.06573358950237689 0 0)
(-0.05615415056209937 0 0)
(-0.04496889057310517 0 0)
(-0.03217279959578583 0 0)
(-0.01780258648878338 0 0)
(-0.001943834341775583 0 0)
(0.01524889163000128 0 0)
(0.03349171399833368 0 0)
(0.05220385602101657 0 0)
(0.07011840873280852 0 0)
(0.08476293735028893 0 0)
(0.09318632994220905 0 0)
(0.09561222360627253 0 0)
(0.09580083530553268 0 0)
(0.09577040900073687 0 0)
(0.09560783801843756 0 0)
(0.09515954440523908 0 0)
(0.09425081425680518 0 0)
(0.0926938199730548 0 0)
(0.0902956412280012 0 0)
(0.08686510112587578 0 0)
(0.08221921280410519 0 0)
(0.07618851657487258 0 0)
(0.06862228032279521 0 0)
(0.059395525603002 0 0)
(0.04841741101068352 0 0)
(0.03563844322543195 0 0)
(0.02105799963379131 0 0)
(0.004739816830880024 0 0)
(-0.01315379746102529 0 0)
(-0.03228388644414754 0 0)
(-0.05193580643483031 0 0)
(-0.07057069601412129 0 0)
(-0.08532795268651742 0 0)
(-0.09323042184538492 0 0)
(-0.09522506333931507 0 0)
(-0.09534094590936078 0 0)
(-0.09530791956666108 0 0)
(-0.09511396730908414 0 0)
(-0.09461945592751277 0 0)
(-0.09364433435009761 0 0)
(-0.0920076476733715 0 0)
(-0.08952696226397033 0 0)
(-0.08602787943576999 0 0)
(-0.08134971468065114 0 0)
(-0.07535102895728348 0 0)
(-0.06791469647650714 0 0)
(-0.05895255600718033 0 0)
(-0.0484094025432208 0 0)
(-0.03626629564091514 0 0)
(-0.02254397801395049 0 0)
(-0.007308641331922471 0 0)
(0.009313712805914294 0 0)
(0.02709543561992915 0 0)
(0.04558699623594839 0 0)
(0.06381402393904827 0 0)
(0.07974607731590838 0 0)
(0.09033717838556372 0 0)
(0.09434598745040494 0 0)
(0.09487966729000694 0 0)
(0.09487328401303947 0 0)
(0.09477147250044775 0 0)
(0.09444214066469793 0 0)
(0.09371659734980849 0 0)
(0.09241149449679079 0 0)
(0.09033670733700652 0 0)
(0.08730184413182963 0 0)
(0.08312205280314648 0 0)
(0.07762395504585062 0 0)
(0.07065160991672464 0 0)
(0.06207236416485184 0 0)
(0.05178330090879952 0 0)
(0.03971918708815635 0 0)
(0.02586177191404025 0 0)
(0.01025156834224724 0 0)
(-0.00698943409983935 0 0)
(-0.02559997557669765 0 0)
(-0.04502887021082237 0 0)
(-0.06407991390702959 0 0)
(-0.08035489381994235 0 0)
(-0.09058604307404454 0 0)
(-0.09406479898847467 0 0)
(-0.09444609767228151 0 0)
(-0.09442775255720921 0 0)
(-0.09430577643178352 0 0)
(-0.0939331196283901 0 0)
(-0.09314450899211457 0 0)
(-0.09175980942197806 0 0)
(-0.0895979651539489 0 0)
(-0.08648314122216623 0 0)
(-0.0822514761698422 0 0)
(-0.07675666487338828 0 0)
(-0.06987505299051176 0 0)
(-0.06151024059713035 0 0)
(-0.05159716928004179 0 0)
(-0.04010574401090039 0 0)
(-0.02704434333542636 0 0)
(-0.01246453041099099 0 0)
(0.003528844611566732 0 0)
(0.02074971955901258 0 0)
(0.03885101856453557 0 0)
(0.05711402330614783 0 0)
(0.07400725774656347 0 0)
(0.08682002008196815 0 0)
(0.09316349517775249 0 0)
(0.09456723842566185 0 0)
(0.09462794313569187 0 0)
(0.09458818028797945 0 0)
(0.09440885157652788 0 0)
(0.09395798167381191 0 0)
(0.09308845227171668 0 0)
(0.09164751074513902 0 0)
(0.08948625418178457 0 0)
(0.0864677341854541 0 0)
(0.08247485379486809 0 0)
(0.0774186114522796 0 0)
(0.07124666199782623 0 0)
(0.06395232905214637 0 0)
(0.05558488777840657 0 0)
(0.04626440039977506 0 0)
(0.03621148725463374 0 0)
(0.02581844572183104 0 0)
(0.01580527055873984 0 0)
(0.007422957859971891 0 0)
(0.002180615583154218 0 0)
(0.0002909911189525948 0 0)
(1.174973930235827e-05 0 0)
(9.379477764339552e-08 0 0)
(9.417922915335464e-11 0 0)
(-5.700984988893134e-12 0 0)
(-5.73574709248489e-12 0 0)
(-5.666222885303027e-12 0 0)
(-5.544555522734756e-12 0 0)
(-5.570627100427651e-12 0 0)
(-5.622770255814771e-12 0 0)
(-5.457650263758235e-12 0 0)
(-5.301220797599578e-12 0 0)
(-5.335982901190047e-12 0 0)
(-5.327292375292274e-12 0 0)
(-5.301220797599616e-12 0 0)
(-5.344673427088429e-12 0 0)
(-5.292530271701341e-12 0 0)
(-5.292530271701585e-12 0 0)
(-5.318601849395129e-12 0 0)
(-5.3359829011902e-12 0 0)
(-5.205625012724643e-12 0 0)
(-5.205625012724987e-12 0 0)
(-5.214315538622332e-12 0 0)
)
;

boundaryField
{
    inlet
    {
        type            zeroGradient;
    }
    outlet
    {
        type            pressureInletOutletVelocity;
        value           uniform (-5.214315538622332e-12 0 0);
    }
    frontAndBack
    {
        type            empty;
    }
}


// ************************************************************************* //
