/*--------------------------------*- C++ -*----------------------------------*\
| =========                 |                                                 |
| \\      /  F ield         | OpenFOAM: The Open Source CFD Toolbox           |
|  \\    /   O peration     | Version:  v2012                                 |
|   \\  /    A nd           | Website:  www.openfoam.com                      |
|    \\/     M anipulation  |                                                 |
\*---------------------------------------------------------------------------*/
FoamFile
{
    version     2.0;
    format      ascii;
    class       volVectorField;
    location    "0.007";
    object      UMean;
}
// * * * * * * * * * * * * * * * * * * * * * * * * * * * * * * * * * * * * * //

dimensions      [0 1 -1 0 0 0 0];


internalField   nonuniform List<vector> 
1000
(
(-3.993266863357748e-05 0 0)
(1.409617226098596e-05 0 0)
(4.201991539416953e-05 0 0)
(9.744997326961375e-05 0 0)
(0.0001622572287149818 0 0)
(0.0002376755512855753 0 0)
(0.0003292036766607023 0 0)
(0.0004292945232552972 0 0)
(0.0005421612337655283 0 0)
(0.0006614877721792304 0 0)
(0.0007851829579014387 0 0)
(0.0009086496460554253 0 0)
(0.00103179134957676 0 0)
(0.001153139382196596 0 0)
(0.001271153148471393 0 0)
(0.001382946253011249 0 0)
(0.001486426446372374 0 0)
(0.001579128783697981 0 0)
(0.001659746468848416 0 0)
(0.001726485339386105 0 0)
(0.001778623450956775 0 0)
(0.00181475722698088 0 0)
(0.001834668504718063 0 0)
(0.001837536352420668 0 0)
(0.00182369142292152 0 0)
(0.001792984427291922 0 0)
(0.001746417833156613 0 0)
(0.001684453470012853 0 0)
(0.001608393753652818 0 0)
(0.001518794926771071 0 0)
(0.001416980661876328 0 0)
(0.001304430889640859 0 0)
(0.001185383916435049 0 0)
(0.001064156044781938 0 0)
(0.0009430555735101281 0 0)
(0.0008222488856334649 0 0)
(0.0007026680342409996 0 0)
(0.000585662322920483 0 0)
(0.000473264906579305 0 0)
(0.0003678707350172877 0 0)
(0.0002719991546520976 0 0)
(0.0001879216022255671 0 0)
(0.0001175052813483586 0 0)
(6.209365826687207e-05 0 0)
(2.26334229597907e-05 0 0)
(-2.848130966418831e-07 0 0)
(-6.335063235335485e-06 0 0)
(4.549018068067935e-06 0 0)
(3.216276808043969e-05 0 0)
(7.605328908547404e-05 0 0)
(0.0001355834022674424 0 0)
(0.0002100798533166942 0 0)
(0.0002988566911993747 0 0)
(0.0004008469480198181 0 0)
(0.0005134517176636331 0 0)
(0.0006318650921791288 0 0)
(0.0007516366583181938 0 0)
(0.0008713619087254044 0 0)
(0.000990794080059501 0 0)
(0.001109062922929052 0 0)
(0.001225217722129273 0 0)
(0.001337262923549547 0 0)
(0.001443344348084873 0 0)
(0.001540767679402624 0 0)
(0.001627422263484439 0 0)
(0.001700881408549912 0 0)
(0.001759717144670479 0 0)
(0.001802456655131533 0 0)
(0.001828672571589922 0 0)
(0.00183780231906174 0 0)
(0.001830137439345936 0 0)
(0.001805635459612227 0 0)
(0.001764964423470902 0 0)
(0.001708305609976203 0 0)
(0.001636350903111825 0 0)
(0.001549368766260562 0 0)
(0.001448779335904022 0 0)
(0.001337253803060487 0 0)
(0.001220153318357174 0 0)
(0.001101622653283466 0 0)
(0.0009832272265768952 0 0)
(0.0008650707055389318 0 0)
(0.0007478252994577736 0 0)
(0.000632466131332542 0 0)
(0.000520507082784634 0 0)
(0.0004138370971194219 0 0)
(0.0003147260393040732 0 0)
(0.0002255043185628826 0 0)
(0.0001485158378709906 0 0)
(8.572291975976309e-05 0 0)
(3.871942196570568e-05 0 0)
(8.49333603514787e-06 0 0)
(-4.40572742002383e-06 0 0)
(4.408953666163975e-08 0 0)
(2.169036107031158e-05 0 0)
(6.010081519837322e-05 0 0)
(0.0001149359385317529 0 0)
(0.0001857623030974611 0 0)
(0.0002720935231771638 0 0)
(0.000372539630283255 0 0)
(0.0004837292506111825 0 0)
(0.0006001438146350158 0 0)
(0.0007176343588863617 0 0)
(0.0008350441416293359 0 0)
(0.0009522520591441321 0 0)
(0.001068509616058333 0 0)
(0.001183136133244335 0 0)
(0.001294512831761686 0 0)
(0.001401144604051835 0 0)
(0.001500696421237627 0 0)
(0.001591167540052999 0 0)
(0.001670032653755584 0 0)
(0.001735474182352841 0 0)
(0.001785529904135941 0 0)
(0.001819245629060411 0 0)
(0.001835649167546479 0 0)
(0.001834778424839722 0 0)
(0.001816493116184214 0 0)
(0.001781374663588518 0 0)
(0.001729527712614437 0 0)
(0.001661555225880471 0 0)
(0.001577705960972234 0 0)
(0.001479543476237696 0 0)
(0.001370092968424134 0 0)
(0.001255037527655579 0 0)
(0.001138557334351712 0 0)
(0.001022203475802445 0 0)
(0.0009059955723549714 0 0)
(0.0007905311684352418 0 0)
(0.0006765167142763015 0 0)
(0.0005652429985912616 0 0)
(0.0004582082920965469 0 0)
(0.0003574279458824169 0 0)
(0.0002649776587382548 0 0)
(0.0001832085937945412 0 0)
(0.0001142111397177272 0 0)
(6.000547088305129e-05 0 0)
(2.201334262559543e-05 0 0)
(1.344504390637223e-06 0 0)
(-1.585768314688451e-06 0 0)
(1.34117634746116e-05 0 0)
(4.605411381166349e-05 0 0)
(9.612577902088267e-05 0 0)
(0.0001631442709487409 0 0)
(0.000246584419691061 0 0)
(0.0003447586657334638 0 0)
(0.0004540233735788982 0 0)
(0.0005685433680931176 0 0)
(0.0006841877086692175 0 0)
(0.0007997514827250766 0 0)
(0.000915171254054072 0 0)
(0.001029815216923338 0 0)
(0.001143149368978942 0 0)
(0.001253800237641776 0 0)
(0.001360534274667062 0 0)
(0.001461288801111299 0 0)
(0.001554281010013809 0 0)
(0.001637087275154539 0 0)
(0.001707841122728387 0 0)
(0.001764354782575823 0 0)
(0.001805298028925335 0 0)
(0.001829261273248107 0 0)
(0.001835822751187313 0 0)
(0.001824478817532694 0 0)
(0.001795542960103397 0 0)
(0.001748993821751594 0 0)
(0.001685414297676731 0 0)
(0.001605117344801583 0 0)
(0.001509806342459303 0 0)
(0.001402651480896385 0 0)
(0.001289518023518672 0 0)
(0.001174782586788836 0 0)
(0.001060144980643543 0 0)
(0.0009455814748186531 0 0)
(0.0008316230823358985 0 0)
(0.0007188023303362326 0 0)
(0.0006082367434729401 0 0)
(0.0005011625323420724 0 0)
(0.0003993708572789451 0 0)
(0.0003046914306768621 0 0)
(0.0002193620921706447 0 0)
(0.0001454206793313889 0 0)
(8.505444680995887e-05 0 0)
(3.99400131900554e-05 0 0)
(1.163490002163875e-05 0 0)
(9.878405674583928e-07 0 0)
(8.667015918828242e-06 0 0)
(3.472788772126941e-05 0 0)
(7.921150098435072e-05 0 0)
(0.0001417122132851373 0 0)
(0.0002216764999504045 0 0)
(0.0003172158432175652 0 0)
(0.0004244395703816049 0 0)
(0.0005372283874068179 0 0)
(0.0006512767665825094 0 0)
(0.0007652570435446072 0 0)
(0.0008791574886498729 0 0)
(0.0009924000702055318 0 0)
(0.001104592712909234 0 0)
(0.001214521764082749 0 0)
(0.001321162229634338 0 0)
(0.001422672899413282 0 0)
(0.00151746713653611 0 0)
(0.00160327840980445 0 0)
(0.001678291871393069 0 0)
(0.00174025847328487 0 0)
(0.001787644737798447 0 0)
(0.001818731452635489 0 0)
(0.001832710207991156 0 0)
(0.001828661070997455 0 0)
(0.001806546871268499 0 0)
(0.001766061280405745 0 0)
(0.001707644531698711 0 0)
(0.001631566150303029 0 0)
(0.001539563887115835 0 0)
(0.001434892461273189 0 0)
(0.001323588629336126 0 0)
(0.001210386839824536 0 0)
(0.001097229662715555 0 0)
(0.000984098257256304 0 0)
(0.0008714699573936766 0 0)
(0.0007597380767471186 0 0)
(0.0006498908826467877 0 0)
(0.0005429542585379485 0 0)
(0.0004405379533839649 0 0)
(0.0003442471938542782 0 0)
(0.0002561780440351317 0 0)
(0.000178263035431908 0 0)
(0.0001127177509966996 0 0)
(6.13473523429345e-05 0 0)
(2.598542555001655e-05 0 0)
(7.839688999734379e-06 0 0)
(8.014392630492414e-06 0 0)
(2.696082712939326e-05 0 0)
(6.508468820674698e-05 0 0)
(0.0001221997381175937 0 0)
(0.0001978793865975246 0 0)
(0.0002902060977439507 0 0)
(0.000395157634761143 0 0)
(0.0005062916658602818 0 0)
(0.0006189198668401302 0 0)
(0.0007315124145671468 0 0)
(0.000844060774167804 0 0)
(0.0009560622525368313 0 0)
(0.001067210929103825 0 0)
(0.001176434263918441 0 0)
(0.001282864320213086 0 0)
(0.001384845705004214 0 0)
(0.001480968868186352 0 0)
(0.001569128492715453 0 0)
(0.001647601654135969 0 0)
(0.001714162589353842 0 0)
(0.001767183889954598 0 0)
(0.00180476017959704 0 0)
(0.001825782155378743 0 0)
(0.001828991995575414 0 0)
(0.001813974071039382 0 0)
(0.001780113609195444 0 0)
(0.001727584742325279 0 0)
(0.001656493348166845 0 0)
(0.001568451404642377 0 0)
(0.001466638036521598 0 0)
(0.001357219862705892 0 0)
(0.001245429219649189 0 0)
(0.001133604556844314 0 0)
(0.001021766186194592 0 0)
(0.0009103423023163379 0 0)
(0.0007996266485865384 0 0)
(0.0006904952402561396 0 0)
(0.0005838117554447457 0 0)
(0.0004810230415378135 0 0)
(0.0003835504113077409 0 0)
(0.0002933356680743358 0 0)
(0.0002121905524363583 0 0)
(0.0001422896059308165 0 0)
(8.548148468032371e-05 0 0)
(4.376248915673935e-05 0 0)
(1.859294115563862e-05 0 0)
(1.142550945130249e-05 0 0)
(2.308032024996544e-05 0 0)
(5.434242781597811e-05 0 0)
(0.000105332766987185 0 0)
(0.0001758762973948844 0 0)
(0.0002642196650328743 0 0)
(0.0003664175476219194 0 0)
(0.000475802794317633 0 0)
(0.0005871126209495822 0 0)
(0.0006984506562014953 0 0)
(0.0008097691160812087 0 0)
(0.0009206402382832752 0 0)
(0.001030814192720157 0 0)
(0.001139353634274452 0 0)
(0.001245498519077663 0 0)
(0.001347768860436606 0 0)
(0.001444890447955316 0 0)
(0.001534922366883347 0 0)
(0.001616238095995926 0 0)
(0.001686685561991746 0 0)
(0.001744604188929111 0 0)
(0.001787995308115813 0 0)
(0.001815537330388258 0 0)
(0.001825721243986459 0 0)
(0.001817799615983264 0 0)
(0.001790859098915099 0 0)
(0.001744762581595189 0 0)
(0.001679383482221923 0 0)
(0.00159604557117631 0 0)
(0.001497675534534622 0 0)
(0.001390374283253822 0 0)
(0.001279964789573721 0 0)
(0.001169366026295442 0 0)
(0.001058724506285209 0 0)
(0.0009484211317519893 0 0)
(0.0008386680151452097 0 0)
(0.0007302476823461871 0 0)
(0.0006238887398491348 0 0)
(0.0005209050496912251 0 0)
(0.0004225520493449326 0 0)
(0.0003306384021602448 0 0)
(0.0002468382789850857 0 0)
(0.0001732629835488892 0 0)
(0.0001117410888720711 0 0)
(6.435650006966269e-05 0 0)
(3.273068851481984e-05 0 0)
(1.857394478917305e-05 0 0)
(2.301178621126446e-05 0 0)
(4.716965632140781e-05 0 0)
(9.149263137233043e-05 0 0)
(0.0001561290245151409 0 0)
(0.0002396502655693637 0 0)
(0.000338456970438539 0 0)
(0.0004458425375659176 0 0)
(0.0005558653853883313 0 0)
(0.0006660266537930276 0 0)
(0.0007761985663896734 0 0)
(0.0008860013891408631 0 0)
(0.000995252001814294 0 0)
(0.001103109987190142 0 0)
(0.001208921904090881 0 0)
(0.001311340866254997 0 0)
(0.001409221667984975 0 0)
(0.001500765254063775 0 0)
(0.001584448690850021 0 0)
(0.001658208276297911 0 0)
(0.001720390319027741 0 0)
(0.001768965096909833 0 0)
(0.001802471163064224 0 0)
(0.001819225691953592 0 0)
(0.001818212720710716 0 0)
(0.001798266801512564 0 0)
(0.001758946869693327 0 0)
(0.001699862971459454 0 0)
(0.001621959789867683 0 0)
(0.001527731849820613 0 0)
(0.001422954059506203 0 0)
(0.001313990660116371 0 0)
(0.001204541624516135 0 0)
(0.001095037822046681 0 0)
(0.0009857903091424714 0 0)
(0.0008769791280393798 0 0)
(0.0007692608836150289 0 0)
(0.0006632980321843231 0 0)
(0.0005602395591098506 0 0)
(0.000461249316540237 0 0)
(0.0003679621146471547 0 0)
(0.0002819708041251565 0 0)
(0.0002052616877716683 0 0)
(0.0001396556971078654 0 0)
(8.722914967484363e-05 0 0)
(4.97308798416058e-05 0 0)
(2.90173102957631e-05 0 0)
(2.647398913784625e-05 0 0)
(4.348225989824069e-05 0 0)
(8.081188700062452e-05 0 0)
(0.0001389292509448502 0 0)
(0.0002168544893301984 0 0)
(0.0003115242863137463 0 0)
(0.0004165072303779429 0 0)
(0.0005251777306792453 0 0)
(0.0006342175514092546 0 0)
(0.0007432821818347102 0 0)
(0.0008520632773200285 0 0)
(0.0009604051167772854 0 0)
(0.001067584870461037 0 0)
(0.0011730074106545 0 0)
(0.001275474995944593 0 0)
(0.00137392035750091 0 0)
(0.001466703483628967 0 0)
(0.001552369390046892 0 0)
(0.001628977897044831 0 0)
(0.001694881110649202 0 0)
(0.001748079874426107 0 0)
(0.001787008591339405 0 0)
(0.001809889392652672 0 0)
(0.001815489103456962 0 0)
(0.00180245390964676 0 0)
(0.00177006681369298 0 0)
(0.001717681568574248 0 0)
(0.001645832203597883 0 0)
(0.001556460861190346 0 0)
(0.001454768567290106 0 0)
(0.00134743010383985 0 0)
(0.001239111683202869 0 0)
(0.001130696622633371 0 0)
(0.001022485365419214 0 0)
(0.0009145942340028021 0 0)
(0.0008076053542618337 0 0)
(0.0007020831009350192 0 0)
(0.0005990730175512177 0 0)
(0.0004996186759737213 0 0)
(0.0004052387564301608 0 0)
(0.0003174109954612838 0 0)
(0.0002380308159993948 0 0)
(0.0001688574064145678 0 0)
(0.0001119562502228486 0 0)
(6.912258193679997e-05 0 0)
(4.232179918773333e-05 0 0)
(3.3108830395229e-05 0 0)
(4.307914844184536e-05 0 0)
(7.326539431235273e-05 0 0)
(0.0001244487906132782 0 0)
(0.0001961165003025643 0 0)
(0.0002858814941505426 0 0)
(0.0003878903481451773 0 0)
(0.0004950443311005272 0 0)
(0.0006029873272322748 0 0)
(0.0007109827159840868 0 0)
(0.0008187576550763651 0 0)
(0.0009262047420669032 0 0)
(0.001032681172086578 0 0)
(0.001137671556162418 0 0)
(0.001240083144779388 0 0)
(0.001338944170267517 0 0)
(0.001432732525599337 0 0)
(0.001520081145795911 0 0)
(0.00159914810266823 0 0)
(0.001668326270280226 0 0)
(0.001725652694609582 0 0)
(0.00176951304865585 0 0)
(0.001798069904655318 0 0)
(0.0018099386858798 0 0)
(0.001803623181960272 0 0)
(0.001778175315326148 0 0)
(0.001732725480657334 0 0)
(0.001667400416611894 0 0)
(0.001583564056179607 0 0)
(0.001485617194338257 0 0)
(0.001380231950910172 0 0)
(0.001273056649047466 0 0)
(0.001165710610393381 0 0)
(0.001058510426881848 0 0)
(0.0009515436580406022 0 0)
(0.0008452974783894054 0 0)
(0.0007402763803693431 0 0)
(0.0006374056586269732 0 0)
(0.0005376508361781623 0 0)
(0.0004423961118066556 0 0)
(0.0003530413399406934 0 0)
(0.0002713608248194422 0 0)
(0.0001990722453431719 0 0)
(0.000138177782201197 0 0)
(9.051187061975447e-05 0 0)
(5.807212107054529e-05 0 0)
(4.255501252508565e-05 0 0)
(4.568936691747787e-05 0 0)
(6.874539222907574e-05 0 0)
(0.0001127581853714973 0 0)
(0.0001776784640938807 0 0)
(0.0002618190806758143 0 0)
(0.000360167544680823 0 0)
(0.0004654965137936609 0 0)
(0.0005723284401461271 0 0)
(0.0006792740335914494 0 0)
(0.0007860533272095414 0 0)
(0.0008925977145759618 0 0)
(0.0009983424528698273 0 0)
(0.001102847261683935 0 0)
(0.001205109439819152 0 0)
(0.001304253573920657 0 0)
(0.001398849810376784 0 0)
(0.001487631307508976 0 0)
(0.001568827764117855 0 0)
(0.001640906649437051 0 0)
(0.001701923887824766 0 0)
(0.00175028038669536 0 0)
(0.001784075459655563 0 0)
(0.001801860867790297 0 0)
(0.001801992623895324 0 0)
(0.001783389864556877 0 0)
(0.0017449417681992 0 0)
(0.001686474464365396 0 0)
(0.001608732253860437 0 0)
(0.0015152774799774 0 0)
(0.001412312793415398 0 0)
(0.001306391617897017 0 0)
(0.001200065935945957 0 0)
(0.00109387039837718 0 0)
(0.0009878211689987181 0 0)
(0.0008823512906884711 0 0)
(0.0007778834712367786 0 0)
(0.00067525456641544 0 0)
(0.0005753357103642257 0 0)
(0.0004794079173138455 0 0)
(0.000388776656948455 0 0)
(0.0003051198220199667 0 0)
(0.0002300886919366966 0 0)
(0.0001656295547270219 0 0)
(0.0001135715374913608 0 0)
(7.592762219278561e-05 0 0)
(5.44759199511714e-05 0 0)
(5.104784656785129e-05 0 0)
(6.7087741736364e-05 0 0)
(0.000103849256615065 0 0)
(0.000161687336390834 0 0)
(0.000239596281501759 0 0)
(0.0003335397757024557 0 0)
(0.0004365853998674367 0 0)
(0.0005422258612314805 0 0)
(0.0006481316255306198 0 0)
(0.0007539291573865306 0 0)
(0.0008595453619110964 0 0)
(0.0009645474283793077 0 0)
(0.001068496291561286 0 0)
(0.001170544135636424 0 0)
(0.001269828426994197 0 0)
(0.001365081884114848 0 0)
(0.001455051260788542 0 0)
(0.001538118473819118 0 0)
(0.001612745010379475 0 0)
(0.001677101420561467 0 0)
(0.001729534106246898 0 0)
(0.001768192881252379 0 0)
(0.001791511139725303 0 0)
(0.001797823201770708 0 0)
(0.001785860173016666 0 0)
(0.001754398452081104 0 0)
(0.00170292561154975 0 0)
(0.001631724792018396 0 0)
(0.001543420444716104 0 0)
(0.001443514678170365 0 0)
(0.001339035687778021 0 0)
(0.001233758735465755 0 0)
(0.00112856025744095 0 0)
(0.001023445354795527 0 0)
(0.0009187857953654604 0 0)
(0.0008149224345542094 0 0)
(0.0007126234537710078 0 0)
(0.0006126568426657891 0 0)
(0.0005162291679916775 0 0)
(0.000424536025841611 0 0)
(0.0003391878569916138 0 0)
(0.000261738937484167 0 0)
(0.0001940995781000923 0 0)
(0.0001380455872549098 0 0)
(9.561240334820253e-05 0 0)
(6.859220573362688e-05 0 0)
(5.891539773091895e-05 0 0)
(6.81277416077678e-05 0 0)
(9.769181317559672e-05 0 0)
(0.0001482642036089583 0 0)
(0.000219470531359282 0 0)
(0.0003082499445563315 0 0)
(0.0004084010710957855 0 0)
(0.0005126700947791604 0 0)
(0.00061755786904781 0 0)
(0.0007223585486981451 0 0)
(0.0008270659965686571 0 0)
(0.0009312597584197853 0 0)
(0.001034626309049742 0 0)
(0.001136340638460779 0 0)
(0.00123567553580084 0 0)
(0.001331399085744208 0 0)
(0.001422386398798573 0 0)
(0.001507053934080411 0 0)
(0.001583966136201438 0 0)
(0.001651309086715671 0 0)
(0.001707485322366589 0 0)
(0.001750619802980014 0 0)
(0.001779137392438125 0 0)
(0.001791298527972195 0 0)
(0.0017857558205372 0 0)
(0.001761142442296572 0 0)
(0.00171672229278973 0 0)
(0.001652347226329823 0 0)
(0.001569825524940517 0 0)
(0.001473697099798034 0 0)
(0.001371018032882369 0 0)
(0.001266801065110802 0 0)
(0.001162572525114184 0 0)
(0.001058406156907698 0 0)
(0.0009545567246476202 0 0)
(0.0008513746274496913 0 0)
(0.0007494638120447511 0 0)
(0.0006496002368645745 0 0)
(0.0005528063721011072 0 0)
(0.000460287686678221 0 0)
(0.0003734671149656021 0 0)
(0.0002939273761315312 0 0)
(0.0002234085957962699 0 0)
(0.0001637533316025807 0 0)
(0.0001168688551707198 0 0)
(8.467544357034831e-05 0 0)
(6.903623995230296e-05 0 0)
(7.169894079005616e-05 0 0)
(9.415573523254859e-05 0 0)
(0.0001374458972021544 0 0)
(0.0002015960311455117 0 0)
(0.0002845908539494394 0 0)
(0.0003810934947133253 0 0)
(0.0004837091625369366 0 0)
(0.0005875252195345995 0 0)
(0.0006913727088186771 0 0)
(0.000795105391450943 0 0)
(0.0008985175916128226 0 0)
(0.001001195648448463 0 0)
(0.001102556195697323 0 0)
(0.001201783224204135 0 0)
(0.001297887980006835 0 0)
(0.001389662503338388 0 0)
(0.001475756219636816 0 0)
(0.00155464452810854 0 0)
(0.001624718723349343 0 0)
(0.001684268080575617 0 0)
(0.001731577546911167 0 0)
(0.001764920589009129 0 0)
(0.001782658046427675 0 0)
(0.001783241035515056 0 0)
(0.001765327901705978 0 0)
(0.001727877480766334 0 0)
(0.001670510308213845 0 0)
(0.001594212519713184 0 0)
(0.001502604266878853 0 0)
(0.001402212746139924 0 0)
(0.001299185110903582 0 0)
(0.001195917997383206 0 0)
(0.00109271223607349 0 0)
(0.0009897116968441838 0 0)
(0.0008872474190175806 0 0)
(0.0007858125989938794 0 0)
(0.0006861361232804498 0 0)
(0.0005891305465750942 0 0)
(0.0004959409635148273 0 0)
(0.0004078891492340264 0 0)
(0.0003264966828853861 0 0)
(0.0002534270308434812 0 0)
(0.0001904794251077457 0 0)
(0.0001395269074250569 0 0)
(0.000102484382803586 0 0)
(8.124453109250497e-05 0 0)
(7.760924286123853e-05 0 0)
(9.319113387411422e-05 0 0)
(0.0001292215041085396 0 0)
(0.0001861613146014511 0 0)
(0.0002627917741218376 0 0)
(0.0003549057681670388 0 0)
(0.0004553538930532228 0 0)
(0.0005580578542898969 0 0)
(0.000660916564235254 0 0)
(0.0007637234408314522 0 0)
(0.0008662612869081495 0 0)
(0.0009682613078993685 0 0)
(0.001069121807680233 0 0)
(0.001168196417029795 0 0)
(0.001264479378239772 0 0)
(0.001356936368499651 0 0)
(0.001444191527817517 0 0)
(0.001524885009061496 0 0)
(0.001597362449846278 0 0)
(0.001660054124838784 0 0)
(0.001711164754219334 0 0)
(0.001749072615328248 0 0)
(0.001772014748153301 0 0)
(0.001778499782723367 0 0)
(0.001767001159647982 0 0)
(0.001736443533451142 0 0)
(0.00168606848777661 0 0)
(0.001616393642238653 0 0)
(0.001529940451288216 0 0)
(0.001432538291831998 0 0)
(0.00133085488034159 0 0)
(0.001228596807636948 0 0)
(0.001126315892482474 0 0)
(0.001024216576245021 0 0)
(0.0009224906348894261 0 0)
(0.0008216328842349358 0 0)
(0.0007222270967405496 0 0)
(0.0006251715039508134 0 0)
(0.0005314625404746492 0 0)
(0.0004424065023268523 0 0)
(0.0003593843644721237 0 0)
(0.000284055285333035 0 0)
(0.000218100446919531 0 0)
(0.0001634173290785099 0 0)
(0.0001218427784897553 0 0)
(9.533675687756293e-05 0 0)
(8.567941714513226e-05 0 0)
(9.462474839663149e-05 0 0)
(0.0001235076635903911 0 0)
(0.0001731750218005023 0 0)
(0.0002430315321789093 0 0)
(0.0003300301697956894 0 0)
(0.0004276876665132296 0 0)
(0.0005291234376910859 0 0)
(0.0006309950242237723 0 0)
(0.0007328624395168566 0 0)
(0.0008345285800606003 0 0)
(0.0009357901552109315 0 0)
(0.001036114100939321 0 0)
(0.001134922998413406 0 0)
(0.001231290247382411 0 0)
(0.001324249316936301 0 0)
(0.001412503367886727 0 0)
(0.001494750130907594 0 0)
(0.001569402600211719 0 0)
(0.001634925322217128 0 0)
(0.001689566060533068 0 0)
(0.001731702522006621 0 0)
(0.001759578837389566 0 0)
(0.001771656653417917 0 0)
(0.001766367506465439 0 0)
(0.001742510349239103 0 0)
(0.001699131041144084 0 0)
(0.001636264892802318 0 0)
(0.001555574136510365 0 0)
(0.001461847756433293 0 0)
(0.001361887380216003 0 0)
(0.001260631888330097 0 0)
(0.001159297556324696 0 0)
(0.001058080580488005 0 0)
(0.0009571472478537641 0 0)
(0.0008568895934537203 0 0)
(0.0007578598228199422 0 0)
(0.0006608378158760908 0 0)
(0.0005667844821397958 0 0)
(0.0004768841480778632 0 0)
(0.0003924859946644217 0 0)
(0.0003151341249380523 0 0)
(0.0002464945414925726 0 0)
(0.0001883722501018494 0 0)
(0.0001426217878611958 0 0)
(0.0001111501075801584 0 0)
(9.580660199785225e-05 0 0)
(9.835811195324691e-05 0 0)
(0.0001203112989288356 0 0)
(0.0001627220727668235 0 0)
(0.0002255894651540847 0 0)
(0.0003068161199798852 0 0)
(0.0004009760659867293 0 0)
(0.0005007993875874968 0 0)
(0.0006016709814346706 0 0)
(0.0007025621000906418 0 0)
(0.0008033377141451301 0 0)
(0.0009037914408864766 0 0)
(0.001003520112606969 0 0)
(0.001101952558302055 0 0)
(0.001198299954306368 0 0)
(0.001291603660972806 0 0)
(0.001380701434169285 0 0)
(0.001464290854087153 0 0)
(0.001540906364915058 0 0)
(0.001608995700742773 0 0)
(0.001666905714727747 0 0)
(0.001712968881881842 0 0)
(0.001745494375245451 0 0)
(0.001762862598175532 0 0)
(0.001763526612686898 0 0)
(0.001746138479634618 0 0)
(0.001709640309718817 0 0)
(0.001653649694426727 0 0)
(0.001579162235473305 0 0)
(0.00148983048252873 0 0)
(0.001392113895015334 0 0)
(0.001291957833272602 0 0)
(0.001191586482765852 0 0)
(0.001091279291237677 0 0)
(0.0009911774450908112 0 0)
(0.0008915971377245717 0 0)
(0.0007930281240100137 0 0)
(0.0006961679955434168 0 0)
(0.0006019070513388934 0 0)
(0.0005113449437728109 0 0)
(0.0004257636572487882 0 0)
(0.000346630070272428 0 0)
(0.0002755558911205364 0 0)
(0.0002142876462264516 0 0)
(0.000164653960683749 0 0)
(0.0001285372503221592 0 0)
(0.0001078020680172964 0 0)
(0.0001042431868967441 0 0)
(0.0001194684168507434 0 0)
(0.0001547189552141068 0 0)
(0.0002104304238121939 0 0)
(0.0002853498942141552 0 0)
(0.000375219728142725 0 0)
(0.0004729889520658172 0 0)
(0.0005728128925618449 0 0)
(0.000672772808229118 0 0)
(0.0007726494877455912 0 0)
(0.0008723129258209495 0 0)
(0.0009713763744378127 0 0)
(0.001069389532637495 0 0)
(0.001165580521405537 0 0)
(0.001259117606265322 0 0)
(0.001348855823724582 0 0)
(0.001433613832059062 0 0)
(0.001511933409469085 0 0)
(0.001582366098490324 0 0)
(0.001643246073848467 0 0)
(0.001692983547432612 0 0)
(0.001729845185982242 0 0)
(0.001752252948607026 0 0)
(0.00175857889910037 0 0)
(0.00174746451416529 0 0)
(0.001717677129978729 0 0)
(0.001668611716940153 0 0)
(0.001600626067218136 0 0)
(0.001516402622525272 0 0)
(0.001421546046151148 0 0)
(0.001322704546162304 0 0)
(0.001223251207605481 0 0)
(0.00112385063349499 0 0)
(0.001024580153859589 0 0)
(0.0009257120709199779 0 0)
(0.000827665612405573 0 0)
(0.0007310662121051352 0 0)
(0.0006367283618545669 0 0)
(0.0005456740223942317 0 0)
(0.0004591091702109487 0 0)
(0.0003784276990767297 0 0)
(0.0003051770155809209 0 0)
(0.0002410478936808671 0 0)
(0.0001878272358515318 0 0)
(0.0001473718818597275 0 0)
(0.0001215451837224594 0 0)
(0.0001121674965995286 0 0)
(0.0001209142310478757 0 0)
(0.0001491749309617011 0 0)
(0.0001977180671525551 0 0)
(0.0002659903102972802 0 0)
(0.0003508542837344408 0 0)
(0.0004459484630639608 0 0)
(0.0005445378641577444 0 0)
(0.0006435460310743379 0 0)
(0.0007425133999626221 0 0)
(0.0008413177207196791 0 0)
(0.0009396843186147264 0 0)
(0.001037168947887077 0 0)
(0.001133132195907465 0 0)
(0.001226751196145812 0 0)
(0.001317012382311537 0 0)
(0.001402738139521453 0 0)
(0.001482591873472403 0 0)
(0.001555116298597808 0 0)
(0.00161874827283655 0 0)
(0.001671866662073792 0 0)
(0.00171281449685 0 0)
(0.00173995438375405 0 0)
(0.001751698134268068 0 0)
(0.001746579450465634 0 0)
(0.001723328311040773 0 0)
(0.001681076194793049 0 0)
(0.001619781016783143 0 0)
(0.001541178129527096 0 0)
(0.001449915586685884 0 0)
(0.001352716571902334 0 0)
(0.001254259336502063 0 0)
(0.001155767960475138 0 0)
(0.00105736638566081 0 0)
(0.0009592609507648826 0 0)
(0.0008618046807000253 0 0)
(0.0007655586262187581 0 0)
(0.0006712563863784988 0 0)
(0.0005798530219354956 0 0)
(0.0004924718469828752 0 0)
(0.0004104455322622952 0 0)
(0.0003352467540427421 0 0)
(0.000268519430367096 0 0)
(0.0002119931682912876 0 0)
(0.0001675054107984999 0 0)
(0.000136895221647507 0 0)
(0.0001220062390020049 0 0)
(0.0001245458140085873 0 0)
(0.0001460280012503125 0 0)
(0.0001874577773541776 0 0)
(0.0002488455918485247 0 0)
(0.0003280504837430823 0 0)
(0.0004197393387675886 0 0)
(0.0005167974049919568 0 0)
(0.0006148503234832626 0 0)
(0.0007129025033555945 0 0)
(0.0008108408020722783 0 0)
(0.000908463250913976 0 0)
(0.00100535959939384 0 0)
(0.001100992349841321 0 0)
(0.001194576098303 0 0)
(0.001285201344599054 0 0)
(0.001371725061087347 0 0)
(0.001452905613945071 0 0)
(0.001527307933784749 0 0)
(0.001593445756778007 0 0)
(0.001649699307998631 0 0)
(0.001694462604522633 0 0)
(0.001726071753546178 0 0)
(0.001742956738418157 0 0)
(0.001743585138252072 0 0)
(0.001726642730950448 0 0)
(0.001691073589027187 0 0)
(0.001636515391804235 0 0)
(0.001563945444294757 0 0)
(0.001476978500346159 0 0)
(0.001381929038809333 0 0)
(0.001284564726550782 0 0)
(0.001186996949042173 0 0)
(0.001089498071043446 0 0)
(0.0009921916591915804 0 0)
(0.0008954049306563909 0 0)
(0.0007995935506227077 0 0)
(0.0007054560858615408 0 0)
(0.0006138367816331445 0 0)
(0.0005258231066157306 0 0)
(0.0004426389133450494 0 0)
(0.0003657274779466296 0 0)
(0.0002966360295051054 0 0)
(0.000237082575439885 0 0)
(0.0001888293835583259 0 0)
(0.0001537321146654839 0 0)
(0.0001335985212482302 0 0)
(0.0001302071948360978 0 0)
(0.0001451168668004801 0 0)
(0.000179559100012546 0 0)
(0.0002339350451153217 0 0)
(0.0003070051323245986 0 0)
(0.0003945317321174576 0 0)
(0.0004896251054483732 0 0)
(0.0005866405394053993 0 0)
(0.0006837859256916426 0 0)
(0.0007808552883275192 0 0)
(0.0008776907887023277 0 0)
(0.0009739664755537396 0 0)
(0.001069181852625002 0 0)
(0.001162649934121641 0 0)
(0.001253499396701078 0 0)
(0.001340682850488001 0 0)
(0.001422991525466671 0 0)
(0.001499075483403076 0 0)
(0.001567468861952089 0 0)
(0.001626619627248586 0 0)
(0.001674923316792025 0 0)
(0.00171076039308977 0 0)
(0.00173253751013251 0 0)
(0.001738735267375131 0 0)
(0.0017279720426037 0 0)
(0.001699113569158706 0 0)
(0.001651509440974225 0 0)
(0.001585536505918901 0 0)
(0.001503635190516067 0 0)
(0.001411163171974455 0 0)
(0.001314526509089065 0 0)
(0.001217233282225894 0 0)
(0.00111995044382115 0 0)
(0.001022772869834629 0 0)
(0.0009258962594841907 0 0)
(0.0008296589540227488 0 0)
(0.0007345534803460109 0 0)
(0.0006412280730118352 0 0)
(0.0005504793059408693 0 0)
(0.0004632365383378966 0 0)
(0.0003805380941951366 0 0)
(0.000303498872980661 0 0)
(0.0002332690364839099 0 0)
(0.0001709830821449785 0 0)
(0.0001176969975035601 0 0)
(7.430547367362231e-05 0 0)
(4.141478478455594e-05 0 0)
(1.911141332827227e-05 0 0)
(6.537319867645722e-06 0 0)
(1.375851603708626e-06 0 0)
(1.339583056428809e-07 0 0)
(4.153251573586613e-09 0 0)
(2.423085106245795e-11 0 0)
(-3.111217203059122e-12 0 0)
(-3.074899200586968e-12 0 0)
(-3.09374504811474e-12 0 0)
(-3.105708142038017e-12 0 0)
(-3.11402710999376e-12 0 0)
(-3.131015167812035e-12 0 0)
(-3.150016426594424e-12 0 0)
(-3.17595224273188e-12 0 0)
(-3.086085238238208e-12 0 0)
(-3.19660586255264e-12 0 0)
(-3.134084093504471e-12 0 0)
(-3.145396961029886e-12 0 0)
(-3.134668225461263e-12 0 0)
(-3.140096901350548e-12 0 0)
(-3.165261020224474e-12 0 0)
(-3.105100787710208e-12 0 0)
(-3.207066647682669e-12 0 0)
(-3.162151008798401e-12 0 0)
(-3.171154143541515e-12 0 0)
(-3.193865622732174e-12 0 0)
)
;

boundaryField
{
    inlet
    {
        type            calculated;
        value           uniform (-3.993266863357748e-05 0 0);
    }
    outlet
    {
        type            calculated;
        value           uniform (-3.193865622732174e-12 0 0);
    }
    frontAndBack
    {
        type            empty;
    }
}


// ************************************************************************* //
