/*--------------------------------*- C++ -*----------------------------------*\
| =========                 |                                                 |
| \\      /  F ield         | OpenFOAM: The Open Source CFD Toolbox           |
|  \\    /   O peration     | Version:  v2012                                 |
|   \\  /    A nd           | Website:  www.openfoam.com                      |
|    \\/     M anipulation  |                                                 |
\*---------------------------------------------------------------------------*/
FoamFile
{
    version     2.0;
    format      ascii;
    class       volScalarField;
    location    "0.012";
    object      p;
}
// * * * * * * * * * * * * * * * * * * * * * * * * * * * * * * * * * * * * * //

dimensions      [1 -1 -2 0 0 0 0];


internalField   nonuniform List<scalar> 
1000
(
101310.947610136
101313.5934426966
101306.8442563313
101301.532606857
101295.685526806
101290.4469229372
101285.944159556
101282.0937803908
101278.7909813989
101276.564464645
101275.9195914001
101275.9406507421
101276.3207837464
101277.3498436445
101279.3329357184
101282.3369800034
101286.2522511306
101290.9052153095
101296.149061382
101301.880338109
101308.0146977246
101314.4619559532
101321.1156425904
101327.8536420346
101334.5434326387
101341.0506040592
101347.255367227
101353.0814152716
101358.5212633228
101363.5970404674
101368.1609203749
101371.5610181507
101373.0222509921
101373.185623832
101373.1302610495
101372.8582330371
101372.1183103661
101370.6613792926
101368.283492121
101364.8908298121
101360.5250353722
101355.3390151501
101349.5351822814
101343.3037705244
101336.7930910872
101330.1157275757
101323.3714910104
101316.6648013707
101310.103524008
101303.7772246914
101297.7280084056
101291.9526335857
101286.5033770124
101281.7514385576
101278.5860561638
101277.5035284048
101277.4284395994
101277.4766647156
101277.7306507996
101278.3726145604
101279.6211823896
101281.6708465503
101284.6577052978
101288.6240193961
101293.5062399483
101299.1507791115
101305.3534311981
101311.9060510742
101318.6304506924
101325.3891239793
101332.079830519
101338.6309561498
101345.0056257856
101351.2012767378
101357.2135891111
101362.9180530136
101367.8258859217
101370.9835263293
101372.016398767
101372.0899017304
101372.0375774066
101371.8317432078
101371.2882336936
101370.228310692
101368.4667549714
101365.8518914613
101362.2933775287
101357.7856405729
101352.4138794001
101346.3395802225
101339.7704374438
101332.9235001528
101325.9902558436
101319.1118610169
101312.3701521645
101305.7935483186
101299.3761206857
101293.1292683958
101287.225533775
101282.2667376157
101279.2674327751
101278.3949225474
101278.3503740708
101278.3878887346
101278.5943580034
101279.098822817
101280.0762808228
101281.6929399649
101284.0946308146
101287.3813307439
101291.5872934805
101296.6679601823
101302.5008794908
101308.9042955742
101315.668875378
101322.5923836231
101329.509729175
101336.3150440297
101342.969351023
101349.4802522779
101355.8353706686
101361.858954643
101366.971093083
101370.17534302
101371.2003201407
101371.2784954103
101371.2363605675
101371.0785951803
101370.6525217802
101369.8141447891
101368.4033756653
101366.2733891032
101363.3079608946
101359.4422957101
101354.6782164214
101349.0904410307
101342.8216600641
101336.0640044267
101329.0267794634
101321.8981725136
101314.8149597166
101307.8516039218
101301.0361912443
101294.4132289008
101288.2027891263
101283.0633885993
101280.0136734091
101279.1357006695
101279.08607764
101279.1135123977
101279.2774560723
101279.6847796305
101280.4829277719
101281.8163183994
101283.8219363651
101286.6113299959
101290.2545295792
101294.7647406199
101300.0895173973
101306.1132816716
101312.6717330283
101319.5753251496
101326.6392508855
101333.7153376967
101340.7131767901
101347.5911268485
101354.2965670073
101360.6249245782
101365.9810455596
101369.3665700306
101370.4931373002
101370.5934359249
101370.5629262715
101370.444717704
101370.1083636039
101369.4308920984
101368.2708385763
101366.4920885419
101363.9750491333
101360.6324925289
101356.4234772802
101351.3639791197
101345.5319013062
101339.062191595
101332.1284025658
101324.9135485779
101317.5799833683
101310.2494380082
101303.0063686543
101295.9525298562
101289.3638936526
101283.946092082
101280.7312633313
101279.7792707213
101279.7141032165
101279.7346634204
101279.8654137437
101280.1974839974
101280.8590376482
101281.9784454695
101283.682909195
101286.0845647727
101289.267990635
101293.27685411
101298.1036898452
101303.6864642039
101309.912996378
101316.6330983825
101323.6794751611
101330.8956595094
101338.1597533873
101345.3842631387
101352.4686226929
101359.1699711611
101364.8724350243
101368.5568385613
101369.8610283421
101370.0002213317
101369.9786230472
101369.889433438
101369.6210040205
101369.0667338283
101368.1004235489
101366.5963583192
101364.4370886232
101361.5260600091
101357.7992116196
101353.2354885405
101347.8648441656
101341.769868293
101335.0770127765
101327.9382420297
101320.5088932432
101312.9291036455
101305.3216345198
101297.8377108957
101290.805867459
101284.9828473371
101281.4601100854
101280.3605883369
101280.2694663426
101280.282839105
101280.3853045551
101280.656144354
101281.2095605137
101282.1602662258
101283.6252769996
101285.7130609408
101288.5139399052
101292.0888077572
101296.4593688093
101301.6025523458
101307.4498876269
101313.8925628435
101320.7945531088
101328.0135642839
101335.4209629981
101342.9040954273
101350.3288106131
101357.4244734463
101363.5609012232
101367.6777203991
101369.2615513056
101369.4675769412
101369.4539366441
101369.3886912547
101369.1745061106
101368.7179644729
101367.9055351412
101366.6223471131
101364.7565709936
101362.2090710971
101358.9026818069
101354.7917260513
101349.8706481779
101344.178688325
101337.7974928351
101330.841657647
101323.4446670426
101315.7439666775
101307.8796225912
101300.0330849761
101292.5693429967
101286.2707495367
101282.3058111499
101280.9650362228
101280.8120986639
101280.8362766007
101280.9025868889
101281.0978184803
101281.5212002028
101282.2866907971
101283.5133286454
101285.3155228618
101287.7938021173
101291.0234900236
101295.0443653901
101299.8536198236
101305.4038492093
101311.6074646303
101318.3467781694
101325.4883716219
101332.894806643
101340.4449426912
101347.9973971907
101355.2754327443
101361.6913908576
101366.1307935255
101367.9646571138
101368.3483204015
101368.3508870173
101368.3741710855
101368.3342653847
101368.1888770745
101367.819015251
101367.0781359685
101365.8161460349
101363.9006075458
101361.2241733577
101357.7082678983
101353.3057185819
101348.0061548474
101341.8428971382
101334.8931171405
101327.2664066166
101319.0799284484
101310.4659756175
101301.6421133968
101292.9744780479
101285.2200974214
101279.8256591972
101277.1224989534
101275.1419092777
101273.6761182744
101272.5557489242
101271.6509104217
101270.9542119556
101270.6519837647
101270.8653282155
101271.6205510665
101273.148060483
101275.6051136907
101279.0519802569
101283.4888655802
101288.8955480854
101295.2288276446
101302.4050834447
101310.3092822401
101318.8355604581
101327.8768744937
101337.2303333876
101346.5681654137
101355.3014902154
101362.1160778441
101366.4442562001
101370.1281321965
101372.9856598315
101375.2514994799
101377.1291575095
101378.6814574349
101379.8815481198
101380.5265362683
101380.4119675385
101379.4945113615
101377.6768609825
101374.7866942364
101370.6941881346
101365.3564265942
101358.8312916583
101351.2480769807
101342.7582635201
101333.4897682241
101323.611755608
101313.4591678469
101303.5090251077
101294.5308440435
101287.6736737652
101283.1494652717
101279.50741492
101276.7775848336
101274.8277680776
101273.4198632837
101272.4120654201
101271.7812298882
101271.6758903471
101272.1787916462
101273.2772189744
101275.1223584883
101277.849025816
101281.5798954718
101286.3644911031
101292.1704868717
101298.9143588743
101306.4890088409
101314.7826785991
101323.6757426372
101332.9297685043
101342.1190047318
101350.8002686559
101358.2474186783
101363.4684581657
101367.4827507922
101370.847198012
101373.5172227795
101375.625648113
101377.2489658374
101378.3975278397
101379.0796719411
101379.1267996152
101378.4404968376
101377.0148074857
101374.6374214263
101371.1422647933
101366.4162367415
101360.4523054626
101353.3221993021
101345.143737484
101336.0701714125
101326.3105817923
101316.2144719717
101306.2504938613
101296.9776628901
101289.3347616618
101283.978811534
101280.012995097
101276.7923670212
101274.443179152
101272.8116815751
101271.7468811253
101271.1497343117
101271.0708119183
101271.5369182554
101272.523953649
101274.1481866974
101276.5229444483
101279.7814192965
101284.0298691327
101289.314093614
101295.6076052375
101302.8247579075
101310.8415931166
101319.5088511496
101328.6137449085
101337.7671182044
101346.4830451485
101354.3385480729
101360.5433723744
101364.7869187813
101368.5429813428
101371.5628278525
101373.9500375785
101375.7680973626
101377.0409394416
101377.8421650933
101378.0115259667
101377.4661560223
101376.2715069654
101374.2380961779
101371.2146542308
101367.0627847574
101361.6975546582
101355.1012908549
101347.3457880456
101338.590509311
101329.04738311
101319.0286043746
101309.0000571548
101299.4786892813
101291.1638171408
101284.8830989386
101280.5283421325
101276.9164631409
101274.1886944167
101272.2823450116
101271.042878427
101270.3360915265
101270.1949562797
101270.6192466849
101271.5259241909
101273.000735022
101275.1281460323
101278.036651792
101281.8520675372
101286.6539421469
101292.4608455612
101299.2357517638
101306.8856444763
101315.2635768044
101324.1684568804
101333.2622485281
101342.0666851614
101350.2025082862
101357.0919175031
101361.9529207868
101365.9149569119
101369.2628241174
101371.9495626314
101374.0243250568
101375.5143423728
101376.4682407643
101376.7852078971
101376.4132742587
101375.423829947
101373.6906690566
101371.0587791249
101367.3667689757
101362.5040754178
101356.4318658923
101349.1837257252
101340.8626164481
101331.6382782492
101321.7834901172
101311.7335176936
101301.9873292554
101293.1193118028
101286.004187523
101281.0097952015
101277.1074634476
101273.9895506584
101271.7618054408
101270.2932943035
101269.4076292448
101269.1396154682
101269.4808445971
101270.2842414604
101271.6218158106
101273.5594016352
101276.2038142586
101279.671107603
101284.0551279664
101289.4097205542
101295.7368338061
101302.9763762126
101311.0045326711
101319.6419263294
101328.6174036924
101337.4982483715
101345.8260407273
101353.2080295762
101358.9645426771
101363.0452562759
101366.7181496551
101369.6767903327
101372.0123916173
101373.7505148172
101374.9053244311
101375.4346094515
101375.2951354486
101374.521189933
101373.0470271817
101370.7202327607
101367.4025605103
101362.9952853798
101357.4393844911
101350.7095122886
101342.84758894
101333.9962931021
101324.39206799
101314.4031672687
101304.5096126062
101295.2346027773
101287.3576249065
101281.5218183137
101277.3105867333
101273.8017683572
101271.2262038975
101269.480762342
101268.3751972949
101267.9395491255
101268.1582246492
101268.8518112253
101270.0631829678
101271.8374035532
101274.2566250756
101277.4269291869
101281.4519244624
101286.4026947388
101292.3005403667
101299.1150914938
101306.7596921964
101315.0878167154
101323.8794736717
101332.7598474052
101341.2518514048
101349.0165683075
101355.4879624154
101360.0215665708
101363.8916558611
101367.1484336421
101369.7734408061
101371.780892303
101373.1589918111
101373.9439520874
101374.0566385439
101373.481840368
101372.2656869755
101370.2485644288
101367.3145104126
101363.3485256104
101358.2542474762
101351.9821536138
101344.5656449925
101336.1257983188
101326.8437239129
101317.00739861
101307.0638267522
101297.5057166544
101288.9733076414
101282.2845615043
101277.5310725518
101273.6942679541
101270.738741805
101268.6836375469
101267.3433578187
101266.711007393
101266.7574728181
101267.3254085641
101268.4109300356
101270.0357544638
101272.2597177869
101275.1773552518
101278.8887959734
101283.4709007833
101288.9645651692
101295.3690176952
101302.6282362963
101310.6213143471
101319.1639988582
101327.9594492034
101336.5692117806
101344.5860492791
101351.5894472733
101356.8988209582
101360.8863567233
101364.4255375224
101367.3130104236
101369.5713831678
101371.2042967201
101372.2425001737
101372.6097156304
101372.2934445768
101371.3645998724
101369.6801763988
101367.0928612985
101363.4864686272
101358.7884689462
101352.9640455363
101346.016074889
101338.0028424099
101329.0609081562
101319.4364926579
101309.5253836398
101299.7840609963
101290.7509583967
101283.2743958922
101277.7816352739
101273.6466205025
101270.2676460733
101267.84517344
101266.2537807919
101265.4066897701
101265.2590495095
101265.703461813
101266.6490661828
101268.1264035551
101270.171549538
101272.8601195477
101276.2836684159
101280.5282069602
101285.6535033077
101291.6737395269
101298.5496163258
101306.1879714838
101314.443555111
101323.0868438878
101331.7272800278
101339.9158436552
101347.330606665
101353.4091385587
101357.6726137979
101361.4351238262
101364.5770405212
101367.0938668975
101369.0020336504
101370.2940601119
101370.936691322
101370.9181644931
101370.253487393
101368.863049622
101366.6022664112
101363.3800152906
101359.125276653
101353.7663542103
101347.254654651
101339.6268869343
101331.0278260222
101321.6704761686
101311.8670146681
101302.042263592
101292.6731122867
101284.4870703459
101278.1864256846
101273.5858077631
101269.8268386978
101267.0333392872
101265.1827362477
101264.0637022487
101263.6780981009
101263.9904701459
101264.7971538925
101266.1370420656
101268.0183640052
101270.4927905657
101273.650939551
101277.5868331329
101282.3651956203
101288.0106235757
101294.5101650401
101301.8029890633
101309.7659523462
101318.2055819531
101326.8018739294
101335.1290385944
101342.826135252
101349.4419101639
101354.3637545777
101358.2144111293
101361.6026436686
101364.3739608047
101366.5262043765
101368.0469986833
101368.9629595726
101369.2195587374
101368.8177324592
101367.7804455238
101365.9186259018
101363.1026726005
101359.2425719327
101354.2702703821
101348.1544817247
101340.9300755918
101332.703171949
101323.6316570179
101313.9735705916
101304.1259443559
101294.5187979392
101285.7656379559
101278.6988933709
101273.472904106
101269.3594964144
101266.1436554227
101263.937804641
101262.5332667336
101261.9299702597
101262.0844684171
101262.7531175152
101263.9484059662
101265.6712571131
101267.9579361361
101270.8819894807
101274.5291168407
101278.9727318752
101284.2604117772
101290.4004959786
101297.3478079784
101304.9996435577
101313.2016853521
101321.7024688385
101330.1017958374
101337.9969455315
101345.050948674
101350.7151208384
101354.743143121
101358.330882081
101361.3031472423
101363.6586138406
101365.4173555522
101366.582921742
101367.1153793237
101367.0280362528
101366.3230326797
101364.8352322319
101362.4042824521
101358.9450940769
101354.4049933174
101348.7444844601
101341.9509606003
101334.0779055737
101325.2734161999
101315.7879559173
101305.984543379
101296.256571566
101287.0941788715
101279.3025723789
101273.3592625547
101268.8702520275
101265.2507597681
101262.6534349727
101260.9622695231
101260.1262203144
101260.0617823289
101260.5873238945
101261.6553481339
101263.2470466817
101265.3674341646
101268.069607396
101271.4413732168
101275.5730683452
101280.5234977734
101286.3059404125
101292.8951993787
101300.2248760655
101308.1712852221
101316.5262811872
101324.9409724258
101333.0090069019
101340.3972896096
101346.6173010772
101351.1949281399
101354.860018047
101358.0350244517
101360.5914604795
101362.5468017388
101363.8970647092
101364.6597082647
101364.8442288501
101364.4447863025
101363.3668813697
101361.3978885537
101358.4257925878
101354.370440862
101349.1567429022
101342.748200908
101335.1990320791
101326.6696347172
101317.3826061967
101307.6394385879
101297.8089674232
101288.323304983
101279.912471555
101273.2577424325
101268.2392953512
101264.2216104813
101261.1874033898
101259.2076030817
101258.0846659464
101257.7602758524
101258.1596932524
101259.0793946793
101260.5337143795
101262.5044649098
101265.0217593491
101268.1600955689
101272.0035126928
101276.6179742691
101282.0414959382
101288.2789942035
101295.285020239
101302.9514278035
101311.111878742
101319.4872589357
101327.6776233948
101335.3233606274
101342.0327024137
101347.29413685
101351.0980902304
101354.435891254
101357.1244291192
101359.1904685216
101360.6770844554
101361.6088029056
101362.0044627275
101361.9034127819
101361.2219181973
101359.7187857367
101357.2370656829
101353.6753475564
101348.9421482366
101342.984952276
101335.8330909097
101327.609851845
101318.5017659704
101308.8010457327
101298.9044803057
101289.2091098524
101280.3185699587
101272.9907664033
101267.3427105371
101262.9777024296
101259.5399480088
101257.2094622058
101255.7584926581
101255.173007738
101255.4135828886
101256.1888986038
101257.5149060372
101259.3613777799
101261.724589928
101264.6490364194
101268.213658031
101272.5045398388
101277.5833478177
101283.4649637645
101290.1184573337
101297.4719781833
101305.4023708568
101313.6832092406
101321.9386065844
101329.7944417079
101336.9178910765
101342.7802245058
101347.0946172707
101350.5738539534
101353.4595731525
101355.6618384585
101357.2474036625
101358.2466883274
101358.7189867274
101358.7929256718
101358.4243600468
101357.3815432451
101355.4651406313
101352.5230725933
101348.4113051856
101343.0238801853
101336.3299505179
101328.4049646795
101319.444056709
101309.7743040234
101299.8133109512
101289.9298274961
101280.633578718
101272.6989038607
101266.4696627479
101261.6978409533
101257.9765215756
101255.2472741699
101253.4670331484
101252.6049456357
101252.5789220626
101253.1694177892
101254.3465992119
101256.0707441041
101258.3151623464
101261.0900064554
101264.4481200723
101268.4613585063
101273.1909506482
101278.6773868822
101284.9397405232
101291.9519035088
101299.6131230061
101307.743895727
101316.029182185
101324.0757644481
101331.5471302101
101337.9591154694
101342.8948972053
101346.5676775308
101349.6652558907
101352.012355134
101353.6841722526
101354.7261016997
101355.1888977891
101355.2694346213
101355.009640321
101354.2315184383
101352.7657553033
101350.4526312521
101347.1082853923
101342.534846234
101336.5575896069
101329.1067835776
101320.32088272
101310.5549293274
101300.3322308053
101290.1239086848
101280.4837593953
101272.122748726
101265.3824296417
101260.1156648935
101256.1665567276
101253.0737179489
101251.016198375
101249.850370995
101249.5090496697
101249.9010170286
101250.840017049
101252.3668417319
101254.4742541156
101257.1551596
101260.4082221156
101264.2467325055
101268.7061728722
101273.8338637765
101279.6801277722
101286.2353973259
101293.6137961184
101301.0777425074
101311.9651682067
)
;

boundaryField
{
    inlet
    {
        type            uniformFixedValue;
        uniformValue    sine;
        uniformValueCoeffs
        {
            frequency       constant 3000;
            scale           constant 50;
            level           constant 101325;
        }
        value           uniform 101323.6440830864;
    }
    outlet
    {
        type            waveTransmissive;
        gamma           1.4;
        fieldInf        101325;
        lInf            2.25;
        value           uniform 101313.9217403694;
    }
    frontAndBack
    {
        type            empty;
    }
}


// ************************************************************************* //
