/*--------------------------------*- C++ -*----------------------------------*\
| =========                 |                                                 |
| \\      /  F ield         | OpenFOAM: The Open Source CFD Toolbox           |
|  \\    /   O peration     | Version:  v2012                                 |
|   \\  /    A nd           | Website:  www.openfoam.com                      |
|    \\/     M anipulation  |                                                 |
\*---------------------------------------------------------------------------*/
FoamFile
{
    version     2.0;
    format      ascii;
    class       volScalarField;
    location    "0.012";
    object      pMean;
}
// * * * * * * * * * * * * * * * * * * * * * * * * * * * * * * * * * * * * * //

dimensions      [1 -1 -2 0 0 0 0];


internalField   nonuniform List<scalar> 
1000
(
101325.0375979521
101325.0030943396
101325.0149838245
101325.0262579619
101325.0417510757
101325.0604768195
101325.0807108163
101325.1055387289
101325.1318940663
101325.1606821339
101325.1902481378
101325.2196921073
101325.2490693364
101325.2779775539
101325.3060915212
101325.3327451512
101325.3573867295
101325.3795188891
101325.3986785304
101325.4146311676
101325.4270030866
101325.4356611558
101325.4403588669
101325.4410843227
101325.4377440141
101325.4304623431
101325.4193255491
101325.4045901617
101325.3864299874
101325.3651132925
101325.3408231786
101325.31403339
101325.2856286105
101325.256756373
101325.2278596581
101325.1990714562
101325.170551571
101325.1426642903
101325.1158631208
101325.0907460663
101325.0678895579
101325.0478534192
101325.0310646851
101325.017860181
101325.0084491305
101325.002988663
101325.0015407832
101325.0041380385
101325.0107166559
101325.0211786096
101325.0353588681
101325.0531109776
101325.0742587874
101325.0985590797
101325.1253802234
101325.1535976344
101325.1821347973
101325.2106721125
101325.2391090224
101325.2673163597
101325.2949679608
101325.3216942925
101325.3469441696
101325.3701848047
101325.3908020868
101325.4083293231
101325.4223167934
101325.4325256671
101325.4387399935
101325.4409426748
101325.4390864571
101325.4332763514
101325.4235544706
101325.410079072
101325.3929024998
101325.3722046037
101325.3481978879
101325.3216410658
101325.2936965979
101325.2654766536
101325.2372338052
101325.2090817291
101325.1811250675
101325.1536334392
101325.1269334768
101325.1015142507
101325.077877434
101325.0566179196
101325.0382578397
101325.0232993314
101325.0120880335
101325.0048917045
101325.0018061709
101325.0028765222
101325.0080229686
101325.0171867478
101325.0302401549
101325.047126706
101325.0676913938
101325.0916349257
101325.1181167193
101325.1458612963
101325.1738445309
101325.2018370596
101325.2297321579
101325.2574660933
101325.2847432224
101325.3113157597
101325.3366902937
101325.3604454302
101325.38196986
101325.4007937347
101325.4163516842
101325.4283109551
101325.4363050575
101325.4402467951
101325.4400015979
101325.4356785299
101325.4272729103
101325.4149500426
101325.3987162613
101325.3787684139
101325.3553369689
101325.3292796872
101325.3018191039
101325.2740925246
101325.2463282089
101325.2186498748
101325.1911104861
101325.1639490389
101325.137408441
101325.1119100299
101325.087869392
101325.0658468321
101325.0463372282
101325.0299061991
101325.0169681777
101325.0079281678
101325.002983597
101325.0023019193
101325.005858233
101325.0136535799
101325.0255649846
101325.0415527335
101325.0614174607
101325.0848280706
101325.1108402511
101325.1381436989
101325.1656813444
101325.1932382361
101325.2207077893
101325.2480564456
101325.2750238209
101325.3014243131
101325.3268182891
101325.3508627345
101325.3729816094
101325.3927502213
101325.4095698124
101325.4230731523
101325.432789558
101325.4385339843
101325.440059619
101325.4373896479
101325.4304543964
101325.4193950232
101325.4042037213
101325.3851061711
101325.3623488926
101325.3368452855
101325.3098384911
101325.2825314743
101325.2551709009
101325.227889712
101325.200704278
101325.1738316691
101325.1474565172
101325.1219528366
101325.0976668926
101325.0751183457
101325.054754144
101325.0371507398
101325.0227362328
101325.0120045045
101325.0052329175
101325.0027174594
101325.0045247279
101325.0107558412
101325.0213334231
101325.0362487142
101325.0552830254
101325.0780691566
101325.1035918699
101325.1304873729
101325.1576369012
101325.1848218093
101325.2119235349
101325.2389429707
101325.2656344858
101325.2918645672
101325.3172343607
101325.3414587536
101325.3640064204
101325.3844907843
101325.4023257802
101325.417129175
101325.4283796524
101325.435824113
101325.4391135816
101325.4381865366
101325.4328730344
101325.4232622006
101325.4092991977
101325.3912072473
101325.3692382641
101325.3443275056
101325.3177577789
101325.2908157819
101325.2638059731
101325.2368692089
101325.2099963905
101325.1833880374
101325.1571784482
101325.1317131354
101325.1072742881
101325.0843464719
101325.0633269306
101325.0447793902
101325.0291286614
101325.0169080572
101325.0084515961
101325.0041511867
101325.00416581
101325.0087047376
101325.0177631975
101325.0313992358
101325.0494092121
101325.0714334454
101325.0964132046
101325.1229175265
101325.1497276288
101325.1765820632
101325.2033624243
101325.2300857321
101325.2565281998
101325.2825908383
101325.3079092352
101325.332246469
101325.3551096315
101325.3761538712
101325.3948129705
101325.4107110007
101325.4233051597
101325.4322969658
101325.4372666419
101325.4380687529
101325.434447938
101325.4264151621
101325.4138553097
101325.3969515257
101325.3759247262
101325.3516968748
101325.3255761696
101325.2989723177
101325.2722792091
101325.2456541265
101325.2190662048
101325.1927020186
101325.1666605972
101325.14125599
101325.1167262122
101325.0935182335
101325.0719875349
101325.0526752447
101325.0359901059
101325.0224803205
101325.0125126886
101325.006541651
101325.0047977868
101325.007595364
101325.0150020092
101325.0271643488
101325.043945123
101325.06501026
101325.0893410966
101325.1154482363
101325.1419665246
101325.1685626035
101325.1950854932
101325.2215562231
101325.2477651088
101325.2736345797
101325.2988369327
101325.3231674321
101325.3461923486
101325.3676188824
101325.3869081945
101325.4037183066
101325.4175579281
101325.4280390827
101325.4347065233
101325.4373627634
101325.4356003319
101325.4293374918
101325.4183255877
101325.4028251516
101325.3828025993
101325.3591553399
101325.3333141094
101325.3067067387
101325.2798133433
101325.2530746324
101325.2264616918
101325.2001199714
101325.1742539274
101325.1491470686
101325.1249874105
101325.1021664959
101325.0810752242
101325.0620937186
101325.0455973783
101325.0318951722
101325.0215786268
101325.014931505
101325.0121523822
101325.0136367558
101325.0193039641
101325.0295576699
101325.0441312215
101325.0627561155
101325.0842679996
101325.1070468919
101325.1297401045
101325.1520913536
101325.173649952
101325.1944397581
101325.2142179322
101325.2329494401
101325.2506956033
101325.2670164208
101325.2817160092
101325.2948934578
101325.305958322
101325.3147748996
101325.3207121883
101325.3238728516
101325.3238013177
101325.3203505081
101325.313187768
101325.3024767512
101325.2873433473
101325.269111244
101325.247357776
101325.2230204856
101325.1977813021
101325.1727553408
101325.1484351178
101325.1250882949
101325.1031501989
101325.082826638
101325.0638083987
101325.0466081176
101325.0311143221
101325.0172621625
101325.0053290084
101324.9953952957
101324.987634623
101324.9822897524
101324.9796376534
101324.9800399329
101324.9835373843
101324.9905486053
101325.0008986216
101325.0156783541
101325.0338119512
101325.0552712931
101325.0790209187
101325.1038065027
101325.1285131055
101325.152982694
101325.1763480075
101325.1986453359
101325.2196479268
101325.239105174
101325.2576154576
101325.2743484135
101325.2890641751
101325.3023450471
101325.3136327665
101325.3227825383
101325.3293473082
101325.3330108772
101325.3336065012
101325.3308223645
101325.3243817128
101325.3142508177
101325.2999639976
101325.2827025842
101325.2615336199
101325.2377316489
101325.2122476665
101325.1867005906
101325.1615786178
101325.1372435377
101325.1141143809
101325.0925733015
101325.072540934
101325.0543825601
101325.0380985524
101325.0234326557
101325.0106590598
101324.9999180305
101324.9911818167
101324.9847655894
101324.9806119733
101324.979420094
101324.9812111728
101324.9863094846
101324.9949576109
101325.0071923754
101325.024517808
101325.0437384735
101325.0660419768
101325.0896885705
101325.1136838184
101325.13751731
101325.160754615
101325.1829089648
101325.2038589675
101325.2233343386
101325.2416305413
101325.2583644836
101325.2728228615
101325.2856630086
101325.2968108062
101325.3058896296
101325.3126783275
101325.3166631236
101325.3177494805
101325.3156101921
101325.3098637741
101325.3005410669
101325.2866607965
101325.2712630445
101325.2505329527
101325.2274106911
101325.2019685342
101325.175958279
101325.1501186894
101325.1250893312
101325.1009046543
101325.0782019637
101325.0571858275
101325.0377463749
101325.0207045584
101325.0052594288
101324.9913779675
101324.9798220681
101324.9701703374
101324.962744171
101324.9575155977
101324.9548444248
101324.9550598629
101324.9582766446
101324.965187161
101324.9744145063
101324.9911107756
101325.0081392567
101325.0287922806
101325.0511557542
101325.0742907812
101325.0973822844
101325.1202133354
101325.1420819905
101325.1628109248
101325.1823497763
101325.1999873732
101325.217033295
101325.2315467004
101325.2437148759
101325.2546158547
101325.2634820825
101325.2701683765
101325.2744066585
101325.2756624155
101325.273989681
101325.268744246
101325.2602936338
101325.2464731834
101325.2327573837
101325.2128550336
101325.1902500804
101325.1650874915
101325.1386413412
101325.1121854097
101325.0862389411
101325.0611429762
101325.0372133208
101325.0149958148
101324.9942090829
101324.9762015724
101324.959890014
101324.944691505
101324.9321970615
101324.9216153951
101324.9131770476
101324.9069896651
101324.9029798271
101324.9016918827
101324.9031751898
101324.908167489
101324.9152541799
101324.9293489819
101324.9454947442
101324.9639391231
101324.9849344271
101325.0069633443
101325.0292337969
101325.0512488784
101325.0728203155
101325.0931192647
101325.1124290556
101325.1297316087
101325.1466809533
101325.161309922
101325.1728582591
101325.1834487932
101325.1919644577
101325.1984181344
101325.2025953983
101325.2039687402
101325.202436337
101325.197591213
101325.1894686226
101325.1770136111
101325.1620354184
101325.1450564112
101325.1224398393
101325.0977746901
101325.0710638704
101325.043937624
101325.0170837133
101324.9910870271
101324.9659519517
101324.9424603639
101324.9204534604
101324.9010478121
101324.8837841466
101324.8674323264
101324.8537306849
101324.8420713915
101324.8326217878
101324.8253254988
101324.8203090367
101324.8175610137
101324.8175232212
101324.8203918359
101324.8263603425
101324.8355991863
101324.8524143668
101324.8682603737
101324.8876447126
101324.9083748423
101324.9296274944
101324.9507655984
101324.9716316971
101324.9915240375
101325.0103174826
101325.0276697437
101325.0435870974
101325.0585044695
101325.0701851972
101325.0798451914
101325.0880404647
101325.0941108776
101325.0979710491
101325.0993788484
101325.0977778169
101325.0931238946
101325.0850221545
101325.0737376415
101325.0570625255
101325.0430664504
101325.0206486705
101324.9964009429
101324.9697141442
101324.9419824754
101324.9143311841
101324.8871929741
101324.8610544597
101324.8361577247
101324.8130993603
101324.7916467618
101324.7735493659
101324.7566044881
101324.7409216797
101324.728322861
101324.7176580204
101324.7092938251
101324.7032417148
101324.6992772955
101324.6978293181
101324.698731895
101324.7033818927
101324.7082846671
101324.7251564435
101324.7388124562
101324.7563178832
101324.7755294965
101324.795672652
101324.8158542964
101324.8357532748
101324.8551681996
101324.87330463
101324.8904991959
101324.9055258145
101324.9206704065
101324.9327216606
101324.9411773559
101324.9491816214
101324.9547149955
101324.958234574
101324.9593921168
101324.9578092898
101324.9531748986
101324.944994545
101324.9341430724
101324.9175034014
101324.9035114655
101324.8830931323
101324.8588836386
101324.8323955162
101324.804297311
101324.7758810522
101324.7477057386
101324.7204534273
101324.6941703519
101324.6697678239
101324.6467551042
101324.6272333533
101324.6094885519
101324.5920325652
101324.5782874531
101324.5664104288
101324.5569047484
101324.5496518509
101324.5447047012
101324.5418743851
101324.5411809058
101324.5436635089
101324.5478983507
101324.5586498286
101324.5740154559
101324.5885743376
101324.6062498973
101324.625043816
101324.6441257707
101324.6630136391
101324.6814889041
101324.6990358901
101324.7156066921
101324.7304563067
101324.7445342286
101324.7569902416
101324.765191924
101324.7724064824
101324.7776330087
101324.780645481
101324.7813925491
101324.7797305987
101324.7749736295
101324.7668374117
101324.7555739217
101324.7406574459
101324.7226842344
101324.706860236
101324.6821251171
101324.6560847578
101324.6277315181
101324.5986419536
101324.5695304413
101324.5409617912
101324.5134330812
101324.487386249
101324.4633581465
101324.4412896065
101324.4226577131
101324.4045634786
101324.388500182
101324.3755942289
101324.3646622302
101324.3561853019
101324.3500717858
101324.3461573902
101324.3441719122
101324.344286919
101324.3480335652
101324.351780719
101324.3699617467
101324.3811931288
101324.3972793991
101324.4143823532
101324.4323486701
101324.4501211173
101324.4675083378
101324.4842111953
101324.4999374036
101324.5147218692
101324.527343665
101324.5401841846
101324.5490930205
101324.554514161
101324.5595618015
101324.5620090891
101324.5622825841
101324.5601955485
101324.5554578751
101324.5473788951
101324.5354003742
101324.5215187813
101324.5002213746
101324.4883421038
101324.4633430691
101324.4375736919
101324.409115275
101324.3795375905
101324.3495784738
101324.3198650456
101324.290796784
101324.2631737911
101324.2376076187
101324.213492824
101324.193625028
101324.1749214399
101324.1560918831
101324.1419685878
101324.1296844522
101324.119834834
101324.1123511133
101324.1073301331
101324.1041608186
101324.1023147478
101324.1041435452
101324.1057576878
101324.1195749328
101324.1317095315
101324.1447552225
101324.1602107382
101324.1766613329
101324.1932167454
101324.2094516259
101324.2248837476
101324.2396266259
101324.2536187515
101324.2656135994
101324.2776459187
101324.2870931831
101324.2913747293
101324.29587565
101324.2978448575
101324.2975056686
101324.2948269152
101324.2897270255
101324.2817301836
101324.269413577
101324.2547175801
101324.2355392831
101324.2173106043
101324.1985706019
101324.1713203006
101324.1431405469
101324.1130740354
101324.0823637585
101324.0516110513
101324.0210207572
101323.9916524916
101323.9640769348
101323.9387462501
101323.9159241958
101323.896138762
101323.8761913005
101323.8596359394
101323.8459898783
101323.8345856399
101323.8255529503
101323.818991837
101323.8148473109
101323.8116360915
101323.8105223429
101323.8125330759
101323.8160012164
101323.8340549674
101323.8425269992
101323.8564017475
101323.8709089573
101323.8862043881
101323.9012047899
101323.9154049082
101323.9287408038
101323.9415556329
101323.9535977436
101323.9635627558
101323.9733887941
101323.9785613381
101323.9807667569
101323.9825044378
101323.9815224365
101323.9781866928
101323.9723813675
101323.9642752071
101323.9521377866
101323.9358626315
101323.9186217059
101323.8925996757
101323.8827627978
101323.8525289003
101323.8248079421
101323.7941529748
101323.7628690946
101323.7312536528
101323.6995010562
101323.6681028062
101323.638506143
101323.6115221029
101323.5858282214
101323.5650534979
101323.5446250763
101323.524098384
101323.5091458169
101323.49605768
101323.4855147222
101323.4772575443
101323.4717127294
101323.4677545648
101323.4640034026
101323.4647569589
101323.4627388173
101323.4806781154
101323.4877724428
101323.4987664084
101323.511171887
101323.5247510105
101323.5383932027
101323.5514173185
101323.5631074292
101323.5742488611
101323.5853677794
101323.5938550013
101323.6038306983
101323.609739514
101323.6091292968
101323.6106439441
101323.6088776492
101323.6049367382
101323.5982677392
101323.589364477
101323.5774564205
101323.560431513
101323.5418689781
101323.518006329
101323.4999890733
101323.4774847545
101323.4472177125
101323.4164563323
101323.3843712065
101323.3518490081
101323.319220273
101323.286101817
101323.2540698267
101323.2245786054
101323.1972087823
101323.1732421912
101323.151490042
101323.128722988
101323.1110562038
101323.0961339354
101323.0837633986
101323.0737038958
101323.0661250909
101323.0610417194
101323.0557646957
101323.0528927023
101323.0523998091
101323.0551945816
101323.072669852
101323.0771621584
101323.0876723802
101323.0988386121
101323.1107403721
101323.1225582177
101323.1327943562
101323.1419470062
101323.1510249482
101323.1596176522
101323.1663199391
101323.1725132245
101323.1731754853
101323.1715152632
101323.1693558126
101323.1644753903
101323.1570548875
101323.1470058022
101323.134678048
101323.1173799921
101323.0965101447
101323.0754461911
101323.0434474807
101323.0372911852
101322.9998400997
101322.9696122347
101322.9360842913
101322.9025698531
101322.8690344532
101322.8348047193
101322.8005433102
101322.7679438085
101322.738881338
101322.7106421697
101322.6880491874
101322.6650233713
101322.6416531888
101322.625102292
101322.6104356924
101322.598648461
101322.5890697792
101322.5825186196
101322.5756623673
101322.5700995071
101322.5688648618
101322.5627521487
101322.5840788901
101322.5847980314
101322.5925032905
101322.600774524
101322.6105237837
101322.6206919701
101322.6299598872
101322.6374999458
101322.6440575615
101322.6515349424
101322.6553036303
101322.6633030961
101322.6651190729
101322.6581512854
101322.656292202
101322.6502164888
101322.6421503917
101322.6311469806
101322.618539917
101322.6000106991
101322.5785047979
101322.5555082579
101322.5268484114
101322.5079945023
101322.4821195606
101322.4473781604
101322.4134826094
101322.3786728099
101322.3438302451
101322.3089568801
101322.273264113
101322.2380838837
101322.205960316
101322.1751016368
101322.1493847898
101322.124977482
101322.09810989
101322.0783417926
101322.0610949003
101322.046838572
101322.0351028798
101322.0270538442
101322.0190028083
101322.010774744
101322.0059167284
101322.0031181434
101322.0013063276
101322.0230063762
101322.0180260491
101322.0249219284
101322.0317540129
101322.039793186
101322.0475823491
101322.0536084549
101322.0587517495
101322.0637050241
101322.0669639411
101322.0692223728
101322.0723448871
101322.0680006908
101322.0612004229
101322.055295749
101322.0458513779
101322.0334032208
101322.0195076133
101322.0036960921
101321.9770870327
101321.9451372161
101321.9062789427
101321.8826257284
)
;

boundaryField
{
    inlet
    {
        type            calculated;
        value           uniform 101324.9999999998;
    }
    outlet
    {
        type            calculated;
        value           uniform 101321.8876851904;
    }
    frontAndBack
    {
        type            empty;
    }
}


// ************************************************************************* //
