/*--------------------------------*- C++ -*----------------------------------*\
| =========                 |                                                 |
| \\      /  F ield         | OpenFOAM: The Open Source CFD Toolbox           |
|  \\    /   O peration     | Version:  v2012                                 |
|   \\  /    A nd           | Website:  www.openfoam.com                      |
|    \\/     M anipulation  |                                                 |
\*---------------------------------------------------------------------------*/
FoamFile
{
    version     2.0;
    format      ascii;
    class       volScalarField;
    location    "0.012";
    object      rho;
}
// * * * * * * * * * * * * * * * * * * * * * * * * * * * * * * * * * * * * * //

dimensions      [1 -3 0 0 0 0 0];


internalField   nonuniform List<scalar> 
1000
(
1.176300537323257
1.176324411584059
1.176270894945876
1.176227368280939
1.176176610763807
1.176130478924646
1.17609148698762
1.176058674584797
1.176030591348374
1.176011347218119
1.176005315548008
1.176004716103672
1.176007081336917
1.176015263940306
1.176031608396272
1.176056517207204
1.176089065356777
1.176127812682483
1.176171527383931
1.176219326748584
1.176270480711603
1.176324211951183
1.176379614645965
1.176435661724944
1.176491247746395
1.176545257977395
1.176596703947655
1.176644962013629
1.17668998227847
1.176731961882526
1.17676969056602
1.176797780051244
1.176809809933065
1.17681110737894
1.176810605967938
1.176808332768769
1.17680222167075
1.17679017697264
1.176770500247697
1.176742412755717
1.176706254451778
1.176663287938761
1.176615188546196
1.17656353256589
1.176509550245026
1.176454176781805
1.176398242227843
1.176342615185778
1.176288192756757
1.176235719858036
1.176185547174647
1.176137648638497
1.176092457905182
1.176053052958303
1.176026807146656
1.176017835305433
1.176017217573308
1.176017623176518
1.176019734196454
1.17602505917953
1.17603541338016
1.176052410160861
1.176077178112776
1.176110067865675
1.176150552578813
1.176197358616075
1.176248792500355
1.176303128054436
1.176358887518106
1.176414930499363
1.176470409073576
1.176524729320299
1.176577585423639
1.176628956124542
1.176678805644688
1.176726101756305
1.176766792183662
1.176792971485982
1.17680153458494
1.176802143752827
1.176801709692421
1.176800002996701
1.176795496858993
1.176786709274786
1.176772104548199
1.176750425061119
1.176720921610298
1.176683547742515
1.176639009553965
1.176588645662007
1.176534177876503
1.17647740568097
1.176419916736666
1.176362881480719
1.176306978546723
1.176252443661421
1.176199227737471
1.176147425376733
1.176098467511058
1.176057345119645
1.176032472170257
1.176025236487249
1.176024867043374
1.176025178140556
1.176026890369641
1.176031073863154
1.176039179854434
1.176052586656814
1.176072503547933
1.176099759484221
1.176134638315851
1.176176770264687
1.176225139601611
1.176278238852027
1.176334331948849
1.176391741798309
1.176449099424605
1.176505527014021
1.176560701442953
1.176614685814805
1.176667377577169
1.176717319645979
1.176759704189185
1.176786270207247
1.176794768105772
1.17679541623418
1.176795066893348
1.176793758880883
1.176790226379518
1.176783275536446
1.176771579055029
1.176753919563489
1.176729333341735
1.176697282993125
1.17665778338714
1.176611453733848
1.176559476823316
1.176503445432487
1.176445094844417
1.176385985361236
1.176327251100881
1.176269509552899
1.176212993679288
1.176158072634245
1.176106571516693
1.176063951506493
1.176038660556391
1.176031379583075
1.176030968054096
1.176031195556392
1.176032555120829
1.176035933023205
1.176042552001164
1.176053609675066
1.17607024198979
1.17609337389668
1.17612358598205
1.176160987535255
1.176205143377337
1.176255094791563
1.17630947907551
1.176366724263641
1.176425297797019
1.176483970997174
1.176541994232297
1.176599022278901
1.176654618907849
1.176707088084837
1.176751495614872
1.176779564625102
1.176788904806337
1.176789736353515
1.176789483390371
1.17678850332925
1.176785714664929
1.176780097849335
1.176770480001694
1.176755732570821
1.176734863939272
1.176707150766831
1.176672253408403
1.176630304066998
1.176581948367579
1.176528304919999
1.176470812482799
1.17641098836337
1.176350178665
1.176289392748018
1.176229330958602
1.176170837150138
1.176116199981719
1.176071271376199
1.176044611215872
1.176036716411348
1.176036175970704
1.176036346459316
1.176037430745825
1.176040184568364
1.176045670766771
1.17605495388993
1.176069088767485
1.176089005249872
1.176115404604678
1.176148648773927
1.176188675618737
1.17623497045535
1.176286602757912
1.176342326874722
1.176400755377067
1.176460590717649
1.176520822084053
1.176580724007535
1.176639462693598
1.176695024638937
1.176742303862185
1.176772850925901
1.176783663765737
1.176784817779327
1.176784638696718
1.176783899221596
1.176781673702918
1.176777078321661
1.176769066762953
1.176756596709589
1.176738694336365
1.176714559008721
1.176683659437433
1.17664582083831
1.176601291297248
1.176550755302304
1.176495261037293
1.176436068281558
1.176374464865336
1.176311612677691
1.176248529617401
1.176186469708872
1.176128157459152
1.176079868638142
1.176050655106621
1.176041536872259
1.176040781192922
1.176040892074658
1.17604174179388
1.176043987832447
1.176048577248757
1.176056461334913
1.176068610457544
1.176085924068457
1.176109151091662
1.176138796358574
1.176175039658989
1.17621768943641
1.176266177632431
1.176319601675082
1.176376833379501
1.176436692647068
1.176498112736008
1.17656015948431
1.176621720570474
1.176680552162767
1.176731429608485
1.176765561898795
1.176778693232456
1.176780401348914
1.176780288245933
1.176779747287497
1.176777971496451
1.176774186363431
1.176767450605448
1.17675681181839
1.176741342788534
1.176720221504817
1.176692808058675
1.176658723557203
1.176617921704746
1.176570727578302
1.176517817846968
1.17646014240214
1.176398807803909
1.176334953535746
1.176269740900302
1.176204674478979
1.176142781015635
1.176090548613526
1.176057668078866
1.176046549181996
1.17604528087476
1.176045481366636
1.176046031255072
1.176047650279345
1.176051161329946
1.176057509445263
1.176067681775328
1.176082627053713
1.176103178866736
1.176129961730995
1.176163305345431
1.176203186198786
1.176249210934349
1.176300652958867
1.17635653611417
1.17641575385926
1.176477166395951
1.176539769149135
1.176602389796458
1.176662733864345
1.176715929215274
1.176752736210099
1.176767940600495
1.176771121496457
1.176771142764239
1.176771335793342
1.176771004928254
1.176769799522729
1.176766733034603
1.176760590477506
1.176750127420151
1.176734245777855
1.176712055445429
1.176682904802514
1.17664640252453
1.176602462351145
1.176551360223847
1.176493735649515
1.176430496960829
1.176362615311175
1.176291187380888
1.176218017057598
1.176146140450105
1.176081835567514
1.176037100222535
1.176014683014483
1.175998257929275
1.17598610201874
1.175976810678169
1.175969306734683
1.175963528908911
1.175961022478418
1.175962791763558
1.175969054914572
1.175981722707973
1.176002099200007
1.176030684042547
1.176067478699934
1.176112315172031
1.176164834850566
1.17622434390601
1.176289888031166
1.176360588994745
1.1764355588365
1.17651311494266
1.176590539434165
1.176662949833855
1.176719450251052
1.176755335028785
1.176785877554106
1.176809568711748
1.176828354173368
1.176843921234717
1.176856790791916
1.176866740269296
1.176872087598124
1.176871137740628
1.17686353145612
1.176848461976225
1.176824500514048
1.176790570511968
1.176746315809644
1.176692215845658
1.176629342084035
1.176558949958213
1.176482099567988
1.176400193099703
1.176316007522529
1.176233498281946
1.176159046837919
1.176102182597959
1.176064664221579
1.176034461050055
1.17601182262798
1.17599565273286
1.17598397687555
1.175975619105867
1.175970387508709
1.17596951390511
1.175973684510009
1.175982793863661
1.175998095720287
1.176020708007048
1.176051647885348
1.176091325783719
1.176139473280925
1.17619539733629
1.176258209408726
1.1763269823384
1.176400723777338
1.176477456344069
1.176553649698778
1.176625629336065
1.176687375080771
1.176730662959923
1.176763945194871
1.176791839309293
1.176813975887071
1.176831456252994
1.176844914655853
1.176854436976001
1.176860092373539
1.176860483078781
1.176854793178054
1.17684297326705
1.176823263079758
1.176794285572903
1.176755102764935
1.176705655947241
1.176646539314929
1.176578729167066
1.1765034955959
1.176422571688163
1.176338855083452
1.176256231757295
1.176179337476021
1.176115957777471
1.176071542087694
1.176038654016802
1.176011945438374
1.175992463538337
1.175978933395744
1.175970102886734
1.175965150668971
1.175964496148691
1.175968361619645
1.175976547206779
1.175990017102151
1.176009711058678
1.176036733513255
1.176071965448244
1.176115786373077
1.176167976250946
1.176227824417846
1.17629430250745
1.176366172398646
1.176441669305777
1.17651756623413
1.176589834159406
1.176654966371849
1.176706411337865
1.176741594582767
1.176772735740158
1.176797772761461
1.176817564554106
1.17683263757201
1.176843190299635
1.176849832982583
1.176851237086424
1.176846715599366
1.176836811137788
1.176819952712276
1.17679488606428
1.176760463557043
1.176715980681802
1.176661290450137
1.176596987562684
1.176524393576818
1.176445265131036
1.176362190418339
1.176279032334541
1.176200077660255
1.176131125965941
1.176079041580201
1.176042928143921
1.176012974956878
1.175990353465841
1.175974543937247
1.175964264885943
1.175958403397618
1.175957232937554
1.175960751635936
1.175968270828211
1.175980501588492
1.175998144349235
1.176022264622786
1.176053905628182
1.176093726806676
1.176141881817999
1.176198063208796
1.176261499190054
1.176330970781537
1.176404810113877
1.176480213969989
1.176553216696192
1.176620673931968
1.17667779547038
1.176718098410919
1.17675094752725
1.176778704300799
1.176800979548519
1.176818180904849
1.176830534218882
1.176838442692626
1.176841070561246
1.176837986967522
1.176829783770516
1.176815414599069
1.176793594192839
1.17676298431426
1.176722668011806
1.176672322919903
1.176612226986387
1.176543233311677
1.176466748694538
1.176385034409157
1.176301699321629
1.17622088095301
1.176147342713174
1.17608833906291
1.17604692130858
1.176014559433311
1.175988702457589
1.175970227541573
1.175958048970023
1.175950703999193
1.17594848130978
1.17595131117803
1.175957973873607
1.175969066559426
1.175985135154441
1.176007065405079
1.17603581961594
1.176072175843776
1.176116580329657
1.17616904886168
1.176229082696056
1.176295654656324
1.176367276892865
1.176441700684204
1.176515337917634
1.176584387718032
1.176645594037933
1.176693322172495
1.176727155518134
1.176757607274513
1.176782136973184
1.176801500993784
1.176815911357015
1.176825485568009
1.176829873716018
1.176828717368966
1.176822300789778
1.176810078874516
1.176790787918561
1.176763281604392
1.176726741176939
1.176680676935429
1.176624878283539
1.176559692239848
1.176486301210464
1.176406665126499
1.176323837079679
1.176241797314541
1.176164884580623
1.176099563413095
1.176051168063825
1.17601624452804
1.175987145752591
1.175965786309887
1.175951311083487
1.175942142418817
1.175938529496087
1.175940343012195
1.175946095056061
1.175956141169644
1.175970855028255
1.175990917859572
1.176017209296236
1.17605058839298
1.176091644393681
1.176140553610173
1.17619706380062
1.176260455936842
1.176329514552293
1.176402415091674
1.176476049413771
1.176546461705641
1.176610842133819
1.176664498027016
1.176702086653311
1.176734173611875
1.176761175324438
1.176782938894492
1.176799582290154
1.176811007796841
1.176817515700985
1.176818449948113
1.176813684431053
1.176803601576677
1.176786878010996
1.17676255219487
1.176729670486754
1.176687433651332
1.176635430683001
1.176573938000022
1.176503958917138
1.176426994548369
1.176345432256356
1.176262978350025
1.176183718558863
1.176112962499422
1.176057494055488
1.176018073663595
1.175986254885286
1.17596174435222
1.175944701006895
1.175933585775128
1.175928341541712
1.175928726882622
1.175933436895348
1.175942439350805
1.175955914312518
1.17597435794771
1.175998554155448
1.176029333167793
1.176067332177296
1.176112890037712
1.176165999993778
1.176226197067181
1.176292478224425
1.176363315213038
1.176436246355528
1.176507636015918
1.176574107735116
1.176632175273307
1.176676196327565
1.176709257319204
1.176738600647362
1.176762540452841
1.176781264305669
1.176794802489825
1.176803410008713
1.176806454504154
1.176803832361189
1.176796131492171
1.1767821662383
1.176760715160799
1.176730814804233
1.176691863566064
1.176643572414616
1.176585964737138
1.176519523255173
1.176445379679726
1.176365575073171
1.176283390933978
1.17620261241278
1.176127704710923
1.176065703301597
1.17602015225747
1.17598586041484
1.175957838147867
1.175937748108252
1.175924550303581
1.175917525146783
1.175916300714621
1.175919986332661
1.17592782846071
1.17594008035028
1.175957041125307
1.175979337796284
1.176007729515719
1.176042929392873
1.176085432828798
1.176135357109053
1.176192375956185
1.176255716412464
1.176324173624471
1.176395844037757
1.176467489024691
1.176535385530494
1.176596864605233
1.176647263444116
1.176682612610168
1.176713807830292
1.176739857414214
1.176760724218698
1.176776544576613
1.176787256548046
1.176792584481706
1.176792430868962
1.176786920134983
1.17677539222884
1.176756648345461
1.176729932855235
1.17669465671548
1.176650225171757
1.176596234903306
1.176532989750991
1.176461689539994
1.176384099887806
1.176302808917401
1.176221339121603
1.176143645170469
1.176075760507973
1.176023509867596
1.175985356780045
1.175954183143764
1.175931016063206
1.175915668520395
1.175906388029773
1.175903190082995
1.175905780665791
1.175912470717905
1.175923582767997
1.175939185010093
1.175959705889591
1.175985896811966
1.176018537356564
1.176058164061301
1.176104980614285
1.176158879259106
1.176219355157508
1.176285386754538
1.176355369378711
1.176426649326539
1.17649569601321
1.176559516878226
1.176614370800618
1.176655179034696
1.176687105375487
1.176715197401879
1.176738174346789
1.176756018438524
1.176768627164685
1.176776221257814
1.176778348673186
1.176775017177613
1.17676641715435
1.176750980989921
1.176727634059523
1.176695629866404
1.176654403886405
1.176603696328219
1.176543795818606
1.176475581698046
1.176400362546431
1.176320277510979
1.176238618520582
1.176158951431626
1.176086364125821
1.17602776044286
1.175984421154449
1.175950308076237
1.175923638370511
1.17590534460232
1.175893696290658
1.175888692928197
1.175889974214245
1.175895519525855
1.175905432427747
1.175919720528017
1.175938684515206
1.175962934236368
1.175993180280771
1.176030031283086
1.17607388154283
1.176124799895893
1.176182411335888
1.176245863795816
1.176313877260258
1.17638436627423
1.176454012315714
1.176519476260592
1.176577964455451
1.176624928040294
1.176658325280399
1.176688071706581
1.176712714925829
1.176732244083871
1.17674682571073
1.176756489310006
1.176760903855539
1.176760179690461
1.176754334554195
1.176741999298253
1.176721844361513
1.176693164101605
1.176655521543221
1.176608588872323
1.176552261112426
1.176486981185914
1.17641397647939
1.176335323263234
1.176254031341081
1.176173362729025
1.176097382108245
1.176032767409086
1.175983479401197
1.175946251364383
1.17591623402711
1.175894693583153
1.175880668119288
1.175873734422208
1.175873199988948
1.175877558483066
1.175886415990071
1.175899616488735
1.175917201500449
1.17593961129409
1.175967573961251
1.176001838514338
1.176042892397648
1.176090845439872
1.176145488344835
1.176206270119316
1.176272164736954
1.176341445883895
1.176411220353421
1.176478118768615
1.176539379474702
1.176590952347882
1.176628906899164
1.176659294950456
1.176685619357198
1.176706814938962
1.176723026694559
1.176734221680588
1.176740544707684
1.176742074544359
1.176738762769063
1.17672982587986
1.176713500957292
1.176688859148251
1.176655235682948
1.176612007655913
1.176558872023
1.176496277792617
1.17642555434618
1.176348546866436
1.176267754899845
1.176186236700984
1.176107575622802
1.176037825940318
1.175982638159338
1.1759410193821
1.175907699649462
1.175882535906564
1.175866116608407
1.175856803577829
1.175854113235645
1.175857425743256
1.175865053189934
1.175877114442818
1.175893458602153
1.175914335330093
1.175940362361902
1.175972236512213
1.176010504628199
1.176055481715602
1.176107208229045
1.176165306911656
1.17622888057927
1.176296549553854
1.176365999132643
1.17643391292171
1.176497309267316
1.176552940145206
1.176596564878043
1.176628104613336
1.176655779054139
1.176678070117522
1.176695199834174
1.176707525430035
1.176715250311668
1.176718530717892
1.176717692894653
1.176712042591712
1.176699580051464
1.176679003895431
1.17664947313657
1.176610228990735
1.176560835640038
1.176501535774566
1.176433351066089
1.17635782759736
1.17627738788308
1.176195321876983
1.176114921997967
1.176041194323527
1.175980424745013
1.17593358445324
1.175897384169665
1.175868873555822
1.175849545782223
1.175837512158734
1.175832656411292
1.175834651588612
1.175841081628611
1.175852078822049
1.175867392421188
1.17588699146717
1.175911244879768
1.175940807223492
1.175976392254362
1.176018511145986
1.176067287021665
1.176122463042653
1.176183443015814
1.176249205321707
1.176317872075199
1.176386326239704
1.176451465708129
1.176510531077486
1.176559138782975
1.176594911166872
1.176623758602622
1.176647684781846
1.176665944145918
1.176679090259555
1.176687375406483
1.176691291252111
1.176691904263954
1.176688848431928
1.176680202322288
1.176664313171733
1.176639919931384
1.176605828156965
1.176561158962981
1.176505656094355
1.176439944537378
1.176365641647374
1.176285458955003
1.176202858932178
1.176120899308271
1.176043807277051
1.17597800491275
1.175926344672436
1.175886770439948
1.175855907978486
1.17583327297175
1.175818508439616
1.175811358636329
1.175811142760571
1.17581604000601
1.175825802975432
1.175840102184992
1.175858716204996
1.175881729148577
1.17590957916192
1.175942862019582
1.175982085313499
1.176027584588775
1.176079517720671
1.176137667856569
1.176201199130481
1.176268622695573
1.17633732594403
1.176404048246248
1.176465999450538
1.176519165361696
1.176560090348964
1.176590542647867
1.176616225373838
1.176635685422887
1.176649546385363
1.176658184706226
1.176662021414797
1.176662688982318
1.176660535407874
1.176654085484548
1.176641935735872
1.176622761989129
1.176595039355816
1.17655712585063
1.176507570283203
1.176445790869963
1.176372931294249
1.176291931398614
1.176207127712618
1.17612242555624
1.176042418264868
1.175973011349836
1.175917062072944
1.175873380460673
1.175840689342871
1.175815158618965
1.17579826066195
1.175788860265064
1.175786333301084
1.175790091642888
1.175798623543913
1.175812004182586
1.175830260488272
1.175853499772104
1.175881830658284
1.175915284055703
1.175953617807111
1.175996049042215
1.176041408150104
1.176088577897242
1.176139491627337
1.176192251760805
1.176284993957223
)
;

boundaryField
{
    inlet
    {
        type            calculated;
        value           uniform 1.176395973595895;
    }
    outlet
    {
        type            calculated;
        value           uniform 1.176306280241198;
    }
    frontAndBack
    {
        type            empty;
    }
}


// ************************************************************************* //
