/*--------------------------------*- C++ -*----------------------------------*\
| =========                 |                                                 |
| \\      /  F ield         | OpenFOAM: The Open Source CFD Toolbox           |
|  \\    /   O peration     | Version:  v2012                                 |
|   \\  /    A nd           | Website:  www.openfoam.com                      |
|    \\/     M anipulation  |                                                 |
\*---------------------------------------------------------------------------*/
FoamFile
{
    version     2.0;
    format      ascii;
    class       volScalarField;
    location    "0.012";
    object      T;
}
// * * * * * * * * * * * * * * * * * * * * * * * * * * * * * * * * * * * * * //

dimensions      [0 0 0 1 0 0 0];


internalField   nonuniform List<scalar> 
1000
(
299.9867448810219
299.9884907395617
299.9821540959725
299.9775259940995
299.9731561076745
299.9694080665492
299.9660179254482
299.9629835621015
299.9603645861227
299.9586786592087
299.9583071506277
299.9585224216784
299.9590450064766
299.9600057563006
299.9617102969879
299.9642540947207
299.9675480101458
299.9714453128553
299.9758252825592
299.9806065898327
299.985725561021
299.9911133094337
299.996685520285
300.0023425079507
300.0079738017391
300.0134657507168
300.0187158327582
300.0236572497315
300.0282806465621
300.0326013341338
300.0364904072065
300.0393923132207
300.0406500854608
300.040802832886
300.0407668122404
300.0405412495338
300.0399093371751
300.0386680593149
300.03664676197
300.0337662234468
300.0300629050836
300.0256673401245
300.0207513856625
300.0154761360502
300.0099668620174
300.004318338551
299.9986143716463
299.9929426144223
299.9873936873272
299.9820428673525
299.9769254552932
299.9720385599073
299.9674264535332
299.9634035043788
299.9607228591308
299.9598050708021
299.959740236862
299.9597796134068
299.9599934141236
299.9605365420029
299.9615934960621
299.9633287687254
299.9658575172696
299.9692153691138
299.9733483587388
299.9781263340293
299.9833763455842
299.9889221646596
299.9946129698032
300.000332411171
300.0059940104987
300.0115372200354
300.0169308896702
300.0221728942903
300.0272596089859
300.0320857157476
300.0362377379695
300.0389090560118
300.0397828812516
300.039845119765
300.0398009197842
300.0396268364925
300.0391670543373
300.0382703908277
300.0367801531426
300.0345680048085
300.0315574788986
300.0277438044524
300.0231989910991
300.0180595908236
300.0125012664135
300.0067076224053
300.0008406651467
299.9950198386984
299.9893144076628
299.9837484403693
299.9783169379303
299.9730295667215
299.9680323950254
299.9638348938236
299.9612959790116
299.9605573878825
299.9605196782138
299.9605514376217
299.9607262199215
299.9611532577115
299.9619806843311
299.9633491852542
299.9653821843044
299.9681642744213
299.9717243971021
299.9760247685373
299.9809616704564
299.9863811991833
299.9921061332251
299.9979652878297
300.0038189421737
300.0095775151075
300.0152080405642
300.0207169682931
300.0260938426533
300.0311899916923
300.0355148543583
300.0382255621257
300.0390926524049
300.0391587872592
300.0391231453022
300.0389896850197
300.0386292457395
300.0379200103945
300.0367265419001
300.034924613183
300.0324158704265
300.0291454506035
300.025114833779
300.0203871617282
300.0150830867943
300.0093651079956
300.0034102828982
299.997377830649
299.9913834927164
299.9854902954544
299.9797220249519
299.974116370095
299.9688596330937
299.964509283498
299.9619277122384
299.9611845022588
299.9611424978598
299.9611657249005
299.9613045077106
299.9616493120389
299.9623249489018
299.9634536613627
299.9651513914587
299.9675125366029
299.9705963342158
299.9744139059703
299.9789207927819
299.9840190978654
299.9895696973252
299.9954121218933
300.001389940822
300.0073777530856
300.0132990587158
300.0191186346372
300.0247919745418
300.030146024787
300.0346773324597
300.0375414123132
300.0384944496255
300.0385793011473
300.0385534944994
300.0384534983812
300.0381689579208
300.037595842105
300.0366144712045
300.0351096839273
300.0329802847553
300.0301524438204
300.026591473403
300.0223108250269
300.0173763367075
300.0119021141363
300.0060349425363
299.9999296377341
299.9937235601467
299.9875197179713
299.98138959216
299.9754193190701
299.9698425166315
299.9652565422086
299.9625352188609
299.9617293554868
299.9616741935771
299.9616916019454
299.9618022871811
299.9620833890631
299.9626433976026
299.963590973753
299.9650337820009
299.9670667237854
299.9697613603377
299.9731546081599
299.9772400894036
299.9819652305869
299.9872350149568
299.992922269241
299.9988853621809
300.0049918504516
300.0111385675214
300.0172514775374
300.0232454990585
300.0289151808448
300.0337395405785
300.0368564873078
300.0379597932866
300.0380775489111
300.0380592813007
300.0379838347845
300.0377567560037
300.0372878635339
300.0364703932025
300.0351979846454
300.0333712611306
300.0309085106971
300.0277554962312
300.0238943495066
300.0193503457546
300.0141932896225
300.0085301025948
300.0024893080882
299.9962023051087
299.989787654156
299.9833492339716
299.9770150363598
299.971063160545
299.9661342258391
299.9631522789155
299.9622215357715
299.9621444038092
299.9621557283604
299.9622424703401
299.9624717398948
299.9629402090359
299.9637449786105
299.9649850930592
299.9667523537221
299.9691231904559
299.9721491099422
299.9758484332914
299.9802015718411
299.9851505050864
299.9906030719697
299.9964440916902
300.0025530960956
300.0088211984045
300.0151530540816
300.0214351496301
300.0274385232032
300.032630077763
300.036112867762
300.0374527477548
300.0376270417368
300.0376155058922
300.0375603151813
300.0373791247604
300.0369929065577
300.0363056142088
300.0352200630793
300.0336416348975
300.0314864402035
300.0286891633363
300.0252111140122
300.0210475325281
300.0162315495105
300.010832172292
300.0049462933216
299.9986868013792
299.9921699570213
299.9855142614902
299.9788732676725
299.9725559131003
299.9672244828602
299.963868242806
299.9627332836843
299.9626038248067
299.9626242948707
299.9626804307213
299.9628456971769
299.963204091018
299.963852075696
299.964890410238
299.9664159285254
299.9685137052102
299.9712474670404
299.9746508398139
299.9787213894606
299.9834189274958
299.9886692527049
299.9943726967367
300.0004162927927
300.0066836909571
300.0130723537285
300.0194626371625
300.0256204054079
300.031048524917
300.034804260737
300.0363556754891
300.0366802476406
300.0366824219159
300.0367021237557
300.0366683676136
300.0365453750958
300.0362324826683
300.0356057151673
300.0345380904261
300.0329175539291
300.0306532653463
300.0276787098475
300.0239539233837
300.019470061793
300.0142552338576
300.0083746451975
300.0019209368316
299.9949931681043
299.9877032195415
299.9802351664678
299.972898881861
299.9663351896088
299.9617688493972
299.9594805875114
299.957803968752
299.9565631263881
299.9556146873721
299.9548486990257
299.9542589080978
299.954003056284
299.9541836679025
299.9548230099745
299.9561161238742
299.9581961116548
299.9611139513
299.9648697554458
299.9694463288461
299.9748070124906
299.9808809272112
299.9875706099676
299.9947863696749
300.0024375300592
300.0103523290037
300.0182533843573
300.0256424711846
300.0314078293467
300.0350694652784
300.038185938668
300.0406032861339
300.0425200560848
300.0441084237678
300.0454215458632
300.046436717612
300.0469823173659
300.0468854072938
300.0461093315735
300.044571758376
300.0421268843047
300.0386648292977
300.0341491988239
300.0286288442418
300.0222130197428
300.0150297549757
300.007187155267
299.9988282469842
299.9902363853771
299.9818152519845
299.9742162099668
299.9684120406501
299.964582428348
299.9614994518544
299.9591886134914
299.9575380398091
299.9563461956407
299.9554930496868
299.9549590166642
299.9548698436313
299.9552955796551
299.9562254538845
299.9577874370965
299.9600956282588
299.9632538268027
299.9673038850195
299.9722183512094
299.9779264262781
299.9843373562378
299.9913564497046
299.9988823693133
300.0067132612104
300.0144888236331
300.021834099495
300.0281348211391
300.0325519227704
300.0359479867652
300.0387942133046
300.0410529298472
300.0428365291301
300.0442097390246
300.0451813300706
300.0457583660515
300.045798235017
300.0452176879387
300.0440116745333
300.0420005719119
300.039043847831
300.0350457502036
300.0300002258141
300.023967830144
300.017048104345
300.0093705738849
300.0011120256285
299.9925681210625
299.9841354416242
299.976287159461
299.9698180163185
299.965284398138
299.9619273712714
299.9592010704218
299.9572124146745
299.9558312847375
299.9549298782846
299.9544243611372
299.9543575503664
299.9547521381932
299.9555877175311
299.9569627038784
299.9589730121178
299.9617313569134
299.9653276305701
299.9698005244966
299.9751275222435
299.9812360238257
299.9880210037421
299.9953560359742
300.0030609575534
300.0108064091223
300.0181812387771
300.02482764836
300.0300771811864
300.0336672625814
300.0368448402912
300.039399528195
300.0414189874254
300.0429569510399
300.0440336829685
300.044711457707
300.044854724977
300.0443933899993
300.043382812173
300.0416626831691
300.0391050034785
300.0355926378208
300.031053647207
300.0254729631186
300.0189111872571
300.01150309169
300.0034278592973
299.9949495587877
299.9864623973561
299.9784039100862
299.9713661053145
299.9660497564263
299.9623635133017
299.9593060213865
299.9569968854256
299.9553830775936
299.954333802676
299.9537354655952
299.9536159866825
299.953975176339
299.9547427332359
299.9559912368198
299.9577921750901
299.9602542940322
299.963484052947
299.9675487243478
299.9724639419694
299.9781982645214
299.9846728534682
299.9917632319156
299.9992991211292
300.006994396118
300.0144443492967
300.0213281417677
300.0271570213137
300.0312695674437
300.0346214607926
300.0374536930415
300.0397265736114
300.0414817148693
300.0427421760857
300.0435491078705
300.0438172394126
300.0435026141351
300.0426656180113
300.0411994739329
300.0389730226611
300.0358496868371
300.0317358581779
300.0265985806871
300.0204661401078
300.0134255059448
300.0056201553776
299.9972807830677
299.9887756509792
299.9805270367426
299.9730211640206
299.9669985940511
299.9627709311516
299.9594675769668
299.9568281737559
299.9549422866049
299.9536991084702
299.9529493365017
299.9527224453308
299.9530113204962
299.9536914497206
299.9548237857431
299.9564640463949
299.95870263125
299.9616377452195
299.9653487749206
299.969881225421
299.9752366540512
299.9813640936761
299.988158642384
299.9954683894315
300.0030637883172
300.0105786371149
300.0176250777875
300.0238708960941
300.0287411885564
300.0321935549551
300.0353008133329
300.0378037569343
300.0397795854053
300.0412499490986
300.042226849238
300.0426745899406
300.0425566065479
300.0419019022347
300.0406548476467
300.0386864858608
300.0358798264875
300.0321512875847
300.0274508470256
300.0217569466815
300.0151049167544
300.0076153335635
299.9994881321754
299.9910348379958
299.9826616525529
299.974811431522
299.9681440768679
299.9632042041224
299.9596393734084
299.9566690586765
299.9544887224544
299.9530111009779
299.9520751640616
299.9517063559903
299.9518914827527
299.9524786559799
299.9535041646391
299.9550061460662
299.9570541259711
299.9597378745616
299.9631450516915
299.967335765113
299.9723279627033
299.9780958418667
299.9845659533066
299.9916141831819
299.9990542662345
300.0065689650514
300.0137545848549
300.02032442863
300.0257996959002
300.0296353037072
300.0329094575361
300.0356646717507
300.0378853650489
300.0395835926361
300.0407493978993
300.0414134314929
300.0415087593634
300.0410225162387
300.0399937168474
300.0382873167063
300.0358051836606
300.032449978421
300.0281401007592
300.0228335482661
300.0165584512443
300.0094171121814
300.0015626408921
299.9932386106131
299.9848232437873
299.9767335478895
299.9695115136124
299.9638496947492
299.959825853406
299.9565778914758
299.9540758959239
299.9523361198614
299.9512014745587
299.9506661394602
299.950705478349
299.9511862848404
299.9521052631382
299.9534807885915
299.9553634989627
299.9578333956273
299.9609752007499
299.9648539219494
299.9695041040649
299.974925006168
299.9810691114819
299.9878339869335
299.9950636032049
300.0025066857737
300.0097921902376
300.016575574272
300.0225011316883
300.0269931824697
300.0303667713222
300.0333609583921
300.0358037376944
300.0377142680908
300.0390956556482
300.0399739314408
300.0402845789998
300.0400170321025
300.0392312753395
300.0378063175718
300.035617510376
300.0325665172038
300.0285919092096
300.023664137032
300.0177855178069
300.0110052326941
300.0034386918243
299.9952941199695
299.986906368257
299.9786617435587
299.9710160215108
299.9646874026506
299.9600377855073
299.9565373841143
299.9536769154452
299.9516261307808
299.9502788914991
299.9495617564413
299.9494367683104
299.9498130068798
299.9506135448489
299.9518642282905
299.9535955838313
299.9558716011268
299.9587697507019
299.9623627944035
299.9667012616085
299.9717970768569
299.9776168836336
299.9840817326934
299.9910685989597
299.9983831601737
300.0056948684406
300.0126237878412
300.0188975985184
300.0240405457732
300.0276476730624
300.030830869352
300.0334889609663
300.0356181773708
300.0372324471031
300.0383254626756
300.0388691050999
300.0388534347808
300.0382911477228
300.0371148835911
300.0352023065271
300.0324762904499
300.0288766941716
300.0243427789431
300.0188333243131
300.012379258771
300.0051029419694
299.9971844852311
299.9888879646927
299.9805728608288
299.9726428195328
299.9657137315679
299.9603802703753
299.9564857275632
299.9533035698443
299.9509386764086
299.9493719854159
299.9484246205488
299.9480981713551
299.9483626294283
299.9490455691206
299.9501799069598
299.9517725977866
299.9538673652064
299.9565408927057
299.9598727315287
299.9639176147735
299.9686962908488
299.9741977112851
299.9803702943067
299.9871097211565
299.9942521683206
300.0015267696108
300.0085732084246
300.0150861213873
300.0206837900207
300.0248480385702
300.0281058848983
300.0309724256203
300.0333169879808
300.0351377763942
300.0364243452406
300.0371992286986
300.0374163067644
300.037076376477
300.0361988599464
300.0346237887628
300.0322414913455
300.0289757647924
300.0247689587796
300.0195945029004
300.0134817777578
300.0065204407967
299.9988439597198
299.9906705811314
299.9823362374768
299.9742048695198
299.9667958263769
299.9608139029712
299.9563899729038
299.9529077595349
299.9501853128344
299.9483178623319
299.9471287817001
299.9466180290542
299.9467488343935
299.9473149246317
299.9483268615423
299.9497854168752
299.9517212762057
299.9541966761996
299.9572841295036
299.961045733367
299.9655216979028
299.9707190038613
299.9765993231741
299.9830756350743
299.9900172471411
299.997211277485
300.0043190314117
300.0109997585536
300.016968411603
300.0217608620689
300.0251688542011
300.0282042556186
300.0307188789494
300.0327116358998
300.0341995350187
300.0351855971411
300.035636050282
300.0355621627142
300.0349657441604
300.0337070772129
300.031650480241
300.0287239238151
300.0248827785068
300.0200935389954
300.0143454251171
300.0076835581213
300.0002331148004
299.9922059186027
299.9839090976695
299.9756755664265
299.9679202154936
299.9613247486008
299.9562935955333
299.9524934064835
299.9494292244169
299.9472303393354
299.9457985845656
299.9450907734076
299.9450362247524
299.9454811663935
299.9463853772302
299.9477329228129
299.9495280355241
299.9518156445621
299.9546700529841
299.9581676917706
299.9623582832423
299.9672529964832
299.9728304206211
299.9790342650613
299.9857597570902
299.9928306612458
299.9999516730344
300.0067789336654
300.0130306447329
300.0182935529522
300.0221666527332
300.0252675741921
300.0279537867831
300.0301166153548
300.0317708733573
300.0329132113811
300.0335584135407
300.0337145211648
300.0333765975507
300.0324646901092
300.0307988970571
300.0282844183427
300.0248533867882
300.0204421901436
300.0150198386078
300.0086320733761
300.0014144764514
299.9935552834934
299.9853095378997
299.9769893440624
299.968960445574
299.96184085998
299.9562074825684
299.9519590861904
299.9485577852719
299.9459890162453
299.9443128826433
299.9433621766352
299.9430875441328
299.9434257149848
299.9442043715963
299.9454356356209
299.9471040981754
299.9492352352235
299.9518920887269
299.9551457659476
299.9590520578206
299.9636430815092
299.9689229222463
299.9748530239718
299.9813417628668
299.9882482768814
299.9953362899899
300.0022673293199
300.0087371271642
300.0144142652409
300.0188660638198
300.0220845613164
300.0249085808142
300.0271832299247
300.0289311836276
300.0301889075799
300.0309771664156
300.0313119049378
300.0312264194619
300.0306498673999
300.029378180877
300.0272785523435
300.024265139013
300.0202604686284
300.0152200070624
300.0091684435853
300.0022099558534
299.9945022473549
299.9862924881308
299.9779164179402
299.9697100734204
299.9621844606467
299.9559813115887
299.9511998945082
299.9475045272994
299.9445940829548
299.9426210267329
299.9413925809312
299.940896886523
299.9411005786413
299.9417570080848
299.9428796647103
299.9444429461582
299.9464436844736
299.9489195250302
299.9519372657409
299.9555697400497
299.9598690942348
299.9648478559406
299.9704797627675
299.9767039118368
299.9834159812435
299.9904242661072
299.997410619733
300.004058462173
300.010086222927
300.0150466191493
300.0186971025585
300.0216408681319
300.0240824074905
300.0259456608051
300.0272871328149
300.0281325761961
300.0285321638241
300.0285947244072
300.0282829103302
300.0274006473504
300.0257792747461
300.0232900935235
300.0198111832512
300.0152528038146
300.0095887307086
300.0028826540745
299.9952995385905
299.9871160379797
299.9786854890366
299.9703199667212
299.9624509599126
299.9557340802017
299.9504606321417
299.9464208314194
299.9432702887777
299.9409596033611
299.9394523626
299.9387224705334
299.9387004493103
299.9392004194851
299.9401971018722
299.9416568532758
299.9435570627739
299.9459063056236
299.9487492922968
299.952146818069
299.9561506688856
299.9607950602343
299.966096064041
299.9720314962751
299.9785159888238
299.985397533998
299.9924094510304
299.9992189651666
300.0055413610125
300.0109670415288
300.0151434527609
300.0182511206076
300.0208720601296
300.0228579964945
300.0242725845139
300.0251542527503
300.0255459104186
300.0256140941603
300.0253941854091
300.0247354333422
300.023494485387
300.0215361418987
300.0187048776544
300.0148334860982
300.0097745443229
300.0034696575298
299.996036719017
299.9877768722615
299.9791334530305
299.9705054678572
299.9623615228077
299.9553012904529
299.9496080171216
299.9451497964328
299.9417908938285
299.9391417639359
299.9373573121018
299.936301727324
299.9359352298573
299.9361376414821
299.9367428393088
299.9378524672669
299.939438187494
299.9414515692779
299.9438608962331
299.9466975920969
299.9501284455292
299.9544931924814
299.9602390462967
299.9676224253052
299.976487967503
299.9851351548907
299.9937219693512
)
;

boundaryField
{
    inlet
    {
        type            fixedValue;
        value           uniform 300;
    }
    outlet
    {
        type            inletOutlet;
        inletValue      uniform 300;
        value           uniform 299.9940868013651;
    }
    frontAndBack
    {
        type            empty;
    }
}


// ************************************************************************* //
