/*--------------------------------*- C++ -*----------------------------------*\
| =========                 |                                                 |
| \\      /  F ield         | OpenFOAM: The Open Source CFD Toolbox           |
|  \\    /   O peration     | Version:  v2012                                 |
|   \\  /    A nd           | Website:  www.openfoam.com                      |
|    \\/     M anipulation  |                                                 |
\*---------------------------------------------------------------------------*/
FoamFile
{
    version     2.0;
    format      ascii;
    class       volVectorField;
    location    "0.012";
    object      U;
}
// * * * * * * * * * * * * * * * * * * * * * * * * * * * * * * * * * * * * * //

dimensions      [0 1 -1 0 0 0 0];


internalField   nonuniform List<vector> 
1000
(
(-0.002752785089389583 0 0)
(-0.03441830185967697 0 0)
(-0.04261090217121707 0 0)
(-0.05781201301080396 0 0)
(-0.07171092754789435 0 0)
(-0.08461183306160465 0 0)
(-0.09561673051138553 0 0)
(-0.1050270464013662 0 0)
(-0.1131086229352851 0 0)
(-0.118611545550151 0 0)
(-0.1201842596598511 0 0)
(-0.1200591756165195 0 0)
(-0.1191907732174535 0 0)
(-0.1166557086493045 0 0)
(-0.1118027732272082 0 0)
(-0.1044467482408106 0 0)
(-0.09485975851571793 0 0)
(-0.08346629395445571 0 0)
(-0.07062704640178225 0 0)
(-0.05659586272611369 0 0)
(-0.04157810436318478 0 0)
(-0.02579387585207267 0 0)
(-0.009505727516712593 0 0)
(0.006985708145163911 0 0)
(0.02335837841539264 0 0)
(0.03928647757985387 0 0)
(0.05447436732583616 0 0)
(0.06872995861535518 0 0)
(0.08203699850732127 0 0)
(0.09445900271480037 0 0)
(0.1056344105079522 0 0)
(0.113953310363517 0 0)
(0.1175190795967612 0 0)
(0.1179153935509207 0 0)
(0.1177963615835716 0 0)
(0.1171192974074044 0 0)
(0.1153126948724125 0 0)
(0.111747293502622 0 0)
(0.1059286209699988 0 0)
(0.09762704323381306 0 0)
(0.08694480669772259 0 0)
(0.07425453893471171 0 0)
(0.0600504563399485 0 0)
(0.04479960153801393 0 0)
(0.0288665723478343 0 0)
(0.01252469044583077 0 0)
(-0.003985147930506902 0 0)
(-0.02040497921357634 0 0)
(-0.03646484018698689 0 0)
(-0.05194735781351727 0 0)
(-0.06675908530001383 0 0)
(-0.08090785374035851 0 0)
(-0.094250384647118 0 0)
(-0.105873370617803 0 0)
(-0.1136204341010707 0 0)
(-0.1162859221547125 0 0)
(-0.1164803884505644 0 0)
(-0.1163354478029236 0 0)
(-0.1157296731887351 0 0)
(-0.114152766709808 0 0)
(-0.1110960697955632 0 0)
(-0.1060776558693465 0 0)
(-0.09876419310338574 0 0)
(-0.08905150081238659 0 0)
(-0.07709718928526464 0 0)
(-0.06327883458956662 0 0)
(-0.04809427888188612 0 0)
(-0.03205087022716726 0 0)
(-0.01558791276721862 0 0)
(0.000953444419797632 0 0)
(0.01732629063417473 0 0)
(0.03336337760127712 0 0)
(0.04897168335761801 0 0)
(0.0641315605766775 0 0)
(0.0788328513419731 0 0)
(0.09279204997510886 0 0)
(0.1048184389264432 0 0)
(0.1125499936079374 0 0)
(0.1150567141874211 0 0)
(0.1152222439447647 0 0)
(0.1151312550420989 0 0)
(0.1146052543537787 0 0)
(0.1132820966879478 0 0)
(0.110687830021303 0 0)
(0.106376973011342 0 0)
(0.09997829422567478 0 0)
(0.09127202058110613 0 0)
(0.08024218640585885 0 0)
(0.06709510487480069 0 0)
(0.05222845062451447 0 0)
(0.03615359766638482 0 0)
(0.01939823247163773 0 0)
(0.002425171990170658 0 0)
(-0.01441658422917017 0 0)
(-0.03091691020063523 0 0)
(-0.04700864422041238 0 0)
(-0.06272205784615759 0 0)
(-0.07803000799015659 0 0)
(-0.09248609744857203 0 0)
(-0.1046094380090534 0 0)
(-0.1119455987666469 0 0)
(-0.1141030584530262 0 0)
(-0.1142312947147362 0 0)
(-0.114098734764175 0 0)
(-0.1136163246845102 0 0)
(-0.112374202479711 0 0)
(-0.1099816320536646 0 0)
(-0.1060235948104124 0 0)
(-0.1001430953606331 0 0)
(-0.09209420620450955 0 0)
(-0.08179542839076098 0 0)
(-0.06935768383757035 0 0)
(-0.05507810823043458 0 0)
(-0.03939915806145399 0 0)
(-0.02283728152868795 0 0)
(-0.005892603032439618 0 0)
(0.01103516298620046 0 0)
(0.02769554940447697 0 0)
(0.04398888841841884 0 0)
(0.05991929043518928 0 0)
(0.07545905576604306 0 0)
(0.09020113601862345 0 0)
(0.102728502038682 0 0)
(0.1105718494887839 0 0)
(0.113058802508321 0 0)
(0.11323639518758 0 0)
(0.1131723634002929 0 0)
(0.1127617820075436 0 0)
(0.1117267486153147 0 0)
(0.109674321453876 0 0)
(0.1062219552616663 0 0)
(0.1010097425035538 0 0)
(0.09375456491451047 0 0)
(0.08429589452082735 0 0)
(0.07263632860809295 0 0)
(0.05896088337087683 0 0)
(0.04362124960815995 0 0)
(0.02708428135942793 0 0)
(0.009857334793496016 0 0)
(-0.007595483505233578 0 0)
(-0.02493129599616478 0 0)
(-0.04197102459391982 0 0)
(-0.05865924239195018 0 0)
(-0.07488570244765591 0 0)
(-0.0900908260181727 0 0)
(-0.1026585579180267 0 0)
(-0.1101215261547516 0 0)
(-0.1122907598778492 0 0)
(-0.1124253446135157 0 0)
(-0.1123239307583819 0 0)
(-0.1119430861462475 0 0)
(-0.1109394409558504 0 0)
(-0.1089860246778488 0 0)
(-0.1057215281198845 0 0)
(-0.1008106613969492 0 0)
(-0.09397956980412049 0 0)
(-0.08505892579093954 0 0)
(-0.07401755947271964 0 0)
(-0.06098133539514273 0 0)
(-0.04623164906820457 0 0)
(-0.03017477784940305 0 0)
(-0.01327842263773314 0 0)
(0.004009809392420991 0 0)
(0.02133371005927212 0 0)
(0.0384663478480785 0 0)
(0.05529423307010042 0 0)
(0.07169402761604482 0 0)
(0.08718446763389262 0 0)
(0.1003061942153149 0 0)
(0.1085890754693592 0 0)
(0.1113271694951063 0 0)
(0.111563966782719 0 0)
(0.1115235166201814 0 0)
(0.1112108240525904 0 0)
(0.1103953195000789 0 0)
(0.1087364607380952 0 0)
(0.1058976597478218 0 0)
(0.1015449717025633 0 0)
(0.09538684064603564 0 0)
(0.08720811738639414 0 0)
(0.07690718064578007 0 0)
(0.06452504087351377 0 0)
(0.05025419855413955 0 0)
(0.03442180236077474 0 0)
(0.01744872118069531 0 0)
(-0.0002137856265750554 0 0)
(-0.01816209839886244 0 0)
(-0.03610191839196085 0 0)
(-0.05383708443464375 0 0)
(-0.07111576780952396 0 0)
(-0.08724548566376505 0 0)
(-0.1004979798075335 0 0)
(-0.1083681143372494 0 0)
(-0.1107145580951119 0 0)
(-0.110883780520685 0 0)
(-0.1108050562353117 0 0)
(-0.1105028954605 0 0)
(-0.1096840910361923 0 0)
(-0.1080651350537991 0 0)
(-0.1053245156686918 0 0)
(-0.1011509842989766 0 0)
(-0.09526945715949138 0 0)
(-0.08747468494501502 0 0)
(-0.07766048329149623 0 0)
(-0.06584289333811441 0 0)
(-0.05217289680618372 0 0)
(-0.03692884079396899 0 0)
(-0.02048092545281386 0 0)
(-0.00323415013349724 0 0)
(0.01443289926250508 0 0)
(0.03221580501095771 0 0)
(0.04989194782722495 0 0)
(0.06722213308460946 0 0)
(0.08362682857563872 0 0)
(0.09759240988530481 0 0)
(0.1066038777571388 0 0)
(0.109780690549826 0 0)
(0.1101162754932864 0 0)
(0.1100920662748313 0 0)
(0.1098523560613909 0 0)
(0.1092028544910885 0 0)
(0.1078453170711803 0 0)
(0.1054806392840606 0 0)
(0.1018001986485588 0 0)
(0.09651742949780594 0 0)
(0.0893944795444252 0 0)
(0.08027362067550636 0 0)
(0.06910520889182051 0 0)
(0.05596376017031518 0 0)
(0.04104823945492171 0 0)
(0.02466523344736807 0 0)
(0.007190314655122458 0 0)
(-0.01099169314438297 0 0)
(-0.02954261316561762 0 0)
(-0.04817040819702399 0 0)
(-0.06649978356758963 0 0)
(-0.08371233419725385 0 0)
(-0.0979589930728077 0 0)
(-0.1065867396067788 0 0)
(-0.1092923590982621 0 0)
(-0.1095207596764485 0 0)
(-0.109463534538674 0 0)
(-0.1092299321714437 0 0)
(-0.1085609621049125 0 0)
(-0.1072069321752571 0 0)
(-0.1048792399858976 0 0)
(-0.1012918747622488 0 0)
(-0.09617902433211198 0 0)
(-0.08932113392483416 0 0)
(-0.08056936778543021 0 0)
(-0.06986861245945428 0 0)
(-0.05727511363507241 0 0)
(-0.04295979510457556 0 0)
(-0.02719029934472097 0 0)
(-0.01029525078460718 0 0)
(0.007379483074603173 0 0)
(0.02551256497444461 0 0)
(0.04382240223521796 0 0)
(0.06198848414126216 0 0)
(0.07935895555660415 0 0)
(0.09438205085319455 0 0)
(0.1044472651208167 0 0)
(0.108309642177076 0 0)
(0.1088106735602652 0 0)
(0.1088026853609839 0 0)
(0.1086248655901405 0 0)
(0.1081135841011443 0 0)
(0.1070011018515865 0 0)
(0.1050182877580385 0 0)
(0.1018800679054152 0 0)
(0.09731122625433385 0 0)
(0.09106707228603757 0 0)
(0.08295960255642508 0 0)
(0.07288235212820698 0 0)
(0.06082825718345061 0 0)
(0.04689765234295312 0 0)
(0.03129372067493841 0 0)
(0.01429975966607022 0 0)
(-0.003761322826921971 0 0)
(-0.02256705123723556 0 0)
(-0.04179155120914501 0 0)
(-0.06100293169464364 0 0)
(-0.07931222146210985 0 0)
(-0.09480468631369683 0 0)
(-0.1046207007719616 0 0)
(-0.1080057825166455 0 0)
(-0.1084228838461746 0 0)
(-0.108415551306577 0 0)
(-0.1081890107960052 0 0)
(-0.1075739299006869 0 0)
(-0.1063438515762302 0 0)
(-0.1042503207059402 0 0)
(-0.101049406953518 0 0)
(-0.09651346548411951 0 0)
(-0.09044321526660906 0 0)
(-0.08268090477537858 0 0)
(-0.0731257064347213 0 0)
(-0.06174905315548915 0 0)
(-0.048605498037983 0 0)
(-0.03383485370494057 0 0)
(-0.0176494315988892 0 0)
(-0.0003004715070470507 0 0)
(0.01794331056585036 0 0)
(0.03681485176526418 0 0)
(0.05594047506069989 0 0)
(0.07457728540707664 0 0)
(0.09117939478207059 0 0)
(0.1028636833274266 0 0)
(0.1079661484637705 0 0)
(0.1093110015689966 0 0)
(0.1095203996281198 0 0)
(0.1091223879758873 0 0)
(0.1082103798710957 0 0)
(0.1066071164630144 0 0)
(0.1041578997888201 0 0)
(0.1006309455644883 0 0)
(0.09581352159493567 0 0)
(0.08953191746851857 0 0)
(0.08164951038969565 0 0)
(0.07207552766890987 0 0)
(0.060790574402358 0 0)
(0.04786195917553481 0 0)
(0.03343154518942901 0 0)
(0.01769823140214789 0 0)
(0.0009096992738377035 0 0)
(-0.01667033880472707 0 0)
(-0.03473033205515834 0 0)
(-0.05276311856449638 0 0)
(-0.06990652734246826 0 0)
(-0.08419050248816937 0 0)
(-0.09217675229585007 0 0)
(-0.09385165982333438 0 0)
(-0.09281335316492542 0 0)
(-0.0903429290891547 0 0)
(-0.08698165414378699 0 0)
(-0.08321734621337362 0 0)
(-0.07918422759470399 0 0)
(-0.07440768933011709 0 0)
(-0.06918627738781856 0 0)
(-0.06347964129448801 0 0)
(-0.05685116670528043 0 0)
(-0.04898980462938111 0 0)
(-0.03979518728198617 0 0)
(-0.02930388700812222 0 0)
(-0.0176061366151351 0 0)
(-0.004810087277184787 0 0)
(0.008951505472291395 0 0)
(0.02350765645731034 0 0)
(0.0386858946347636 0 0)
(0.05425370669337886 0 0)
(0.06972302869176156 0 0)
(0.08438398095483469 0 0)
(0.09673785006144897 0 0)
(0.103500293492477 0 0)
(0.1045762816051225 0 0)
(0.1026850875604806 0 0)
(0.09863991307022944 0 0)
(0.09316005894282722 0 0)
(0.08696943641147875 0 0)
(0.08045124610452957 0 0)
(0.07392067933106378 0 0)
(0.06725661365402974 0 0)
(0.05961578835783195 0 0)
(0.05222935850155431 0 0)
(0.04432051632459063 0 0)
(0.0356171448660199 0 0)
(0.02582156203803861 0 0)
(0.01487783183377616 0 0)
(0.002913249753645564 0 0)
(-0.009945792059120287 0 0)
(-0.02364786224684225 0 0)
(-0.0381868647266047 0 0)
(-0.05339500338041606 0 0)
(-0.06867653204304967 0 0)
(-0.08308519179527957 0 0)
(-0.09483074496087208 0 0)
(-0.1012705707626271 0 0)
(-0.1027100859963063 0 0)
(-0.1015941833641838 0 0)
(-0.09856469053779292 0 0)
(-0.09402334112265304 0 0)
(-0.0886667491674652 0 0)
(-0.08309137250818546 0 0)
(-0.07750194081145824 0 0)
(-0.07082694102269418 0 0)
(-0.06436744202737628 0 0)
(-0.05736115929939719 0 0)
(-0.04970275608190998 0 0)
(-0.04111029931984942 0 0)
(-0.03131790983254422 0 0)
(-0.02019063157210638 0 0)
(-0.007770446987311347 0 0)
(0.005778284776548633 0 0)
(0.02025411910198858 0 0)
(0.0354653121142939 0 0)
(0.05119521945665051 0 0)
(0.06693390038383748 0 0)
(0.08164527386744337 0 0)
(0.09417261154757237 0 0)
(0.1029425153950878 0 0)
(0.106081295292149 0 0)
(0.1054101650891 0 0)
(0.1026252520813011 0 0)
(0.09798953637150133 0 0)
(0.09204907012879782 0 0)
(0.0853123326927555 0 0)
(0.0782342313826395 0 0)
(0.07116435637809823 0 0)
(0.06293221803290774 0 0)
(0.05541749979759959 0 0)
(0.0475366886731169 0 0)
(0.03924731448627494 0 0)
(0.03022621481274311 0 0)
(0.02021127747511062 0 0)
(0.009059845363132816 0 0)
(-0.003239886373859405 0 0)
(-0.01659295228182191 0 0)
(-0.03086443734882646 0 0)
(-0.04585175417253325 0 0)
(-0.06100309510199232 0 0)
(-0.0753906024877633 0 0)
(-0.08777514461892814 0 0)
(-0.09612324619244056 0 0)
(-0.09919051134007553 0 0)
(-0.09905228421801746 0 0)
(-0.09712356987261171 0 0)
(-0.09345430215338892 0 0)
(-0.08852107854917264 0 0)
(-0.08291900098902458 0 0)
(-0.07701378270118406 0 0)
(-0.0700364748830718 0 0)
(-0.06333223147217709 0 0)
(-0.05626017367169749 0 0)
(-0.04880097813445905 0 0)
(-0.0406979631347202 0 0)
(-0.03163566939561631 0 0)
(-0.02137527992121143 0 0)
(-0.009819537744324517 0 0)
(0.003012967662157358 0 0)
(0.0170091507335392 0 0)
(0.03195273220602636 0 0)
(0.04754342524609372 0 0)
(0.06329730157876021 0 0)
(0.07827853358276103 0 0)
(0.09139628086844818 0 0)
(0.1015969117395107 0 0)
(0.1068610681967672 0 0)
(0.1075472840484085 0 0)
(0.1057602669753421 0 0)
(0.1019749338847638 0 0)
(0.09660330298834319 0 0)
(0.09013725897136864 0 0)
(0.08294144194358385 0 0)
(0.07545343455844591 0 0)
(0.06700510263499537 0 0)
(0.05904119445371988 0 0)
(0.05098712873011572 0 0)
(0.04281775491028748 0 0)
(0.03417168422711431 0 0)
(0.02473487526721359 0 0)
(0.01430917506419904 0 0)
(0.00280664218234828 0 0)
(-0.009801590659726989 0 0)
(-0.02346736446540031 0 0)
(-0.03801166358832148 0 0)
(-0.05294959607539196 0 0)
(-0.06739463949578939 0 0)
(-0.08032633199244109 0 0)
(-0.09018662160511537 0 0)
(-0.09511502678670561 0 0)
(-0.09605134897720465 0 0)
(-0.09495895656058312 0 0)
(-0.09209099018191674 0 0)
(-0.08769714372800771 0 0)
(-0.0823543068837039 0 0)
(-0.07645517676422325 0 0)
(-0.0693618195521703 0 0)
(-0.06242518340958148 0 0)
(-0.05518427195510012 0 0)
(-0.04767563383422384 0 0)
(-0.03972884994823603 0 0)
(-0.03109127507264583 0 0)
(-0.021504522054474 0 0)
(-0.01076433678880087 0 0)
(0.001244095922835817 0 0)
(0.01451126573501398 0 0)
(0.02888661703499172 0 0)
(0.04408773678393234 0 0)
(0.05968939548891525 0 0)
(0.07493828759718066 0 0)
(0.08868190765267621 0 0)
(0.09987922192501225 0 0)
(0.10727234854188 0 0)
(0.1096458220247068 0 0)
(0.1087476572351469 0 0)
(0.1058907118502069 0 0)
(0.1012500754817736 0 0)
(0.09522006840357078 0 0)
(0.08812549997401592 0 0)
(0.08043193677828116 0 0)
(0.07194439967694043 0 0)
(0.06344491875074298 0 0)
(0.05505597635887553 0 0)
(0.04667826513650764 0 0)
(0.03807266202248239 0 0)
(0.02898399307338168 0 0)
(0.01918512976070285 0 0)
(0.008463904829832948 0 0)
(-0.003346865233740241 0 0)
(-0.01626494204283542 0 0)
(-0.03014338507515985 0 0)
(-0.04463911475234592 0 0)
(-0.05903121707601766 0 0)
(-0.07236257795685132 0 0)
(-0.08336571768921337 0 0)
(-0.09017498507916522 0 0)
(-0.09237445260006703 0 0)
(-0.09199915845592251 0 0)
(-0.08994777906494002 0 0)
(-0.08621888771675576 0 0)
(-0.08125594683376115 0 0)
(-0.07549420719704118 0 0)
(-0.0685134809433301 0 0)
(-0.0613936223274348 0 0)
(-0.05400269699539325 0 0)
(-0.04638633048452852 0 0)
(-0.03844910005521972 0 0)
(-0.0300116376624424 0 0)
(-0.020836873506712 0 0)
(-0.01070178580343881 0 0)
(0.0005554375081857667 0 0)
(0.01301265919056109 0 0)
(0.02663444288781402 0 0)
(0.04123168649971157 0 0)
(0.05645960561016731 0 0)
(0.07170960891127952 0 0)
(0.08592387371226076 0 0)
(0.09804218020160464 0 0)
(0.1071523191629337 0 0)
(0.1114359476679654 0 0)
(0.1116775083566657 0 0)
(0.1097283491198518 0 0)
(0.1058167905026673 0 0)
(0.1002937643180394 0 0)
(0.09348256427273735 0 0)
(0.0858037423020158 0 0)
(0.07745476271854652 0 0)
(0.06836216395683042 0 0)
(0.05966276299357164 0 0)
(0.05099600622268415 0 0)
(0.04229864247608143 0 0)
(0.03334426329128841 0 0)
(0.02388580159623123 0 0)
(0.01369438142359775 0 0)
(0.002597476628539438 0 0)
(-0.009482906163227924 0 0)
(-0.02252601683321741 0 0)
(-0.03636623611509459 0 0)
(-0.05046230167272502 0 0)
(-0.06392029845774556 0 0)
(-0.07571309605581003 0 0)
(-0.08417971207194888 0 0)
(-0.08791115567806976 0 0)
(-0.08836738540797817 0 0)
(-0.08708665846861259 0 0)
(-0.08407546720078836 0 0)
(-0.07959918465050701 0 0)
(-0.0741205030758107 0 0)
(-0.06746044051281737 0 0)
(-0.06018979266957623 0 0)
(-0.05267961355223302 0 0)
(-0.04492652813294838 0 0)
(-0.03690898759373001 0 0)
(-0.02851250879801297 0 0)
(-0.01955469950984125 0 0)
(-0.009844143906164525 0 0)
(0.0007974234768956439 0 0)
(0.01251388831757534 0 0)
(0.02535804313708551 0 0)
(0.0392328989180641 0 0)
(0.05388347860991272 0 0)
(0.06885991977773805 0 0)
(0.08333278689796116 0 0)
(0.09618190751894862 0 0)
(0.1064353946300152 0 0)
(0.1127793126466802 0 0)
(0.114490845822759 0 0)
(0.1133461339924533 0 0)
(0.1102844271048231 0 0)
(0.1053989147175435 0 0)
(0.09901682318480406 0 0)
(0.09149334538922348 0 0)
(0.08326047158654909 0 0)
(0.07373666936669825 0 0)
(0.06480110745632683 0 0)
(0.05585248495790143 0 0)
(0.04692958388423677 0 0)
(0.03784270428979057 0 0)
(0.02844486961542115 0 0)
(0.01859924001293167 0 0)
(0.008126719752940282 0 0)
(-0.003174923949189412 0 0)
(-0.01540416961833557 0 0)
(-0.0284772444148278 0 0)
(-0.04203244949546793 0 0)
(-0.05535123046387634 0 0)
(-0.06756072790123581 0 0)
(-0.07727750436679331 0 0)
(-0.08274032430904309 0 0)
(-0.08424642585110413 0 0)
(-0.08365851424498588 0 0)
(-0.08141085820909001 0 0)
(-0.07747742154565397 0 0)
(-0.07236829531447857 0 0)
(-0.06622790183807506 0 0)
(-0.05886712931256107 0 0)
(-0.05137234164856072 0 0)
(-0.04350928598590974 0 0)
(-0.03536837553057694 0 0)
(-0.02691528561218366 0 0)
(-0.01803646898403033 0 0)
(-0.008577507289616433 0 0)
(0.001632405731258038 0 0)
(0.01274672489530045 0 0)
(0.02485938792522271 0 0)
(0.03796486551914673 0 0)
(0.0519213164499251 0 0)
(0.06642332805779252 0 0)
(0.08084893099971568 0 0)
(0.0941445623500666 0 0)
(0.1053261110839493 0 0)
(0.1134522752815391 0 0)
(0.1169102877506667 0 0)
(0.1167583887544271 0 0)
(0.1145707329023874 0 0)
(0.1104492537045141 0 0)
(0.1046482396856379 0 0)
(0.0974386410380944 0 0)
(0.08922839848725576 0 0)
(0.07995552240770669 0 0)
(0.07044930484375886 0 0)
(0.06109014263636907 0 0)
(0.05181478552089127 0 0)
(0.04253973791494966 0 0)
(0.03317565054804735 0 0)
(0.02358135636023154 0 0)
(0.01353339753833021 0 0)
(0.00280892050077339 0 0)
(-0.008690031375767324 0 0)
(-0.02094026078217469 0 0)
(-0.03378756565231416 0 0)
(-0.0467341449514548 0 0)
(-0.05901947265642874 0 0)
(-0.06957209647396508 0 0)
(-0.07661304136290537 0 0)
(-0.07933078074897745 0 0)
(-0.07945843061006146 0 0)
(-0.07800079385157661 0 0)
(-0.07475310706717246 0 0)
(-0.07016013114343037 0 0)
(-0.06453398631585751 0 0)
(-0.05723720906978965 0 0)
(-0.04982094371864247 0 0)
(-0.04192452718473778 0 0)
(-0.03370671462746437 0 0)
(-0.02520063266984978 0 0)
(-0.0163334939088926 0 0)
(-0.006984010439299256 0 0)
(0.002968796587488506 0 0)
(0.0136390818853411 0 0)
(0.02513915855798686 0 0)
(0.0375393120011842 0 0)
(0.05078994047474109 0 0)
(0.06468935377260418 0 0)
(0.07880656414872636 0 0)
(0.09230758142639382 0 0)
(0.1041855217143411 0 0)
(0.1135257619187694 0 0)
(0.118927836116236 0 0)
(0.1201186018430812 0 0)
(0.1188030425964366 0 0)
(0.1155574212719093 0 0)
(0.1104243204859152 0 0)
(0.1036589588159182 0 0)
(0.09562401822646395 0 0)
(0.08669919974888676 0 0)
(0.07657097727651695 0 0)
(0.06698298728776649 0 0)
(0.05740827312095621 0 0)
(0.0478892366278099 0 0)
(0.03832670261888153 0 0)
(0.02863449824898048 0 0)
(0.018717486341815 0 0)
(0.008447182374046654 0 0)
(-0.00233620983441868 0 0)
(-0.01376729045206256 0 0)
(-0.0258518027732552 0 0)
(-0.03825490924259282 0 0)
(-0.05032272376202775 0 0)
(-0.06125564077201219 0 0)
(-0.06954932255593356 0 0)
(-0.07374226401523261 0 0)
(-0.07472153801359684 0 0)
(-0.07392322583066749 0 0)
(-0.0713993705129788 0 0)
(-0.06735001272407537 0 0)
(-0.06217594084768419 0 0)
(-0.05538107595364563 0 0)
(-0.04804410683696678 0 0)
(-0.04020524396763505 0 0)
(-0.03195100475501281 0 0)
(-0.02336179025627249 0 0)
(-0.01444762911936623 0 0)
(-0.005148738967241407 0 0)
(0.004622596883792545 0 0)
(0.01497476307247082 0 0)
(0.02602193551901718 0 0)
(0.03783961607764103 0 0)
(0.05042223826427315 0 0)
(0.06366381812100205 0 0)
(0.07730810126643588 0 0)
(0.09074869393199041 0 0)
(0.1030183733334 0 0)
(0.1132381854259802 0 0)
(0.1204010748634367 0 0)
(0.1231912798135072 0 0)
(0.1228193374241269 0 0)
(0.120526749271842 0 0)
(0.1162571963977942 0 0)
(0.110177204995028 0 0)
(0.1025489417522846 0 0)
(0.09375827504874175 0 0)
(0.08366975582972559 0 0)
(0.07361692273732022 0 0)
(0.06361544794257873 0 0)
(0.05367052986850991 0 0)
(0.04377804794574153 0 0)
(0.03397466007117502 0 0)
(0.02421202174509332 0 0)
(0.01431338502873411 0 0)
(0.004044656226780479 0 0)
(-0.006743075325920272 0 0)
(-0.01806527001557238 0 0)
(-0.0297563991261751 0 0)
(-0.0413880290654419 0 0)
(-0.05237206823153692 0 0)
(-0.06150510840397334 0 0)
(-0.06706199625933722 0 0)
(-0.06895630791460543 0 0)
(-0.06880321268371523 0 0)
(-0.06712199013892005 0 0)
(-0.06374157096719624 0 0)
(-0.0590408855472297 0 0)
(-0.05289534411035438 0 0)
(-0.04565855112610095 0 0)
(-0.03796899432867019 0 0)
(-0.02976909179557027 0 0)
(-0.02116868648706527 0 0)
(-0.01222982946313229 0 0)
(-0.002934492283022821 0 0)
(0.006779228964417957 0 0)
(0.01697678551443487 0 0)
(0.02771557264456777 0 0)
(0.03905566142475033 0 0)
(0.05104620536983765 0 0)
(0.06366148550232965 0 0)
(0.07674774312136116 0 0)
(0.08989412410814052 0 0)
(0.1023057599933331 0 0)
(0.1131452433990538 0 0)
(0.121545501716985 0 0)
(0.1260994413865585 0 0)
(0.1269415125825873 0 0)
(0.1255865437189756 0 0)
(0.1222767496304064 0 0)
(0.116996807917717 0 0)
(0.1099378067849247 0 0)
(0.1014141399021596 0 0)
(0.0917365974104825 0 0)
(0.08110479596059916 0 0)
(0.07076862956449063 0 0)
(0.06044146803286326 0 0)
(0.05021252754244432 0 0)
(0.04015517737673188 0 0)
(0.03026460462734829 0 0)
(0.02041836954922864 0 0)
(0.01045456590585563 0 0)
(0.0002536520696167835 0 0)
(-0.01028736306059108 0 0)
(-0.02122504866947326 0 0)
(-0.03231710765086351 0 0)
(-0.04307240449642399 0 0)
(-0.05265090884830254 0 0)
(-0.05940771917654532 0 0)
(-0.06242488031011433 0 0)
(-0.06299982505889928 0 0)
(-0.06206477016527564 0 0)
(-0.05935400890804912 0 0)
(-0.05521579347955003 0 0)
(-0.04990291900803125 0 0)
(-0.04280280805028274 0 0)
(-0.03542221541473687 0 0)
(-0.02734486785683349 0 0)
(-0.01877333610283162 0 0)
(-0.009818023334041175 0 0)
(-0.0005010804766673946 0 0)
(0.009194230115588987 0 0)
(0.01928837045910386 0 0)
(0.02981502246644851 0 0)
(0.04083281830275386 0 0)
(0.05238914103891859 0 0)
(0.06446579089703362 0 0)
(0.07697108434885894 0 0)
(0.08967795413193815 0 0)
(0.1020061550786457 0 0)
(0.1131373410189523 0 0)
(0.122319416647492 0 0)
(0.1284864491374938 0 0)
(0.130721863454082 0 0)
(0.1302974062531262 0 0)
(0.1280678814626376 0 0)
(0.123814658369352 0 0)
(0.1176041507914142 0 0)
(0.1096443318351243 0 0)
(0.1002945791364651 0 0)
(0.08956686826711781 0 0)
(0.07885543392977738 0 0)
(0.06808850940382888 0 0)
(0.05733846954256628 0 0)
(0.0467692721148956 0 0)
(0.03652157233390173 0 0)
(0.02660341516379144 0 0)
(0.01690246895396432 0 0)
(0.007225218504925364 0 0)
(-0.002639500636609679 0 0)
(-0.01282847893726873 0 0)
(-0.02321175375155748 0 0)
(-0.03346503802375724 0 0)
(-0.04307948872970618 0 0)
(-0.05064844498582291 0 0)
(-0.05482677261374567 0 0)
(-0.05616380762402214 0 0)
(-0.05583485307535153 0 0)
(-0.05388791111398988 0 0)
(-0.05041528411398437 0 0)
(-0.04572939968672956 0 0)
(-0.03911602140361081 0 0)
(-0.03202062825970538 0 0)
(-0.02419357147723377 0 0)
(-0.01574931641509702 0 0)
(-0.006825635606001715 0 0)
(0.002497238211666188 0 0)
(0.01219326803677133 0 0)
(0.02226217695254544 0 0)
(0.03271164650506082 0 0)
(0.04354486361783772 0 0)
(0.05476326174711112 0 0)
(0.06637299081746664 0 0)
(0.07835139899416388 0 0)
(0.09057542800785891 0 0)
(0.1026406266902084 0 0)
(0.1138408510318921 0 0)
(0.1235400420237159 0 0)
(0.13087828108571 0 0)
(0.1346042297889994 0 0)
(0.1352407021123248 0 0)
(0.1340305897691077 0 0)
(0.1308996429929896 0 0)
(0.1257581903131677 0 0)
(0.1186827187652964 0 0)
(0.1098622857586485 0 0)
(0.09963603371521446 0 0)
(0.08854230282413579 0 0)
(0.07738207909294004 0 0)
(0.06607712355406888 0 0)
(0.05491102590043998 0 0)
(0.04416500372065631 0 0)
(0.03396203119865088 0 0)
(0.02424202555621812 0 0)
(0.01481292899474604 0 0)
(0.005471211347606608 0 0)
(-0.003941085247540053 0 0)
(-0.01347181333898185 0 0)
(-0.02304214767278894 0 0)
(-0.03242011353551109 0 0)
(-0.04052787650257277 0 0)
(-0.04578286135075445 0 0)
(-0.04797041705819517 0 0)
(-0.04829569564952039 0 0)
(-0.04721218242149233 0 0)
(-0.0444545936957056 0 0)
(-0.04031142664128395 0 0)
(-0.03446546372761723 0 0)
(-0.02761413219905519 0 0)
(-0.0200848250169795 0 0)
(-0.01186649125187253 0 0)
(-0.003079534877518829 0 0)
(0.006169642962385307 0 0)
(0.0158417174588475 0 0)
(0.02591648137773239 0 0)
(0.03634723347386733 0 0)
(0.04708225876655057 0 0)
(0.05810763277932586 0 0)
(0.06943326045121735 0 0)
(0.08102477415558204 0 0)
(0.09278878691468419 0 0)
(0.1044986052761811 0 0)
(0.1156082268385503 0 0)
(0.1254978479881451 0 0)
(0.1335266074346084 0 0)
(0.138604057831161 0 0)
(0.140325454104975 0 0)
(0.1399392559589569 0 0)
(0.1378901795631852 0 0)
(0.1338926975665075 0 0)
(0.1279227547874977 0 0)
(0.1199858072539758 0 0)
(0.1103988897782573 0 0)
(0.09946880058896143 0 0)
(0.08812327915285602 0 0)
(0.07630053457668071 0 0)
(0.06437664709380168 0 0)
(0.0528015268568051 0 0)
(0.04187678307318504 0 0)
(0.03170889888153782 0 0)
(0.0222471161916363 0 0)
(0.01334331306792207 0 0)
(0.004746612207458912 0 0)
(-0.003843509803968878 0 0)
(-0.01256905271251616 0 0)
(-0.02139765979686535 0 0)
(-0.02962839316134036 0 0)
(-0.03571713689586371 0 0)
(-0.03899243678347647 0 0)
(-0.04015680108213744 0 0)
(-0.03982933858935678 0 0)
(-0.03780495668975276 0 0)
(-0.0342449894359062 0 0)
(-0.0293467409538029 0 0)
(-0.02260144134117695 0 0)
(-0.01547389631980267 0 0)
(-0.007553356435337938 0 0)
(0.001001483228029834 0 0)
(0.01008958519182261 0 0)
(0.01965032353801371 0 0)
(0.0296452547931576 0 0)
(0.04003640094551868 0 0)
(0.05077756943918801 0 0)
(0.06180380036818537 0 0)
(0.07302810717040446 0 0)
(0.08436587549260607 0 0)
(0.09575392006570765 0 0)
(0.107082276417048 0 0)
(0.1179573835800396 0 0)
(0.1278299427300233 0 0)
(0.1362713953825849 0 0)
(0.1423645238751741 0 0)
(0.1451986723576001 0 0)
(0.1456256452379937 0 0)
(0.1444824792089783 0 0)
(0.1415343017648091 0 0)
(0.1367451113948469 0 0)
(0.1300074898707994 0 0)
(0.1213859288545223 0 0)
(0.1112773217340116 0 0)
(0.1003140071584619 0 0)
(0.08844601876298254 0 0)
(0.07602619322261274 0 0)
(0.0635475554454577 0 0)
(0.05146124725253685 0 0)
(0.04015158378518704 0 0)
(0.02993532728080106 0 0)
(0.02096157162300544 0 0)
(0.01305881615989155 0 0)
(0.005710771010044086 0 0)
(-0.001586731422349034 0 0)
(-0.009279096696398934 0 0)
(-0.01714788313662814 0 0)
(-0.02388235809011755 0 0)
(-0.02848136522102812 0 0)
(-0.03085312726279557 0 0)
(-0.03137145392412951 0 0)
(-0.03017830869998599 0 0)
(-0.02730367877082217 0 0)
(-0.02305100439868894 0 0)
(-0.01675632668610615 0 0)
(-0.009851433782083779 0 0)
(-0.002154919403831257 0 0)
(0.006217556069700828 0 0)
(0.01511326061582899 0 0)
(0.02444349165628005 0 0)
(0.0341952737072637 0 0)
(0.04438279719109232 0 0)
(0.05500009879658266 0 0)
(0.06599539322234402 0 0)
(0.07728034002864417 0 0)
(0.08863010140076784 0 0)
(0.1001879593015252 0 0)
(0.1103333567444243 0 0)
(0.1263477732965704 0 0)
)
;

boundaryField
{
    inlet
    {
        type            zeroGradient;
    }
    outlet
    {
        type            pressureInletOutletVelocity;
        value           uniform (0.1263477732965704 0 0);
    }
    frontAndBack
    {
        type            empty;
    }
}


// ************************************************************************* //
