/*--------------------------------*- C++ -*----------------------------------*\
| =========                 |                                                 |
| \\      /  F ield         | OpenFOAM: The Open Source CFD Toolbox           |
|  \\    /   O peration     | Version:  v2012                                 |
|   \\  /    A nd           | Website:  www.openfoam.com                      |
|    \\/     M anipulation  |                                                 |
\*---------------------------------------------------------------------------*/
FoamFile
{
    version     2.0;
    format      ascii;
    class       volVectorField;
    location    "0.012";
    object      UMean;
}
// * * * * * * * * * * * * * * * * * * * * * * * * * * * * * * * * * * * * * //

dimensions      [0 1 -1 0 0 0 0];


internalField   nonuniform List<vector> 
1000
(
(-2.821681343396157e-05 0 0)
(1.925735510309678e-06 0 0)
(1.954939142756627e-05 0 0)
(5.308995407418263e-05 0 0)
(9.245842458190966e-05 0 0)
(0.0001341836074591027 0 0)
(0.000187714249333553 0 0)
(0.0002446518114130894 0 0)
(0.0003111909974478477 0 0)
(0.0003810186532659394 0 0)
(0.0004536107394949886 0 0)
(0.0005257588257930642 0 0)
(0.0005975064924912767 0 0)
(0.0006683021305778624 0 0)
(0.0007370340264145057 0 0)
(0.0008023751877266392 0 0)
(0.0008626540001097436 0 0)
(0.0009168352695767459 0 0)
(0.0009637490589896696 0 0)
(0.001002753003765168 0 0)
(0.001033106072089285 0 0)
(0.001054239656582928 0 0)
(0.001065826402242948 0 0)
(0.001067528363609245 0 0)
(0.001059434249782982 0 0)
(0.001041536099018081 0 0)
(0.001014357236216526 0 0)
(0.0009782231688387248 0 0)
(0.000933846885561124 0 0)
(0.0008816125358046634 0 0)
(0.0008222305618239646 0 0)
(0.0007566162263565122 0 0)
(0.0006871571799424537 0 0)
(0.0006164484158313408 0 0)
(0.0005457780431315634 0 0)
(0.0004752944665297751 0 0)
(0.0004055279019045749 0 0)
(0.0003372592084838446 0 0)
(0.0002716932101026351 0 0)
(0.0002102041654641938 0 0)
(0.000154289057770036 0 0)
(0.0001052360246955963 0 0)
(6.416647037721511e-05 0 0)
(3.183270307148156e-05 0 0)
(8.817734103262561e-06 0 0)
(-4.562389830243276e-06 0 0)
(-8.086272648175935e-06 0 0)
(-1.743797893420939e-06 0 0)
(1.437672159865306e-05 0 0)
(3.997443254295156e-05 0 0)
(7.470749174903269e-05 0 0)
(0.0001181518502868271 0 0)
(0.0001699389799612426 0 0)
(0.000229415476591404 0 0)
(0.0002951044494033642 0 0)
(0.0003641721778271587 0 0)
(0.0004340555383550019 0 0)
(0.0005038960668947032 0 0)
(0.0005735623219228226 0 0)
(0.0006425723820835909 0 0)
(0.0007103245937662839 0 0)
(0.0007757055887742323 0 0)
(0.0008375776238239152 0 0)
(0.0008944244105431367 0 0)
(0.0009449514786520248 0 0)
(0.0009878096988690627 0 0)
(0.001022106085501401 0 0)
(0.001047043253887802 0 0)
(0.001062316214941265 0 0)
(0.001067650589904016 0 0)
(0.001063169256247744 0 0)
(0.001048888945316037 0 0)
(0.001025158057922989 0 0)
(0.0009921187592005756 0 0)
(0.0009501480449146848 0 0)
(0.0008994196969681051 0 0)
(0.0008407423823574617 0 0)
(0.0007756841824639508 0 0)
(0.0007073749303709744 0 0)
(0.0006382394859603945 0 0)
(0.0005691799386903995 0 0)
(0.0005002508611499616 0 0)
(0.0004318651630939545 0 0)
(0.0003645581307948372 0 0)
(0.0002992509332228734 0 0)
(0.0002370089365420595 0 0)
(0.0001791988604202317 0 0)
(0.0001271390616846712 0 0)
(8.223637161765119e-05 0 0)
(4.559973773317529e-05 0 0)
(1.818854780765777e-05 0 0)
(5.482711558968618e-07 0 0)
(-6.967179595656893e-06 0 0)
(-4.383232146974977e-06 0 0)
(8.254705291445407e-06 0 0)
(3.065059670356084e-05 0 0)
(6.264803760234795e-05 0 0)
(0.0001039549542952686 0 0)
(0.0001543277760159116 0 0)
(0.0002129172283297557 0 0)
(0.000277789495925212 0 0)
(0.0003456873948924612 0 0)
(0.0004142322087965803 0 0)
(0.0004827077211637642 0 0)
(0.0005510873938219346 0 0)
(0.0006188967242957395 0 0)
(0.000685772045146785 0 0)
(0.0007507387109789596 0 0)
(0.0008129524759771466 0 0)
(0.0008710223065227514 0 0)
(0.00092380748236094 0 0)
(0.0009698048665140854 0 0)
(0.001007982497830888 0 0)
(0.00103716592487271 0 0)
(0.001056836284620525 0 0)
(0.001066389599004401 0 0)
(0.001065887532919706 0 0)
(0.001055210899628364 0 0)
(0.001034736330309705 0 0)
(0.001004486665212084 0 0)
(0.000964850310832811 0 0)
(0.0009159329394391395 0 0)
(0.0008586848854875858 0 0)
(0.0007948302004980874 0 0)
(0.0007277261324602122 0 0)
(0.0006597706538411147 0 0)
(0.0005919121255312213 0 0)
(0.0005241143088459181 0 0)
(0.0004567739107177748 0 0)
(0.0003902533661667798 0 0)
(0.0003253549961410293 0 0)
(0.0002629024083992823 0 0)
(0.0002041219853278016 0 0)
(0.0001501742443752636 0 0)
(0.0001024825193405042 0 0)
(6.221616822177126e-05 0 0)
(3.06055796842438e-05 0 0)
(8.428792986651795e-06 0 0)
(-3.615894598390461e-06 0 0)
(-5.338599259785347e-06 0 0)
(3.42377696520744e-06 0 0)
(2.245181135819184e-05 0 0)
(5.167470265471278e-05 0 0)
(9.075489557551462e-05 0 0)
(0.0001394435839568756 0 0)
(0.0001966981854496431 0 0)
(0.0002604505882176082 0 0)
(0.0003272395296748819 0 0)
(0.000394714315253278 0 0)
(0.0004621133583310215 0 0)
(0.0005294544997261826 0 0)
(0.0005963159356709779 0 0)
(0.0006624416989698096 0 0)
(0.0007269738192167762 0 0)
(0.0007892518511661417 0 0)
(0.0008480107671003755 0 0)
(0.0009022731303639826 0 0)
(0.0009505609246845548 0 0)
(0.0009918480024463394 0 0)
(0.001024796578391279 0 0)
(0.001048692777524932 0 0)
(0.001062652079649375 0 0)
(0.001066490406536215 0 0)
(0.001059854359521769 0 0)
(0.001042987029010156 0 0)
(0.001015817108753035 0 0)
(0.0009787465564126069 0 0)
(0.0009318928270914697 0 0)
(0.0008763156509713341 0 0)
(0.00081379390485431 0 0)
(0.0007478180141439432 0 0)
(0.0006808729955780894 0 0)
(0.0006140203071708863 0 0)
(0.0005471762177852431 0 0)
(0.0004807179264156221 0 0)
(0.0004148900400805311 0 0)
(0.0003504095802818745 0 0)
(0.00028793078388634 0 0)
(0.0002285652069506567 0 0)
(0.000173312923536315 0 0)
(0.0001235498499438931 0 0)
(8.03925702717416e-05 0 0)
(4.519204131356322e-05 0 0)
(1.885161576401045e-05 0 0)
(2.356918323504535e-06 0 0)
(-3.873672105768481e-06 0 0)
(6.240635683425343e-07 0 0)
(1.58095300568813e-05 0 0)
(4.177788615903365e-05 0 0)
(7.822155843311446e-05 0 0)
(0.0001248884913253102 0 0)
(0.0001806036800272109 0 0)
(0.0002431691440597096 0 0)
(0.0003089423884830911 0 0)
(0.0003754876549105492 0 0)
(0.0004419545493477328 0 0)
(0.000508415370077369 0 0)
(0.0005744526284835579 0 0)
(0.0006399170101638565 0 0)
(0.0007040221464108788 0 0)
(0.0007662474061100848 0 0)
(0.000825442681504862 0 0)
(0.0008807581420189097 0 0)
(0.0009307955780996184 0 0)
(0.0009745719099947795 0 0)
(0.001010699416169065 0 0)
(0.00103835760892018 0 0)
(0.001056468215662215 0 0)
(0.001064638375869651 0 0)
(0.001062252180947742 0 0)
(0.0010493705387758 0 0)
(0.001025731791814835 0 0)
(0.0009916762082091367 0 0)
(0.0009472788904243439 0 0)
(0.0008936348365004484 0 0)
(0.0008325595713757523 0 0)
(0.0007676547928058941 0 0)
(0.0007016008235401112 0 0)
(0.0006356136972602747 0 0)
(0.0005696003222763637 0 0)
(0.0005039217618192099 0 0)
(0.0004387243378840645 0 0)
(0.0003746659679315379 0 0)
(0.0003122639962382797 0 0)
(0.0002525402337275604 0 0)
(0.000196346436123366 0 0)
(0.0001449905461078314 0 0)
(9.951418536391157e-05 0 0)
(6.129644203991797e-05 0 0)
(3.130418476377812e-05 0 0)
(1.069433844458889e-05 0 0)
(8.467032033559522e-08 0 0)
(2.068248107990217e-07 0 0)
(1.123703306442201e-05 0 0)
(3.34990372899385e-05 0 0)
(6.67978438531117e-05 0 0)
(0.0001109696484155185 0 0)
(0.0001648089294031339 0 0)
(0.0002260539379995672 0 0)
(0.0002908603560160507 0 0)
(0.0003565807762787308 0 0)
(0.0004222365269673373 0 0)
(0.0004879109435571821 0 0)
(0.0005532213828415959 0 0)
(0.0006180797993549874 0 0)
(0.0006817693673709529 0 0)
(0.0007438753928361663 0 0)
(0.0008033408173517194 0 0)
(0.0008594343839199075 0 0)
(0.0009108380994935081 0 0)
(0.0009566358489169393 0 0)
(0.0009954404073675125 0 0)
(0.001026390261817035 0 0)
(0.001048286513957837 0 0)
(0.001060570218005306 0 0)
(0.001062418442072337 0 0)
(0.001053678260700449 0 0)
(0.001033902516618102 0 0)
(0.00100328377751121 0 0)
(0.0009617911305958772 0 0)
(0.0009104593962779436 0 0)
(0.0008510471373683631 0 0)
(0.0007872442520393505 0 0)
(0.0007220095602058806 0 0)
(0.0006568020456899971 0 0)
(0.0005915406531318934 0 0)
(0.0005265682324317342 0 0)
(0.0004619647500435989 0 0)
(0.000398332169026526 0 0)
(0.0003360823362805632 0 0)
(0.0002761497456555321 0 0)
(0.0002192687403362104 0 0)
(0.0001666625503257726 0 0)
(0.0001192959467090952 0 0)
(7.852898389131426e-05 0 0)
(4.534866698434554e-05 0 0)
(2.102327846559921e-05 0 0)
(6.310583074895994e-06 0 0)
(2.155215776999358e-06 0 0)
(8.958138658849273e-06 0 0)
(2.724632311506642e-05 0 0)
(5.699187703438692e-05 0 0)
(9.821383225169332e-05 0 0)
(0.0001497177044952349 0 0)
(0.0002093610555991569 0 0)
(0.0002730976063485255 0 0)
(0.0003379698664587267 0 0)
(0.0004028083806418315 0 0)
(0.0004677039930119348 0 0)
(0.0005323136509014963 0 0)
(0.0005966116527407253 0 0)
(0.0006599762392712898 0 0)
(0.0007220541725730533 0 0)
(0.00078185399857349 0 0)
(0.0008387172810830709 0 0)
(0.0008914021135987257 0 0)
(0.0009389503397994405 0 0)
(0.0009800000641112226 0 0)
(0.001013708632557125 0 0)
(0.001038701745408685 0 0)
(0.001054340108417662 0 0)
(0.001059866864357501 0 0)
(0.00105485855680598 0 0)
(0.001038811414596094 0 0)
(0.001011682630756607 0 0)
(0.0009737306513129167 0 0)
(0.0009252954738461386 0 0)
(0.0008684056893296988 0 0)
(0.0008067539050141742 0 0)
(0.0007434533470134715 0 0)
(0.0006799111251670006 0 0)
(0.0006161621306077892 0 0)
(0.0005525797578671768 0 0)
(0.0004888542589773611 0 0)
(0.0004257153257107292 0 0)
(0.0003632406630524533 0 0)
(0.0003022539589155737 0 0)
(0.0002431841215810301 0 0)
(0.0001876941407261088 0 0)
(0.0001364473808413246 0 0)
(9.111712471258646e-05 0 0)
(5.245619846660431e-05 0 0)
(2.26621387768333e-05 0 0)
(2.125337751967485e-06 0 0)
(-7.679794934865345e-06 0 0)
(-5.82961810012033e-06 0 0)
(8.048520925298718e-06 0 0)
(3.470783982770309e-05 0 0)
(7.466710646437422e-05 0 0)
(0.000126711539970603 0 0)
(0.0001888767603265496 0 0)
(0.0002571098833317081 0 0)
(0.0003289670939834924 0 0)
(0.000403471114479114 0 0)
(0.0004798635656174864 0 0)
(0.0005577569435934804 0 0)
(0.0006370321806128705 0 0)
(0.0007170573754664063 0 0)
(0.0007974311351634329 0 0)
(0.0008764572061673825 0 0)
(0.000953993203484845 0 0)
(0.001028649887196568 0 0)
(0.001099136299476642 0 0)
(0.001163876656218046 0 0)
(0.001221243911696152 0 0)
(0.001270471962491326 0 0)
(0.001309743594261276 0 0)
(0.00133798332883925 0 0)
(0.00135418769606369 0 0)
(0.001358072819929211 0 0)
(0.001347688771590617 0 0)
(0.001323477889932072 0 0)
(0.001286194660053219 0 0)
(0.001236701335847489 0 0)
(0.001178987001615143 0 0)
(0.001115116907676212 0 0)
(0.001046838643101662 0 0)
(0.0009743180827729458 0 0)
(0.000898735189733743 0 0)
(0.0008207405870258563 0 0)
(0.0007402554230409205 0 0)
(0.000659469625181413 0 0)
(0.0005774732351361782 0 0)
(0.0004963242106934525 0 0)
(0.0004172552043931636 0 0)
(0.000341566892790326 0 0)
(0.0002710254226510315 0 0)
(0.0002070618463010458 0 0)
(0.0001520868398771238 0 0)
(0.0001073106074395016 0 0)
(7.429796038843014e-05 0 0)
(5.432414524127996e-05 0 0)
(4.797831258802135e-05 0 0)
(5.62537410232111e-05 0 0)
(8.00729290784969e-05 0 0)
(0.0001179115538688607 0 0)
(0.0001673638015236496 0 0)
(0.0002253691253431398 0 0)
(0.0002894393734970334 0 0)
(0.000358653918541747 0 0)
(0.0004312279711481217 0 0)
(0.0005061981775528081 0 0)
(0.0005834282880453164 0 0)
(0.0006613708539383387 0 0)
(0.0007419143409699506 0 0)
(0.0008176021142190667 0 0)
(0.0008953030772067196 0 0)
(0.0009700881365787776 0 0)
(0.001042047697545441 0 0)
(0.001109099301586083 0 0)
(0.001170047291171872 0 0)
(0.00122311069886268 0 0)
(0.00126739343017381 0 0)
(0.00130097727534303 0 0)
(0.001323064771331102 0 0)
(0.001332539263814025 0 0)
(0.001328432017088748 0 0)
(0.001310727135090982 0 0)
(0.001280321835703264 0 0)
(0.001237159127196649 0 0)
(0.001184478903059189 0 0)
(0.001124733117140068 0 0)
(0.001059822987381684 0 0)
(0.0009903231572067272 0 0)
(0.000917206951799139 0 0)
(0.0008414057333279398 0 0)
(0.0007633980029159637 0 0)
(0.0006851120430181945 0 0)
(0.0006037232364722509 0 0)
(0.0005244935219590846 0 0)
(0.0004465959952513468 0 0)
(0.0003716702195289764 0 0)
(0.0003010584294010594 0 0)
(0.000236386394911439 0 0)
(0.0001792315244528074 0 0)
(0.0001320438511761929 0 0)
(9.582426242119497e-05 0 0)
(7.218160465529306e-05 0 0)
(6.235502956504114e-05 0 0)
(6.601567484377504e-05 0 0)
(8.562156983340693e-05 0 0)
(0.000119904320139917 0 0)
(0.0001662461452902152 0 0)
(0.0002222673865916639 0 0)
(0.0002852856299418424 0 0)
(0.0003537190224766953 0 0)
(0.0004267311774407237 0 0)
(0.0005024835749327484 0 0)
(0.0005806303466908766 0 0)
(0.00065986252578138 0 0)
(0.0007412966401678312 0 0)
(0.0008182569955880989 0 0)
(0.0008957896494067074 0 0)
(0.0009720338707866053 0 0)
(0.001045669373859732 0 0)
(0.001115167439068918 0 0)
(0.00117936828787156 0 0)
(0.001236148945829518 0 0)
(0.001285041141204895 0 0)
(0.001323797318556211 0 0)
(0.001351535428765022 0 0)
(0.001367059972872237 0 0)
(0.001368767061544005 0 0)
(0.001357384687183285 0 0)
(0.001333598547440732 0 0)
(0.001296673857806131 0 0)
(0.001249088074418935 0 0)
(0.001193518297297544 0 0)
(0.001131952563672549 0 0)
(0.00106580549405388 0 0)
(0.0009954567976753696 0 0)
(0.0009218599203348598 0 0)
(0.0008464588028617124 0 0)
(0.0007690868639525981 0 0)
(0.0006920689963990764 0 0)
(0.0006111190538277851 0 0)
(0.0005353625474884228 0 0)
(0.0004610215316827688 0 0)
(0.0003908879234450214 0 0)
(0.0003258505023192918 0 0)
(0.00026762656479183 0 0)
(0.0002180930976986759 0 0)
(0.0001792477694736527 0 0)
(0.0001521089979856081 0 0)
(0.0001389754762798682 0 0)
(0.0001376762996894637 0 0)
(0.0001529311565716711 0 0)
(0.0001839181215523961 0 0)
(0.0002269277237559227 0 0)
(0.0002808731386521061 0 0)
(0.0003427543235761944 0 0)
(0.0004104428054436888 0 0)
(0.0004834544339452967 0 0)
(0.0005598638873974618 0 0)
(0.0006387385114669211 0 0)
(0.0007197951749571503 0 0)
(0.0008007510476556942 0 0)
(0.0008843084478646756 0 0)
(0.0009575202579487206 0 0)
(0.001036990630389691 0 0)
(0.00111193846382564 0 0)
(0.001184042925595152 0 0)
(0.001251134062663062 0 0)
(0.001311874477346949 0 0)
(0.001364713445029461 0 0)
(0.001408706093588048 0 0)
(0.00144179398017196 0 0)
(0.001463892967105117 0 0)
(0.001470833672953251 0 0)
(0.001466078366870538 0 0)
(0.001449362773769027 0 0)
(0.001418855703850895 0 0)
(0.001377095265578092 0 0)
(0.001326105531411412 0 0)
(0.001268566755679701 0 0)
(0.001205735037632291 0 0)
(0.001138737872106977 0 0)
(0.00106798321166173 0 0)
(0.0009951948628023704 0 0)
(0.0009197252647152519 0 0)
(0.0008475286842117133 0 0)
(0.0007639820088598938 0 0)
(0.0006907007319596336 0 0)
(0.0006170094719046087 0 0)
(0.0005475728355914473 0 0)
(0.0004825512070582059 0 0)
(0.0004239625116339249 0 0)
(0.0003727411457085919 0 0)
(0.0003318444287067131 0 0)
(0.0003017445566395764 0 0)
(0.0002853424711831868 0 0)
(0.0002802172971183943 0 0)
(0.0002908064947578058 0 0)
(0.0003178034556544559 0 0)
(0.000357838788411475 0 0)
(0.0004094949300837373 0 0)
(0.0004700623197436067 0 0)
(0.0005372307076858741 0 0)
(0.0006097060703049235 0 0)
(0.0006867932545771495 0 0)
(0.0007666038323459951 0 0)
(0.0008489973008085019 0 0)
(0.0009314080645304371 0 0)
(0.001019184802995525 0 0)
(0.001090893957598792 0 0)
(0.001172405609069832 0 0)
(0.001249483897882112 0 0)
(0.001324145010522968 0 0)
(0.001394299972093427 0 0)
(0.001458785652024614 0 0)
(0.001515881684877709 0 0)
(0.001564649685920944 0 0)
(0.001603404735576869 0 0)
(0.001631245674694801 0 0)
(0.001645553852313867 0 0)
(0.00164674784324556 0 0)
(0.001636024748038019 0 0)
(0.00161304709802253 0 0)
(0.001577312331804296 0 0)
(0.001531539133094514 0 0)
(0.001478318804654099 0 0)
(0.001419083794834878 0 0)
(0.001355717491611348 0 0)
(0.001288236234096555 0 0)
(0.001218211068453853 0 0)
(0.001145564485412776 0 0)
(0.001075862421818375 0 0)
(0.000994815944785607 0 0)
(0.0009206130391454864 0 0)
(0.000848725862329568 0 0)
(0.0007797163841732691 0 0)
(0.0007151169824549008 0 0)
(0.0006562428218319397 0 0)
(0.0006044343564167164 0 0)
(0.000561489512324081 0 0)
(0.0005293554178564042 0 0)
(0.0005093030782095556 0 0)
(0.0005022019868542295 0 0)
(0.0005075643565610749 0 0)
(0.0005297063355423013 0 0)
(0.0005675755707595175 0 0)
(0.0006161930308953144 0 0)
(0.000675535568047904 0 0)
(0.0007420061866078138 0 0)
(0.0008142626792059206 0 0)
(0.0008914727984259818 0 0)
(0.0009724182909214035 0 0)
(0.001055908931897715 0 0)
(0.001141038002592271 0 0)
(0.001227716246801505 0 0)
(0.001309226314935823 0 0)
(0.001385592893934702 0 0)
(0.001466866557584729 0 0)
(0.001543569657859386 0 0)
(0.001617049912834868 0 0)
(0.001685148269405442 0 0)
(0.00174690581111307 0 0)
(0.001800082918916616 0 0)
(0.001844652732036237 0 0)
(0.001877919400265153 0 0)
(0.001900184882588594 0 0)
(0.001906342139427486 0 0)
(0.001902180082177489 0 0)
(0.001887280063375896 0 0)
(0.001857781789720487 0 0)
(0.001818042660328954 0 0)
(0.00176952312149958 0 0)
(0.001714656550677454 0 0)
(0.001654614817613191 0 0)
(0.001590827617593916 0 0)
(0.001523861884328035 0 0)
(0.001454870372910546 0 0)
(0.001384278663912679 0 0)
(0.001314705575919879 0 0)
(0.001233110591118878 0 0)
(0.001164773138434807 0 0)
(0.001095943873344972 0 0)
(0.001031905216637701 0 0)
(0.000972891215569654 0 0)
(0.0009206745034523805 0 0)
(0.0008762029816073793 0 0)
(0.0008423407924804749 0 0)
(0.0008190525425665591 0 0)
(0.0008102459421027965 0 0)
(0.0008099579253283671 0 0)
(0.0008278346205305397 0 0)
(0.0008632916525288477 0 0)
(0.0009089678921497866 0 0)
(0.0009665084759883412 0 0)
(0.001032239834888906 0 0)
(0.001104328970448964 0 0)
(0.001181409962169704 0 0)
(0.00126318724671818 0 0)
(0.00134802949137328 0 0)
(0.001435391436714289 0 0)
(0.001521927289690278 0 0)
(0.001614139335637975 0 0)
(0.001684116403134043 0 0)
(0.001769733602370336 0 0)
(0.001848700612540167 0 0)
(0.001925300241446809 0 0)
(0.001997074758551571 0 0)
(0.002063006177851746 0 0)
(0.002121223242373246 0 0)
(0.002171021712986082 0 0)
(0.002210052994811325 0 0)
(0.00223915197958509 0 0)
(0.002251897521575519 0 0)
(0.002254101507330781 0 0)
(0.002245964912215232 0 0)
(0.002223927827221907 0 0)
(0.002190119978467564 0 0)
(0.002147022675268815 0 0)
(0.002096676413319741 0 0)
(0.002040521881377607 0 0)
(0.001980249024965242 0 0)
(0.001916809969747473 0 0)
(0.001851290483988452 0 0)
(0.001782795477227705 0 0)
(0.001720258839881473 0 0)
(0.001635593407721145 0 0)
(0.001568963461143665 0 0)
(0.001501142537859509 0 0)
(0.001437555626728269 0 0)
(0.001378639345954459 0 0)
(0.001326054886069553 0 0)
(0.001281148993270904 0 0)
(0.001245324456826016 0 0)
(0.001220304045421873 0 0)
(0.001207904579759076 0 0)
(0.001206466025970617 0 0)
(0.001219050740415846 0 0)
(0.001249413101288421 0 0)
(0.001293900678470408 0 0)
(0.001348761476594247 0 0)
(0.001413778645715695 0 0)
(0.001485585343844249 0 0)
(0.001562894469666301 0 0)
(0.001644881173433343 0 0)
(0.001731100296253392 0 0)
(0.00182042665860796 0 0)
(0.001909590982297322 0 0)
(0.002004340783106301 0 0)
(0.0020795914561007 0 0)
(0.002163107271591875 0 0)
(0.002246073929836487 0 0)
(0.002325665362378822 0 0)
(0.002400968155290409 0 0)
(0.002471079557442603 0 0)
(0.002534412601843645 0 0)
(0.002589218592196546 0 0)
(0.002634778464866356 0 0)
(0.002669222265339193 0 0)
(0.002690873367311723 0 0)
(0.002698455871819216 0 0)
(0.002695819748592371 0 0)
(0.002682765690825064 0 0)
(0.002655105109429786 0 0)
(0.002617990080892815 0 0)
(0.002572638455045129 0 0)
(0.002521096098735721 0 0)
(0.002464285302372333 0 0)
(0.002404573303225384 0 0)
(0.002342601370278208 0 0)
(0.00227831511502333 0 0)
(0.002214290735932308 0 0)
(0.002143685416018675 0 0)
(0.002068031053155197 0 0)
(0.002004167004025325 0 0)
(0.001940784235608357 0 0)
(0.001882184669117752 0 0)
(0.001829420709343308 0 0)
(0.001784055783357494 0 0)
(0.00174702089818846 0 0)
(0.001720637058016882 0 0)
(0.001704744098701653 0 0)
(0.001703126806887022 0 0)
(0.001708859074155835 0 0)
(0.001734735321187622 0 0)
(0.001778854903933897 0 0)
(0.001830941829098286 0 0)
(0.00189467243511066 0 0)
(0.001966344632281891 0 0)
(0.002043965307413969 0 0)
(0.002126337074551829 0 0)
(0.002213232972651365 0 0)
(0.002304390393970426 0 0)
(0.002397050597846041 0 0)
(0.002489293774572352 0 0)
(0.002582751896854746 0 0)
(0.002654539554080718 0 0)
(0.002744068234039384 0 0)
(0.002825865647079291 0 0)
(0.00290493311371902 0 0)
(0.002978958203558223 0 0)
(0.003047021124370572 0 0)
(0.00310755074037783 0 0)
(0.003159197413499381 0 0)
(0.003199339490747788 0 0)
(0.003229833524318481 0 0)
(0.00324140556269062 0 0)
(0.003245555506193443 0 0)
(0.00324147655703172 0 0)
(0.003220570446285443 0 0)
(0.003189609222984276 0 0)
(0.00314981133928817 0 0)
(0.003103164703172791 0 0)
(0.003050816979209438 0 0)
(0.002994203894794147 0 0)
(0.002936301495927498 0 0)
(0.002876376538727659 0 0)
(0.002813032513291099 0 0)
(0.002756443744883201 0 0)
(0.002670776704131707 0 0)
(0.002612073657582749 0 0)
(0.002548895022117065 0 0)
(0.002491310777939803 0 0)
(0.002438184150455887 0 0)
(0.002392449570885792 0 0)
(0.002355040004016483 0 0)
(0.002327386344294002 0 0)
(0.002309874379570207 0 0)
(0.002305855067930125 0 0)
(0.002309715808947871 0 0)
(0.002331030513356889 0 0)
(0.002371180702006562 0 0)
(0.002422380494859623 0 0)
(0.002484254406485443 0 0)
(0.002555577132567007 0 0)
(0.002633680696562288 0 0)
(0.002717087020721031 0 0)
(0.002804252633654896 0 0)
(0.002897240444417696 0 0)
(0.002993273178959738 0 0)
(0.003087262864791874 0 0)
(0.003190587452985891 0 0)
(0.003258536898005929 0 0)
(0.003351407383377825 0 0)
(0.003436882319615728 0 0)
(0.003520010958209988 0 0)
(0.003597897763466016 0 0)
(0.003670685658970928 0 0)
(0.003736749766883816 0 0)
(0.00379479123907879 0 0)
(0.003842092614577507 0 0)
(0.00387847969587934 0 0)
(0.003899779549065241 0 0)
(0.003909623990860718 0 0)
(0.003910282323148057 0 0)
(0.003899497693563432 0 0)
(0.003874673909888733 0 0)
(0.00384082994778414 0 0)
(0.003799671318279785 0 0)
(0.003752461656317642 0 0)
(0.003699682862021739 0 0)
(0.003645355198796104 0 0)
(0.003590169874366836 0 0)
(0.003531384399946644 0 0)
(0.003476184243241373 0 0)
(0.003401803610703687 0 0)
(0.003336016730944925 0 0)
(0.003277266177482878 0 0)
(0.00322026496864341 0 0)
(0.003167756654821894 0 0)
(0.003121748426993718 0 0)
(0.003083829133828265 0 0)
(0.003055877760992631 0 0)
(0.003037684873005072 0 0)
(0.003030439917197336 0 0)
(0.00303567284231648 0 0)
(0.003050126436176793 0 0)
(0.003085217836496694 0 0)
(0.003138271514876404 0 0)
(0.003197796272258087 0 0)
(0.003268742145185156 0 0)
(0.003347183973262558 0 0)
(0.003431773393144817 0 0)
(0.003520200643068397 0 0)
(0.003613535354675974 0 0)
(0.003712534093841327 0 0)
(0.003811178744091402 0 0)
(0.003910551032753901 0 0)
(0.004003062708043564 0 0)
(0.004079850526167479 0 0)
(0.004174046933627299 0 0)
(0.004259791989279498 0 0)
(0.00434214857306707 0 0)
(0.004419138596896224 0 0)
(0.004490238123881176 0 0)
(0.00455469776838413 0 0)
(0.00460958909660602 0 0)
(0.004651840905169759 0 0)
(0.00468438880517825 0 0)
(0.004695212113375062 0 0)
(0.004702662078547558 0 0)
(0.004704248140712807 0 0)
(0.004685396418393302 0 0)
(0.004658222247984591 0 0)
(0.004622462726845575 0 0)
(0.004580718751271006 0 0)
(0.004533212571771092 0 0)
(0.004481562288443144 0 0)
(0.004431106535503197 0 0)
(0.004378133331595376 0 0)
(0.004321468520660905 0 0)
(0.004270624079507786 0 0)
(0.004186145163056657 0 0)
(0.004136669940196082 0 0)
(0.004079967246112997 0 0)
(0.004028914464569847 0 0)
(0.00398257292077115 0 0)
(0.003943917516117106 0 0)
(0.003915444975442256 0 0)
(0.003897296122118081 0 0)
(0.003888398258211103 0 0)
(0.003893495362735529 0 0)
(0.003903217348674262 0 0)
(0.003934773712540392 0 0)
(0.003987255860530545 0 0)
(0.004045794010628431 0 0)
(0.004116047040453832 0 0)
(0.004194727294794756 0 0)
(0.004280465383176519 0 0)
(0.004371194370169402 0 0)
(0.004465118778091127 0 0)
(0.004566441334092858 0 0)
(0.004670324552193832 0 0)
(0.004769496671390986 0 0)
(0.004883169891187306 0 0)
(0.004942112094328102 0 0)
(0.005047628606708438 0 0)
(0.005136674971607493 0 0)
(0.005224433359870694 0 0)
(0.005305940995400997 0 0)
(0.005381861908348695 0 0)
(0.005452124136996822 0 0)
(0.005514962734181224 0 0)
(0.005565623711743466 0 0)
(0.005604813892321621 0 0)
(0.00562660390669547 0 0)
(0.005639894498588564 0 0)
(0.005645818458153847 0 0)
(0.005638206059580458 0 0)
(0.005617136238044266 0 0)
(0.00558769426023811 0 0)
(0.005551351058337266 0 0)
(0.005509912340317815 0 0)
(0.005462400129904177 0 0)
(0.005415899713502096 0 0)
(0.005368961411251142 0 0)
(0.005317076473044466 0 0)
(0.005272324893245061 0 0)
(0.005194377538832344 0 0)
(0.005141616247800772 0 0)
(0.005089987755560594 0 0)
(0.005041134371243591 0 0)
(0.004995894680905982 0 0)
(0.004957046971890334 0 0)
(0.004927674036412343 0 0)
(0.004910050061204934 0 0)
(0.004902283296131565 0 0)
(0.004904516434608577 0 0)
(0.004918176610783767 0 0)
(0.004943071198262747 0 0)
(0.004989236484048102 0 0)
(0.00505334154653781 0 0)
(0.005121770327688193 0 0)
(0.005201399323271351 0 0)
(0.005288109235638504 0 0)
(0.005381269245567756 0 0)
(0.00547725588812706 0 0)
(0.005580501421152021 0 0)
(0.005688037248637023 0 0)
(0.005793953730588389 0 0)
(0.005901270724303251 0 0)
(0.005993695795159532 0 0)
(0.00607702433899393 0 0)
(0.006177928151542032 0 0)
(0.006269639639045212 0 0)
(0.006356746088795719 0 0)
(0.006437834117558809 0 0)
(0.006512947362405571 0 0)
(0.006583035477429739 0 0)
(0.006643806276769555 0 0)
(0.006689461016423388 0 0)
(0.006726427696250713 0 0)
(0.006737301276731683 0 0)
(0.006749193544338569 0 0)
(0.006759676225886084 0 0)
(0.006743785164388559 0 0)
(0.006721924494805499 0 0)
(0.006691303983871477 0 0)
(0.006655632169493789 0 0)
(0.006613690399749629 0 0)
(0.006571408433516008 0 0)
(0.006529319615760545 0 0)
(0.006485181785245014 0 0)
(0.006436882326881788 0 0)
(0.006394457831331043 0 0)
(0.006311759782981263 0 0)
(0.00627543032915744 0 0)
(0.006227589818257826 0 0)
(0.006185433396368188 0 0)
(0.006147434571028466 0 0)
(0.006116532727938728 0 0)
(0.006098130377418876 0 0)
(0.006091564411326305 0 0)
(0.006093203522638684 0 0)
(0.006109699190051429 0 0)
(0.006126814322636003 0 0)
(0.006170301540330826 0 0)
(0.006238367861564749 0 0)
(0.006306319773618689 0 0)
(0.006386735470646015 0 0)
(0.006474613976211714 0 0)
(0.006569430899154147 0 0)
(0.00666783842704336 0 0)
(0.006772624059760848 0 0)
(0.006884618699534058 0 0)
(0.006996310565709289 0 0)
(0.007101560084285178 0 0)
(0.007228517389747808 0 0)
(0.00727511708762207 0 0)
(0.007398593064909286 0 0)
(0.007492673305680292 0 0)
(0.007586957684517737 0 0)
(0.007673774052117417 0 0)
(0.007753757364854287 0 0)
(0.007829337305280718 0 0)
(0.007898098968030603 0 0)
(0.007954706754506477 0 0)
(0.007998944911989646 0 0)
(0.008024091340639477 0 0)
(0.008041349353074595 0 0)
(0.008054408823031387 0 0)
(0.008052049724991376 0 0)
(0.008036107257120022 0 0)
(0.008012450201912316 0 0)
(0.007982418917339792 0 0)
(0.007946728196144321 0 0)
(0.007905992117127988 0 0)
(0.00787315671514538 0 0)
(0.007833153967183216 0 0)
(0.007790570906112463 0 0)
(0.007756376348125728 0 0)
(0.007677323429308438 0 0)
(0.00764116283160011 0 0)
(0.007600265353368267 0 0)
(0.007561956288327796 0 0)
(0.007526673942111789 0 0)
(0.007496677883418876 0 0)
(0.007476362233345775 0 0)
(0.007468422125658379 0 0)
(0.007472367949611546 0 0)
(0.007485787566625545 0 0)
(0.007514073460839806 0 0)
(0.007546625207315354 0 0)
(0.007605753785955559 0 0)
(0.007687099397365196 0 0)
(0.007764326653220295 0 0)
(0.007854776787772494 0 0)
(0.007951835816104539 0 0)
(0.008054467260638049 0 0)
(0.008156104047226111 0 0)
(0.008277162242248016 0 0)
(0.008391958962794443 0 0)
(0.008506406291016002 0 0)
(0.008619579879337593 0 0)
(0.008717020715417941 0 0)
(0.008801531135538596 0 0)
(0.008917050146036514 0 0)
(0.009015213064086963 0 0)
(0.009107827835257766 0 0)
(0.009194549774219265 0 0)
(0.00927753625531302 0 0)
(0.009352789203275251 0 0)
(0.009414414896617773 0 0)
(0.009473503767418432 0 0)
(0.009583078152179824 0 0)
(0.009545450878427281 0 0)
)
;

boundaryField
{
    inlet
    {
        type            calculated;
        value           uniform (-2.821681343396157e-05 0 0);
    }
    outlet
    {
        type            calculated;
        value           uniform (0.009545450878427281 0 0);
    }
    frontAndBack
    {
        type            empty;
    }
}


// ************************************************************************* //
