/*--------------------------------*- C++ -*----------------------------------*\
| =========                 |                                                 |
| \\      /  F ield         | OpenFOAM: The Open Source CFD Toolbox           |
|  \\    /   O peration     | Version:  v2012                                 |
|   \\  /    A nd           | Website:  www.openfoam.com                      |
|    \\/     M anipulation  |                                                 |
\*---------------------------------------------------------------------------*/
FoamFile
{
    version     2.0;
    format      ascii;
    class       volScalarField;
    location    "0.017";
    object      T;
}
// * * * * * * * * * * * * * * * * * * * * * * * * * * * * * * * * * * * * * //

dimensions      [0 0 0 1 0 0 0];


internalField   nonuniform List<scalar> 
1000
(
299.9840322217118
299.9792348416537
299.9731003804409
299.9642708016927
299.9613757138135
299.9554007217826
299.9495019010905
299.9465859860564
299.9449113819908
299.9418545087771
299.9414605977021
299.9412381248901
299.9421228048014
299.9441212616421
299.9465578535329
299.9510105256379
299.9550355453374
299.9609054729049
299.9679769255291
299.9740590865644
299.9821112091228
299.9897561183431
299.9976233917734
300.00616977057
300.013811217562
300.0220926341873
300.0293304860753
300.0359047351622
300.0419089706714
300.047414673879
300.0509945806494
300.0533365630614
300.0556721723826
300.0563787612965
300.0562767199568
300.0553299627924
300.0529228336297
300.0507635578418
300.0465767796159
300.0412754091158
300.0367600974916
300.0294518708943
300.0220389225166
300.0159699687279
300.0077126506296
299.9997565677982
299.9932220310324
299.9852556125864
299.9780429750768
299.9714913509415
299.9645602118499
299.9584164963102
299.9529339522119
299.9486356038165
299.9457764128031
299.943080423056
299.9423230356296
299.9415772337002
299.942240584722
299.9432045989793
299.9455383051148
299.947434155816
299.9522675582514
299.9572810714535
299.9625036464192
299.9703304968442
299.9772918455039
299.9846749916635
299.9935112553597
300.001701702808
300.0094486508318
300.0175128194708
300.0250087632156
300.031867729545
300.0382445136624
300.0444188226217
300.0487745346607
300.0513108779249
300.0537378300233
300.0547922217247
300.0545209730339
300.0535103513445
300.0522962485936
300.0502965033055
300.0462203197681
300.0426195908499
300.0381018834826
300.0309853890975
300.0251321978513
300.0182343609551
300.009677201569
300.0022055335482
299.9947397769988
299.9863673100858
299.9792340023565
299.9724450011163
299.9654666887845
299.9585200076048
299.954268752689
299.9479594633638
299.9453123390831
299.9424636891876
299.9411118831682
299.9402868416619
299.940276155902
299.9412329456393
299.9431077042522
299.9449993306982
299.9484426385472
299.9530166612512
299.957466448934
299.9645913687045
299.9710628840936
299.9781783851324
299.9869763448935
299.9948530337558
300.0033609971255
300.0118771083173
300.0193831251057
300.0270993807171
300.0340917532295
300.0403791984779
300.0451103653509
300.0484398027023
300.0512387826026
300.0523173834857
300.0529576718645
300.0524000438505
300.0508045188462
300.0493755468318
300.0465291186907
300.042018272595
300.0384379425952
300.0326422353965
300.0258441374636
300.0198344625873
300.0119121773566
300.0040952317861
299.9965630940495
299.9881789817907
299.9806071938403
299.9730157991193
299.9658776986822
299.959602464056
299.953873530583
299.9482817762884
299.9448547028181
299.9429280070301
299.9404273207206
299.9394732992733
299.939812227628
299.939733239113
299.9413302692411
299.9432539057185
299.9459684872606
299.95028314408
299.9545208380906
299.9600907702499
299.9669638008677
299.9733762335281
299.9813812251731
299.9896727960052
299.9979826902115
300.0064880057463
300.0146832748574
300.0225275435683
300.0301381982064
300.0365666133923
300.0428141953972
300.0458633502898
300.0494054706816
300.0507309618089
300.0515201774397
300.0514429101076
300.0505670745256
300.0490575490623
300.0463640659827
300.0427469649416
300.0390876759949
300.0337853475338
300.0278063861162
300.0215451972351
300.0141819630413
300.0068068027814
299.9987756191798
299.9906560337442
299.9829987714943
299.9747557958003
299.967345237647
299.960569293152
299.9542615397411
299.9478786205956
299.9442031724786
299.9415744969589
299.9394178538895
299.9380965529537
299.9379531976865
299.9379494885081
299.9394677655567
299.9406636874484
299.9426535788153
299.9467685528138
299.9503308376016
299.9556671856545
299.9620583088657
299.9678407252981
299.9753154583099
299.9836083835127
299.9917358092275
299.9998853854796
300.0083081609123
300.0170818964187
300.0240052503941
300.0316075445492
300.038749232114
300.0427322805376
300.0465153491405
300.0484542379864
300.0498776456707
300.0500219885541
300.0493331366004
300.0482145920844
300.0456944341328
300.0422993507322
300.0392969127605
300.0342616554963
300.0282155523179
300.0228827209988
300.015786616205
300.0079495061751
300.0004795906163
299.9927172913706
299.9844796206202
299.9762511688936
299.9690321835197
299.9616209038412
299.954294903415
299.9482282429649
299.9435718157351
299.9403263980259
299.9380146799384
299.9370080879392
299.9359212282552
299.9361250100675
299.9370918544869
299.938234097427
299.9396912522862
299.9433577993709
299.9468865920394
299.9507109379499
299.9570319976448
299.9628962745345
299.9690654358926
299.9778611492117
299.9853435682722
299.9931372187983
300.0025080155628
300.0101824212684
300.0183037019594
300.0262441048317
300.0332225812095
300.0390894119769
300.0427921604811
300.0451367328228
300.0475079635686
300.0476357774573
300.0472462810914
300.0462171971304
300.0447254649695
300.0412467596013
300.038163386605
300.0340211010741
300.0279635063645
300.0226938640585
300.0160526425325
300.0086235428047
300.0013036087272
299.9935283408551
299.9853818368677
299.9774409959484
299.9692615839907
299.9618602827506
299.954671854985
299.9484621667386
299.9421058280726
299.9387452069527
299.9364469302625
299.9345547553849
299.9335298084077
299.933432223603
299.9338285541283
299.9352089286509
299.9367359722469
299.9391571351686
299.9430020279643
299.946818709001
299.9521182049284
299.9580090922607
299.9640107719234
299.9716594764418
299.9791903399703
299.9873398956276
299.9957650894427
300.0040497715161
300.0123983514696
300.0201098456189
300.027244625548
300.0344575119493
300.0384977053335
300.04178809553
300.0441842395116
300.0449651534138
300.0451004834325
300.0441448297974
300.0427474266135
300.0403554958046
300.0368149272052
300.0332430056426
300.0282576302596
300.0222377688343
300.016448939784
300.0092590718399
300.0020350217183
299.9943108682072
299.9863801733224
299.9785533550794
299.9704526333841
299.9630454592502
299.9557472411498
299.9487538700369
299.9429605868189
299.9377587696767
299.9357762097145
299.9335046931002
299.9324187691708
299.9320222731137
299.9321802645036
299.9338782372683
299.9350539080644
299.9369868192672
299.9408478353157
299.9439259528469
299.94888846929
299.9549903856224
299.959660247303
299.9674036835065
299.9752502849115
299.9820362797633
299.9909272934142
299.9995949862147
300.0072593999094
300.0156608400636
300.0243045007591
300.0303905782072
300.0372878616628
300.0410992166333
300.044445798532
300.0461603012498
300.0471355238611
300.0465577919944
300.0455137033373
300.0440288428888
300.0408328320581
300.0375333245346
300.0337502477367
300.0279049256449
300.0223432983353
300.0162843023036
300.0090132298477
300.0019512566664
299.9946895468084
299.9867714648606
299.9792273549462
299.971502484152
299.9642990791692
299.9573877157408
299.9511760906814
299.9453059678135
299.9410690810715
299.938701374192
299.9368857080577
299.9352547269742
299.9350697553328
299.9354650360354
299.9363462056933
299.9377642773519
299.9394159086123
299.9420857902471
299.9456574354789
299.9493541702575
299.954285066584
299.9593885392916
299.9648492599206
299.9717407299425
299.9781890927277
299.9847743670904
299.9924038378338
299.9993050011586
300.0058867113277
300.012852264314
300.0189762524664
300.024125713694
300.0281263778086
300.0307095272462
300.0328854017457
300.0337999694653
300.033582337981
300.0327179706358
300.0315354145939
300.0291104113796
300.0258781366903
300.0227468540531
300.018200592118
300.0128605790763
300.007590763403
300.0012622319966
299.9947644426178
299.9880504484028
299.9810803374743
299.9742331546748
299.9672392094317
299.9609096987488
299.9546326737704
299.9486674789203
299.9436229624725
299.9396202085536
299.937122648945
299.9357998196843
299.9341788425144
299.9340926241031
299.9347352518989
299.9357082503635
299.9371771416925
299.9390606671327
299.9421175934186
299.9457395605036
299.9494995820293
299.9546256693268
299.960060243959
299.965510119466
299.9722318777699
299.9793075320314
299.9857771135545
299.9927655020572
300.0005640787878
300.0064323436272
300.0131109292967
300.0194515384015
300.0239763121074
300.0271921143351
300.0306215852414
300.0314271184794
300.0321655000946
300.0318268985433
300.030486321513
300.0285136502284
300.0259098992863
300.0217915288428
300.0178246168567
300.0130205469137
300.0067705499196
300.0008791980707
299.9945130571425
299.9871581186488
299.9801554383338
299.9729403577276
299.965991251858
299.9592953910241
299.9526930108415
299.9465349105078
299.9414350415498
299.936326978146
299.9344281956402
299.9314330315422
299.9305724517041
299.9299871427151
299.9300402738551
299.9306676204993
299.9324831222492
299.9338743174181
299.9364607279003
299.9402459743598
299.9434057303048
299.9480926858196
299.9535295031381
299.9588914410642
299.9650621894177
299.9715166264097
299.9781060994454
299.9852961234869
299.9920650361258
299.9987689438883
300.0057895712472
300.0115047546263
300.0168815438186
300.0206049471085
300.0240538283903
300.0256687136527
300.0267399777084
300.0268273776215
300.0260070280597
300.0244296696353
300.0217614611071
300.01883322047
300.0148568251227
300.0100810173986
300.0053272848144
299.9989194562576
299.9924363175697
299.9861828408791
299.9789013665086
299.9716702918917
299.965025805649
299.9580252664921
299.9510716805155
299.9457397348368
299.9396333875818
299.9346842070066
299.9311653042711
299.9287199915345
299.9271558173886
299.9259552621903
299.9258722812468
299.9266927804901
299.9278615140267
299.9293506358148
299.9318936503463
299.9353021875415
299.938576756645
299.9427611736631
299.9483843729913
299.9533146312309
299.9589139199696
299.9654229491651
299.971993695003
299.9785785749211
299.9852897041873
299.9922125999211
299.9984382080513
300.0044435423325
300.0101110621163
300.0145308467952
300.0176220456646
300.0205095652744
300.0217551393657
300.0220011239416
300.0219413355543
300.0204314831624
300.0181032020189
300.0161495537027
300.0117169526246
300.0073022212111
300.0033122372951
299.9970890284149
299.9910396967853
299.9854291302926
299.9782907812653
299.9712095137065
299.9645693002036
299.9576475472825
299.9512271316309
299.9451396125044
299.9387482580541
299.9343857454272
299.9296419530082
299.9275792720503
299.9250606092222
299.924272027666
299.9239154348733
299.9242788494015
299.9251157164445
299.9272961764897
299.9289517628415
299.9315824091668
299.9357828301685
299.9390582013365
299.9438708087694
299.9495155251411
299.9546062040108
299.960641847244
299.9672598210111
299.9736301367003
299.9804541508231
299.9872281775358
299.9935553639224
300.0001269727012
300.0059335766707
300.0107666268723
300.0148778690361
300.0178158815974
300.0199715043503
300.0207661866862
300.0205184022644
300.0197323088092
300.0178517423824
300.0153379965877
300.0121504691872
300.0076069101654
300.0030914144103
299.9975241265488
299.991389403911
299.9851481670697
299.9782676500826
299.9713987328695
299.9644336353795
299.9574343659109
299.9507801874838
299.944070493128
299.9387018230437
299.93296732098
299.9281821585948
299.9251861013023
299.9227963449649
299.9212985629144
299.9205257593867
299.9205664280369
299.9216414254975
299.9231964747749
299.9248333067702
299.9274211958792
299.9308887917563
299.9343748758814
299.9385051030497
299.9439608072988
299.9492232941715
299.9548943957127
299.9613160486361
299.9678303185352
299.9742835952567
299.9806809667051
299.9872970300131
299.993929502173
299.9987522317979
300.0050399064642
300.0086558543196
300.0120193065687
300.0144049043179
300.0159039219582
300.0161782434766
300.0156053307915
300.0146155667888
300.0119536079769
300.0093216413423
300.0056532808582
300.0005415274543
299.9963378294093
299.9907844238946
299.9837709073251
299.9783312017385
299.9716280329596
299.9642468029084
299.9583125449341
299.9513194227481
299.944927725783
299.9392684787784
299.9334257758478
299.9287814753473
299.9247505321231
299.922377149461
299.9205224412324
299.9193547874903
299.9192183236286
299.9196950024744
299.9207150285562
299.9228828339928
299.9248453567819
299.9278535261009
299.9321326608507
299.9355740367738
299.9408273806615
299.9463466735143
299.9515700944223
299.9583331878611
299.9644354621815
299.970648990214
299.9774981348666
299.983672697243
299.989655860297
299.9954326047905
300.0004920821745
300.0051726894464
300.0081499203785
300.0110390502383
300.0126568406068
300.0133145020847
300.0133090634174
300.0126326543493
300.0110168860758
300.0088556282024
300.0054675367406
300.0016760508774
299.9977789910546
299.9917754524397
299.9864749282619
299.9809945976453
299.9740390124731
299.9678427780001
299.9615112211103
299.9547505089794
299.9486530082562
299.9424621368129
299.9370668688265
299.9320895735033
299.9272331326427
299.9246903491348
299.9223103973985
299.9210301818536
299.9206350492001
299.920829508973
299.9218759660163
299.9237036022195
299.9253483154457
299.92829103211
299.9322258377103
299.9353955400892
299.9400515174469
299.9455070258
299.9503384080704
299.9564244392047
299.9625281266565
299.9687240479813
299.9754025452394
299.9815962381393
299.9878519404008
299.9941639638317
299.99955648428
300.0045986413797
300.0086864339839
300.0116390598961
300.013934713386
300.0153714789254
300.0156664665
300.0152300815089
300.0141694954174
300.0122684188782
300.0095173118614
300.0065933609504
300.001727543039
299.996936940101
299.9919548416901
299.9850135905424
299.9791063196133
299.9730024315128
299.9656764043657
299.9595658911718
299.9531952426444
299.9471824973683
299.9415247504506
299.9363124348437
299.9311234920635
299.928031395601
299.9255514483978
299.923314158786
299.9223154347296
299.9221284801052
299.9226754407986
299.9244471918011
299.9263326679041
299.928577537228
299.9325354922657
299.9358648871662
299.9399494396634
299.9457324014157
299.9498739634624
299.9556956329035
299.9619744852443
299.9670804011362
299.9734528261206
299.9799051792765
299.9855101878164
299.991665645503
299.9974342297931
300.0027574751314
300.0069010005684
300.0108257327357
300.0135343032682
300.0153019772493
300.0161481132909
300.0161985489843
300.0151730891502
300.0133875414463
300.0111385284204
300.0074814697845
300.0030720453746
299.9988773861066
299.9930376948928
299.9866758424235
299.9809879058627
299.974027987393
299.9668219041268
299.9603374636926
299.9535964166136
299.9472831894795
299.9414405918953
299.9359740006938
299.931279672422
299.9270549047904
299.9246252006786
299.9223183502849
299.9209900744993
299.9204711578737
299.9205459720829
299.9214643042615
299.9233515138113
299.9254534209896
299.9282308131162
299.9322763486834
299.9361391191465
299.9407895905942
299.9463042921438
299.9515320487561
299.9572760111843
299.9631816315168
299.9691836304439
299.9754474660147
299.9815528143175
299.9874106432546
299.993259864978
299.9986879910969
300.003019559671
300.0066561719669
300.0097885844195
300.0116913809453
300.0125315629888
300.0131905305918
300.0125119968093
300.0108435077369
300.0092598324812
300.0064509586631
300.0021986709845
299.9987635848008
299.994065320163
299.9878434068834
299.982365958278
299.9762539970737
299.9695567397682
299.9629119069394
299.956309801453
299.9501662317164
299.9436510043528
299.938116689202
299.9335136328612
299.9285706141675
299.9256831106878
299.9240045935029
299.9220151122281
299.9212535542954
299.9212946793517
299.9213948092215
299.9230687611827
299.9245239594645
299.9270549377673
299.9308944301866
299.9341204485571
299.9392167082776
299.9447034518056
299.9498410899659
299.9559531228512
299.9617229490383
299.9675399069604
299.9732563544265
299.9791567948523
299.9847755681882
299.9902491681706
299.9958566534037
300.0008035201833
300.0050619242479
300.0086846342173
300.0112751912407
300.0132316215967
300.0140585770431
300.0142878814079
300.0135004549298
300.0114935711498
300.0092366276891
300.0061138776366
300.0014896425551
299.9972569848612
299.9922331064468
299.985633731816
299.980030651909
299.9737193955349
299.966608856044
299.960414739566
299.9536741110598
299.9470221350203
299.9419484760692
299.9360147078636
299.9309683019722
299.9278139239905
299.9253700284192
299.9231557808884
299.9223305345082
299.9216000588437
299.9222787897044
299.9234726303829
299.9247392478824
299.9267549882232
299.930064902081
299.9328601474925
299.9370134103577
299.942086207127
299.9470731416872
299.9530124113699
299.9592304872519
299.9653800211198
299.9717721207419
299.9778151223646
299.9833707365649
299.9887979682815
299.9936090462162
299.997951118925
300.0022252046469
300.0055811443667
300.0084214070989
300.0107083895051
300.0129917951106
300.0137704584147
300.0139927691806
300.0129585692669
300.0107345278292
300.0078738687395
300.0039641624585
299.9988243319408
299.9934289871392
299.9873076708634
299.9806005987588
299.9740885593644
299.9669550506808
299.960076313349
299.9533640502631
299.9468201145457
299.9409670586184
299.935104388455
299.9301865573476
299.9261318216874
299.9237287159685
299.9212668199718
299.9203155423016
299.9191240493262
299.9195060047932
299.9205967645362
299.9217608582144
299.9238176961737
299.9264875725532
299.9291494582191
299.9334810804864
299.9376188717833
299.9423378628354
299.9482141368854
299.9538834161631
299.9596796843312
299.966189375265
299.9726369083363
299.9784688013689
299.9844509427739
299.9907879709241
299.9952216410496
299.9997779604009
300.0022983241919
300.0044260962022
300.0062183645481
300.0082162128011
300.0094305081445
300.010764589815
300.0112312807644
300.0092298855964
300.0074628883228
300.0030949659576
299.9976761361355
299.9934387872433
299.9873076800778
299.9809983316811
299.9763149810395
299.9697145220392
299.9629725981357
299.9573888630662
299.950800334628
299.9437972507958
299.9390048806033
299.932764840504
299.9280915671623
299.9246439817674
299.9229662440595
299.92010249763
299.9192784336353
299.9191951680016
299.9192720031007
299.9200961007261
299.9216747210496
299.9240288552267
299.9260548601102
299.9295080663495
299.9346083714223
299.9392461376939
299.9447832193601
299.9546547273333
299.9595713604287
299.970706337974
299.9775352277373
)
;

boundaryField
{
    inlet
    {
        type            fixedValue;
        value           uniform 300;
    }
    outlet
    {
        type            inletOutlet;
        inletValue      uniform 300;
        value           uniform 299.9813368762314;
    }
    frontAndBack
    {
        type            empty;
    }
}


// ************************************************************************* //
