/*--------------------------------*- C++ -*----------------------------------*\
| =========                 |                                                 |
| \\      /  F ield         | OpenFOAM: The Open Source CFD Toolbox           |
|  \\    /   O peration     | Version:  v2012                                 |
|   \\  /    A nd           | Website:  www.openfoam.com                      |
|    \\/     M anipulation  |                                                 |
\*---------------------------------------------------------------------------*/
FoamFile
{
    version     2.0;
    format      ascii;
    class       volVectorField;
    location    "0.017";
    object      UMean;
}
// * * * * * * * * * * * * * * * * * * * * * * * * * * * * * * * * * * * * * //

dimensions      [0 1 -1 0 0 0 0];


internalField   nonuniform List<vector> 
1000
(
(-0.0009923972271302149 0 0)
(-0.0008863738712421489 0 0)
(-0.0009695952382166506 0 0)
(-0.0009294480636278165 0 0)
(-0.0008320466422976628 0 0)
(-0.0008635121491098027 0 0)
(-0.000786579579876068 0 0)
(-0.0006714390940782434 0 0)
(-0.0006951340045523464 0 0)
(-0.0005942434717865017 0 0)
(-0.0004814694514488687 0 0)
(-0.000463206286763284 0 0)
(-0.0003952051500142686 0 0)
(-0.0002422960358143291 0 0)
(-0.0002443233937216979 0 0)
(-0.000196584443609182 0 0)
(-4.062601091009859e-05 0 0)
(-2.227412291108429e-05 0 0)
(-3.181153060815549e-05 0 0)
(7.365890232467461e-05 0 0)
(0.0001145734263499557 0 0)
(9.996186149088835e-05 0 0)
(0.0001083140893711018 0 0)
(0.0001529920941311232 0 0)
(0.0001362580396128823 0 0)
(0.0001020998391544828 0 0)
(6.931599759174906e-05 0 0)
(6.15993245314075e-05 0 0)
(1.540369607933301e-05 0 0)
(-7.576013147132171e-05 0 0)
(-9.767409848443019e-05 0 0)
(-0.0001564556320531187 0 0)
(-0.0002556154701693497 0 0)
(-0.0003221853374466558 0 0)
(-0.0003517938129451813 0 0)
(-0.0004672671768542304 0 0)
(-0.0005297882135232493 0 0)
(-0.0005697914817746114 0 0)
(-0.000662740011464437 0 0)
(-0.0006919751324129648 0 0)
(-0.0007678137674098161 0 0)
(-0.0008184502322406526 0 0)
(-0.0008284320958978309 0 0)
(-0.0008646492995523127 0 0)
(-0.0009348620516674256 0 0)
(-0.0008916669740730771 0 0)
(-0.0008897810602606431 0 0)
(-0.0009332164420933239 0 0)
(-0.0008912276171970826 0 0)
(-0.0008280710592561601 0 0)
(-0.0008431460601350639 0 0)
(-0.000800555684212189 0 0)
(-0.000707655184826572 0 0)
(-0.0006772022298228071 0 0)
(-0.0006300384885134922 0 0)
(-0.0005234995501452295 0 0)
(-0.0004683113138859992 0 0)
(-0.0004144517935456953 0 0)
(-0.0003133941447943098 0 0)
(-0.0002568594512988138 0 0)
(-0.0001796411902657026 0 0)
(-0.0001053029832583424 0 0)
(-4.940413700862357e-05 0 0)
(1.093330856339932e-05 0 0)
(9.110065262340499e-05 0 0)
(0.0001121087998379527 0 0)
(0.0001447777781645086 0 0)
(0.0001980595595943549 0 0)
(0.0002186008056790798 0 0)
(0.0002060037627129226 0 0)
(0.0002124999736435675 0 0)
(0.000211830271517005 0 0)
(0.0001877575735290432 0 0)
(0.0001458394792226554 0 0)
(0.0001196618653837942 0 0)
(7.384546411048153e-05 0 0)
(6.803022429261054e-06 0 0)
(-4.358329952628399e-05 0 0)
(-0.0001018697683664051 0 0)
(-0.0001856827532730807 0 0)
(-0.0002578400159853303 0 0)
(-0.0003004549843360995 0 0)
(-0.0003830374135092877 0 0)
(-0.0004681746478249195 0 0)
(-0.0004915056275982445 0 0)
(-0.0005676757593474753 0 0)
(-0.0006371106717586346 0 0)
(-0.000655653888701122 0 0)
(-0.0007125908485467845 0 0)
(-0.0007559995140869139 0 0)
(-0.0007511227129943732 0 0)
(-0.0007915745385364619 0 0)
(-0.0007982454953681595 0 0)
(-0.0007687428834904207 0 0)
(-0.0007652947898947561 0 0)
(-0.00076048306808989 0 0)
(-0.0007011489763925472 0 0)
(-0.0006561351196863816 0 0)
(-0.0006283563679825379 0 0)
(-0.0005611962929415045 0 0)
(-0.0004883437549139274 0 0)
(-0.0004296799696173105 0 0)
(-0.0003562907552736986 0 0)
(-0.0002776614385692106 0 0)
(-0.0002120578301785873 0 0)
(-0.0001261811518266312 0 0)
(-5.245124999147589e-05 0 0)
(2.920912289105051e-06 0 0)
(9.974041484034143e-05 0 0)
(0.0001620454319170478 0 0)
(0.0001876018240948808 0 0)
(0.0002845486057249915 0 0)
(0.0003274801161039687 0 0)
(0.0003118997686347798 0 0)
(0.0003887767889487422 0 0)
(0.0004190474407528916 0 0)
(0.000366945787382512 0 0)
(0.0003983319173523467 0 0)
(0.0004189894763563926 0 0)
(0.0003423360085637317 0 0)
(0.0003098257317431239 0 0)
(0.0003126407803310166 0 0)
(0.0002326756645560423 0 0)
(0.0001537771420709382 0 0)
(0.0001447536647240658 0 0)
(6.116539142073023e-05 0 0)
(-4.477425920869325e-05 0 0)
(-6.282259237541546e-05 0 0)
(-0.0001325117822070576 0 0)
(-0.0002370361632672778 0 0)
(-0.0002626576682651511 0 0)
(-0.0003086942860780433 0 0)
(-0.000399671883099221 0 0)
(-0.000429390874499042 0 0)
(-0.0004464292098380553 0 0)
(-0.000524718505747421 0 0)
(-0.0005316094793069848 0 0)
(-0.0005240945719331568 0 0)
(-0.0005751426476970678 0 0)
(-0.00056049945284025 0 0)
(-0.0005129924791397189 0 0)
(-0.0005303634648359463 0 0)
(-0.0005007603004062327 0 0)
(-0.0004184067050987033 0 0)
(-0.0003946915730060487 0 0)
(-0.0003634148888252009 0 0)
(-0.0002434374416943051 0 0)
(-0.0002085895988026493 0 0)
(-0.0001480094623230589 0 0)
(-4.221208149520165e-05 0 0)
(2.70166220774836e-05 0 0)
(6.711962384946251e-05 0 0)
(0.0001924367438293101 0 0)
(0.0002507873012514453 0 0)
(0.000302002266189562 0 0)
(0.0003971856403677807 0 0)
(0.0004666321727361541 0 0)
(0.0004898200384222442 0 0)
(0.0005652229916736752 0 0)
(0.000621911656491918 0 0)
(0.0006099263629288652 0 0)
(0.0006612590584475887 0 0)
(0.0006985921660039273 0 0)
(0.0006557663859471295 0 0)
(0.0006589596207602713 0 0)
(0.0006815125631302935 0 0)
(0.000616013088212304 0 0)
(0.0005686888542144711 0 0)
(0.000568567059893434 0 0)
(0.0004867319995558183 0 0)
(0.0004168506253713352 0 0)
(0.0003848722502560096 0 0)
(0.0003047558850396112 0 0)
(0.0002281743248130653 0 0)
(0.000181048414951974 0 0)
(0.0001116969125513654 0 0)
(3.630426919599337e-05 0 0)
(4.84126571478377e-06 0 0)
(-5.445898600354562e-05 0 0)
(-0.0001211983679251236 0 0)
(-0.0001478651082037491 0 0)
(-0.0001787862444075511 0 0)
(-0.0002240146366663603 0 0)
(-0.0002310554642679557 0 0)
(-0.0002411708872122524 0 0)
(-0.0002556784465891141 0 0)
(-0.0002335267721351753 0 0)
(-0.000207002410415796 0 0)
(-0.0001987373990197545 0 0)
(-0.0001416535629092907 0 0)
(-9.068390413362519e-05 0 0)
(-5.609989089411847e-05 0 0)
(2.346832497213769e-05 0 0)
(9.908649666341948e-05 0 0)
(0.000161272349252295 0 0)
(0.0002358929462649164 0 0)
(0.0003258726479619277 0 0)
(0.0003946471647872742 0 0)
(0.0004605999897677118 0 0)
(0.0005679337484120862 0 0)
(0.0006260269962662806 0 0)
(0.000691438517660063 0 0)
(0.0007782287562520392 0 0)
(0.0008404313551660319 0 0)
(0.0008792566023191281 0 0)
(0.0009346924137228228 0 0)
(0.000988823690103184 0 0)
(0.001000068154653985 0 0)
(0.001022391887892248 0 0)
(0.001045897304440148 0 0)
(0.001044618571491938 0 0)
(0.00102792581654804 0 0)
(0.001014353104343506 0 0)
(0.0009877763067127141 0 0)
(0.0009371733848279977 0 0)
(0.0008919384718304687 0 0)
(0.0008462230636865448 0 0)
(0.000784747902324831 0 0)
(0.0007163821486820927 0 0)
(0.0006600782576130802 0 0)
(0.0005947049884413618 0 0)
(0.0005275652133237102 0 0)
(0.0004701235321620617 0 0)
(0.000411847190729928 0 0)
(0.0003669651866983296 0 0)
(0.0003104444291764623 0 0)
(0.0002710778848409547 0 0)
(0.0002365849388817522 0 0)
(0.0002095269293352417 0 0)
(0.0001805710634059333 0 0)
(0.0001706659091248202 0 0)
(0.0001690015512428286 0 0)
(0.0001782213698993699 0 0)
(0.0001948741686210617 0 0)
(0.0002241640686681708 0 0)
(0.0002589899957986365 0 0)
(0.0003110808056658749 0 0)
(0.0003671059008688237 0 0)
(0.0004085173095705585 0 0)
(0.0005092646493480412 0 0)
(0.0005768371531488409 0 0)
(0.000638364650369425 0 0)
(0.0007296418957250117 0 0)
(0.000825291661413875 0 0)
(0.0008644556886728004 0 0)
(0.0009772623028963387 0 0)
(0.001059261653491076 0 0)
(0.001109494196797033 0 0)
(0.001206667183199676 0 0)
(0.001272328144367135 0 0)
(0.001322364995199892 0 0)
(0.001379797632977667 0 0)
(0.001450196312697999 0 0)
(0.001454170764124792 0 0)
(0.00148973331277942 0 0)
(0.001526024054460879 0 0)
(0.001523793279590816 0 0)
(0.001517484063094501 0 0)
(0.001510560794336921 0 0)
(0.001498438959864836 0 0)
(0.001447019589915266 0 0)
(0.001412744010665805 0 0)
(0.001364827644202811 0 0)
(0.001320480689005719 0 0)
(0.001248624944357866 0 0)
(0.001187231269801951 0 0)
(0.001143753654715116 0 0)
(0.001064757742497043 0 0)
(0.001004964396780545 0 0)
(0.0009692620439170769 0 0)
(0.0008990174680693917 0 0)
(0.0008587344853183036 0 0)
(0.0008244790192002698 0 0)
(0.0007763164658472738 0 0)
(0.0007548362570801804 0 0)
(0.0007365636454098359 0 0)
(0.0007131068971998891 0 0)
(0.0007166445005694051 0 0)
(0.0007249444798691291 0 0)
(0.0007273222640671094 0 0)
(0.0007712843345957545 0 0)
(0.0008044092016029247 0 0)
(0.0008476363251237028 0 0)
(0.0009004505864525077 0 0)
(0.0009724425889687814 0 0)
(0.001032553237283027 0 0)
(0.001117534108110697 0 0)
(0.001196151660934955 0 0)
(0.001276784351312761 0 0)
(0.001361863439347278 0 0)
(0.001441588824818701 0 0)
(0.001524520532376924 0 0)
(0.001611580315798862 0 0)
(0.0016904096550215 0 0)
(0.001768460970950672 0 0)
(0.001844742917056257 0 0)
(0.00190714571325014 0 0)
(0.001978914201144986 0 0)
(0.002020873727863973 0 0)
(0.002068441099516964 0 0)
(0.00210315365878416 0 0)
(0.002126928505920854 0 0)
(0.00214555367746883 0 0)
(0.00215085200287725 0 0)
(0.002147422319547193 0 0)
(0.002131941467642349 0 0)
(0.002109776906626761 0 0)
(0.002068022443102869 0 0)
(0.002034638654277939 0 0)
(0.001980077484388924 0 0)
(0.001926611108707964 0 0)
(0.001877728592719621 0 0)
(0.001816379754724025 0 0)
(0.001753318740769843 0 0)
(0.001682910962844926 0 0)
(0.001662385406876637 0 0)
(0.001596349658474789 0 0)
(0.001536086332049268 0 0)
(0.001515823296992521 0 0)
(0.001481930772966131 0 0)
(0.001438726234413513 0 0)
(0.001420733691499783 0 0)
(0.001423457786603558 0 0)
(0.001401453093696414 0 0)
(0.001406988796810111 0 0)
(0.001418803298031153 0 0)
(0.001468593922478047 0 0)
(0.001481025567983664 0 0)
(0.001531874812813976 0 0)
(0.001590281670021077 0 0)
(0.001646023424253092 0 0)
(0.001715000892747128 0 0)
(0.001793869891162619 0 0)
(0.00188275998369333 0 0)
(0.00195496627527375 0 0)
(0.00204065350509777 0 0)
(0.002132370279814625 0 0)
(0.002219978217358501 0 0)
(0.002284872010316278 0 0)
(0.002383459565725999 0 0)
(0.002462664383360058 0 0)
(0.002544877699407079 0 0)
(0.002608949438543859 0 0)
(0.002670661410439569 0 0)
(0.002738164287059724 0 0)
(0.002792144562301641 0 0)
(0.002811433994455658 0 0)
(0.00285920491419601 0 0)
(0.002875803970974616 0 0)
(0.002883898644510887 0 0)
(0.002892603444390521 0 0)
(0.002890139971339075 0 0)
(0.002850717146025866 0 0)
(0.002836742019603004 0 0)
(0.002791577287876101 0 0)
(0.002751066155822402 0 0)
(0.002693503776744521 0 0)
(0.002647028609594016 0 0)
(0.002571245810846784 0 0)
(0.00252527227530189 0 0)
(0.002456731748865248 0 0)
(0.002394250129382128 0 0)
(0.002353608410179138 0 0)
(0.002286187224395097 0 0)
(0.002253016627082063 0 0)
(0.002218470217342785 0 0)
(0.002168770720113046 0 0)
(0.002141170592604009 0 0)
(0.002144458350378028 0 0)
(0.002105340441796333 0 0)
(0.002099299744564345 0 0)
(0.002126708375870402 0 0)
(0.002121536710785868 0 0)
(0.002147119233503508 0 0)
(0.002204701584720421 0 0)
(0.002235577450810707 0 0)
(0.002269408467348415 0 0)
(0.002353694912917098 0 0)
(0.002415628611848597 0 0)
(0.002471340567438779 0 0)
(0.002576963826718666 0 0)
(0.002644267355908608 0 0)
(0.002711715047019721 0 0)
(0.002801295021077926 0 0)
(0.002894526964340796 0 0)
(0.002956010957839071 0 0)
(0.00303530537514862 0 0)
(0.003137666658355335 0 0)
(0.003191641621589654 0 0)
(0.003261070495507128 0 0)
(0.003340537025485191 0 0)
(0.003389405591296048 0 0)
(0.003426047553616188 0 0)
(0.003490750693319106 0 0)
(0.00350896520881669 0 0)
(0.003535067974993861 0 0)
(0.003561777557169175 0 0)
(0.003570824513894856 0 0)
(0.00357021255030137 0 0)
(0.003555754263867151 0 0)
(0.003539805018259905 0 0)
(0.003525306585835666 0 0)
(0.003483414752941633 0 0)
(0.003454533526263882 0 0)
(0.003426382128893426 0 0)
(0.003353799201212899 0 0)
(0.003333728036446406 0 0)
(0.003279749518246566 0 0)
(0.003240737958238918 0 0)
(0.003191900990595261 0 0)
(0.003167084190249529 0 0)
(0.003150395567474583 0 0)
(0.003093734103294742 0 0)
(0.003088652887656575 0 0)
(0.003082630823929688 0 0)
(0.003050737517120089 0 0)
(0.003056512264439066 0 0)
(0.003070596048149023 0 0)
(0.003064586865208466 0 0)
(0.003092817473485797 0 0)
(0.003148327073001476 0 0)
(0.003172061152598744 0 0)
(0.003211146366453538 0 0)
(0.003277474590066218 0 0)
(0.003341852982670492 0 0)
(0.003398070166902166 0 0)
(0.003488042552228914 0 0)
(0.003570083239523017 0 0)
(0.003631519287205534 0 0)
(0.003720578952907816 0 0)
(0.003812950979290696 0 0)
(0.003873093849825597 0 0)
(0.003968164954520767 0 0)
(0.00405519195256493 0 0)
(0.004131783099141416 0 0)
(0.004187854684564623 0 0)
(0.004276680254914674 0 0)
(0.004344816275942972 0 0)
(0.004379939963213921 0 0)
(0.004441267574371944 0 0)
(0.004487095965216173 0 0)
(0.004504478795581634 0 0)
(0.004534421450868297 0 0)
(0.004564372650997892 0 0)
(0.004564206810969772 0 0)
(0.004555156560304201 0 0)
(0.004563843150053599 0 0)
(0.004531379076581123 0 0)
(0.004501706290706703 0 0)
(0.004496898275706573 0 0)
(0.004442412520927462 0 0)
(0.004400928561954415 0 0)
(0.004372931627802981 0 0)
(0.004319827072541524 0 0)
(0.004272613970515577 0 0)
(0.004254211792203105 0 0)
(0.004198898754795342 0 0)
(0.004182651402958528 0 0)
(0.004154562183924604 0 0)
(0.004128183208473099 0 0)
(0.004120767452859577 0 0)
(0.004113045920968636 0 0)
(0.004095160906851729 0 0)
(0.004114389720995013 0 0)
(0.004128836355151857 0 0)
(0.004140532853099602 0 0)
(0.004185960135852613 0 0)
(0.004236975015379844 0 0)
(0.004269809535621536 0 0)
(0.004331890288680732 0 0)
(0.004407032465858498 0 0)
(0.004466403778754954 0 0)
(0.004546770914007333 0 0)
(0.004641909852636511 0 0)
(0.004716168649084223 0 0)
(0.004795255016422102 0 0)
(0.004908150091499355 0 0)
(0.004966997220021041 0 0)
(0.005058623038060253 0 0)
(0.005152953862852816 0 0)
(0.005234347824269363 0 0)
(0.005321437626393984 0 0)
(0.005392867312781052 0 0)
(0.005464430778605662 0 0)
(0.00553996348148744 0 0)
(0.005580747253926623 0 0)
(0.005637677787705081 0 0)
(0.005688350129912097 0 0)
(0.005698389619840602 0 0)
(0.00573624184341111 0 0)
(0.005772087649032236 0 0)
(0.005767685619768895 0 0)
(0.005751972692550872 0 0)
(0.005772430916049519 0 0)
(0.005741123707582401 0 0)
(0.005707136989464915 0 0)
(0.005711921753163905 0 0)
(0.005668532776536644 0 0)
(0.005622060507397335 0 0)
(0.005594146537364191 0 0)
(0.005567806000392377 0 0)
(0.005515050331915836 0 0)
(0.005490788107118514 0 0)
(0.005476400711351572 0 0)
(0.005447684161512082 0 0)
(0.005420803812655543 0 0)
(0.005430986204120255 0 0)
(0.005418832456584827 0 0)
(0.005394161614463045 0 0)
(0.005430310226113641 0 0)
(0.005444530966454524 0 0)
(0.005448796152959624 0 0)
(0.005496321749770552 0 0)
(0.005540531288586253 0 0)
(0.005599847849958454 0 0)
(0.005652351239980447 0 0)
(0.005711074942443278 0 0)
(0.00578640638320664 0 0)
(0.005885773540939193 0 0)
(0.005955647779021161 0 0)
(0.006047281437243391 0 0)
(0.006153595794554914 0 0)
(0.006221420672400147 0 0)
(0.006312505895535003 0 0)
(0.006420908844438558 0 0)
(0.006496313187191315 0 0)
(0.006590918951034549 0 0)
(0.006683445101841644 0 0)
(0.006764388229444551 0 0)
(0.006841292342493027 0 0)
(0.006924947746267586 0 0)
(0.006975010278946504 0 0)
(0.00702773585633479 0 0)
(0.00709632332533052 0 0)
(0.007113650136172624 0 0)
(0.00715504014386069 0 0)
(0.007192246024154 0 0)
(0.007210509552247983 0 0)
(0.007209260482322923 0 0)
(0.007211299858772005 0 0)
(0.0072054498559098 0 0)
(0.007189866695303362 0 0)
(0.007180965430769065 0 0)
(0.007150699662538423 0 0)
(0.007126528575572293 0 0)
(0.007096957069329092 0 0)
(0.007069079391220372 0 0)
(0.007023570337414499 0 0)
(0.007005207244739332 0 0)
(0.006994130209209816 0 0)
(0.006973897065243749 0 0)
(0.006947133523693058 0 0)
(0.006950770028968394 0 0)
(0.006956625911013831 0 0)
(0.006939583257313991 0 0)
(0.006951380399960893 0 0)
(0.006984822667159683 0 0)
(0.006984669529347555 0 0)
(0.007023904602310498 0 0)
(0.007086916299476011 0 0)
(0.007137108281581259 0 0)
(0.007165373760010598 0 0)
(0.007279298835994542 0 0)
(0.007324638933045313 0 0)
(0.007397636176255324 0 0)
(0.007509813909246869 0 0)
(0.007597465502625963 0 0)
(0.007673258030594801 0 0)
(0.007786275096276102 0 0)
(0.007874645066242447 0 0)
(0.007952615420887259 0 0)
(0.008051049757377257 0 0)
(0.008151513526295078 0 0)
(0.008230129762895121 0 0)
(0.008329339906221448 0 0)
(0.008418416174150725 0 0)
(0.008479108890605496 0 0)
(0.008554196627847434 0 0)
(0.008633652093155836 0 0)
(0.008673836039847584 0 0)
(0.008701477153262341 0 0)
(0.008759852202432236 0 0)
(0.008803780332936341 0 0)
(0.008815796602223576 0 0)
(0.008826753152987645 0 0)
(0.008835070297552004 0 0)
(0.00884172108353925 0 0)
(0.008818105817551072 0 0)
(0.008801797892290514 0 0)
(0.008815246968373866 0 0)
(0.008767830721331757 0 0)
(0.008736092159687714 0 0)
(0.008717448546795348 0 0)
(0.008694083542877408 0 0)
(0.008639508961426212 0 0)
(0.008639535181742162 0 0)
(0.008634129043126099 0 0)
(0.00859663671271038 0 0)
(0.008595434927329308 0 0)
(0.008616902382407879 0 0)
(0.00859045717298992 0 0)
(0.008608559054627211 0 0)
(0.008638167953146619 0 0)
(0.008647755395378673 0 0)
(0.008666865028673585 0 0)
(0.008749751159009563 0 0)
(0.008782205973714697 0 0)
(0.008830751860504525 0 0)
(0.008923355447634021 0 0)
(0.008990771187420088 0 0)
(0.009053635619171659 0 0)
(0.009166740173640702 0 0)
(0.009256129633706008 0 0)
(0.00935016524158625 0 0)
(0.009449955039767689 0 0)
(0.009545537637864445 0 0)
(0.009633905921880338 0 0)
(0.009734415319825027 0 0)
(0.009823389234974327 0 0)
(0.009937430478271022 0 0)
(0.01001946632315089 0 0)
(0.01010423737447245 0 0)
(0.0102092659855039 0 0)
(0.01027291259751049 0 0)
(0.01033522522748906 0 0)
(0.0104113522833713 0 0)
(0.01045629195012742 0 0)
(0.01049270066509435 0 0)
(0.01054894210397528 0 0)
(0.0105765836592035 0 0)
(0.01059755153513687 0 0)
(0.01061479268429625 0 0)
(0.01061785154293921 0 0)
(0.01060436275242749 0 0)
(0.01062624621713523 0 0)
(0.0105881815474783 0 0)
(0.01059095513092212 0 0)
(0.0105786612538903 0 0)
(0.01053139991245537 0 0)
(0.01051828337693872 0 0)
(0.01050250936669112 0 0)
(0.01045631466306325 0 0)
(0.01047677702652814 0 0)
(0.01046068776240318 0 0)
(0.01043850646952157 0 0)
(0.01045831430561672 0 0)
(0.01045787789524536 0 0)
(0.01046500116936273 0 0)
(0.0104820533492647 0 0)
(0.01050930044076051 0 0)
(0.0105378329470249 0 0)
(0.01057065150268628 0 0)
(0.0106490533642026 0 0)
(0.01069407385708917 0 0)
(0.01075402855127756 0 0)
(0.01085350541052808 0 0)
(0.01090525202503036 0 0)
(0.01100069661186827 0 0)
(0.01110852217182201 0 0)
(0.01119859845544033 0 0)
(0.01129913137692106 0 0)
(0.01140257697976621 0 0)
(0.01149084552921514 0 0)
(0.01158966184295814 0 0)
(0.01167879232000248 0 0)
(0.01178634760054727 0 0)
(0.01188536309983458 0 0)
(0.0119756660791481 0 0)
(0.01206472887405222 0 0)
(0.01214574104576659 0 0)
(0.01221568527095121 0 0)
(0.01229184863809016 0 0)
(0.01233736632143151 0 0)
(0.012387390413951 0 0)
(0.01243302221026037 0 0)
(0.01247649290523458 0 0)
(0.01249727344986126 0 0)
(0.01251927889212014 0 0)
(0.01253477202349007 0 0)
(0.01252097930518205 0 0)
(0.01253383870363146 0 0)
(0.01252705250499248 0 0)
(0.01251646888879874 0 0)
(0.01250736485907901 0 0)
(0.01248362829612165 0 0)
(0.01246079621497921 0 0)
(0.01244690273203551 0 0)
(0.01240508448561179 0 0)
(0.01240672974209684 0 0)
(0.01241546702581068 0 0)
(0.01239442102388644 0 0)
(0.01238752314549396 0 0)
(0.01241042854957207 0 0)
(0.01241223163217278 0 0)
(0.01241218985362513 0 0)
(0.01245337397823551 0 0)
(0.01247297425164414 0 0)
(0.01249733716224521 0 0)
(0.01256378750825854 0 0)
(0.01262370078969468 0 0)
(0.01266876392443044 0 0)
(0.01274717389591594 0 0)
(0.01282380772759093 0 0)
(0.01290222584622581 0 0)
(0.01300024712440692 0 0)
(0.01308759624906566 0 0)
(0.01320169456886959 0 0)
(0.01328771327207171 0 0)
(0.01338946135570785 0 0)
(0.01347229243672508 0 0)
(0.01355975440772391 0 0)
(0.01366883685517298 0 0)
(0.01377304439970064 0 0)
(0.01383590593271137 0 0)
(0.01396565469743558 0 0)
(0.01402778268121843 0 0)
(0.0140931637022209 0 0)
(0.01417217311044176 0 0)
(0.01424670522759396 0 0)
(0.01426052684851202 0 0)
(0.01433023530005925 0 0)
(0.01438346490545291 0 0)
(0.01438634628972527 0 0)
(0.01441374114871668 0 0)
(0.01444878676619181 0 0)
(0.01443020585503234 0 0)
(0.01441265881753718 0 0)
(0.01446098008601107 0 0)
(0.01440330637062882 0 0)
(0.01439136373221855 0 0)
(0.0144138245116264 0 0)
(0.0143551616442387 0 0)
(0.01433039793201507 0 0)
(0.01430882005683294 0 0)
(0.01430011595309901 0 0)
(0.01427096543702742 0 0)
(0.01427554894668383 0 0)
(0.01427242017714978 0 0)
(0.01427281542075228 0 0)
(0.0142671320897219 0 0)
(0.01426937998263573 0 0)
(0.01431390790104247 0 0)
(0.01431677865688011 0 0)
(0.01433249896224557 0 0)
(0.01439105328716966 0 0)
(0.01445929713153871 0 0)
(0.01449778560222681 0 0)
(0.01453737091508538 0 0)
(0.0146538300407518 0 0)
(0.01471075128939126 0 0)
(0.01478367302943113 0 0)
(0.01489119099667316 0 0)
(0.01500097958438421 0 0)
(0.01505876862237089 0 0)
(0.01518736809943842 0 0)
(0.01527507292033276 0 0)
(0.01534299784531611 0 0)
(0.01543657541235144 0 0)
(0.01556675580467796 0 0)
(0.0156264428350291 0 0)
(0.01571329678461891 0 0)
(0.01583077221044037 0 0)
(0.01588534240842356 0 0)
(0.01592098639115457 0 0)
(0.01604572234402249 0 0)
(0.01606119768655583 0 0)
(0.01608944912343316 0 0)
(0.01616736897002772 0 0)
(0.0162015042749734 0 0)
(0.01618975017119891 0 0)
(0.01623483825293543 0 0)
(0.01624429247166313 0 0)
(0.01622625740335469 0 0)
(0.01622659411009725 0 0)
(0.01623383808267081 0 0)
(0.01620452663645004 0 0)
(0.01618929827678426 0 0)
(0.01618215218797766 0 0)
(0.01614639236352922 0 0)
(0.01612055994422037 0 0)
(0.01608197905156266 0 0)
(0.01609711371787589 0 0)
(0.01605841552596472 0 0)
(0.01606454736652706 0 0)
(0.01607826820934891 0 0)
(0.01606568415915538 0 0)
(0.01607726429569521 0 0)
(0.01609705465864943 0 0)
(0.01610701883498385 0 0)
(0.01613951723130211 0 0)
(0.01618044676880843 0 0)
(0.0162376501675236 0 0)
(0.01628155795115607 0 0)
(0.01635660313475328 0 0)
(0.01642402080308038 0 0)
(0.01650248238282964 0 0)
(0.0165756917577599 0 0)
(0.01668616942696885 0 0)
(0.01677017210641346 0 0)
(0.01687580890309517 0 0)
(0.01696876625907733 0 0)
(0.01707294247682034 0 0)
(0.01716103340177604 0 0)
(0.01724186549566393 0 0)
(0.01735572861372048 0 0)
(0.01744320312962105 0 0)
(0.01753088544799671 0 0)
(0.01762718428521188 0 0)
(0.01772515384964203 0 0)
(0.01777271471095334 0 0)
(0.01785174693584836 0 0)
(0.01791870116516946 0 0)
(0.01793915645189136 0 0)
(0.0180096369441335 0 0)
(0.01804754257143277 0 0)
(0.01807231644954389 0 0)
(0.01809115154533175 0 0)
(0.01811413112117152 0 0)
(0.01811229456519206 0 0)
(0.0181107705899942 0 0)
(0.01810703161527893 0 0)
(0.01810621642246883 0 0)
(0.01808865518432366 0 0)
(0.01807633557503827 0 0)
(0.01805869783190151 0 0)
(0.01803111032564845 0 0)
(0.01801427572461922 0 0)
(0.01799313715952975 0 0)
(0.01797743180270707 0 0)
(0.01798828711190752 0 0)
(0.01798137652325668 0 0)
(0.01798674312404837 0 0)
(0.01800319689235684 0 0)
(0.01801289537249222 0 0)
(0.01802201509174912 0 0)
(0.01805381684093373 0 0)
(0.01808549843438167 0 0)
(0.01813995540186967 0 0)
(0.0181865298854512 0 0)
(0.01824368281381919 0 0)
(0.0183262465989336 0 0)
(0.01838843645805217 0 0)
(0.01846614811611838 0 0)
(0.01857062255860976 0 0)
(0.01865032992069614 0 0)
(0.01875352191615264 0 0)
(0.01885724852740207 0 0)
(0.01895628923399152 0 0)
(0.01903296690914768 0 0)
(0.01913747810007246 0 0)
(0.01923248944184172 0 0)
(0.01931952928208568 0 0)
(0.01941526846773268 0 0)
(0.01950265796161044 0 0)
(0.01960779793868418 0 0)
(0.01966236875137715 0 0)
(0.01974749714647158 0 0)
(0.01980755464176488 0 0)
(0.01984396212033691 0 0)
(0.01988930318201984 0 0)
(0.01994508315615735 0 0)
(0.01997401736206116 0 0)
(0.02000049010159003 0 0)
(0.02001222226003985 0 0)
(0.02003243944089298 0 0)
(0.02003350987764111 0 0)
(0.02001372430210508 0 0)
(0.02002072662303193 0 0)
(0.02001961554006434 0 0)
(0.01998158814260769 0 0)
(0.01999650081973356 0 0)
(0.01994500413836948 0 0)
(0.01991931531883187 0 0)
(0.01990820580537924 0 0)
(0.01990204031319702 0 0)
(0.01987502714475971 0 0)
(0.01987020700944998 0 0)
(0.01989758808792149 0 0)
(0.01988402115991948 0 0)
(0.01989172506145861 0 0)
(0.01993421456626745 0 0)
(0.01993219586239903 0 0)
(0.01994034089422839 0 0)
(0.02001617753755598 0 0)
(0.02005553244114232 0 0)
(0.0201077019304211 0 0)
(0.02016461225035609 0 0)
(0.02025968161907108 0 0)
(0.02032752238478114 0 0)
(0.02039137708345841 0 0)
(0.02050952724317544 0 0)
(0.02059395661192305 0 0)
(0.02068604863749722 0 0)
(0.02080316466456014 0 0)
(0.02089533906294318 0 0)
(0.02095389796655217 0 0)
(0.02106897321260221 0 0)
(0.02116695607503582 0 0)
(0.02125316895684629 0 0)
(0.02132617729659634 0 0)
(0.02145337710067729 0 0)
(0.02150452202783753 0 0)
(0.02158235486126433 0 0)
(0.02166489036401325 0 0)
(0.02172538664752369 0 0)
(0.02172157407027117 0 0)
(0.02180414760855767 0 0)
(0.02184204275202912 0 0)
(0.02185802634898147 0 0)
(0.02187669984335322 0 0)
(0.02190594840165333 0 0)
(0.02189410461854396 0 0)
(0.02190693046411196 0 0)
(0.0218984700271433 0 0)
(0.02189193926899137 0 0)
(0.02187140206387941 0 0)
(0.02188273619316563 0 0)
(0.02185124529027772 0 0)
(0.02180149949880451 0 0)
(0.02179714850701402 0 0)
(0.0217758363667053 0 0)
(0.02175891018390478 0 0)
(0.02177219917285404 0 0)
(0.02175246888381739 0 0)
(0.0217521619610708 0 0)
(0.02178223347608279 0 0)
(0.02181026811701753 0 0)
(0.02180491920174713 0 0)
(0.02184526797522052 0 0)
(0.02188123740681725 0 0)
(0.02193055353536952 0 0)
(0.02199274163115163 0 0)
(0.02206532823638412 0 0)
(0.02210558047684723 0 0)
(0.02221741302500097 0 0)
(0.02229349396529164 0 0)
(0.02237479804183004 0 0)
(0.02248235825192327 0 0)
(0.02258144442225685 0 0)
(0.02266932323299185 0 0)
(0.02280400822727552 0 0)
(0.02287431803707736 0 0)
(0.02294254594551271 0 0)
(0.02306622636498571 0 0)
(0.02317734116988294 0 0)
(0.02322689332946078 0 0)
(0.02336365188354878 0 0)
(0.02342810464641114 0 0)
(0.02349413055634504 0 0)
(0.02359707881210936 0 0)
(0.02365085737735044 0 0)
(0.02371366755758119 0 0)
(0.02373354474051516 0 0)
(0.02378752861632848 0 0)
(0.02383285788399972 0 0)
(0.02384873900874812 0 0)
(0.02386376396718848 0 0)
(0.02388706658018414 0 0)
(0.02387359570745467 0 0)
(0.02388574809724589 0 0)
(0.02389894514414951 0 0)
(0.02386266888540696 0 0)
(0.02386794056293087 0 0)
(0.02386408909644343 0 0)
(0.02386119987768067 0 0)
(0.02377265694992763 0 0)
(0.02380647702860085 0 0)
(0.02376932541528194 0 0)
(0.02377825199070367 0 0)
(0.02379398391868495 0 0)
(0.02376492722433307 0 0)
(0.02379062156273679 0 0)
(0.02382331381764281 0 0)
(0.02381428142535385 0 0)
(0.02387526911436443 0 0)
(0.02390525472277737 0 0)
(0.02390651293340226 0 0)
(0.02401395789855735 0 0)
(0.02405021575869717 0 0)
(0.02412024728344443 0 0)
(0.02418958468208813 0 0)
(0.02427662037733727 0 0)
(0.02437963083708786 0 0)
(0.02446183924112053 0 0)
(0.02456576515932673 0 0)
(0.02464968131025866 0 0)
(0.02477325525134279 0 0)
(0.02489074438140728 0 0)
(0.02491033663621319 0 0)
(0.02499388008364984 0 0)
(0.02521400145693204 0 0)
(0.02515438559091946 0 0)
(0.02534159974747556 0 0)
(0.02545092097771546 0 0)
(0.02542027060000915 0 0)
(0.02558341969315867 0 0)
(0.02572734925833951 0 0)
(0.02549941859906725 0 0)
(0.02577825294941644 0 0)
(0.02593341652269373 0 0)
)
;

boundaryField
{
    inlet
    {
        type            calculated;
        value           uniform (-0.0009923972271302149 0 0);
    }
    outlet
    {
        type            calculated;
        value           uniform (0.02593341652269373 0 0);
    }
    frontAndBack
    {
        type            empty;
    }
}


// ************************************************************************* //
