/*--------------------------------*- C++ -*----------------------------------*\
| =========                 |                                                 |
| \\      /  F ield         | OpenFOAM: The Open Source CFD Toolbox           |
|  \\    /   O peration     | Version:  v2012                                 |
|   \\  /    A nd           | Website:  www.openfoam.com                      |
|    \\/     M anipulation  |                                                 |
\*---------------------------------------------------------------------------*/
FoamFile
{
    version     2.0;
    format      ascii;
    class       volScalarField;
    location    "0.014";
    object      rho;
}
// * * * * * * * * * * * * * * * * * * * * * * * * * * * * * * * * * * * * * //

dimensions      [1 -3 0 0 0 0 0];


internalField   nonuniform List<scalar> 
1000
(
1.176236754265836
1.17628639615354
1.176257239136359
1.176168468269685
1.176148180240174
1.176096011369483
1.176056704912182
1.17605239260588
1.176011452612289
1.176008561299826
1.176011065010731
1.176010114090885
1.176023668869414
1.17603694524236
1.176052423007843
1.176095362373729
1.17611980784608
1.176165077569313
1.176217244267862
1.176256251429482
1.176309218749824
1.176360947870544
1.176413361942205
1.176467136616747
1.17652071134812
1.176574181237213
1.17662015793312
1.176673317134041
1.17670808934984
1.176751951623234
1.176795495692442
1.176810189611303
1.176816542242803
1.176820935024429
1.176813945469903
1.176813985079192
1.176805987401992
1.176782393119336
1.176770150692985
1.176734468863376
1.176691562638116
1.176654154105478
1.176592458118601
1.176540339538865
1.176482833497958
1.176419265564662
1.176365029252608
1.176302339373831
1.176244407330584
1.176189827752693
1.176131460710801
1.176080945016651
1.176034754466093
1.175985438854815
1.175964128454564
1.175947780585786
1.175938972393948
1.175935751021194
1.175935838007037
1.175940414176636
1.175951025889024
1.175964102531166
1.175988028283075
1.176026528883229
1.17606476755
1.176117676816744
1.176178294478891
1.176238136588126
1.176307956049231
1.176376856163928
1.176442445597964
1.176511574021313
1.176577867130922
1.176637852309522
1.176701957773637
1.176756677430146
1.176810156669485
1.17683634076261
1.176868174284055
1.176879229199615
1.176887821589384
1.176885735441096
1.176878486322556
1.176871234602618
1.176853595339585
1.176827495494516
1.176802090987571
1.176762572576135
1.17671065553577
1.176659687615098
1.176594648985253
1.176529442893381
1.176465606501116
1.176394949560601
1.1763287342227
1.176266804818263
1.176204623983417
1.176147016971433
1.176097540550801
1.176044603381369
1.176013113818258
1.175994164002037
1.175975384240774
1.175967941959845
1.175965965915741
1.175969671513333
1.175977868424371
1.17598982047621
1.176010559493587
1.176033718537614
1.176066366626349
1.176111049494987
1.176156236556513
1.176211020692667
1.176279355840419
1.17634638520155
1.176417021240819
1.176488357897077
1.176558291929399
1.176622098117559
1.176683816526844
1.176741104616995
1.176795593822259
1.176830767056831
1.176856457052806
1.176875338471317
1.176885709676422
1.176886666521215
1.176880740464526
1.176872352856049
1.17685897192966
1.176832633136108
1.17680659287172
1.17677487436116
1.176728385904809
1.176685331237454
1.17663127783948
1.176565842936832
1.176503009515489
1.176433074351866
1.176362903279526
1.176294635674881
1.176227334713918
1.176167644447296
1.17611368481676
1.176057699230896
1.176027290186888
1.176005771227856
1.175985450248896
1.175976996081871
1.175973816496298
1.175976371463802
1.175983316745713
1.175992184544911
1.17601108411462
1.176035243758155
1.176061278184514
1.176102053786758
1.176142678768513
1.176189386911508
1.176251714068392
1.176315290638762
1.176384093788948
1.176455932248902
1.176529123260522
1.176598784823836
1.176663216472455
1.176723856976236
1.176785705005128
1.176820209056768
1.176850917072273
1.17686836068288
1.176882862866428
1.176885219271416
1.176880886515203
1.176873870912101
1.176861753839327
1.176839580280852
1.176812338707043
1.176785966737688
1.176743241466548
1.176698900470089
1.176654260492895
1.17659547739008
1.176531644777783
1.176468510874261
1.176398455525162
1.176326434322661
1.176258303658973
1.176193672254332
1.17613184916721
1.176072622712878
1.176033669155003
1.176011891249157
1.175993462925546
1.175981207519545
1.175979214912462
1.175981237651378
1.175986707695308
1.175993747926412
1.176013830180858
1.176035132187171
1.176058202025105
1.176095425896462
1.176133962989996
1.176175014062884
1.176233942650395
1.176294059874617
1.176354228955887
1.176425312661971
1.176497329625803
1.176568164364434
1.17663945473139
1.176706788187492
1.176768763670406
1.176817867513067
1.176845233713967
1.176870626962044
1.176882419356629
1.176888968729485
1.176885516036237
1.176878216783269
1.176868974268314
1.176847299268299
1.17682522464719
1.176796892692928
1.176759366110305
1.176720516836171
1.176674163083186
1.176620782709776
1.176562641106052
1.176500508347454
1.176435218753278
1.176363289168122
1.176294956529313
1.176225738508615
1.176154830249151
1.176100873842029
1.176040848507067
1.176020611565552
1.175996317389813
1.175986386098128
1.175980080358624
1.175983106592069
1.175987811820605
1.175993728790463
1.176011509764429
1.17603062920362
1.176052387867029
1.176088448887906
1.176121772618287
1.176161060156423
1.176213557048702
1.176266157997088
1.176323202704454
1.176392627416532
1.176459796414818
1.176532113596547
1.176604381754548
1.176673125567645
1.176736250168681
1.176800776432306
1.176835896946003
1.176859763407537
1.176877963509241
1.176885590650367
1.176884105019058
1.1768778929342
1.176871017373662
1.176854110960961
1.176828830909554
1.176808582558563
1.176774850432502
1.176731984127676
1.176693633669122
1.176644856476329
1.176587734755323
1.176532526928841
1.176469689059287
1.176398529780915
1.176332061394368
1.176264034915395
1.176194170391615
1.176132333209447
1.176066621625445
1.176034015239907
1.176007661600946
1.1759963208276
1.175985115769117
1.17598634541735
1.175991585466159
1.175998166304485
1.176008119293607
1.176031752945785
1.176052533965684
1.17608065020219
1.176115634834486
1.176151009690847
1.176197567774447
1.176250779308085
1.176303577653359
1.176366212613515
1.176433108659958
1.176500677444704
1.176572172427707
1.176641766525256
1.176709743818453
1.176777238757738
1.176824428970773
1.176853969292994
1.176878087904302
1.176885452734026
1.176887630727017
1.176884460949803
1.176874795606969
1.17685613869311
1.176840645390459
1.176814732811945
1.176777237223548
1.176747166332375
1.1767028072822
1.176656076009313
1.176605054809763
1.176545262709717
1.17648904065306
1.176423975614423
1.176353835339042
1.176288639174203
1.176219088184681
1.176146048909952
1.176096981223048
1.176032345214532
1.176013352272518
1.175993571623416
1.175981303659835
1.175981210370953
1.175985848621032
1.175995122826622
1.176002556418662
1.176022015301393
1.176043720702997
1.176069109618943
1.176104536173053
1.176139237761464
1.176176868157893
1.176228820928199
1.176282331103786
1.17633491093619
1.176400334146902
1.176468627317646
1.176533092249852
1.176605012223957
1.176674460306167
1.176735982602323
1.176803036394268
1.176839465796756
1.176861109703126
1.17688275685308
1.176887310569893
1.176881603453148
1.176876323103399
1.176864646739711
1.17684176251467
1.176820610948736
1.17679350230673
1.176752901904588
1.176716683589059
1.17667191537604
1.176619788234417
1.176566640835468
1.176510194778068
1.176446775776651
1.176380588910279
1.176313812399773
1.17624522273421
1.17617837761979
1.176115590997191
1.176050580536525
1.17601617509723
1.175992067305128
1.175980310080831
1.175972867276931
1.175978197623446
1.175982632926371
1.17599572111271
1.176008330866113
1.176028771688966
1.176056941817569
1.176084735624722
1.176118489008773
1.176159044747404
1.176201568980829
1.176248441712999
1.176307422672451
1.176366163926644
1.17642582495793
1.17649619803208
1.17656442923354
1.176625212570693
1.17669862918985
1.176761648477021
1.176813757549339
1.176844042984037
1.176864623256726
1.176879702184513
1.176879068433658
1.17686973077391
1.176861325382642
1.176846536957098
1.176818149953497
1.176793263237666
1.176760052723403
1.176715852621577
1.17667670622038
1.176626677844291
1.176573909897939
1.176517519170762
1.176456772488585
1.176396831186771
1.176329185283088
1.176264661284741
1.176196668829032
1.17613156201126
1.176075069091164
1.176013529841667
1.17598992546009
1.175973476912407
1.175961567355272
1.175957628989136
1.175964900869585
1.175978018470206
1.175986852638542
1.17600534024364
1.176033288866971
1.176055922223038
1.176094409663382
1.176132613738819
1.176168842678908
1.176220290116081
1.176271755398044
1.176324307603825
1.176387726274747
1.176451817090828
1.176519972930875
1.176588354869996
1.176655312259028
1.176717727143747
1.176783422358954
1.176821586958878
1.176846055449783
1.176867000480881
1.176873360740837
1.176868834406294
1.176859245090887
1.176847075970729
1.176828450629335
1.176798832353473
1.176768224955589
1.176730113930528
1.176686084627723
1.176642739716886
1.176590300266444
1.176535284359695
1.176480053530542
1.176417645433416
1.176353339560295
1.176289844796427
1.176226251801929
1.17616099927102
1.176098998575547
1.176044206449834
1.176001256968228
1.175978032212911
1.175964387243084
1.175957730457966
1.175963525434831
1.175968519788097
1.175986053171534
1.176001213757135
1.176026387238082
1.176056164113715
1.176085133085988
1.176121269436718
1.176162755190826
1.176204160353397
1.176250288194146
1.17630895631622
1.176363569980182
1.176421944673322
1.176488115229106
1.176551550179499
1.176615448775355
1.176685526170905
1.176744080375141
1.176797356050256
1.176830457228475
1.176851046328442
1.176866853155763
1.176866980376096
1.176858615414573
1.176848472522414
1.176830732036241
1.176803366378342
1.176774303806163
1.176737693562771
1.176693204427132
1.176650494185458
1.176600395877996
1.176544818797758
1.176490049391912
1.176431481634146
1.176368675735809
1.176304396845892
1.176240852696374
1.176175061910916
1.176111211952294
1.17605773706971
1.175999860935413
1.175974879272554
1.175953723051154
1.175941488894893
1.175940728345231
1.175949820530768
1.175964537703455
1.175976026568369
1.175996686575127
1.176027081903897
1.176053479847953
1.176090071584692
1.176130999970965
1.176167615768266
1.176216983558438
1.176268034852385
1.176319052483776
1.176381246957406
1.176440240349021
1.176503606633701
1.176573152475751
1.176631990468108
1.176697829676217
1.176756696152574
1.176798804215263
1.176827085707551
1.176851405009434
1.176855939146945
1.176852150537914
1.176845638084562
1.176832420945218
1.176805424958374
1.176777600210478
1.176745961666938
1.17669858603232
1.176658152541767
1.176610062529004
1.176552943046676
1.176500929907939
1.176443297390948
1.17637651325119
1.176317950336633
1.176252013955156
1.176187482097069
1.176127220283827
1.176068635132412
1.176013259037487
1.175971900714824
1.175951144610082
1.17593158037139
1.175928592037777
1.175931772905827
1.175939242366703
1.175958744902338
1.175973749059737
1.175998898181829
1.176031958552735
1.176058340560524
1.176101025640605
1.1761437372685
1.176181968018226
1.176230734902669
1.176287094051594
1.176339795001501
1.176395909206839
1.176460004593362
1.176521288952654
1.176582706694269
1.176648809921521
1.176714456864226
1.176758834972775
1.176798601191749
1.176823575168094
1.176840607401516
1.176842263456373
1.176837076281322
1.176824416862718
1.176808231220024
1.176777488714412
1.176748012724875
1.176706143141358
1.176658505934151
1.176613593880811
1.176557897953682
1.17650417596006
1.176445868635247
1.176385163590767
1.17632667734613
1.176259142852925
1.176199079638389
1.176138950641409
1.176072094348949
1.176023570178226
1.17596863117727
1.17594408161266
1.175922776754247
1.175905805458222
1.175908626082523
1.175913152813827
1.175931555896014
1.175946293847491
1.175967485423774
1.17599994988572
1.176029661288789
1.176067172151531
1.176108574867914
1.176147629558419
1.176196419149693
1.176245486761794
1.176295782487156
1.176354552887385
1.176410894371934
1.17647243213776
1.17653678959858
1.176593591499222
1.176656513133558
1.176712434332438
1.176757878131788
1.176789590077147
1.1768168591656
1.176824106161126
1.176825006411538
1.176818324946272
1.176802155464897
1.176778236178856
1.176747495784277
1.176709677435483
1.176664099753428
1.176616473339588
1.176562551775081
1.176505549801389
1.176447949293132
1.176389792542388
1.176325368182225
1.176263326992816
1.176203813868378
1.176134297549116
1.176078837402225
1.176023835780947
1.175966773644006
1.175928952140519
1.175908613109013
1.175885214385139
1.175881093145781
1.175883767276823
1.175891756964433
1.175913939925723
1.175932975197723
1.175961363518735
1.175994716425609
1.176021661094735
1.176068333699129
1.176109250820519
1.176147653834215
1.176201151360813
1.176249086909319
1.17630000936488
1.176355632381667
1.176414846705302
1.176476600479692
1.176535224749403
1.176595057605061
1.176657544284163
1.176703876054696
1.176745522192761
1.176776805761786
1.176793752010103
1.176800730872314
1.176798567299293
1.176787565111727
1.176767307031554
1.176742477529658
1.176703026445619
1.176660992362296
1.176614986765614
1.176555354596999
1.176502453553876
1.176448754828357
1.176382490068771
1.176321408268483
1.176263845843764
1.176199516579061
1.17613907071583
1.176082678214527
1.176019024824978
1.175969011020443
1.175923256516248
1.175889502920203
1.17587084941894
1.175854702860289
1.175852691256983
1.175857785541419
1.175872798030054
1.175894966533606
1.175918326883893
1.175950410429607
1.175985166407479
1.176021251782513
1.176067563770267
1.176109537750293
1.176153837386828
1.17620497679412
1.176253904859139
1.176304557651179
1.176363011369834
1.176422093730011
1.176476125785398
1.176538947091654
1.176597159651138
1.176651217003498
1.176695751240229
1.176730486366216
1.176756881736251
1.176769427480473
1.176771853237616
1.176764124210557
1.17675136828643
1.17673068505362
1.176690219998622
1.17665192409401
1.176612617701659
1.176552659250849
1.17649893742805
1.176445551976094
1.176381220939762
1.176320691939269
1.176259812995647
1.176200149248844
1.176140918205452
1.176079167402621
1.17602847443631
1.175976115379663
1.175924152259841
1.175894001260364
1.175865035069815
1.175848924794633
1.175836153495744
1.175837049268342
1.175850022938737
1.175867158269745
1.175885772477671
1.175921825061712
1.175956635639191
1.175990078628941
1.176037791911872
1.176083251777827
1.176122293686482
1.176175630427489
1.176224346946759
1.17626929993169
1.176323263322617
1.176378013991718
1.176431385159169
1.176489589427167
1.176545687692041
1.176602316580472
1.17664797330421
1.176690774736952
1.176723525228121
1.176741565998961
1.176751837683252
1.176753470889588
1.176747071930273
1.176727415187472
1.176697381104465
1.176665488044403
1.176614807251054
1.176564054043324
1.176511310793843
1.176446831130215
1.176389352527813
1.176324254807505
1.176257590269998
1.176199410168623
1.17613332481907
1.176076528310751
1.176022660548497
1.175966365116037
1.175913928744987
1.175880956862297
1.175846451748046
1.17582417776732
1.175813319275524
1.175802362934813
1.175813397683808
1.17582327549927
1.175844267869866
1.175868920853802
1.175902528177849
1.175940018113943
1.175982791402954
1.176029797359047
1.176078305602405
1.176126791451335
1.176176142350874
1.176224153151829
1.176277230711618
1.176328478667872
1.176379641936822
1.176432192785098
1.176487617618971
1.176543993916893
1.176587427783278
1.176635495276345
1.176668238690214
1.176697183911631
1.176714146489477
1.176719110107289
1.176717635476571
1.176706236145599
1.176681143652094
1.176647964955438
1.176611852328259
1.176559373911793
1.176502892568148
1.176448182442229
1.176386330972419
1.176321966810093
1.176257637782181
1.176196018339214
1.176135885436209
1.176076767604684
1.176020980416847
1.175965498560885
1.175920110259669
1.175871298864602
1.175846974879519
1.175815030994397
1.175803589565251
1.17579025448021
1.175789446254491
1.175801058345293
1.175817880330686
1.175836174419995
1.175864875549846
1.175901962968226
1.175939161190108
1.17598439906208
1.176039384135217
1.176086613873974
1.176137681079964
1.176193096825949
1.176240461503772
1.176292063782897
1.176341408010755
1.176390607453793
1.17643969832047
1.176486620480835
1.176536367239148
1.176578784028863
1.176617595853739
1.176650391994782
1.176675500399343
1.176690346325906
1.17669722374995
1.17669093373807
1.176677514660492
1.176650868991189
1.176607624246161
1.176568418584848
1.176510726752387
1.176443364006873
1.176389369205385
1.176318333410224
1.176247950201751
1.17618586540509
1.176119169462068
1.176055778901782
1.176000142088375
1.175942741973556
1.175892279458431
1.175844083777184
1.175813547061376
1.175785687772319
1.175764677708274
1.175751215746207
1.175748461910408
1.175757199760802
1.175766279459986
1.175783389059127
1.175810465320499
1.175839149861594
1.175875077504138
1.175921596142398
1.17596758244416
1.17601598238336
1.176070534325448
1.176126542744965
1.176176899022813
1.176233282623374
1.176285744155154
1.176330517902894
1.176380055598651
1.176428219404443
1.176464132920302
1.176511020835129
1.17654087598468
1.176576071538638
1.176604463401832
1.176624111916015
1.176640010318204
1.176644535163257
1.176635297916311
1.176614448265374
1.176586297557838
1.176542848654429
1.176487026784277
1.176428705576254
1.176364296272478
1.176301430819471
1.176233737313398
1.176165047739792
1.176102815721444
1.176042249770633
1.1759805839642
1.175929061329449
1.175878523537314
1.175831565289497
1.175792654774569
1.175763432658199
1.175743409913453
1.175722801057964
1.175714914435111
1.175717848172964
1.175724964922134
1.175742751500632
1.175763449247707
1.175787741877266
1.175825526669918
1.175864492244497
1.175905120044038
1.175959207121582
1.176011476554218
1.17606149321801
1.176119454140217
1.176176278506349
1.176226722794933
1.17628292692825
1.1763313250678
1.176376599426675
1.17642074724079
1.176461041650631
1.176490355022742
1.176515410701372
1.17653919510375
1.176558969961446
1.176572110599088
1.176584001565234
1.176585573868129
1.176575400782044
1.176560196976545
1.176525256903361
1.176470963324556
1.176418611976372
1.176353352227435
1.176282029958385
1.176223661163422
1.176155342023326
1.176088363903899
1.176035637189135
1.175975372543268
1.175919490632572
1.175873595468193
1.175823019498818
1.175781963119962
1.175757080726497
1.175730767410282
1.1757134749298
1.175701407041664
1.17570038863272
1.175711493821294
1.175718090205315
1.175741053183627
1.175770701707408
1.17579460038293
1.175836739924648
1.175886175402511
1.175922708504179
1.175967574408071
1.176029142523046
1.176058371971048
1.176097332261741
1.176190177810726
)
;

boundaryField
{
    inlet
    {
        type            calculated;
        value           uniform 1.176271021779363;
    }
    outlet
    {
        type            calculated;
        value           uniform 1.176196232095092;
    }
    frontAndBack
    {
        type            empty;
    }
}


// ************************************************************************* //
