/*--------------------------------*- C++ -*----------------------------------*\
| =========                 |                                                 |
| \\      /  F ield         | OpenFOAM: The Open Source CFD Toolbox           |
|  \\    /   O peration     | Version:  v2012                                 |
|   \\  /    A nd           | Website:  www.openfoam.com                      |
|    \\/     M anipulation  |                                                 |
\*---------------------------------------------------------------------------*/
FoamFile
{
    version     2.0;
    format      ascii;
    class       volScalarField;
    location    "0.014";
    object      T;
}
// * * * * * * * * * * * * * * * * * * * * * * * * * * * * * * * * * * * * * //

dimensions      [0 0 0 1 0 0 0];


internalField   nonuniform List<scalar> 
1000
(
299.9808984084935
299.9839156440998
299.9798040018878
299.9712460147853
299.9698308178
299.9656473807916
299.9623325165614
299.9623890608685
299.9582658603349
299.9581467114667
299.9588152151117
299.9590551135747
299.9606396808657
299.9621207749917
299.963774407746
299.9681736228812
299.9706735269605
299.9752528091458
299.9805019404915
299.9843949302318
299.9897110520234
299.9949113178349
300.0001897469883
300.0056147092548
300.0110314756442
300.0164543315781
300.0211339655231
300.0265617747733
300.0301271190897
300.0346165080765
300.0390950693469
300.0406372467151
300.0413027962725
300.0417733620953
300.041082681909
300.0411005029963
300.0402860185005
300.0378756140629
300.0366211048231
300.0329704871583
300.0285817415382
300.0247541552798
300.0184495509941
300.0131238074468
300.0072502849515
300.0007606671763
299.9952255396875
299.9888296737711
299.9829204872833
299.9773535358441
299.9713992984256
299.9662455096366
299.9615323934104
299.9564997549309
299.9543252057395
299.9526572394101
299.9517563051559
299.9514263958882
299.9514351828493
299.9519006705218
299.952983452014
299.9543179857545
299.9567601250994
299.9606901108278
299.9645933117015
299.9699940798637
299.97618159865
299.9822896881912
299.989415969214
299.9964480976747
300.0031419822247
300.0101967684366
300.01696188187
300.0230830519855
300.029624443592
300.0352079335381
300.0406647339107
300.0433363501619
300.0465843981902
300.0477123448766
300.0485890212174
300.0483761783679
300.0476365713497
300.0468966756632
300.045096919239
300.042433892582
300.0398417203525
300.0358093272471
300.0305118207052
300.0253108601021
300.0186739973232
300.0120198587581
300.005505225116
299.9982943723228
299.9915365411906
299.9852159486475
299.9788694863007
299.9729896630093
299.9679395736327
299.9625361303363
299.9593218165255
299.9573874889835
299.9554704915179
299.9547107942283
299.9545090866211
299.9548873608124
299.9557240848456
299.9569441140762
299.9590611383868
299.9614250954679
299.9647575727533
299.9693185296302
299.9739307620827
299.9795223640641
299.9864969792214
299.9933380775919
300.0005469902004
300.0078271978804
300.0149640020041
300.0214752403263
300.0277732302711
300.0336189347545
300.0391789329212
300.0427678873328
300.0453891599429
300.047315668927
300.0483739109857
300.0484715713105
300.0478669234593
300.0470111566233
300.0456458763186
300.0429584968939
300.0403014827495
300.0370650092513
300.0323214973799
300.0279281557544
300.0224122855577
300.0157349786742
300.0093228479865
300.0021857184317
299.9950243717995
299.9880569904908
299.9811880353965
299.9750957101216
299.9695880870233
299.963873554431
299.9607696006411
299.958573054747
299.956498768924
299.9556357991738
299.9553112555485
299.9555721056225
299.9562810855783
299.9571862904775
299.9591155586928
299.9615816960087
299.9642391069418
299.9684012621598
299.9725478923002
299.9773152499982
299.9836767618006
299.9901655081962
299.9971874864285
300.0045190305456
300.0119882706227
300.0190971642426
300.0256721044299
300.0318599371873
300.0381708577748
300.04169155755
300.0448248508021
300.0466046663606
300.0480843842991
300.0483248314402
300.0478827683027
300.0471669909553
300.0459306634612
300.0436682697105
300.0408887236618
300.0381977902024
300.0338382667899
300.0293137558065
300.0247584963274
300.0187600420791
300.0122460680986
300.0058031032682
299.9986536892055
299.9913033228865
299.9843497837639
299.9777532274512
299.9714430268899
299.9653977293984
299.9614216260385
299.9591986386412
299.9573175557119
299.9560665533215
299.9558631594072
299.9560696723697
299.9566280637634
299.9573467121793
299.9593966829677
299.9615711195186
299.9639259273277
299.9677255323622
299.9716590650195
299.9758490425926
299.9818637025325
299.9879994515853
299.994140301885
300.0013949057479
300.0087444493456
300.0159731217282
300.0232480623937
300.0301189196269
300.0364428843651
300.0414532980649
300.0442456024391
300.0468365597452
300.0480397676632
300.0487080189727
300.0483557582228
300.047611015338
300.0466679881311
300.0444564514784
300.0422040925518
300.0393132166738
300.035484136808
300.0315199892594
300.0267899782402
300.0213428294643
300.0154096569991
300.009069039853
300.002406011795
299.9950651415193
299.9880911325955
299.9810264974389
299.973789108155
299.9682817861549
299.9621548529688
299.96008918714
299.9576093241872
299.9565955706972
299.9559518890583
299.9562608118183
299.956741126779
299.9573451140797
299.9591601623237
299.9611118023489
299.9633327777786
299.9670136888357
299.9704150992408
299.9744250984602
299.9797833244706
299.9851520163108
299.9909740469972
299.998059425082
300.0049143725508
300.0122944275893
300.0196692647511
300.0266841877513
300.033125442889
300.0397096064986
300.0432931473945
300.0457283399269
300.0475853437854
300.0483635365837
300.0482119625914
300.0475781431678
300.0468766060965
300.0451516061816
300.0425722453574
300.0405061565767
300.0370642203192
300.0326902885333
300.0287769232626
300.0237994948286
300.0179705449104
300.0123366310451
300.0059238826133
299.9986618022018
299.9918781420428
299.9849352325621
299.9778045526579
299.971492873179
299.964785652538
299.9614573934232
299.9587673326083
299.9576097063562
299.9564659056767
299.9565914350563
299.9571263402649
299.9577980990887
299.9588140412091
299.961226506507
299.9633476968584
299.9662176069771
299.9697885926902
299.9733992593896
299.9781513118705
299.9835823886611
299.9889710705083
299.9953635454972
300.0021907343934
300.0090862799692
300.0163822993688
300.0234841094993
300.030420634779
300.0373077717889
300.0421228982397
300.0451370128135
300.0475978873924
300.0483493468312
300.0485715745495
300.0482481437742
300.0472619644921
300.0453583915009
300.0437775408588
300.0411335130746
300.037307677553
300.0342392702923
300.0297128323985
300.024944312632
300.0197378042163
300.013636143987
300.0078986657556
300.0012585084112
299.994100178328
299.9874462164262
299.9803475795877
299.9728926184243
299.9678842653291
299.9612866707842
299.9593479731021
299.957328816044
299.9560765216744
299.956067000013
299.9565404521238
299.9574871542829
299.9582459242302
299.9602322319228
299.9624478041886
299.9650393068591
299.9686554046833
299.9721974095673
299.9760382283256
299.9813408625537
299.9868023074208
299.992168615203
299.9988455595537
300.005815187682
300.0123939015992
300.0197331704091
300.0268199470593
300.0330976948946
300.0399397554697
300.0436568349516
300.045865218366
300.0480739182111
300.0485385442529
300.0479562489343
300.0474174790976
300.0462261001911
300.0438911771046
300.0417329774078
300.0389668771671
300.0348241606637
300.0311284363516
300.0265601748911
300.0212409117146
300.0158173731026
300.0100570692719
300.0035849629473
299.9968302176216
299.9900150467254
299.9830145799434
299.9761919996378
299.9697833451054
299.9631476264594
299.9596356870316
299.9571748313014
299.9559746919389
299.955214919661
299.9557590470631
299.956211774366
299.9575477991497
299.9588349460793
299.9609214523682
299.9637969157745
299.9666338870002
299.9700791560882
299.9742186538429
299.9785589379662
299.9833430186216
299.9893627318148
299.9953578114091
300.0014466119411
300.0086283483573
300.0155913493618
300.0217940896003
300.029285676984
300.0357161670423
300.0410332497428
300.0441234052181
300.0462232562961
300.047761765334
300.0476971171769
300.0467443978174
300.0458867682282
300.0443778183303
300.041481421417
300.0389420507467
300.035553287056
300.0310432241922
300.0270486018349
300.0219434787073
300.0165587461966
300.0108040479812
300.0046047065613
299.9984874248536
299.9915835294717
299.9849980946009
299.9780584663926
299.9714130971509
299.9656467661155
299.9593652058776
299.9569557690156
299.9552767219071
299.9540610074488
299.9536589632393
299.9544012667645
299.9557403151821
299.9566420684517
299.9585292056288
299.9613821260187
299.9636923355669
299.9676208572199
299.971520420359
299.9752181805779
299.9804692414071
299.9857220056012
299.9910855137819
299.9975579177651
300.0040987034895
300.0110541313978
300.0180324134346
300.0248650726618
300.03123397229
300.0379374527262
300.0418316303546
300.0443282667544
300.0464653393329
300.0471142674504
300.0466524420117
300.0456740310925
300.0444323668026
300.0425319232792
300.0395098481457
300.036386718282
300.0324978876923
300.0280051410581
300.0235820300382
300.0182307788552
300.0126165338639
300.0069801092856
300.0006110910983
299.9940482318801
299.9875678792251
299.9810773493247
299.9744172320102
299.9680887617176
299.9624959982318
299.9581118986232
299.9557411853215
299.9543483327365
299.9536687970824
299.9542603480646
299.9547701465283
299.9565599357675
299.9581074585117
299.9606770898881
299.9637165454761
299.9666734443009
299.9703619564931
299.9745963719995
299.9788224146601
299.9835304647684
299.9895182454133
299.9950920802964
300.0010496156033
300.0078024918759
300.0142760808164
300.0207967430093
300.027947629995
300.0339225681607
300.0393587009139
300.0427361795909
300.0448369533721
300.0464497513186
300.0464627283563
300.045609253763
300.0445743385631
300.0427641867174
300.0399719549469
300.037006478349
300.0332708026023
300.0287311448902
300.0243728263029
300.0192605134982
300.013588986805
300.0079996891653
300.0020226403664
299.9956128938869
299.9890525772582
299.9825670810862
299.9758520742009
299.9693349193448
299.9638766042331
299.9579689046141
299.9554188515286
299.9532592550067
299.9520103884936
299.9519327397413
299.9528608711086
299.9543632116098
299.9555359423018
299.9576448487564
299.9607475339851
299.9634420318147
299.967177022767
299.9713546783256
299.9750919580485
299.9801307342935
299.985341263824
299.9905481704606
299.9968956371249
300.0029162536419
300.0093829498428
300.0164800380433
300.0224842561956
300.0292026388769
300.0352094006302
300.0395059942005
300.0423916920722
300.0448730893527
300.0453357155678
300.0449491665351
300.0442846873076
300.0429360751144
300.0401815497938
300.0373424287411
300.0341140083216
300.0292798291981
300.0251538892736
300.0202464955053
300.0144176098091
300.0091096273302
300.0032280290843
299.996412288497
299.9904354288141
299.9837057789548
299.9771192848671
299.9709684491368
299.9649885318887
299.959336057859
299.9551143330914
299.9529955623245
299.9509984550795
299.9506933980929
299.9510180987184
299.9517805727905
299.9537714097246
299.9553029833554
299.9578701269747
299.9612448485445
299.963937663695
299.968294661474
299.9726542908721
299.9765563380807
299.9815337788737
299.9872859971933
299.992664659873
299.9983915600045
300.0049327908047
300.0111869864632
300.0174545871738
300.0242000909976
300.0308988484493
300.0354271877242
300.0394848177404
300.0420330284747
300.0437708987267
300.0439398815964
300.0434106124546
300.0421189099806
300.0404673785345
300.0373305585203
300.0343228545164
300.0300504469232
300.0251894775477
300.0206063830709
300.0149227546043
300.0094404110983
300.0034899506708
299.9972946505216
299.9913256099146
299.9844328944669
299.9783025367634
299.9721652851351
299.9653411421596
299.9603880853031
299.9547800816903
299.9522740973009
299.9500992857162
299.948366837955
299.9486547650833
299.9491168389661
299.9509954762803
299.952499901697
299.9546630748826
299.9579770277998
299.9610097977192
299.9648386379632
299.9690647450625
299.9730510196954
299.9780308238139
299.9830389428125
299.9881722474342
299.9941703325741
299.9999203970352
300.0062005986202
300.0127683265612
300.0185648827255
300.0249857007702
300.0306920351851
300.0353291006881
300.0385649006607
300.0413473307109
300.0420867687346
300.0421786307426
300.0414968954414
300.0398470282433
300.0374063929839
300.034269702785
300.0304106823145
300.0257598467626
300.0208998301483
300.0153972591299
300.0095801821719
300.0037018897729
299.997766629368
299.9911915289551
299.9848595224122
299.9787853109341
299.9716898512324
299.9660290169709
299.960414743814
299.9545900251978
299.9507292402774
299.9486530135458
299.9462644222945
299.9458437052059
299.9461166916489
299.9469322934403
299.9491967821943
299.9511398816557
299.9540377550177
299.9574423989538
299.9601926764007
299.9649567864724
299.9691333246979
299.9730530082397
299.9785133812065
299.9834059470733
299.9886031967605
299.994280078073
300.0003233349231
300.0066255599167
300.0126082378092
300.0187140653812
300.0250905081159
300.0298183121202
300.0340678855184
300.0372600321122
300.0389891576203
300.0397012261184
300.0394804656676
300.0383578617838
300.0362907669211
300.0337571814724
300.0297316402386
300.0254423475756
300.0207476555105
300.0146624211092
300.0092638135175
300.0037836436863
299.997020943253
299.9907869622905
299.9849120306262
299.9783462567876
299.9721766468797
299.9664206121555
299.9599232331521
299.9548179852771
299.9501473966427
299.9467017696422
299.9447975781675
299.9431492728075
299.9429439103386
299.9434639451774
299.944996473751
299.947259494433
299.9496441478042
299.9529192478449
299.9564670755334
299.9601504790566
299.9648777820365
299.9691621294002
299.9736837335246
299.9789034071005
299.9838972448003
299.9890669896419
299.9950327508077
300.0010625309445
300.0065767455868
300.012987691973
300.0189281787353
300.0244444956216
300.0289888812137
300.0325332756871
300.0352266265896
300.0365067462995
300.0367542664311
300.0359656469496
300.0346640590438
300.0325534990114
300.0284244377738
300.0245166507271
300.0205055346523
300.0143869571402
300.008904638586
300.0034564159979
299.9968910183229
299.9907134847306
299.9845000343875
299.9784104383116
299.9723648352918
299.9660618497153
299.9608874463052
299.9555427910801
299.9502384345976
299.947160596232
299.9442036476112
299.9425590441381
299.9412552709451
299.9413467071684
299.9426711292498
299.9444203940211
299.9463205210604
299.9500008655922
299.9535543541762
299.9569680582419
299.9618384563267
299.9664787266023
299.9704636866134
299.9759077438553
299.9808800582815
299.9854681028637
299.9909757206763
299.9965635067922
300.0020103752985
300.0079503452956
300.0136751995925
300.0194540566254
300.0241131100926
300.0284806808534
300.0318225736925
300.0336634712718
300.0347115908006
300.0348782231083
300.0342252546357
300.0322194910325
300.0291548248462
300.0259003197591
300.0207286310985
300.0155494280341
300.0101669207252
300.0035866194489
299.997720548644
299.9910766965571
299.9842727743288
299.9783346023486
299.9715893545891
299.9657920782293
299.9602935698392
299.9545470843031
299.9491944059852
299.9458285955284
299.9423061689695
299.9400323202872
299.938923839423
299.9378053189296
299.9389318269598
299.9399402103319
299.9420832381564
299.944599890585
299.9480306175401
299.9518576184881
299.9562238156876
299.9610219909284
299.9659734259559
299.9709223915265
299.975959580024
299.9808598758011
299.9862771562158
299.9915076141071
299.9967292945
300.0020924371677
300.0077487466329
300.0135019918794
300.0179343561903
300.0228394532704
300.0261807139534
300.029134333507
300.0308652045505
300.0313717149339
300.0312212496072
300.0300580386186
300.0274975582863
300.0241119390659
300.0204267567765
300.0150714572408
300.0093075500378
300.0037241706649
299.997411841384
299.9908428323316
299.9842772576748
299.977988049124
299.9718503455446
299.9658161160875
299.9601216887564
299.9544582521528
299.9498250556772
299.9448423027072
299.9423592158557
299.9390982060325
299.9379302023019
299.936568857826
299.9364863263664
299.9376717865676
299.9393891075499
299.9412566426846
299.9441865715133
299.9479725776594
299.9517697725938
299.9563875469128
299.9620002222316
299.9668210959642
299.9720335407413
299.9776897260983
299.9825240254334
299.9877907265201
299.9928268392258
299.9978480585942
300.0028580976605
300.0076466795842
300.0127233857843
300.0170519726275
300.0210125881123
300.0243592649323
300.0269213617092
300.0284362868931
300.0291380941951
300.0284962641864
300.0271269282034
300.0244078762107
300.0199950476476
300.0159941500159
300.0101066416446
300.0032321703318
299.9977216172019
299.9904716936632
299.9832881985024
299.9769514458183
299.9701438104807
299.963673371037
299.9579942462937
299.9521349393099
299.946983663782
299.942063705916
299.9389463846383
299.9361022967069
299.9339574273127
299.9325831025322
299.9323019619743
299.9331940255694
299.9341209457899
299.9358676258129
299.9386317849327
299.9415600441064
299.9452276459352
299.9499763964509
299.9546706107308
299.9596111012355
299.9651794682327
299.9708963034163
299.9760361138783
299.9817909884183
299.9871454124454
299.9917150951885
299.9967708811272
300.0016863121746
300.0053514701507
300.0101364958267
300.0131832256773
300.0167748910726
300.0196722029963
300.0216772683802
300.0232995980924
300.023761307467
300.0228187129007
300.0206911239825
300.0178184320984
300.0133844801271
300.0076878120638
300.00173587736
299.9951624506697
299.9887463595671
299.981837265491
299.9748263218682
299.9684742844462
299.9622921005565
299.9559974702694
299.9507381115819
299.9455791215975
299.9407854356242
299.9368132244982
299.9338299991452
299.9317858728676
299.929681934498
299.9288767863753
299.929176280755
299.929902839537
299.9317186983232
299.9338317088229
299.9363116809024
299.9401690218582
299.9441467892025
299.9482941138854
299.9538153350954
299.9591508238094
299.9642562100368
299.9701723950624
299.9759723874546
299.9811210913987
299.9868575853356
299.9917972889373
299.9964181279884
300.0009239261661
300.0050363555145
300.0080279361059
300.0105850610926
300.0130120860969
300.0150295823148
300.0163700130785
300.0175826633079
300.0177419056118
300.0167017235065
300.0151478142189
300.011580118336
300.0060380954105
300.0006959372683
299.9940401164384
299.9867700665259
299.9808261023345
299.9738701327097
299.9670539360716
299.9616971086523
299.9555708587862
299.9498923317697
299.9452217411999
299.9400455416463
299.9358507265486
299.9331803934824
299.9303627014421
299.9283931153906
299.9270339849139
299.9267320748743
299.9274343879276
299.9277662798278
299.9297380317611
299.9323488795837
299.9342801595836
299.9380251013425
299.9427415684684
299.9469089666751
299.9528765899526
299.962535945934
299.9676465284049
299.9784850542011
299.9850619014088
)
;

boundaryField
{
    inlet
    {
        type            fixedValue;
        value           uniform 300;
    }
    outlet
    {
        type            inletOutlet;
        inletValue      uniform 300;
        value           uniform 299.9881672224059;
    }
    frontAndBack
    {
        type            empty;
    }
}


// ************************************************************************* //
