/*--------------------------------*- C++ -*----------------------------------*\
| =========                 |                                                 |
| \\      /  F ield         | OpenFOAM: The Open Source CFD Toolbox           |
|  \\    /   O peration     | Version:  v2012                                 |
|   \\  /    A nd           | Website:  www.openfoam.com                      |
|    \\/     M anipulation  |                                                 |
\*---------------------------------------------------------------------------*/
FoamFile
{
    version     2.0;
    format      ascii;
    class       volVectorField;
    location    "0.014";
    object      U;
}
// * * * * * * * * * * * * * * * * * * * * * * * * * * * * * * * * * * * * * //

dimensions      [0 1 -1 0 0 0 0];


internalField   nonuniform List<vector> 
1000
(
(-0.0189287516219199 0 0)
(-0.0462931205311622 0 0)
(-0.04910180598989652 0 0)
(-0.07393028113088305 0 0)
(-0.07993220971057749 0 0)
(-0.09452185758768887 0 0)
(-0.1058765391255411 0 0)
(-0.1073755825069562 0 0)
(-0.1194974586054081 0 0)
(-0.1206662635162538 0 0)
(-0.1202468926461613 0 0)
(-0.1207794507680285 0 0)
(-0.1168747485121038 0 0)
(-0.1130488313987305 0 0)
(-0.1084297134006352 0 0)
(-0.09533823108514873 0 0)
(-0.08742965749641911 0 0)
(-0.07414544439832671 0 0)
(-0.05790979879892424 0 0)
(-0.0451234874056369 0 0)
(-0.02816693654488419 0 0)
(-0.01210774265265843 0 0)
(0.004507735463235357 0 0)
(0.02174977092191682 0 0)
(0.03718264349046841 0 0)
(0.05379212964060223 0 0)
(0.0688651560469745 0 0)
(0.08029303998059886 0 0)
(0.09509563119176938 0 0)
(0.1023746648123348 0 0)
(0.1139235441921417 0 0)
(0.1167909094993699 0 0)
(0.1166583155393821 0 0)
(0.1153007564642932 0 0)
(0.1120136698294291 0 0)
(0.1101264423232204 0 0)
(0.1067281462108612 0 0)
(0.09850605297369688 0 0)
(0.09405992795323165 0 0)
(0.08377369282459457 0 0)
(0.07045939067764019 0 0)
(0.06059338563807486 0 0)
(0.0437031638366199 0 0)
(0.028899829547266 0 0)
(0.01432859026164908 0 0)
(-0.002447394284732602 0 0)
(-0.01742401673618621 0 0)
(-0.03184239632866877 0 0)
(-0.04601335781735498 0 0)
(-0.05963021867884859 0 0)
(-0.07080581110960167 0 0)
(-0.08123454248222861 0 0)
(-0.09149806980897895 0 0)
(-0.09844617474120008 0 0)
(-0.09960369519608546 0 0)
(-0.09874664197636036 0 0)
(-0.09603776206843966 0 0)
(-0.09055302739737292 0 0)
(-0.08537622523498292 0 0)
(-0.07971917513702946 0 0)
(-0.07236685292837382 0 0)
(-0.06615847403682576 0 0)
(-0.0573369922774476 0 0)
(-0.04545019511218042 0 0)
(-0.03489024136158093 0 0)
(-0.02123745259090697 0 0)
(-0.006976733269406152 0 0)
(0.006717849777168141 0 0)
(0.02210518742819 0 0)
(0.0356486439397606 0 0)
(0.04825682541495923 0 0)
(0.06048635880495442 0 0)
(0.07034795461372263 0 0)
(0.08034039217798039 0 0)
(0.08764764927940427 0 0)
(0.0964996918851464 0 0)
(0.101819310896486 0 0)
(0.1018063826464883 0 0)
(0.1016091820352762 0 0)
(0.09805982752912439 0 0)
(0.09277200121864734 0 0)
(0.08609716753653107 0 0)
(0.07999762579138944 0 0)
(0.07400174367401868 0 0)
(0.0669907804825558 0 0)
(0.05792451387980128 0 0)
(0.04998162894249684 0 0)
(0.04009971569550409 0 0)
(0.02632707960354284 0 0)
(0.01518844435565942 0 0)
(-0.0003613489878290376 0 0)
(-0.01600018857969558 0 0)
(-0.03088270686831655 0 0)
(-0.04582681321190464 0 0)
(-0.05894844792765672 0 0)
(-0.07283233743252937 0 0)
(-0.08391373901099605 0 0)
(-0.09327403729336607 0 0)
(-0.1028337421938169 0 0)
(-0.1093593250552707 0 0)
(-0.1104242703907778 0 0)
(-0.1097981429309262 0 0)
(-0.1068457114906771 0 0)
(-0.102024609092929 0 0)
(-0.09503006488700193 0 0)
(-0.08733892156030504 0 0)
(-0.08000315527283956 0 0)
(-0.07263881249321397 0 0)
(-0.06214137334080859 0 0)
(-0.0539613467964083 0 0)
(-0.04361762199596339 0 0)
(-0.0301604465362244 0 0)
(-0.01864034836192045 0 0)
(-0.005043379258100411 0 0)
(0.01040391671960743 0 0)
(0.02521591555613134 0 0)
(0.03884508481010276 0 0)
(0.05282146262203086 0 0)
(0.06502452393550835 0 0)
(0.07617043383875277 0 0)
(0.08588131873655354 0 0)
(0.09349304166267509 0 0)
(0.09947619994466302 0 0)
(0.1011649576154768 0 0)
(0.1002956245116351 0 0)
(0.09814814841598316 0 0)
(0.09362430099303096 0 0)
(0.08729330601420622 0 0)
(0.08112092839363433 0 0)
(0.07450635105859324 0 0)
(0.06749149801280893 0 0)
(0.05856348563969745 0 0)
(0.05074893158307849 0 0)
(0.04195933385105392 0 0)
(0.02990471844259982 0 0)
(0.01997009533466929 0 0)
(0.008157218703144018 0 0)
(-0.007868018590872607 0 0)
(-0.02209747030636646 0 0)
(-0.03637980817716743 0 0)
(-0.05298878786079766 0 0)
(-0.06700779998622457 0 0)
(-0.07941337807920672 0 0)
(-0.09169145077104987 0 0)
(-0.1010027363923725 0 0)
(-0.1085035508630242 0 0)
(-0.1116107811316474 0 0)
(-0.1110628366195688 0 0)
(-0.1085925613613675 0 0)
(-0.1046819908129509 0 0)
(-0.09832061678145475 0 0)
(-0.09056863949974492 0 0)
(-0.08351146818844053 0 0)
(-0.07572859699707937 0 0)
(-0.06497398526600183 0 0)
(-0.05701873593631824 0 0)
(-0.0473214819350632 0 0)
(-0.03426851804754154 0 0)
(-0.02454461965594976 0 0)
(-0.01270124928405446 0 0)
(0.002274792064336839 0 0)
(0.01467431228612525 0 0)
(0.02906153357432416 0 0)
(0.04412610589588631 0 0)
(0.05645758130440953 0 0)
(0.07003691107094721 0 0)
(0.08106927066462 0 0)
(0.08992706805536657 0 0)
(0.09718952638522017 0 0)
(0.100351226671606 0 0)
(0.1005172149597692 0 0)
(0.09858907503905624 0 0)
(0.09485367447728718 0 0)
(0.08916882484263401 0 0)
(0.08226341764919874 0 0)
(0.0759830312975177 0 0)
(0.06877502514358211 0 0)
(0.06020907657738277 0 0)
(0.05211779726531941 0 0)
(0.04442883361210193 0 0)
(0.03300308073850376 0 0)
(0.02323473113099752 0 0)
(0.01364694480786171 0 0)
(-0.001506165968579182 0 0)
(-0.01386968979690291 0 0)
(-0.02710462797089077 0 0)
(-0.043967882290717 0 0)
(-0.05790345557863585 0 0)
(-0.07234419839165612 0 0)
(-0.08654208846770522 0 0)
(-0.09702882735523248 0 0)
(-0.1074193468457255 0 0)
(-0.1129868643164643 0 0)
(-0.1124615045893737 0 0)
(-0.1099672882948807 0 0)
(-0.107530909412023 0 0)
(-0.1007069335354318 0 0)
(-0.09303604113205677 0 0)
(-0.08568989489661202 0 0)
(-0.07862451971934221 0 0)
(-0.0687337839519748 0 0)
(-0.05997375543585608 0 0)
(-0.05073707300807061 0 0)
(-0.03880381116380936 0 0)
(-0.02927718414621639 0 0)
(-0.01826284482419518 0 0)
(-0.005191651997235156 0 0)
(0.006472467397268257 0 0)
(0.02040225383625524 0 0)
(0.03452811216125843 0 0)
(0.04730832466830763 0 0)
(0.0610957699616605 0 0)
(0.07372303297294615 0 0)
(0.08302679886156247 0 0)
(0.09351723300545145 0 0)
(0.09892611850797815 0 0)
(0.1004364605201327 0 0)
(0.09860560702236293 0 0)
(0.09476652009092876 0 0)
(0.089469232246074 0 0)
(0.08302796125745535 0 0)
(0.07598009675715435 0 0)
(0.06924429452263661 0 0)
(0.06090579770061123 0 0)
(0.05320441177822505 0 0)
(0.04434822852386095 0 0)
(0.03447606875521557 0 0)
(0.02522880886992052 0 0)
(0.01465027748585667 0 0)
(0.003489840217977751 0 0)
(-0.008583383876629604 0 0)
(-0.0224337665157575 0 0)
(-0.03596465990207035 0 0)
(-0.0504337175685067 0 0)
(-0.06575061762168478 0 0)
(-0.07946360247026844 0 0)
(-0.09069178842599879 0 0)
(-0.104989621005444 0 0)
(-0.111995681839093 0 0)
(-0.1133678298602269 0 0)
(-0.1120674075763138 0 0)
(-0.1090134315965084 0 0)
(-0.1032517296446743 0 0)
(-0.09613571993754173 0 0)
(-0.08782497366082261 0 0)
(-0.08077813775607424 0 0)
(-0.07163986601634202 0 0)
(-0.06169851295402585 0 0)
(-0.05222594140975392 0 0)
(-0.04146932030452555 0 0)
(-0.0316003186398922 0 0)
(-0.02187670707465777 0 0)
(-0.009813752387732546 0 0)
(0.002413156971268048 0 0)
(0.01459512523917909 0 0)
(0.02708395830049383 0 0)
(0.04066201196696772 0 0)
(0.05354132376975426 0 0)
(0.0666665693178017 0 0)
(0.07868275215276663 0 0)
(0.0894536006369839 0 0)
(0.09852257618535563 0 0)
(0.1008582055417139 0 0)
(0.09994600574856641 0 0)
(0.09799305900618754 0 0)
(0.09253723634634482 0 0)
(0.08553179810023263 0 0)
(0.07898065003023221 0 0)
(0.07166334123840928 0 0)
(0.06384300964380904 0 0)
(0.0535451285469852 0 0)
(0.04591092230341445 0 0)
(0.03692841735256848 0 0)
(0.02555820024897543 0 0)
(0.0176518744412279 0 0)
(0.007087724989425653 0 0)
(-0.006533428720954546 0 0)
(-0.01782094045907297 0 0)
(-0.03038674457192757 0 0)
(-0.04481292196089513 0 0)
(-0.05853358536465007 0 0)
(-0.07288854301072799 0 0)
(-0.0868412509796035 0 0)
(-0.0985652176675285 0 0)
(-0.1104592885985764 0 0)
(-0.114503541714142 0 0)
(-0.1149361635016334 0 0)
(-0.1120921021233982 0 0)
(-0.1079557260086426 0 0)
(-0.1006514254218544 0 0)
(-0.09304504186237436 0 0)
(-0.08478446105036687 0 0)
(-0.07649627455254021 0 0)
(-0.06527536873223912 0 0)
(-0.05612842743140397 0 0)
(-0.04553603008776144 0 0)
(-0.03402466286042621 0 0)
(-0.02492841644691975 0 0)
(-0.01430947200703454 0 0)
(-0.002254299764869339 0 0)
(0.008680294234714446 0 0)
(0.02077449677584937 0 0)
(0.03370945284694224 0 0)
(0.04565534595981916 0 0)
(0.05887117297980946 0 0)
(0.07151182793530339 0 0)
(0.08142148113090793 0 0)
(0.09244436218647645 0 0)
(0.09862144740251035 0 0)
(0.09958313562520237 0 0)
(0.09762339405170721 0 0)
(0.09413234846680546 0 0)
(0.08813511399954081 0 0)
(0.08101417690090591 0 0)
(0.07440981242520441 0 0)
(0.06490913870023997 0 0)
(0.05777273603295233 0 0)
(0.04989927758104148 0 0)
(0.03812931930539166 0 0)
(0.03029082807624655 0 0)
(0.02129470050032384 0 0)
(0.009014530262932039 0 0)
(5.774694388957347e-05 0 0)
(-0.0110808340334265 0 0)
(-0.02459523339169777 0 0)
(-0.03671224062479975 0 0)
(-0.04933608225294538 0 0)
(-0.06365060120012887 0 0)
(-0.07772348103026128 0 0)
(-0.0876832173033177 0 0)
(-0.1038316952777055 0 0)
(-0.1109301512913874 0 0)
(-0.1125083956423938 0 0)
(-0.1111753057805685 0 0)
(-0.108330034651589 0 0)
(-0.1016989240149246 0 0)
(-0.09470592198775199 0 0)
(-0.08640279024860287 0 0)
(-0.07889515286302655 0 0)
(-0.06794863950386838 0 0)
(-0.05788500057202178 0 0)
(-0.04775771763045464 0 0)
(-0.03652450040072523 0 0)
(-0.02655840105512739 0 0)
(-0.0161417922082106 0 0)
(-0.004676981852467928 0 0)
(0.006200472657858753 0 0)
(0.01790889031798407 0 0)
(0.02952201841185583 0 0)
(0.04101883034311697 0 0)
(0.05392924139558949 0 0)
(0.0656614026408454 0 0)
(0.07664664792654249 0 0)
(0.0873758776114041 0 0)
(0.09630329037013111 0 0)
(0.09907461188937984 0 0)
(0.09937749306992362 0 0)
(0.09684891998744471 0 0)
(0.09131435277869725 0 0)
(0.08413629527715594 0 0)
(0.07701338113718707 0 0)
(0.06910671987701855 0 0)
(0.06008055588922272 0 0)
(0.05169182620905261 0 0)
(0.04246670562801095 0 0)
(0.03177099074040659 0 0)
(0.02355782275405726 0 0)
(0.01375854099000173 0 0)
(0.003119079456822963 0 0)
(-0.007390346394531323 0 0)
(-0.01933726446834504 0 0)
(-0.03022883513319947 0 0)
(-0.04282676271178279 0 0)
(-0.05566350919606147 0 0)
(-0.06808386999466449 0 0)
(-0.08157647289927406 0 0)
(-0.09267180478918929 0 0)
(-0.1044730246435421 0 0)
(-0.1096481692634788 0 0)
(-0.1087883561244719 0 0)
(-0.1075435338085875 0 0)
(-0.1032164651535888 0 0)
(-0.09535165532245871 0 0)
(-0.08808288791232713 0 0)
(-0.07878940937947597 0 0)
(-0.06996850817044928 0 0)
(-0.05902053383472372 0 0)
(-0.04804400113254505 0 0)
(-0.03769962732431265 0 0)
(-0.02577296175938474 0 0)
(-0.01604580974809168 0 0)
(-0.005588238081230957 0 0)
(0.007656794124045802 0 0)
(0.01667596102607308 0 0)
(0.02747001280273879 0 0)
(0.04012812163756578 0 0)
(0.049873294918356 0 0)
(0.06213493040113399 0 0)
(0.07424693714915123 0 0)
(0.08243184160749502 0 0)
(0.09305076524667216 0 0)
(0.1005715386118664 0 0)
(0.1002478549648199 0 0)
(0.09974537974600292 0 0)
(0.09639409947617278 0 0)
(0.08986783091408179 0 0)
(0.08163219182621201 0 0)
(0.07522878646778788 0 0)
(0.06788428568242158 0 0)
(0.05702859811562729 0 0)
(0.04893191848886069 0 0)
(0.03914263703424252 0 0)
(0.02678884072137063 0 0)
(0.0198078409161201 0 0)
(0.009875370994866727 0 0)
(-0.002516397704852077 0 0)
(-0.01128479887995162 0 0)
(-0.02259131730951939 0 0)
(-0.0356658327755617 0 0)
(-0.04567342013644984 0 0)
(-0.05912508159591926 0 0)
(-0.07117439149349089 0 0)
(-0.08135612400157401 0 0)
(-0.09474433620008947 0 0)
(-0.1017349529575839 0 0)
(-0.1043248900760659 0 0)
(-0.1036430905371679 0 0)
(-0.0995372137330682 0 0)
(-0.09471772575141782 0 0)
(-0.08706461160339239 0 0)
(-0.07754994336299618 0 0)
(-0.06930363601484829 0 0)
(-0.05969583724720275 0 0)
(-0.04705700092843416 0 0)
(-0.03731037479712013 0 0)
(-0.02547684964373066 0 0)
(-0.0133773238882131 0 0)
(-0.004126586932023737 0 0)
(0.007694159432466439 0 0)
(0.01886136602970284 0 0)
(0.02913154637792539 0 0)
(0.03977249907768179 0 0)
(0.05001979978730668 0 0)
(0.06057396162899371 0 0)
(0.07089584337339759 0 0)
(0.08060772568366278 0 0)
(0.09024048041742616 0 0)
(0.09825951146809381 0 0)
(0.1010076871651867 0 0)
(0.100890125857841 0 0)
(0.09876795853332368 0 0)
(0.09318190076171984 0 0)
(0.08667692199632381 0 0)
(0.07873487179211537 0 0)
(0.07117194631613795 0 0)
(0.06282162801633694 0 0)
(0.05181747442925091 0 0)
(0.04332680442685428 0 0)
(0.03332370390829731 0 0)
(0.02185574204092441 0 0)
(0.01340092451542495 0 0)
(0.003199745674450843 0 0)
(-0.008890007261407092 0 0)
(-0.01855082208896373 0 0)
(-0.02947873646251713 0 0)
(-0.04102405783024753 0 0)
(-0.05182919508587747 0 0)
(-0.06455981879509427 0 0)
(-0.07572103475141034 0 0)
(-0.08486203227359758 0 0)
(-0.09694138925792439 0 0)
(-0.101052296928248 0 0)
(-0.102330323458433 0 0)
(-0.1010093930881193 0 0)
(-0.09681955304611067 0 0)
(-0.08953186686639146 0 0)
(-0.08285612401444527 0 0)
(-0.07340666023543527 0 0)
(-0.06462906673766189 0 0)
(-0.05289950735029792 0 0)
(-0.04256193385107514 0 0)
(-0.03104786704900938 0 0)
(-0.0176797755838796 0 0)
(-0.008051502269126338 0 0)
(0.002931446433714952 0 0)
(0.01684057162974055 0 0)
(0.0252943116204635 0 0)
(0.03615938644794713 0 0)
(0.04761775014245778 0 0)
(0.05636349119607494 0 0)
(0.06838240200077889 0 0)
(0.07733840891375961 0 0)
(0.08398526183284108 0 0)
(0.09444717828654539 0 0)
(0.09980767219712648 0 0)
(0.1005683970874291 0 0)
(0.09958526810298061 0 0)
(0.0965089362263311 0 0)
(0.0897764075489936 0 0)
(0.08258150915471484 0 0)
(0.07625787769255188 0 0)
(0.06851081037222935 0 0)
(0.05845032370613228 0 0)
(0.04951355877324506 0 0)
(0.03871969334815152 0 0)
(0.02749869103078951 0 0)
(0.01872155103585721 0 0)
(0.00835030054561102 0 0)
(-0.002024184668621122 0 0)
(-0.01214342117368725 0 0)
(-0.02338446235199608 0 0)
(-0.0340089816874573 0 0)
(-0.04384087877929066 0 0)
(-0.05555559133485786 0 0)
(-0.06603243204613739 0 0)
(-0.07455015004652314 0 0)
(-0.08586754844697428 0 0)
(-0.09275650852832805 0 0)
(-0.09429229094482533 0 0)
(-0.09482689117518922 0 0)
(-0.09146699150587084 0 0)
(-0.08590843951177518 0 0)
(-0.07923514440681857 0 0)
(-0.07105639182256099 0 0)
(-0.06279485903454081 0 0)
(-0.05258370258397124 0 0)
(-0.04028314378877169 0 0)
(-0.02994059186367993 0 0)
(-0.01764751057194199 0 0)
(-0.00405609675396995 0 0)
(0.006064727254114475 0 0)
(0.01737066187243356 0 0)
(0.02936290511885836 0 0)
(0.03959786391049055 0 0)
(0.04878406328997687 0 0)
(0.05926615313668908 0 0)
(0.06939895326530071 0 0)
(0.07694076813915379 0 0)
(0.08703819355073691 0 0)
(0.09323737372910143 0 0)
(0.1003733151961933 0 0)
(0.1028968146561107 0 0)
(0.1017118429657706 0 0)
(0.1011205875671188 0 0)
(0.0950026804688147 0 0)
(0.08788650937685756 0 0)
(0.08009846104161256 0 0)
(0.0734933430978648 0 0)
(0.06456111971627571 0 0)
(0.0547948227713171 0 0)
(0.04625523954569082 0 0)
(0.03422484644679902 0 0)
(0.02384572684108455 0 0)
(0.01453012624104492 0 0)
(0.004027539763335223 0 0)
(-0.006539650926231942 0 0)
(-0.01746061883924247 0 0)
(-0.02611103831724665 0 0)
(-0.03683212094357626 0 0)
(-0.0462801597286429 0 0)
(-0.05594583443152364 0 0)
(-0.0665677049733935 0 0)
(-0.07444360572380876 0 0)
(-0.08352832541497168 0 0)
(-0.08797222127892418 0 0)
(-0.08773830318151252 0 0)
(-0.08854849971166918 0 0)
(-0.08378503031551485 0 0)
(-0.07743848060099075 0 0)
(-0.0708078729868836 0 0)
(-0.06081102330455664 0 0)
(-0.05228432906182742 0 0)
(-0.04167976391346664 0 0)
(-0.02894227786535616 0 0)
(-0.01846572796673045 0 0)
(-0.004584789122019804 0 0)
(0.007225537780721057 0 0)
(0.01768322708264422 0 0)
(0.0313816306997426 0 0)
(0.04146449863442454 0 0)
(0.05102689764885992 0 0)
(0.06197710796125146 0 0)
(0.07057364433027082 0 0)
(0.07985109594420094 0 0)
(0.08789731904581319 0 0)
(0.09440562979629179 0 0)
(0.1003593119680657 0 0)
(0.1045712416484499 0 0)
(0.1055912888584353 0 0)
(0.1027130625110885 0 0)
(0.100027955465075 0 0)
(0.09278037890770965 0 0)
(0.08703371106766618 0 0)
(0.07936791891276448 0 0)
(0.07197757366079038 0 0)
(0.06178573897687625 0 0)
(0.05301412830884076 0 0)
(0.04296850668891938 0 0)
(0.03164844687334246 0 0)
(0.02286632019655212 0 0)
(0.01257622926186368 0 0)
(0.002079228809562219 0 0)
(-0.007964171775679905 0 0)
(-0.01821180222167709 0 0)
(-0.02835904765569708 0 0)
(-0.03693228815037006 0 0)
(-0.04695575046142089 0 0)
(-0.05692007767926135 0 0)
(-0.06294239215763439 0 0)
(-0.07309145632698345 0 0)
(-0.07847273123542943 0 0)
(-0.08046613911726952 0 0)
(-0.07916264921338072 0 0)
(-0.07881274178801817 0 0)
(-0.07191582469796146 0 0)
(-0.06735028235205077 0 0)
(-0.05786900856642794 0 0)
(-0.05023982171962237 0 0)
(-0.04089176654258132 0 0)
(-0.02784422834382002 0 0)
(-0.01788774277577399 0 0)
(-0.005601984623256019 0 0)
(0.008758829355612081 0 0)
(0.01997624190159225 0 0)
(0.03127629248888981 0 0)
(0.04390703412768336 0 0)
(0.05475244514665288 0 0)
(0.06378191130057843 0 0)
(0.07399850021169334 0 0)
(0.08300599703171509 0 0)
(0.08945827349556802 0 0)
(0.09805927097501217 0 0)
(0.1028502750906636 0 0)
(0.107927370689289 0 0)
(0.109490846284998 0 0)
(0.1076969567316065 0 0)
(0.106200686178455 0 0)
(0.1005789723038175 0 0)
(0.09274478229115636 0 0)
(0.08582185883166253 0 0)
(0.07882148654653738 0 0)
(0.07005841591744874 0 0)
(0.06130287682048152 0 0)
(0.05200260367585386 0 0)
(0.04102172798901842 0 0)
(0.0305751725424089 0 0)
(0.02121111446497339 0 0)
(0.01166283042017918 0 0)
(0.0005941597159404521 0 0)
(-0.009695659794470941 0 0)
(-0.01835916883227557 0 0)
(-0.02814952084194135 0 0)
(-0.03752801972503429 0 0)
(-0.04370395185393526 0 0)
(-0.05376726627907936 0 0)
(-0.06073574562299529 0 0)
(-0.06679721904664292 0 0)
(-0.06937624800086886 0 0)
(-0.06925403124092479 0 0)
(-0.07008233545953999 0 0)
(-0.06425615243725379 0 0)
(-0.05927626920600466 0 0)
(-0.05307978638669447 0 0)
(-0.04419611120178617 0 0)
(-0.03597099407212497 0 0)
(-0.02551644160326769 0 0)
(-0.01387642937317609 0 0)
(-0.00351890109710075 0 0)
(0.01103410994789362 0 0)
(0.02417732680415689 0 0)
(0.03499878347376493 0 0)
(0.04799598989828634 0 0)
(0.06012377711711823 0 0)
(0.07003135438712124 0 0)
(0.08018924224722464 0 0)
(0.08917345061364434 0 0)
(0.09628676941533733 0 0)
(0.1033325670382437 0 0)
(0.1089194894473257 0 0)
(0.1130430967643378 0 0)
(0.1156254425292645 0 0)
(0.1149185380646735 0 0)
(0.1129077191720104 0 0)
(0.1081614046065096 0 0)
(0.1018533521117738 0 0)
(0.0944233269535224 0 0)
(0.08714200738462889 0 0)
(0.07971311546089986 0 0)
(0.07058772511846226 0 0)
(0.06021155723476136 0 0)
(0.05249977943230679 0 0)
(0.04236294170524971 0 0)
(0.03086263837123509 0 0)
(0.02324264244574838 0 0)
(0.01258829124112459 0 0)
(0.002118575476949212 0 0)
(-0.006573322639386182 0 0)
(-0.01689272161634131 0 0)
(-0.02547958029657374 0 0)
(-0.03372259851117478 0 0)
(-0.04254351795507461 0 0)
(-0.04824112374402228 0 0)
(-0.05522444323869125 0 0)
(-0.05979185997045161 0 0)
(-0.05959686570736852 0 0)
(-0.05923175641792562 0 0)
(-0.05773860850206921 0 0)
(-0.0515902818352343 0 0)
(-0.04594600132497223 0 0)
(-0.03859089608158602 0 0)
(-0.02975824530027964 0 0)
(-0.02094948159128171 0 0)
(-0.01068315141781691 0 0)
(0.0006651632579187899 0 0)
(0.01267341971301119 0 0)
(0.02649930402271321 0 0)
(0.03850576582647522 0 0)
(0.05127919189312431 0 0)
(0.06381552792483698 0 0)
(0.07511563043455775 0 0)
(0.08587498431362002 0 0)
(0.09434360931313951 0 0)
(0.1024287878455581 0 0)
(0.1104120407436183 0 0)
(0.1146862728386071 0 0)
(0.1197123761096612 0 0)
(0.1228667462420776 0 0)
(0.1220957742042099 0 0)
(0.1203595722122428 0 0)
(0.116796131222377 0 0)
(0.1111478631843298 0 0)
(0.1038315575644023 0 0)
(0.09713998345014012 0 0)
(0.08922936492655879 0 0)
(0.08202541063599653 0 0)
(0.07269549487787275 0 0)
(0.0625809287881946 0 0)
(0.0536113277988035 0 0)
(0.0431450973947719 0 0)
(0.03367104010511889 0 0)
(0.02402375863945043 0 0)
(0.0137834298488749 0 0)
(0.003507761098310206 0 0)
(-0.005482927806861063 0 0)
(-0.01484649672743692 0 0)
(-0.02400583503056058 0 0)
(-0.03068877456712839 0 0)
(-0.03937174935748017 0 0)
(-0.04656518668278455 0 0)
(-0.05094503935487107 0 0)
(-0.05350033758293595 0 0)
(-0.0528704566667711 0 0)
(-0.0522032161727444 0 0)
(-0.04792100853706609 0 0)
(-0.04272695298705071 0 0)
(-0.03483661329825277 0 0)
(-0.02700822781203109 0 0)
(-0.02000968243321279 0 0)
(-0.008933317582300851 0 0)
(0.002081246109672577 0 0)
(0.01152540758588119 0 0)
(0.02475130407098271 0 0)
(0.03728590563155042 0 0)
(0.04921267896540078 0 0)
(0.06286518876415935 0 0)
(0.07399952544377085 0 0)
(0.08534210090557352 0 0)
(0.09664393371277837 0 0)
(0.1047162213353369 0 0)
(0.1129651615702311 0 0)
(0.1195512237468039 0 0)
(0.1235184324688833 0 0)
(0.1266348643126971 0 0)
(0.127742658373622 0 0)
(0.1262954392679469 0 0)
(0.1223179559246924 0 0)
(0.1169906568119041 0 0)
(0.1107531683543664 0 0)
(0.1018002681400502 0 0)
(0.09538253360254961 0 0)
(0.08755196606716401 0 0)
(0.07811475968121553 0 0)
(0.07082334088245615 0 0)
(0.06067220914094706 0 0)
(0.05090376998173793 0 0)
(0.04266766193196546 0 0)
(0.03271147340686419 0 0)
(0.02353707789365999 0 0)
(0.01417522852334963 0 0)
(0.004953164944489764 0 0)
(-0.004136657064082641 0 0)
(-0.01108378502090021 0 0)
(-0.01959134958556997 0 0)
(-0.02745387877160581 0 0)
(-0.03280791812041157 0 0)
(-0.0377767220870006 0 0)
(-0.04260085782931922 0 0)
(-0.04203534707250909 0 0)
(-0.04106230298390508 0 0)
(-0.03878500030690675 0 0)
(-0.0346589355175755 0 0)
(-0.02644558088327593 0 0)
(-0.01993492820663721 0 0)
(-0.01054803885197267 0 0)
(-0.002562513252318264 0 0)
(0.007369560443929714 0 0)
(0.01832113230677683 0 0)
(0.02879296054029801 0 0)
(0.04124657268257007 0 0)
(0.05427963979248508 0 0)
(0.0652918991718567 0 0)
(0.07832883065123876 0 0)
(0.0906975158119977 0 0)
(0.1003140073319937 0 0)
(0.1110886370311578 0 0)
(0.1201591461413646 0 0)
(0.1269324322627424 0 0)
(0.1322619741467043 0 0)
(0.1350290100813323 0 0)
(0.1370899904658147 0 0)
(0.136721986061757 0 0)
(0.1331080294632488 0 0)
(0.1283463563776412 0 0)
(0.1212058118761526 0 0)
(0.1136983269426984 0 0)
(0.1058750009459685 0 0)
(0.09826381643838636 0 0)
(0.08979288075639354 0 0)
(0.08060119470169916 0 0)
(0.07325708194583094 0 0)
(0.06279281904998742 0 0)
(0.05305974378356963 0 0)
(0.04478091112215998 0 0)
(0.03477026043937009 0 0)
(0.02603169782286677 0 0)
(0.01610265556079529 0 0)
(0.006730537961890794 0 0)
(-0.0009882164752906025 0 0)
(-0.009458121904272698 0 0)
(-0.01677666050227739 0 0)
(-0.02215863415086997 0 0)
(-0.02970044551043227 0 0)
(-0.03315832777700632 0 0)
(-0.0339037685974913 0 0)
(-0.03437936556893855 0 0)
(-0.03303845422461606 0 0)
(-0.02888524671862482 0 0)
(-0.02333767498739927 0 0)
(-0.01559429606623729 0 0)
(-0.007700061891874888 0 0)
(0.0006634196916569514 0 0)
(0.01068484182633652 0 0)
(0.02144329074995655 0 0)
(0.03223345864262236 0 0)
(0.04363028029776542 0 0)
(0.05521748935830678 0 0)
(0.06670506497847248 0 0)
(0.07842341389716984 0 0)
(0.08932846273733808 0 0)
(0.1008266804868529 0 0)
(0.1112609377465639 0 0)
(0.1206917344717181 0 0)
(0.1289602886884059 0 0)
(0.1358090526122968 0 0)
(0.141041869468464 0 0)
(0.1442018379353053 0 0)
(0.144447261161486 0 0)
(0.1419379309378848 0 0)
(0.1374723793231777 0 0)
(0.1307583279872162 0 0)
(0.1233931784533914 0 0)
(0.1153180125578196 0 0)
(0.1065906389349196 0 0)
(0.09808946459344965 0 0)
(0.0897225196700559 0 0)
(0.07979555708494397 0 0)
(0.07303961616067699 0 0)
(0.06456553929153214 0 0)
(0.05453909035742675 0 0)
(0.04725967796332736 0 0)
(0.03943363353095083 0 0)
(0.03067881431439998 0 0)
(0.02153123858931713 0 0)
(0.01408890004731002 0 0)
(0.006846702009587999 0 0)
(-0.0009682802078573239 0 0)
(-0.00735603072100294 0 0)
(-0.0129186446517557 0 0)
(-0.01716845591805493 0 0)
(-0.01975660631379199 0 0)
(-0.01884067249945387 0 0)
(-0.01924142019645463 0 0)
(-0.01682678840952658 0 0)
(-0.0113507082451585 0 0)
(-0.004097545298729282 0 0)
(0.00309324312690689 0 0)
(0.01124070221194105 0 0)
(0.02067900976256409 0 0)
(0.03016715200221602 0 0)
(0.0410372257373626 0 0)
(0.05322518384951307 0 0)
(0.06363323725021722 0 0)
(0.07623392357180275 0 0)
(0.08805089248701055 0 0)
(0.09730130009978867 0 0)
(0.1089279121765756 0 0)
(0.1187877507385719 0 0)
(0.1275709982055325 0 0)
(0.1373625893949708 0 0)
(0.1449126879092268 0 0)
(0.1496425055099276 0 0)
(0.1568074743355524 0 0)
(0.1594415509669706 0 0)
(0.1579451883493817 0 0)
(0.1551989672213769 0 0)
(0.1488500046301096 0 0)
(0.1416188528273297 0 0)
(0.1335371302769122 0 0)
(0.1231455655515765 0 0)
(0.1136957818598392 0 0)
(0.1044878757759737 0 0)
(0.09660002341207838 0 0)
(0.08899610924412996 0 0)
(0.07971134925381224 0 0)
(0.07213859751063685 0 0)
(0.06424498728134857 0 0)
(0.05581471128824024 0 0)
(0.04753985666090738 0 0)
(0.03880180189396743 0 0)
(0.029993976816978 0 0)
(0.02172120802160477 0 0)
(0.01471690200602443 0 0)
(0.006800121593486566 0 0)
(0.0006451444273821568 0 0)
(-0.004091790566309103 0 0)
(-0.007252503050159345 0 0)
(-0.007413543526676816 0 0)
(-0.00673341070500963 0 0)
(-0.006188853374460499 0 0)
(-0.001077496498978673 0 0)
(0.004696724540642992 0 0)
(0.01163739661371568 0 0)
(0.01977693430017323 0 0)
(0.0281837136946003 0 0)
(0.03815393563204843 0 0)
(0.0484749928431851 0 0)
(0.05918787498597602 0 0)
(0.07095414619096767 0 0)
(0.08311629447082065 0 0)
(0.09386160723674314 0 0)
(0.1054975181318785 0 0)
(0.1165622919498888 0 0)
(0.1252547486499191 0 0)
(0.1351530833512317 0 0)
(0.1431176692336261 0 0)
(0.1501381380928118 0 0)
(0.1569743620910451 0 0)
(0.1620188901836469 0 0)
(0.1658613835529652 0 0)
(0.1676812404232403 0 0)
(0.1672282712911169 0 0)
(0.1653168076840785 0 0)
(0.1596699868940303 0 0)
(0.1525175496540422 0 0)
(0.1434391110040757 0 0)
(0.1317927522787147 0 0)
(0.1203893873477577 0 0)
(0.1111595363814189 0 0)
(0.1023125078592257 0 0)
(0.09275259478474257 0 0)
(0.08678366808023313 0 0)
(0.07933938805785082 0 0)
(0.07151615412331053 0 0)
(0.06365025885325294 0 0)
(0.05412209130440553 0 0)
(0.04453028383701243 0 0)
(0.03482404594630688 0 0)
(0.02645417890704985 0 0)
(0.01897837074245999 0 0)
(0.01135833831662526 0 0)
(0.005821994162792317 0 0)
(0.002524419259953827 0 0)
(0.0006963095835034511 0 0)
(0.00176734386595749 0 0)
(0.002202570638284016 0 0)
(0.004211391233558416 0 0)
(0.008798981791806541 0 0)
(0.01602380516631439 0 0)
(0.02247420350041354 0 0)
(0.03087683227025072 0 0)
(0.03968790171652534 0 0)
(0.05024370971073732 0 0)
(0.0601382076662401 0 0)
(0.07118807805331345 0 0)
(0.08402735157479969 0 0)
(0.09512698587426788 0 0)
(0.1044953017970908 0 0)
(0.1183536690256281 0 0)
(0.1262099247490246 0 0)
(0.1411247171448041 0 0)
)
;

boundaryField
{
    inlet
    {
        type            zeroGradient;
    }
    outlet
    {
        type            pressureInletOutletVelocity;
        value           uniform (0.1411247171448041 0 0);
    }
    frontAndBack
    {
        type            empty;
    }
}


// ************************************************************************* //
