/*--------------------------------*- C++ -*----------------------------------*\
| =========                 |                                                 |
| \\      /  F ield         | OpenFOAM: The Open Source CFD Toolbox           |
|  \\    /   O peration     | Version:  v2012                                 |
|   \\  /    A nd           | Website:  www.openfoam.com                      |
|    \\/     M anipulation  |                                                 |
\*---------------------------------------------------------------------------*/
FoamFile
{
    version     2.0;
    format      ascii;
    class       volScalarField;
    location    "0.009";
    object      p;
}
// * * * * * * * * * * * * * * * * * * * * * * * * * * * * * * * * * * * * * //

dimensions      [1 -1 -2 0 0 0 0];


internalField   nonuniform List<scalar> 
1000
(
101303.774157752
101309.3639876527
101304.5080772805
101294.6602948139
101292.1954737628
101286.5219860524
101281.9050412155
101281.607110448
101276.531315695
101276.2021420844
101276.4531436167
101276.4451305434
101277.7397333184
101279.3980380966
101281.0439667486
101286.1211844599
101289.4598099542
101294.8732719419
101301.2895304172
101306.3434266413
101313.108505472
101319.5849934436
101326.2005382367
101332.9977230959
101339.3221443786
101345.902542776
101351.7177075047
101357.077769063
101362.2705995411
101366.3397570126
101371.6911144564
101372.9297142583
101372.8630329434
101372.8098155151
101372.5237264297
101370.9859600197
101370.9065642765
101368.3114982452
101364.5550671867
101362.6608508444
101356.3948509384
101351.2325097997
101345.7910586002
101338.0335029939
101332.1419370825
101325.1246849482
101318.2669415475
101312.0473345669
101305.4534070233
101299.4350543925
101293.7327486208
101288.5013817699
101283.0492948608
101277.993517446
101277.6952408594
101277.7739627689
101277.8634659857
101277.9896116715
101279.4174563586
101279.9132603767
101281.8704820248
101285.3477355373
101287.0989112785
101292.4754814696
101297.3658584471
101302.3315014923
101309.8119630041
101315.859111053
101323.0732478402
101330.1797349958
101336.711122772
101343.3978662225
101349.3715840452
101355.2374054197
101360.5238065481
101366.6178175684
101371.6756608428
101371.8664532043
101371.7828741747
101371.8707252884
101371.0363231432
101370.9037832494
101369.4150825108
101367.4231891548
101366.3172945512
101362.0415623918
101358.7779739075
101354.7375384029
101348.1598613974
101343.1272995703
101336.0349578923
101328.8614380191
101322.1153303751
101314.57680043
101307.9025916331
101301.3090990487
101295.0624928671
101289.7431852134
101282.7007208684
101278.7830501932
101278.6506934969
101278.4243309574
101278.8552476906
101279.2718804367
101279.3924350905
101281.3117611879
101282.3522612746
101284.1335606993
101288.1804328917
101290.2505307717
101295.0711256431
101300.7492475414
101305.2294592993
101312.5967687153
101319.0929326042
101325.8914099234
101333.5880824006
101340.2903767329
101347.2721954794
101353.7923411352
101359.4040403227
101366.5737689294
101370.9365863687
101371.0616392745
101370.9580854104
101370.8733573676
101370.6091594283
101369.7575889045
101369.2618551017
101367.4169480782
101365.396591869
101363.7350364536
101359.2091197331
101355.9206812419
101351.6568370865
101344.8322168788
101339.9090929928
101332.9680362925
101325.4703367251
101318.8571964145
101311.1288378042
101304.0382570212
101297.1527186969
101290.8141030929
101282.5938377851
101279.3132212805
101279.3218936613
101279.3800027442
101279.3678850253
101280.0665498165
101280.3951797306
101281.068679196
101283.232269376
101284.1114048212
101286.9316737325
101290.5129605512
101293.1347839743
101298.7147443013
101303.4512543153
101308.8560119709
101316.1055972692
101322.1382976507
101329.56143786
101336.9655377178
101343.8175120373
101351.2840490577
101357.5620674969
101365.9408698844
101370.4099048486
101370.4586893429
101370.3875743827
101370.4191461959
101369.7986279231
101369.4512625119
101368.8306523323
101366.9194506815
101365.9915584469
101363.3816122995
101360.2139168589
101357.5602923758
101352.3731607707
101347.9845964536
101342.5205694349
101335.7070048717
101329.668899037
101322.0847909169
101314.7804691408
101307.545104437
101299.613650179
101292.9892783807
101283.5086235344
101279.8835544901
101279.850819813
101279.9541003942
101279.9455653566
101280.3597575247
101280.8186323044
101281.6576123021
101282.8477512234
101284.4088688981
101287.0491167307
101288.9804636359
101292.9172518164
101297.0872522405
101301.1239828986
101307.1797798719
101312.692027341
101319.2592566227
101326.2998534891
101333.2581740325
101340.9048653477
101348.263136025
101355.2124789583
101364.2336671157
101369.6817214693
101369.7782273498
101369.7670573741
101369.775249756
101369.1451244237
101369.0283865147
101368.2612681153
101366.7188548412
101365.9395870736
101363.4499266725
101360.9384433093
101358.3313493005
101353.7979591891
101349.9242544808
101344.6400920449
101338.6501430636
101332.6567382217
101325.405748639
101318.2694564345
101310.6599457823
101302.6410272306
101295.4995451162
101285.320153305
101280.508259419
101280.4370406358
101280.525298385
101280.5609006121
101280.8654361908
101281.381589323
101281.9910469903
101283.2104959881
101284.5666665193
101286.7123126301
101288.8228709381
101292.0739968278
101295.8982735454
101299.5528379685
101305.2234163249
101310.4262789261
101316.2677649621
101323.4877682498
101330.0231476359
101337.5675516795
101345.2827555767
101352.3955592069
101361.2495983256
101368.860813228
101369.2435878988
101369.2063659368
101369.1935305077
101368.8167676613
101368.6652520776
101367.7414647279
101366.6440490871
101365.9659550257
101363.3489252763
101361.4755646204
101358.9594097528
101354.7548860982
101351.4594095517
101346.388665488
101340.8668065822
101335.3112932066
101328.2669664779
101321.4391759878
101313.8547102247
101305.885405414
101298.421007163
101288.9572555795
101281.36099409
101281.011673846
101280.9995681175
101281.2002238761
101281.2454261143
101281.7716456396
101282.5301035898
101283.0780589304
101284.8758576765
101286.3423425766
101288.3577494216
101291.7516948557
101294.4498634409
101298.7482367638
101303.3696623768
101308.1598654998
101314.3592372177
101320.359717854
101327.1640878083
101334.5570851956
101341.8015350353
101349.5967315674
101357.193321212
101366.9877643484
101368.7692845333
101368.7360065543
101368.7656893041
101368.3819768388
101368.4180807917
101367.3605448191
101366.5876147274
101365.9457544219
101363.4712299008
101361.9395326079
101359.5637587668
101355.6849612456
101352.6775001242
101347.9212931744
101342.7794887521
101337.5261285811
101330.8372759355
101324.290235655
101316.9155076737
101309.1810619323
101301.4104132241
101293.3537033562
101283.1048717228
101281.565674746
101281.5701255252
101281.6390554129
101281.771065895
101282.1810966773
101282.5804127148
101283.6245592798
101284.9991931539
101285.895521648
101288.6593257326
101290.9529704706
101293.6341212809
101297.8676362544
101301.5580126905
101306.570660347
101312.0644776849
101317.7313155806
101324.4881635822
101331.3859929827
101338.6206343347
101346.4673056344
101353.636064212
101363.7348891376
101368.1640332929
101368.1899400206
101368.1373276556
101368.1297432963
101367.5018789256
101367.3513404837
101366.6505074555
101365.0604283334
101364.3833728731
101362.0701799588
101359.5659446715
101357.3141953343
101353.0742959942
101349.4806360412
101344.7825436413
101339.0890208464
101333.6377546097
101326.7472102394
101319.8042581148
101312.4500174573
101304.277588084
101297.0449800152
101286.2466819843
101282.1332264457
101282.0797962127
101282.1433749133
101282.2909225482
101282.4449559284
101283.1231954631
101283.6507406564
101284.8513756872
101286.308690977
101287.9242525776
101290.5875338707
101293.124515829
101296.6129688943
101300.6822997749
101304.9474057781
101310.3598449898
101315.8080777071
101322.0604386582
101328.8421961819
101335.7679802122
101343.376726633
101350.6220896014
101359.3613677254
101367.1728829457
101367.5905251266
101367.5934163669
101367.4623339681
101367.3042963978
101366.8606494363
101366.133781955
101365.3792651647
101363.9548990828
101362.2217259597
101360.3568525224
101357.2806038475
101354.4150179677
101350.5299280086
101346.0184628588
101341.3389646816
101335.3956167314
101329.4046694361
101322.6768791662
101315.2390686855
101307.801084072
101300.1341478939
101291.0801041934
101283.0253144169
101282.6547098089
101282.7301311323
101282.6181871485
101283.087050049
101283.1543728145
101284.1875262065
101284.9491395469
101285.9490029285
101288.3838646953
101289.5517019789
101292.537388728
101296.0886538697
101298.8575095627
101303.8401424054
101308.4396398581
101313.5450324796
101319.9267416036
101325.9403981095
101333.0440601555
101340.2212594581
101347.6055050272
101355.075046265
101365.0729049661
101367.0719806403
101367.0904135227
101367.0248054453
101366.9223062412
101366.497065269
101366.0691785821
101365.2295953607
101364.019467197
101362.5958173093
101360.5301700634
101358.103207913
101355.1165880974
101351.6181375338
101347.4197691064
101342.830464128
101337.444020565
101331.5378445652
101325.2233139188
101318.0551848255
101310.8594440015
101303.1317350391
101295.4283629293
101285.1385969626
101283.2924339955
101283.2926045703
101283.3779994717
101283.436648703
101283.8818100117
101284.3365414255
101285.1272431222
101286.3482417441
101287.7992025236
101289.796577039
101292.0042069562
101295.1848095341
101298.2431573291
101302.2361493959
101307.0549010847
101311.5612552916
101317.5405831145
101323.6899544924
101329.8901151039
101337.2913040275
101344.5536804178
101351.4196338273
101361.1251007352
101366.3984228519
101366.5297009007
101366.427459599
101366.3822362902
101366.1820478375
101365.4350942495
101365.2439453921
101363.8562601449
101362.4255995442
101361.3596427998
101358.1777141459
101356.1231737438
101353.0441688546
101348.2965853429
101344.8272791821
101339.3610518195
101333.5364788
101327.9158723661
101320.7011318842
101313.8485023993
101306.3181222961
101298.9592914563
101289.1769600208
101283.723910666
101283.630206953
101283.705351171
101283.7285294903
101284.0670925982
101284.4796296605
101285.0774472209
101286.3350533229
101287.4483228882
101289.400988578
101291.6397848177
101294.1674548604
101297.5670811648
101301.2027295225
101305.3868859769
101310.3132110727
101315.6209628678
101321.3573817604
101327.8133428127
101334.5456351512
101341.4727208392
101348.8236427064
101356.5336632391
101365.095600779
101365.9786277288
101365.9530738163
101365.7923955159
101365.7892930861
101365.1913613442
101364.6098026333
101364.1117138955
101362.3306205367
101361.2630173396
101359.1966485188
101356.2851727239
101353.8796961695
101349.7965709023
101345.8207906063
101341.2429747797
101335.5463309026
101330.047468093
101323.4295433741
101316.5191371228
101309.4004691392
101301.8140364473
101293.7538470125
101285.0058030274
101284.1878783732
101284.206272595
101284.3903870443
101284.404731464
101284.9701141501
101285.6430709054
101286.1575906978
101287.8597732942
101289.0801628543
101291.03532857
101293.9005168521
101296.3446004594
101300.2129296752
101304.0804926831
101308.5043624763
101313.9115757558
101319.1658380253
101325.4451688163
101331.9837204084
101338.6578434681
101346.0837064153
101352.8311828003
101362.4169927188
101365.5452860267
101365.5812711551
101365.4506458262
101365.4189479675
101365.0153076382
101364.3985316939
101364.0806032344
101362.5249359966
101361.3581516511
101359.7098856742
101356.8180373753
101354.6266502342
101350.9899565066
101346.8676042375
101342.9048829289
101337.3990437267
101331.9083106072
101325.9354234544
101318.9516441209
101312.1285838329
101304.6858418257
101297.5699518406
101287.5231066991
101284.6984732504
101284.7056026335
101284.7644149673
101284.9170112029
101285.0331724986
101285.9769730859
101286.4947849874
101287.1846521565
101289.4567660402
101290.5235927675
101292.9136699361
101296.1689187258
101298.6738122061
101303.0048502094
101307.1743337993
101311.7304962806
101317.515542152
101322.9599338448
101329.3610980012
101336.0737991239
101342.8791102679
101349.791728604
101358.4315619063
101364.7418150592
101364.929908701
101364.8986687382
101364.8277002334
101364.5929796636
101364.3368532938
101363.4028744167
101362.7521597602
101361.4720657596
101359.4986196469
101357.8336724523
101354.9149602751
101351.8991659863
101348.4158372172
101343.9307394844
101339.4510146385
101333.9662329512
101328.0691261078
101321.8563062367
101314.8687337136
101307.7389856516
101300.8352714851
101291.5874375252
101285.5245179138
101285.3295327293
101285.3299020573
101285.5356556681
101285.6059653655
101286.0380355833
101286.9080591273
101287.4886798967
101288.9806095637
101290.6438889371
101292.5082409439
101295.1884954219
101298.1491726138
101301.6197977757
101305.5989850382
101310.3626429391
101315.213715745
101320.8442006797
101327.0374018831
101333.1633510674
101340.0906728423
101347.0719779788
101353.8574877482
101363.1269479527
101364.4413992383
101364.5341475595
101364.5221271969
101364.2080711224
101363.921676142
101363.6430121665
101362.3427908076
101361.6963243089
101360.1595289259
101357.7791022749
101356.0163477672
101352.6064784925
101349.3887968544
101345.6084091752
101340.5325122379
101336.0822168993
101330.2071300201
101323.9851697948
101317.8337069135
101310.4388293872
101303.5860527834
101296.1847104505
101286.846826702
101285.7896478741
101285.7964467343
101285.6830462637
101286.1602023457
101286.2623290941
101286.9058889496
101288.046578573
101288.6614734447
101290.576812671
101292.3395610885
101294.2843077599
101297.5861433104
101300.3927315934
101304.3642183976
101308.7690893058
101313.2800802723
101318.9945229021
101324.8700506114
101331.1750644157
101337.8320038058
101344.7258739985
101351.2707439112
101359.9372796437
101363.8110362783
101363.8254447647
101363.5398072598
101363.1249639941
101362.7447436264
101362.3578322878
101362.0208487399
101360.8504628788
101360.2133280139
101358.6770550491
101356.6817440063
101354.8790173377
101351.3960602415
101348.035130265
101343.7972357925
101338.5269307128
101333.3922634987
101327.1071782641
101320.0517113779
101312.9889174766
101305.4241183057
101297.9067629731
101288.9503645768
101283.7071996498
101282.3491549608
101281.3978083512
101280.8442515531
101280.4151822355
101279.8600524854
101279.6717962942
101279.5100060748
101279.8091498909
101280.8749439907
101281.470847319
101284.3798766671
101287.4469163736
101290.5022021292
101295.7687835492
101300.6024794639
101305.8182820663
101313.0563496682
101319.2443497036
101326.2347504499
101334.6357644715
101341.1974926753
101349.5684838448
101357.7618177093
101361.888074279
101364.0329944874
101366.3645492359
101367.6659373495
101368.851853271
101369.9872746187
101370.872481551
101371.5245981507
101371.3965893344
101370.879561952
101369.5559216839
101366.7392950796
101363.4998258772
101359.1202127832
101353.3359571729
101347.4894382778
101340.8514545888
101332.9955352902
101325.4769840687
101316.6520113476
101309.0873861664
101300.7133505345
101292.2981670023
101288.2445935674
101285.6468334426
101283.6855086887
101282.8588572988
101282.643539003
101282.5901155709
101282.6012958847
101282.71646302
101283.2641639138
101284.2121236993
101285.2160553361
101287.32726961
101290.6919530915
101294.4661468118
101299.3372779252
101305.0649159078
101311.0122467924
101317.6599828469
101324.729916022
101331.8245945738
101338.9325139071
101346.2000984982
101353.1536708801
101359.9713582287
101363.2319234886
101365.6683988638
101367.5212959471
101368.9170662051
101369.9520517172
101370.5045907069
101370.8892158402
101370.8963126617
101370.0709048197
101369.2593527728
101367.5526592464
101364.6214753294
101361.446180641
101356.4780157878
101350.1579120692
101344.1414451882
101336.4763327813
101328.7846168731
101321.1155146046
101312.2020238811
101304.9567818486
101297.6145167146
101290.1916383797
101286.8616757633
101284.5076577523
101282.6846560171
101282.2556614612
101282.4362226559
101282.6461583673
101283.2262693017
101284.004345872
101284.9858341673
101286.4623613614
101288.0460546037
101290.2336879287
101293.6604581379
101297.4185653479
101302.5996024997
101308.7732894691
101314.9098973601
101322.0350349829
101329.5487876747
101336.5162759009
101343.6199619597
101350.8134337898
101356.678584638
101362.5286012204
101364.6347409934
101367.3591918289
101368.7722026594
101369.7821073802
101370.6007647879
101370.9357673064
101370.6404092141
101370.6399188454
101369.0292454891
101367.2778342878
101365.6570451265
101362.2823076252
101357.7339472338
101353.355609786
101346.7371641122
101339.5564320788
101332.6540136228
101324.2597897954
101316.3499285012
101308.7070668398
101300.4741123839
101293.8893180612
101288.0953538693
101285.3648115155
101283.3216105265
101281.8768925783
101282.064901081
101282.693021614
101283.1186864963
101284.3391311866
101285.4103226606
101286.8997080977
101288.9598871879
101290.8436456587
101293.5705243953
101297.1276866427
101301.2935232388
101306.4500736423
101312.1131475343
101318.9815573214
101326.6358917457
101333.9841500314
101341.2009627794
101348.6905073057
101354.9943080649
101361.6195849809
101364.5113068847
101367.252404234
101369.091134013
101369.779290996
101370.3905630484
101370.8569132841
101371.1080947439
101370.338565176
101369.913043661
101368.4208783507
101365.7806845764
101363.543966719
101360.2120939096
101355.067241344
101349.5386054659
101343.4999347133
101335.8400922321
101328.4295202831
101320.6091530465
101311.8395685646
101304.8267382216
101297.2493230364
101290.3662933232
101286.3934404411
101284.1755284302
101282.0041846228
101281.6497424826
101281.8911579828
101282.592942141
101283.721578286
101285.0568113173
101286.7703436564
101288.7649319931
101290.8042404074
101293.2640721914
101296.5150380148
101300.182510779
101304.2960004091
101309.9954759735
101316.0814693094
101322.5663570544
101330.1076862351
101337.2464011894
101344.5557558003
101351.9397766269
101358.5033310489
101363.6519665425
101366.8279063977
101368.859286334
101370.0519771647
101370.5107642078
101370.3190070203
101370.0735635029
101369.7087563654
101369.048840449
101367.9101220575
101366.6289537131
101364.5792244702
101361.3154786711
101357.5433014517
101352.6342170085
101346.0899270393
101339.4449899951
101332.2368247125
101324.1614861534
101316.362902675
101308.9711233812
101301.2130113542
101294.5941585773
101288.9537164269
101286.015830951
101284.2320869222
101282.4027228545
101282.4183404795
101283.0911749552
101283.6387229579
101284.7380994091
101286.4651494571
101288.4859732496
101290.8242744018
101293.1769888456
101296.4173499364
101300.2128979009
101303.4252077569
101307.9142982176
101314.7144889213
101318.7780742712
101326.2473420169
101336.7646712098
)
;

boundaryField
{
    inlet
    {
        type            uniformFixedValue;
        uniformValue    sine;
        uniformValueCoeffs
        {
            frequency       constant 3000;
            scale           constant 50;
            level           constant 101325;
        }
        value           uniform 101312.8819131453;
    }
    outlet
    {
        type            waveTransmissive;
        gamma           1.4;
        fieldInf        101325;
        lInf            2.25;
        value           uniform 101338.6239197395;
    }
    frontAndBack
    {
        type            empty;
    }
}


// ************************************************************************* //
