/*--------------------------------*- C++ -*----------------------------------*\
| =========                 |                                                 |
| \\      /  F ield         | OpenFOAM: The Open Source CFD Toolbox           |
|  \\    /   O peration     | Version:  v2012                                 |
|   \\  /    A nd           | Website:  www.openfoam.com                      |
|    \\/     M anipulation  |                                                 |
\*---------------------------------------------------------------------------*/
FoamFile
{
    version     2.0;
    format      ascii;
    class       volVectorField;
    location    "0.009";
    object      U;
}
// * * * * * * * * * * * * * * * * * * * * * * * * * * * * * * * * * * * * * //

dimensions      [0 1 -1 0 0 0 0];


internalField   nonuniform List<vector> 
1000
(
(-0.02052874449987619 0 0)
(-0.04863576430662737 0 0)
(-0.04830512977649573 0 0)
(-0.07467103551644898 0 0)
(-0.08183981897111181 0 0)
(-0.09391823169930411 0 0)
(-0.1052692241892851 0 0)
(-0.1062378755327949 0 0)
(-0.1186521535856336 0 0)
(-0.1194630297250136 0 0)
(-0.118862397262527 0 0)
(-0.1188548073962139 0 0)
(-0.115705475346151 0 0)
(-0.111645670069878 0 0)
(-0.1076021571854177 0 0)
(-0.09518332681972667 0 0)
(-0.08702493556234994 0 0)
(-0.0737166050523973 0 0)
(-0.05804149374075192 0 0)
(-0.04568852021598567 0 0)
(-0.02909785104168084 0 0)
(-0.01329148197837093 0 0)
(0.002948841577034419 0 0)
(0.01957120673320569 0 0)
(0.03512090395023542 0 0)
(0.05114163872863361 0 0)
(0.06530759451060132 0 0)
(0.07871376368668047 0 0)
(0.09096625695413234 0 0)
(0.1013147527793658 0 0)
(0.1142363591238395 0 0)
(0.1172966881390422 0 0)
(0.1171334919902902 0 0)
(0.1170042605590917 0 0)
(0.1163035123398895 0 0)
(0.1125415467525871 0 0)
(0.1123470398762813 0 0)
(0.1059974175888277 0 0)
(0.096805769160482 0 0)
(0.09217080589943664 0 0)
(0.07683777499731732 0 0)
(0.06420444097431809 0 0)
(0.0508880157068177 0 0)
(0.03190207813173325 0 0)
(0.01748214918370909 0 0)
(0.0003066491623110127 0 0)
(-0.01648011936128314 0 0)
(-0.03170546756248872 0 0)
(-0.04784777864678092 0 0)
(-0.06258243183678587 0 0)
(-0.07654297168066131 0 0)
(-0.08935277725699993 0 0)
(-0.1027024955660401 0 0)
(-0.1150806989149022 0 0)
(-0.115812489411891 0 0)
(-0.1156195515284755 0 0)
(-0.1154003636107578 0 0)
(-0.1150915452000997 0 0)
(-0.1115952411738549 0 0)
(-0.1103812774080742 0 0)
(-0.1055885580213365 0 0)
(-0.09707384345605874 0 0)
(-0.09278664699080348 0 0)
(-0.0796219541945096 0 0)
(-0.0676470320429116 0 0)
(-0.05549073417599822 0 0)
(-0.03717773799673686 0 0)
(-0.0223742489283075 0 0)
(-0.004716213374624365 0 0)
(0.01267869408951246 0 0)
(0.0286656912063872 0 0)
(0.04503025475753751 0 0)
(0.05965136846577668 0 0)
(0.07399372504735713 0 0)
(0.08696675342270675 0 0)
(0.1018381798234943 0 0)
(0.1142327357147348 0 0)
(0.1146967945502222 0 0)
(0.1144890801693248 0 0)
(0.1147059666643643 0 0)
(0.1126638763397236 0 0)
(0.1123397760829789 0 0)
(0.1086973290605912 0 0)
(0.1038237013863641 0 0)
(0.1011178864056878 0 0)
(0.09065549663058614 0 0)
(0.08266966569770912 0 0)
(0.07278254703420804 0 0)
(0.05668499574672917 0 0)
(0.04436963899514792 0 0)
(0.0270107649086788 0 0)
(0.00945208450981248 0 0)
(-0.007059112595489817 0 0)
(-0.02551369843633764 0 0)
(-0.04185198932721528 0 0)
(-0.05799446253148936 0 0)
(-0.07328795531139906 0 0)
(-0.08631140791922971 0 0)
(-0.1035555098289149 0 0)
(-0.1131482222855147 0 0)
(-0.1134726257908771 0 0)
(-0.1140270208866904 0 0)
(-0.1129717968783096 0 0)
(-0.1119516735242481 0 0)
(-0.1116564767500552 0 0)
(-0.1069566427480524 0 0)
(-0.1044088511642252 0 0)
(-0.1000471492919811 0 0)
(-0.09013819350481288 0 0)
(-0.08506955883654238 0 0)
(-0.07326640448644181 0 0)
(-0.05936475434047606 0 0)
(-0.04839627657712284 0 0)
(-0.03036040507397104 0 0)
(-0.01445836705932673 0 0)
(0.002183008548042621 0 0)
(0.02102163761244413 0 0)
(0.03742660851537832 0 0)
(0.05451215937463794 0 0)
(0.07046937870753732 0 0)
(0.08420112171440423 0 0)
(0.1017451622133769 0 0)
(0.1124204126715709 0 0)
(0.112726538503738 0 0)
(0.1124730209137336 0 0)
(0.1122659253910519 0 0)
(0.1116194366099626 0 0)
(0.1095358401151161 0 0)
(0.1083228600548329 0 0)
(0.1038086460149284 0 0)
(0.09886501425943604 0 0)
(0.09479929083799499 0 0)
(0.08372446719321003 0 0)
(0.07567733036068353 0 0)
(0.06524303676948891 0 0)
(0.04854130751776461 0 0)
(0.03649271426596588 0 0)
(0.01950373014978878 0 0)
(0.001152166209723294 0 0)
(-0.01503553345079277 0 0)
(-0.03395402362151188 0 0)
(-0.0513121672709121 0 0)
(-0.06816915846158539 0 0)
(-0.0836909894662751 0 0)
(-0.1038163767423721 0 0)
(-0.1118504675948107 0 0)
(-0.1118292999300452 0 0)
(-0.1116869663625245 0 0)
(-0.1117165700350346 0 0)
(-0.1100057758299881 0 0)
(-0.1092010106970582 0 0)
(-0.1075517902201485 0 0)
(-0.1022539744134881 0 0)
(-0.1001012653743144 0 0)
(-0.09319572148547639 0 0)
(-0.08442698126878477 0 0)
(-0.07800756783548007 0 0)
(-0.06434580285760728 0 0)
(-0.05274957625057497 0 0)
(-0.03951799907698855 0 0)
(-0.02177087236797333 0 0)
(-0.007003674244561302 0 0)
(0.01116611128564552 0 0)
(0.02928823654675915 0 0)
(0.04605806164135449 0 0)
(0.06432979384223196 0 0)
(0.0796957730809362 0 0)
(0.1001955854811083 0 0)
(0.1111319676959546 0 0)
(0.1112512016729422 0 0)
(0.1110769914742593 0 0)
(0.1111543858123357 0 0)
(0.1096359918886476 0 0)
(0.1087859884787919 0 0)
(0.1072676033492306 0 0)
(0.1025910910382729 0 0)
(0.1003209391311631 0 0)
(0.0939346875526651 0 0)
(0.08618317819431145 0 0)
(0.07968979098620406 0 0)
(0.06699607746326272 0 0)
(0.0562562688624114 0 0)
(0.04288384274511408 0 0)
(0.0262078209193852 0 0)
(0.01142884682186409 0 0)
(-0.007134940272140653 0 0)
(-0.02501486412106324 0 0)
(-0.04272728152447011 0 0)
(-0.06214439730390374 0 0)
(-0.07836474794109594 0 0)
(-0.1015767683328778 0 0)
(-0.1104539649977124 0 0)
(-0.1105340187887215 0 0)
(-0.1102810259626733 0 0)
(-0.1103021209163947 0 0)
(-0.1092879438297044 0 0)
(-0.1081643027926228 0 0)
(-0.1061095036974723 0 0)
(-0.1031951420783777 0 0)
(-0.09937292734521021 0 0)
(-0.09290814057423927 0 0)
(-0.08817906237902712 0 0)
(-0.07854077521020783 0 0)
(-0.06833082653164889 0 0)
(-0.05844667048647535 0 0)
(-0.0436214416810542 0 0)
(-0.03012718205845836 0 0)
(-0.01405118897069949 0 0)
(0.003182191018682017 0 0)
(0.02021437862321015 0 0)
(0.03893011320853593 0 0)
(0.05693642924923855 0 0)
(0.07394932766097177 0 0)
(0.09601680375457346 0 0)
(0.1093499573882002 0 0)
(0.1095851296805698 0 0)
(0.1095571104505967 0 0)
(0.1095785314227189 0 0)
(0.1080373926163461 0 0)
(0.1077524503569562 0 0)
(0.1058750470839448 0 0)
(0.1021010633011647 0 0)
(0.1001934441065076 0 0)
(0.09410112927179456 0 0)
(0.0879556875446784 0 0)
(0.08157551234528648 0 0)
(0.07048133745482507 0 0)
(0.06100232617309431 0 0)
(0.04807014557087349 0 0)
(0.03341097563040722 0 0)
(0.01874273766759618 0 0)
(0.000995150763993325 0 0)
(-0.01647281011805106 0 0)
(-0.03510234507106513 0 0)
(-0.05473286501482639 0 0)
(-0.07221779165008087 0 0)
(-0.09714209541809597 0 0)
(-0.1089246430120915 0 0)
(-0.1090995050016534 0 0)
(-0.1088835851947028 0 0)
(-0.1087952512002093 0 0)
(-0.108048333632104 0 0)
(-0.1067837632674298 0 0)
(-0.1052920051804725 0 0)
(-0.1023071634433095 0 0)
(-0.09898747933460807 0 0)
(-0.09373373196393447 0 0)
(-0.08856578916819334 0 0)
(-0.08060526491436167 0 0)
(-0.0712412974846266 0 0)
(-0.06229271785122938 0 0)
(-0.04841069544020039 0 0)
(-0.03567214098161917 0 0)
(-0.02137685600756167 0 0)
(-0.003700400895813004 0 0)
(0.01229716521451738 0 0)
(0.03075648095173181 0 0)
(0.04965183202348793 0 0)
(0.06704439234351471 0 0)
(0.08871999122963495 0 0)
(0.1073414642138728 0 0)
(0.10827801934474 0 0)
(0.1081865532012353 0 0)
(0.108155433442896 0 0)
(0.1072334895322339 0 0)
(0.1068627847554118 0 0)
(0.104602498849112 0 0)
(0.1019173077918847 0 0)
(0.1002580356242403 0 0)
(0.09385431585008189 0 0)
(0.08927029151364152 0 0)
(0.08311319612291025 0 0)
(0.07282430719783682 0 0)
(0.06475971557895158 0 0)
(0.05235028131187621 0 0)
(0.03883638015506548 0 0)
(0.02523936577903309 0 0)
(0.007997486838504722 0 0)
(-0.008715060491091473 0 0)
(-0.02728120382785641 0 0)
(-0.04679055808548319 0 0)
(-0.06506502014502023 0 0)
(-0.08823641509375964 0 0)
(-0.1068358925903858 0 0)
(-0.1076916171825447 0 0)
(-0.1077212582601464 0 0)
(-0.107229904742382 0 0)
(-0.1071191747483881 0 0)
(-0.1058306447937383 0 0)
(-0.1039734811941455 0 0)
(-0.1026317612515452 0 0)
(-0.0982297219908449 0 0)
(-0.09463889900840966 0 0)
(-0.08970406663915169 0 0)
(-0.08139412465622096 0 0)
(-0.07478784026153898 0 0)
(-0.06426400590234818 0 0)
(-0.05294954619751829 0 0)
(-0.04122237761381141 0 0)
(-0.02604614387170362 0 0)
(-0.01135748676388847 0 0)
(0.005298066659924746 0 0)
(0.02339343073465975 0 0)
(0.04112396612031873 0 0)
(0.06020138146939227 0 0)
(0.07879127748173492 0 0)
(0.1027582068704342 0 0)
(0.1071173347321643 0 0)
(0.1070359672794033 0 0)
(0.1071085369820001 0 0)
(0.1061697211518152 0 0)
(0.1062580890524709 0 0)
(0.1036703626522607 0 0)
(0.1017790644009545 0 0)
(0.1002084442204711 0 0)
(0.09415356271837769 0 0)
(0.09040552266336352 0 0)
(0.08459190181976696 0 0)
(0.07510029875115648 0 0)
(0.06774059399680851 0 0)
(0.05610120501767882 0 0)
(0.04351743182292919 0 0)
(0.03066016569955126 0 0)
(0.01428873243286476 0 0)
(-0.001736467129469842 0 0)
(-0.01978893934619281 0 0)
(-0.03872197081668993 0 0)
(-0.05774652451027196 0 0)
(-0.07747175485430406 0 0)
(-0.1025657775164723 0 0)
(-0.1063348186350375 0 0)
(-0.1063240077227306 0 0)
(-0.1061555400504717 0 0)
(-0.1058322885044259 0 0)
(-0.1048284732204917 0 0)
(-0.1038507064064493 0 0)
(-0.1012938560459946 0 0)
(-0.09792791772292302 0 0)
(-0.09573312051835037 0 0)
(-0.08896573127512925 0 0)
(-0.08334956672614859 0 0)
(-0.0767848717846025 0 0)
(-0.06641958873112125 0 0)
(-0.05738457568545163 0 0)
(-0.045112716993002 0 0)
(-0.03166347431297059 0 0)
(-0.01779160981116719 0 0)
(-0.00125203440069428 0 0)
(0.01563165381124344 0 0)
(0.03333873496251705 0 0)
(0.05254264914300533 0 0)
(0.07008613317423193 0 0)
(0.09479830267727449 0 0)
(0.1056360531902684 0 0)
(0.1056993860167731 0 0)
(0.1055706705906222 0 0)
(0.1055527153879608 0 0)
(0.1040167788943409 0 0)
(0.1036487928846605 0 0)
(0.1019340151545981 0 0)
(0.09804282799332315 0 0)
(0.09638570078180547 0 0)
(0.09072527095938496 0 0)
(0.08459672013988691 0 0)
(0.07908649417990582 0 0)
(0.06871075939096942 0 0)
(0.05991633166343409 0 0)
(0.04841947062240521 0 0)
(0.03448547009284084 0 0)
(0.02114250042863055 0 0)
(0.00427937859461886 0 0)
(-0.01271812850006427 0 0)
(-0.0307226612293074 0 0)
(-0.0507221426492562 0 0)
(-0.06843879842179841 0 0)
(-0.09487212142553962 0 0)
(-0.1049455014266046 0 0)
(-0.1050764063594329 0 0)
(-0.1049203618866048 0 0)
(-0.1045591347938472 0 0)
(-0.1041819506630036 0 0)
(-0.1025212070078385 0 0)
(-0.101229495527323 0 0)
(-0.09828963068713939 0 0)
(-0.09472139172428146 0 0)
(-0.09076569926746196 0 0)
(-0.08424451843631477 0 0)
(-0.07803286912557242 0 0)
(-0.0694918319784688 0 0)
(-0.05952885957716397 0 0)
(-0.04908707150339728 0 0)
(-0.03583675492689748 0 0)
(-0.02249949555693656 0 0)
(-0.007194666191300225 0 0)
(0.009405423003544961 0 0)
(0.02635694662587505 0 0)
(0.04497892522845383 0 0)
(0.06271053195658063 0 0)
(0.08409650843950545 0 0)
(0.1032110276557956 0 0)
(0.1042329141687199 0 0)
(0.1042400980630564 0 0)
(0.1039194111187062 0 0)
(0.1035327140989725 0 0)
(0.1024471343971885 0 0)
(0.1006685854648003 0 0)
(0.09882233070574366 0 0)
(0.09533677727968037 0 0)
(0.09109584770074482 0 0)
(0.08653273945131211 0 0)
(0.07900473616009314 0 0)
(0.07199268923616957 0 0)
(0.06248464646645852 0 0)
(0.05144364490070162 0 0)
(0.03999239244522793 0 0)
(0.02544531487867692 0 0)
(0.0107821414604147 0 0)
(-0.005685395056876927 0 0)
(-0.02389269375073137 0 0)
(-0.04210029771054524 0 0)
(-0.06087183872418918 0 0)
(-0.0830383984668875 0 0)
(-0.1027610812968098 0 0)
(-0.1036688500152517 0 0)
(-0.103484171653876 0 0)
(-0.1037577424848894 0 0)
(-0.1026094544986551 0 0)
(-0.10244484777567 0 0)
(-0.09991514148382738 0 0)
(-0.09805042256489388 0 0)
(-0.09560230716588178 0 0)
(-0.08964032885222095 0 0)
(-0.08678104366440202 0 0)
(-0.0794708297728801 0 0)
(-0.07077553146539647 0 0)
(-0.06399667903303338 0 0)
(-0.05179754054186642 0 0)
(-0.04053732422103924 0 0)
(-0.02803988873271546 0 0)
(-0.01241752782776116 0 0)
(0.002302461784405838 0 0)
(0.01968990299101363 0 0)
(0.03725628317543789 0 0)
(0.05532797590838842 0 0)
(0.07360735741340109 0 0)
(0.09807292461957809 0 0)
(0.102964107206134 0 0)
(0.1030091936173563 0 0)
(0.1028486376998853 0 0)
(0.1025978793563834 0 0)
(0.1015573763852054 0 0)
(0.1005103874552475 0 0)
(0.09845602848833657 0 0)
(0.09549487662989355 0 0)
(0.09201120808809347 0 0)
(0.08695669582120943 0 0)
(0.08101785079994017 0 0)
(0.07370941169706632 0 0)
(0.06514718440993741 0 0)
(0.05487381470900318 0 0)
(0.04364256748862797 0 0)
(0.03045790889813475 0 0)
(0.01600378881800402 0 0)
(0.0005468569402334084 0 0)
(-0.01699854022331864 0 0)
(-0.03461364450683032 0 0)
(-0.05353241401763046 0 0)
(-0.07239168621422502 0 0)
(-0.09758638597072528 0 0)
(-0.1021067845034291 0 0)
(-0.102106814905989 0 0)
(-0.1018980654019795 0 0)
(-0.1017544120303063 0 0)
(-0.1006640069035421 0 0)
(-0.09955027150254001 0 0)
(-0.0976137247270908 0 0)
(-0.09462489301560327 0 0)
(-0.09107217219822032 0 0)
(-0.08617946177519417 0 0)
(-0.080776460254934 0 0)
(-0.07299001530132658 0 0)
(-0.06550265760072761 0 0)
(-0.05572627150924474 0 0)
(-0.04392455045709728 0 0)
(-0.03289426784639053 0 0)
(-0.01825963718646675 0 0)
(-0.003206300903921355 0 0)
(0.01196933424127446 0 0)
(0.03008513930462171 0 0)
(0.04785984027745412 0 0)
(0.064662148675226 0 0)
(0.08841270186874245 0 0)
(0.10131627666471 0 0)
(0.1016370461997115 0 0)
(0.1013866372106473 0 0)
(0.1012762959351272 0 0)
(0.1007863063676042 0 0)
(0.09895841608197779 0 0)
(0.09849072083386162 0 0)
(0.09509521694878278 0 0)
(0.0915945956049649 0 0)
(0.08898657488654124 0 0)
(0.08120028343702403 0 0)
(0.07617286782761128 0 0)
(0.06863831429447087 0 0)
(0.0570194001170457 0 0)
(0.04852900302759187 0 0)
(0.03515084250378964 0 0)
(0.020894835355547 0 0)
(0.007137516504880209 0 0)
(-0.01052230580274989 0 0)
(-0.02729664083515194 0 0)
(-0.04573151554892168 0 0)
(-0.06374742060479198 0 0)
(-0.0876984882784549 0 0)
(-0.1010505774680681 0 0)
(-0.1012802338403701 0 0)
(-0.1010963404077698 0 0)
(-0.1010392985191605 0 0)
(-0.100210105826456 0 0)
(-0.0991998263686073 0 0)
(-0.09773599621454779 0 0)
(-0.09465666366769329 0 0)
(-0.09193094228244916 0 0)
(-0.0871498968900823 0 0)
(-0.08166829079881427 0 0)
(-0.07547961642722556 0 0)
(-0.06715620561700976 0 0)
(-0.05825520198944711 0 0)
(-0.04801157161662722 0 0)
(-0.03595125606421017 0 0)
(-0.02295797312988168 0 0)
(-0.008915833811088235 0 0)
(0.006886814698201801 0 0)
(0.02336502505747825 0 0)
(0.04031899455919069 0 0)
(0.05830928414804379 0 0)
(0.07717680712109458 0 0)
(0.09812805061216881 0 0)
(0.1002887349339776 0 0)
(0.100226195145368 0 0)
(0.09983300617188907 0 0)
(0.09982538714362893 0 0)
(0.09836234032115397 0 0)
(0.09693934353922354 0 0)
(0.09572047321175219 0 0)
(0.09136220800757817 0 0)
(0.08874977473234748 0 0)
(0.08369333906043172 0 0)
(0.07656885811526215 0 0)
(0.07068233400879284 0 0)
(0.0606899819606213 0 0)
(0.05096010836816051 0 0)
(0.0397566669601013 0 0)
(0.02581423378365626 0 0)
(0.01235519641353962 0 0)
(-0.003843258443908269 0 0)
(-0.02075920882984396 0 0)
(-0.03818549635800542 0 0)
(-0.056759151625236 0 0)
(-0.07649079644035855 0 0)
(-0.0979126827374394 0 0)
(-0.09991453590833727 0 0)
(-0.09986948830457831 0 0)
(-0.09941868591525752 0 0)
(-0.09938359051716458 0 0)
(-0.09799921651885007 0 0)
(-0.09635141917376898 0 0)
(-0.09509163793295787 0 0)
(-0.09092379150511863 0 0)
(-0.08793558045195915 0 0)
(-0.08314840839490546 0 0)
(-0.07613316417390115 0 0)
(-0.07014906727888338 0 0)
(-0.06067855767797903 0 0)
(-0.05121047187634764 0 0)
(-0.04037822387427609 0 0)
(-0.02714332221336571 0 0)
(-0.01427788601868295 0 0)
(0.001089105152239768 0 0)
(0.01709168976559236 0 0)
(0.03343446026022796 0 0)
(0.05159764811061966 0 0)
(0.06811885982692593 0 0)
(0.09157326549455518 0 0)
(0.0992289586878887 0 0)
(0.09931675482745732 0 0)
(0.09899655859684404 0 0)
(0.09891886418453737 0 0)
(0.09793211081282562 0 0)
(0.09642314444513739 0 0)
(0.09564519313357997 0 0)
(0.09183825446945412 0 0)
(0.08898307854501782 0 0)
(0.08494908649673277 0 0)
(0.07787208951238549 0 0)
(0.07251057686142401 0 0)
(0.06361141535041995 0 0)
(0.05352264146628272 0 0)
(0.04382419068054465 0 0)
(0.03034783816680013 0 0)
(0.01690826534637141 0 0)
(0.002288390348846535 0 0)
(-0.01480588747538339 0 0)
(-0.03150740335474717 0 0)
(-0.04973113185426401 0 0)
(-0.06714285029754707 0 0)
(-0.09175130810270303 0 0)
(-0.09866403209080514 0 0)
(-0.09864599988648924 0 0)
(-0.09850244092683219 0 0)
(-0.09812915067232995 0 0)
(-0.09784482527155322 0 0)
(-0.09553362659272117 0 0)
(-0.09426590621457365 0 0)
(-0.09257684904933777 0 0)
(-0.08701398877092326 0 0)
(-0.08440245648800387 0 0)
(-0.07854953608897332 0 0)
(-0.07057937872491184 0 0)
(-0.06444555981735468 0 0)
(-0.05384132393164736 0 0)
(-0.04363512314543801 0 0)
(-0.03248115227395057 0 0)
(-0.0183201622427315 0 0)
(-0.004993980143610063 0 0)
(0.01067501125944219 0 0)
(0.02710381032152373 0 0)
(0.04376352639375305 0 0)
(0.06067010011262521 0 0)
(0.0818239110401995 0 0)
(0.09726119884332377 0 0)
(0.0977236816903314 0 0)
(0.09764662123823128 0 0)
(0.09747325680422192 0 0)
(0.09689863276612491 0 0)
(0.09627194978436011 0 0)
(0.09398589455988515 0 0)
(0.09239361777071638 0 0)
(0.08926237939692216 0 0)
(0.08443176461007562 0 0)
(0.08035717733709888 0 0)
(0.07321603504774241 0 0)
(0.06583450752874929 0 0)
(0.05731194973972277 0 0)
(0.04633446514248245 0 0)
(0.03536907602361702 0 0)
(0.02194868437380329 0 0)
(0.007513451947806685 0 0)
(-0.007694167863816315 0 0)
(-0.02480009092973599 0 0)
(-0.04225390532576873 0 0)
(-0.05915808939619198 0 0)
(-0.08179306436617372 0 0)
(-0.09664358283698761 0 0)
(-0.09711942611884754 0 0)
(-0.09711862506909083 0 0)
(-0.09661378450725668 0 0)
(-0.09643854512416883 0 0)
(-0.09538220931143788 0 0)
(-0.0932549182784915 0 0)
(-0.09183579022508477 0 0)
(-0.08818238776960846 0 0)
(-0.08410779777184237 0 0)
(-0.07954272145047706 0 0)
(-0.07297937303785926 0 0)
(-0.0657270099616514 0 0)
(-0.05723378627923672 0 0)
(-0.04749506250355854 0 0)
(-0.0358262264170021 0 0)
(-0.02395134537246733 0 0)
(-0.0101707392816282 0 0)
(0.004991338044714636 0 0)
(0.01997547844344093 0 0)
(0.03692746620028942 0 0)
(0.05401757455063878 0 0)
(0.07060869613780683 0 0)
(0.09332244656328272 0 0)
(0.09652186337010706 0 0)
(0.09675625287711775 0 0)
(0.09672874731136619 0 0)
(0.09597698931178171 0 0)
(0.09529169939146873 0 0)
(0.0946047453434538 0 0)
(0.09141432625274504 0 0)
(0.08977808407362048 0 0)
(0.08598478108988869 0 0)
(0.08017039343942679 0 0)
(0.07586050575013653 0 0)
(0.06754276905204018 0 0)
(0.05959304104586299 0 0)
(0.05062817950244672 0 0)
(0.03823070695729464 0 0)
(0.0270215043103647 0 0)
(0.0128039884639577 0 0)
(-0.002530865346084472 0 0)
(-0.01793179749862897 0 0)
(-0.03519187819553952 0 0)
(-0.05302052975213593 0 0)
(-0.07046959390912914 0 0)
(-0.09308660017819144 0 0)
(-0.09584470559723722 0 0)
(-0.09586107549969726 0 0)
(-0.09611599345019153 0 0)
(-0.09496404113985765 0 0)
(-0.09476025926961158 0 0)
(-0.09342806780691523 0 0)
(-0.09081028711310772 0 0)
(-0.08937702503696009 0 0)
(-0.08464260444060721 0 0)
(-0.08002107884628279 0 0)
(-0.07499922407898285 0 0)
(-0.06683520322640524 0 0)
(-0.05970748112415996 0 0)
(-0.05012890104528869 0 0)
(-0.03901435353707666 0 0)
(-0.02785016998779926 0 0)
(-0.01450171800397676 0 0)
(-0.0009738661649608337 0 0)
(0.01387550406724123 0 0)
(0.02995457124182925 0 0)
(0.04661500709268605 0 0)
(0.06254543432603123 0 0)
(0.08463401458487012 0 0)
(0.09498814159772831 0 0)
(0.09608349920156899 0 0)
(0.09649004177908337 0 0)
(0.09677266269254184 0 0)
(0.09561272078244824 0 0)
(0.09455543681159623 0 0)
(0.09310171775932767 0 0)
(0.08876005104693886 0 0)
(0.08601693534960164 0 0)
(0.08066707595512852 0 0)
(0.07330949461383471 0 0)
(0.06780578905614226 0 0)
(0.05851260429172158 0 0)
(0.04914535630341924 0 0)
(0.04034261374005341 0 0)
(0.02787470184867341 0 0)
(0.0157428740199137 0 0)
(0.002530651081994207 0 0)
(-0.01199650350812639 0 0)
(-0.02658958577687803 0 0)
(-0.04316061390982183 0 0)
(-0.0580705474904953 0 0)
(-0.0777028012672225 0 0)
(-0.08693002429102521 0 0)
(-0.08745786937030109 0 0)
(-0.08576154517872657 0 0)
(-0.08241092775280004 0 0)
(-0.07912112112059119 0 0)
(-0.07395584923285152 0 0)
(-0.07012792079341605 0 0)
(-0.0647462854825511 0 0)
(-0.05950037755548274 0 0)
(-0.05258861360741989 0 0)
(-0.04766717043667622 0 0)
(-0.03871479104011527 0 0)
(-0.03078596529822328 0 0)
(-0.02423002902301298 0 0)
(-0.01348398182504585 0 0)
(-0.004015258431533791 0 0)
(0.00641639710540782 0 0)
(0.01880954473330239 0 0)
(0.0306497951592789 0 0)
(0.04507014989547622 0 0)
(0.05742781458051052 0 0)
(0.0723000104449608 0 0)
(0.08487951325941968 0 0)
(0.09715985795363917 0 0)
(0.09964258337575765 0 0)
(0.09712954716983714 0 0)
(0.0932579734883764 0 0)
(0.08623902326934776 0 0)
(0.07886541477722182 0 0)
(0.07163905987826294 0 0)
(0.06410901936717078 0 0)
(0.0570463463005043 0 0)
(0.04909227102745883 0 0)
(0.04144732821209469 0 0)
(0.03407013193890637 0 0)
(0.02694039456831066 0 0)
(0.01771736210933627 0 0)
(0.009898758115342623 0 0)
(0.0008442665236039088 0 0)
(-0.01100239974657082 0 0)
(-0.01992604513191169 0 0)
(-0.03143544223752644 0 0)
(-0.04441854142966667 0 0)
(-0.05469862627579278 0 0)
(-0.07053525509834178 0 0)
(-0.08057043783633949 0 0)
(-0.09356353196254204 0 0)
(-0.0981342133416849 0 0)
(-0.09749754304312422 0 0)
(-0.0955701140711071 0 0)
(-0.09160192678509693 0 0)
(-0.08517232932644911 0 0)
(-0.0782347718538732 0 0)
(-0.07184392033133813 0 0)
(-0.06518579713883917 0 0)
(-0.05805508081043596 0 0)
(-0.05101829035453544 0 0)
(-0.044440456523715 0 0)
(-0.03644536770428556 0 0)
(-0.02766406752341665 0 0)
(-0.01897946952829972 0 0)
(-0.009167452539188907 0 0)
(0.001275178537721917 0 0)
(0.01267347066494629 0 0)
(0.0245035827976153 0 0)
(0.03653654320303728 0 0)
(0.04986158242999757 0 0)
(0.06313472201176196 0 0)
(0.07499371435643885 0 0)
(0.0873437277358574 0 0)
(0.09670759480338909 0 0)
(0.09793890698572925 0 0)
(0.0952567792023392 0 0)
(0.09098594354342716 0 0)
(0.08430939749224883 0 0)
(0.0757051747620924 0 0)
(0.06755065622138429 0 0)
(0.05885314241649748 0 0)
(0.05012986688380831 0 0)
(0.04175745353833946 0 0)
(0.0339746189305623 0 0)
(0.02621710024926326 0 0)
(0.0190565846378131 0 0)
(0.01113842186180784 0 0)
(0.001696082009156397 0 0)
(-0.007040261271368507 0 0)
(-0.01792798340365187 0 0)
(-0.02822400873185027 0 0)
(-0.03921385154908203 0 0)
(-0.05203167039010211 0 0)
(-0.06212506200088164 0 0)
(-0.07470360543757146 0 0)
(-0.0861511531137983 0 0)
(-0.09501353553811831 0 0)
(-0.09758063006429255 0 0)
(-0.09671182994245871 0 0)
(-0.0951167559988931 0 0)
(-0.08907060950775207 0 0)
(-0.08297676573571663 0 0)
(-0.07595352580868714 0 0)
(-0.06845201022655818 0 0)
(-0.06097308014020863 0 0)
(-0.05349845090178689 0 0)
(-0.04593583922340124 0 0)
(-0.03850829068496725 0 0)
(-0.03012086741677959 0 0)
(-0.02125720604787216 0 0)
(-0.01228029696578617 0 0)
(-0.003506386189097264 0 0)
(0.007323036354916512 0 0)
(0.01876362744391762 0 0)
(0.03014948248254779 0 0)
(0.04260860943744488 0 0)
(0.05462099693640452 0 0)
(0.06679016903385009 0 0)
(0.07667884903344638 0 0)
(0.08897518222757821 0 0)
(0.0948804555379202 0 0)
(0.09545519992618899 0 0)
(0.09311945213414356 0 0)
(0.08780820808148555 0 0)
(0.08180078906066768 0 0)
(0.07203637558529304 0 0)
(0.06312428081924729 0 0)
(0.05305353381086141 0 0)
(0.04441430579112698 0 0)
(0.0346930141984764 0 0)
(0.02615770127224054 0 0)
(0.01913297958947879 0 0)
(0.01156404865297505 0 0)
(0.003719516040356744 0 0)
(-0.00471059468898986 0 0)
(-0.01322158238954322 0 0)
(-0.02339388985870881 0 0)
(-0.03441896944184064 0 0)
(-0.04506485500619273 0 0)
(-0.05760113866002646 0 0)
(-0.06869573700406349 0 0)
(-0.07747831305650152 0 0)
(-0.08915960059406325 0 0)
(-0.09527732449967516 0 0)
(-0.0955814938121229 0 0)
(-0.09531401974455533 0 0)
(-0.09236846303513505 0 0)
(-0.08675968293492918 0 0)
(-0.08004201664984123 0 0)
(-0.07343311625422022 0 0)
(-0.06540046853045023 0 0)
(-0.0578575621785465 0 0)
(-0.04921683124044524 0 0)
(-0.04045352627320635 0 0)
(-0.033599599728434 0 0)
(-0.02423300470006955 0 0)
(-0.01483556982998817 0 0)
(-0.007355064342892527 0 0)
(0.00335997096728388 0 0)
(0.0145273898730841 0 0)
(0.02402358219694246 0 0)
(0.03546101674810245 0 0)
(0.04703544306254027 0 0)
(0.05843243533079275 0 0)
(0.0689400289209316 0 0)
(0.07842533998034451 0 0)
(0.08738170171687303 0 0)
(0.09036196573071796 0 0)
(0.09080805859027083 0 0)
(0.08884870158007777 0 0)
(0.0838453872936169 0 0)
(0.07626434897510334 0 0)
(0.0670188710408432 0 0)
(0.05842245709193014 0 0)
(0.04790569288447143 0 0)
(0.03746728085730931 0 0)
(0.02744964720543618 0 0)
(0.01731598262191828 0 0)
(0.01088749427073719 0 0)
(0.002702916413028174 0 0)
(-0.005880101011811647 0 0)
(-0.01228072715115286 0 0)
(-0.02242492054119782 0 0)
(-0.03092409618728753 0 0)
(-0.04090899820598698 0 0)
(-0.05195036880837101 0 0)
(-0.06166593806892386 0 0)
(-0.07430644950705179 0 0)
(-0.08257767690174965 0 0)
(-0.09146424723160444 0 0)
(-0.0942816116056866 0 0)
(-0.09383170484495701 0 0)
(-0.09379159147129548 0 0)
(-0.08855780457030608 0 0)
(-0.08297954854553492 0 0)
(-0.07614195867795116 0 0)
(-0.06848241745183758 0 0)
(-0.06083114142688293 0 0)
(-0.05222293585747864 0 0)
(-0.04368873568698302 0 0)
(-0.03540108345756574 0 0)
(-0.02584611515807477 0 0)
(-0.01657634626357448 0 0)
(-0.008067178474966895 0 0)
(0.002084990495887136 0 0)
(0.01083803248043506 0 0)
(0.02071109071620081 0 0)
(0.03160785196709499 0 0)
(0.04165933210177256 0 0)
(0.05410876846457432 0 0)
(0.06396496920922569 0 0)
(0.07225629136164333 0 0)
(0.08252882228282138 0 0)
(0.08726674106759882 0 0)
(0.08862742164171648 0 0)
(0.08704394491536616 0 0)
(0.08429299786923143 0 0)
(0.0787046952429894 0 0)
(0.07282472629388019 0 0)
(0.06478840970191357 0 0)
(0.05562077841546522 0 0)
(0.04487212986935393 0 0)
(0.0325391073387735 0 0)
(0.0216097922833349 0 0)
(0.01111027430852381 0 0)
(0.0007333777715823076 0 0)
(-0.006128043168253707 0 0)
(-0.01431261117227204 0 0)
(-0.02202727384472256 0 0)
(-0.02891785971683442 0 0)
(-0.03776186518272145 0 0)
(-0.0466569980517883 0 0)
(-0.05676741347940046 0 0)
(-0.06831928294557385 0 0)
(-0.07753004706928722 0 0)
(-0.08794865938227854 0 0)
(-0.09524880307038019 0 0)
(-0.09560802726041941 0 0)
(-0.09536347746161582 0 0)
(-0.09307441104888219 0 0)
(-0.08727503614306706 0 0)
(-0.08053675400707959 0 0)
(-0.07384947002868408 0 0)
(-0.06650177044318706 0 0)
(-0.05727721263201892 0 0)
(-0.04773295033573788 0 0)
(-0.03955221259498513 0 0)
(-0.02972515807390873 0 0)
(-0.01996067282650697 0 0)
(-0.01185419333111281 0 0)
(-0.001306042995118133 0 0)
(0.009920077190727652 0 0)
(0.01556342156592773 0 0)
(0.02853562282897963 0 0)
(0.03782765012902302 0 0)
(0.05163422535004208 0 0)
)
;

boundaryField
{
    inlet
    {
        type            zeroGradient;
    }
    outlet
    {
        type            pressureInletOutletVelocity;
        value           uniform (0.05163422535004208 0 0);
    }
    frontAndBack
    {
        type            empty;
    }
}


// ************************************************************************* //
