/*--------------------------------*- C++ -*----------------------------------*\
| =========                 |                                                 |
| \\      /  F ield         | OpenFOAM: The Open Source CFD Toolbox           |
|  \\    /   O peration     | Version:  v2012                                 |
|   \\  /    A nd           | Website:  www.openfoam.com                      |
|    \\/     M anipulation  |                                                 |
\*---------------------------------------------------------------------------*/
FoamFile
{
    version     2.0;
    format      ascii;
    class       volVectorField;
    location    "0.009";
    object      UMean;
}
// * * * * * * * * * * * * * * * * * * * * * * * * * * * * * * * * * * * * * //

dimensions      [0 1 -1 0 0 0 0];


internalField   nonuniform List<vector> 
1000
(
(-2.722042342200475e-05 0 0)
(1.525012654872018e-05 0 0)
(3.15844736405273e-05 0 0)
(9.5689029166764e-05 0 0)
(0.0001261151114934033 0 0)
(0.0001882954505532395 0 0)
(0.0002582610439394916 0 0)
(0.0003588500368870284 0 0)
(0.0004097322311324678 0 0)
(0.0005222504573018744 0 0)
(0.000624790954876971 0 0)
(0.0006986535701594306 0 0)
(0.0007958697374128944 0 0)
(0.0009278970249935875 0 0)
(0.0009761841396045075 0 0)
(0.001050855980028809 0 0)
(0.001189501805733459 0 0)
(0.001233219722133191 0 0)
(0.001271254627731027 0 0)
(0.001345443409444327 0 0)
(0.001404147994580323 0 0)
(0.001415863997892695 0 0)
(0.001397304074901874 0 0)
(0.001446908710537421 0 0)
(0.0014470905130672 0 0)
(0.001395700966780613 0 0)
(0.001320188367691411 0 0)
(0.00133853405618122 0 0)
(0.001295904019371685 0 0)
(0.001136236120705119 0 0)
(0.001101548238551453 0 0)
(0.001070952017035576 0 0)
(0.0009095037744002992 0 0)
(0.000783387285205896 0 0)
(0.0007927915906542045 0 0)
(0.0006521857784347712 0 0)
(0.0005103652960175267 0 0)
(0.000480289660857465 0 0)
(0.0004087996719276526 0 0)
(0.0002707460157359965 0 0)
(0.0002104770607091488 0 0)
(0.0001871158803280309 0 0)
(8.485363883391113e-05 0 0)
(4.849633146844153e-05 0 0)
(3.386246107585383e-05 0 0)
(7.06757059183679e-06 0 0)
(-8.523716328501105e-06 0 0)
(4.561635106740791e-06 0 0)
(3.325175796298457e-05 0 0)
(5.922382355381497e-05 0 0)
(9.84218903985271e-05 0 0)
(0.0001698781344975117 0 0)
(0.0002351078261783647 0 0)
(0.0002863702065449999 0 0)
(0.0004083356578897345 0 0)
(0.0005047000706644309 0 0)
(0.0005606609114698707 0 0)
(0.0006770814211354778 0 0)
(0.0007894860426217333 0 0)
(0.000836418252933442 0 0)
(0.000943284125795192 0 0)
(0.001055740716710846 0 0)
(0.001094382421003885 0 0)
(0.001171436424294606 0 0)
(0.001288770888145094 0 0)
(0.001310628151346907 0 0)
(0.001335965918584052 0 0)
(0.001412349417958731 0 0)
(0.001440247734210095 0 0)
(0.001412585883436383 0 0)
(0.001421346240589633 0 0)
(0.001422868340549357 0 0)
(0.001377406947059623 0 0)
(0.00132547044049824 0 0)
(0.001288267826311953 0 0)
(0.001217300915074396 0 0)
(0.001132069050889947 0 0)
(0.001055130034447142 0 0)
(0.0009622834975956951 0 0)
(0.0008594091872519433 0 0)
(0.0007706662341272644 0 0)
(0.0006946158098830765 0 0)
(0.0005909427535839337 0 0)
(0.000498596042699201 0 0)
(0.0004274302600847014 0 0)
(0.0003419714522438019 0 0)
(0.0002590508245694476 0 0)
(0.000195373916685143 0 0)
(0.0001330183704680927 0 0)
(8.005146602327442e-05 0 0)
(5.114055925863261e-05 0 0)
(6.420078519892223e-06 0 0)
(2.463601243253433e-09 0 0)
(1.069487829201334e-05 0 0)
(1.731704787104106e-05 0 0)
(3.506350807103677e-05 0 0)
(9.096507389984606e-05 0 0)
(0.0001416262220515655 0 0)
(0.0002036561773443276 0 0)
(0.0002832733206351441 0 0)
(0.0003655182192063888 0 0)
(0.0004634580346089518 0 0)
(0.0005627263218603714 0 0)
(0.0006382093231254939 0 0)
(0.0007256413693114851 0 0)
(0.0008388955768101684 0 0)
(0.0009063605129770974 0 0)
(0.0009851674837740932 0 0)
(0.001089466403161463 0 0)
(0.001150802878466073 0 0)
(0.001211547398336961 0 0)
(0.001293620632487198 0 0)
(0.00134305678811291 0 0)
(0.001355778275896337 0 0)
(0.001414599780086026 0 0)
(0.001440445814687836 0 0)
(0.001406797382150589 0 0)
(0.001420526629253084 0 0)
(0.001413472317828043 0 0)
(0.001335988115506511 0 0)
(0.001296462479026004 0 0)
(0.001266493912637078 0 0)
(0.001149891406706278 0 0)
(0.001064979998172278 0 0)
(0.001012749100234623 0 0)
(0.0008855414642951655 0 0)
(0.000788245049562459 0 0)
(0.0007382154281526418 0 0)
(0.0006304549387778824 0 0)
(0.0005159078619916215 0 0)
(0.000480085688480091 0 0)
(0.0003804379980199802 0 0)
(0.0002744674652359096 0 0)
(0.0002427247466259261 0 0)
(0.0001793889869068642 0 0)
(8.745025337371659e-05 0 0)
(6.893638901994204e-05 0 0)
(5.656282753684819e-05 0 0)
(-1.114544725411135e-05 0 0)
(2.003450681916517e-06 0 0)
(3.155557171459689e-05 0 0)
(2.405300030026698e-05 0 0)
(5.380152119389511e-05 0 0)
(0.0001361602370489786 0 0)
(0.0001741021853640049 0 0)
(0.0002437975920272451 0 0)
(0.0003650526772793536 0 0)
(0.0004171075864111801 0 0)
(0.0005243403966432469 0 0)
(0.0006317138097063229 0 0)
(0.0006878815814501486 0 0)
(0.0007794075004520338 0 0)
(0.0009047588594977914 0 0)
(0.0009479540912132127 0 0)
(0.001019060347646325 0 0)
(0.001153713401702221 0 0)
(0.001179355776055642 0 0)
(0.001229412183214555 0 0)
(0.001332154813889962 0 0)
(0.001360661826730151 0 0)
(0.001360371817819242 0 0)
(0.001428881338163485 0 0)
(0.001444379390944431 0 0)
(0.001386737993225472 0 0)
(0.001412477232076853 0 0)
(0.00139471240504873 0 0)
(0.001303691121192396 0 0)
(0.00125770447428948 0 0)
(0.001227455695589124 0 0)
(0.001088979388462248 0 0)
(0.00100565483700771 0 0)
(0.0009522935401438974 0 0)
(0.0008278082583484075 0 0)
(0.0007423837364269209 0 0)
(0.0006789345054838384 0 0)
(0.0005737787941924589 0 0)
(0.0004779999456903359 0 0)
(0.0004387815228527305 0 0)
(0.0003281725311789511 0 0)
(0.0002496630584414782 0 0)
(0.0002191049174065779 0 0)
(0.0001390889964308577 0 0)
(7.613869473303844e-05 0 0)
(7.033192971005188e-05 0 0)
(3.179815900590916e-05 0 0)
(-9.62400743639117e-06 0 0)
(3.268252451851595e-05 0 0)
(3.146531901258033e-05 0 0)
(3.363557433457426e-05 0 0)
(0.0001123995277929466 0 0)
(0.0001689691384152247 0 0)
(0.0002108537719934666 0 0)
(0.0003217128083113868 0 0)
(0.0004200577072263287 0 0)
(0.0004868516934224283 0 0)
(0.0005796726667181625 0 0)
(0.0006822935236075203 0 0)
(0.0007545778743175619 0 0)
(0.0008353996749368741 0 0)
(0.0009424981129950103 0 0)
(0.001001258891641181 0 0)
(0.001081221553356772 0 0)
(0.001161997056650373 0 0)
(0.001224371451749512 0 0)
(0.001280725834198535 0 0)
(0.001326998516047595 0 0)
(0.001371485605272571 0 0)
(0.001400478735366971 0 0)
(0.001417706211274753 0 0)
(0.001408298883160485 0 0)
(0.001418556692829497 0 0)
(0.001381107181112344 0 0)
(0.001338756152400442 0 0)
(0.001290563674578883 0 0)
(0.001230425666037541 0 0)
(0.001121617655242864 0 0)
(0.001049135666033372 0 0)
(0.0009662925431955572 0 0)
(0.0008593133851943286 0 0)
(0.0007872102132551588 0 0)
(0.0007080534938284347 0 0)
(0.0006041210424903238 0 0)
(0.0005243541871366734 0 0)
(0.0004628037677670021 0 0)
(0.0003682461554140235 0 0)
(0.0002914408143111259 0 0)
(0.0002401040563976015 0 0)
(0.0001731938379843222 0 0)
(0.0001172092948162606 0 0)
(8.041210733364363e-05 0 0)
(4.888346590080021e-05 0 0)
(1.690958090659212e-05 0 0)
(3.134551206487849e-05 0 0)
(2.759592050764381e-05 0 0)
(4.346264253581286e-05 0 0)
(8.925878095961775e-05 0 0)
(0.0001433267284883073 0 0)
(0.0002046673241180546 0 0)
(0.000294836698332261 0 0)
(0.0003868329139495092 0 0)
(0.0004678528357972926 0 0)
(0.0005587304100160776 0 0)
(0.0006423545255895279 0 0)
(0.0007305157098566128 0 0)
(0.0008139346110246827 0 0)
(0.0008968395870584758 0 0)
(0.0009777596633400748 0 0)
(0.001052429129544085 0 0)
(0.001129014789202385 0 0)
(0.001190105686961034 0 0)
(0.001257673757404746 0 0)
(0.001302758316197395 0 0)
(0.00135145957821131 0 0)
(0.0013831755826963 0 0)
(0.001406359843004935 0 0)
(0.001407148637617675 0 0)
(0.001414446869108993 0 0)
(0.00139105322704309 0 0)
(0.001353474241677348 0 0)
(0.00131075091798824 0 0)
(0.001246176807088806 0 0)
(0.001158793564184664 0 0)
(0.001076900059886625 0 0)
(0.0009924943787162626 0 0)
(0.0008984183329537313 0 0)
(0.0008089694853450757 0 0)
(0.0007440636261081142 0 0)
(0.0006418840585128095 0 0)
(0.000557793646809312 0 0)
(0.0004867136813832914 0 0)
(0.0004173721901117883 0 0)
(0.0003179680452566413 0 0)
(0.0002666020899495462 0 0)
(0.0002135103937054493 0 0)
(0.0001407251060393017 0 0)
(0.0001008451955310516 0 0)
(7.521504761664804e-05 0 0)
(4.141432064877861e-05 0 0)
(2.255008725582463e-05 0 0)
(4.057395557597563e-05 0 0)
(4.673201652985637e-05 0 0)
(7.470891492702408e-05 0 0)
(0.0001297055949809574 0 0)
(0.0001851311518213778 0 0)
(0.0002719824995708757 0 0)
(0.0003536381453980635 0 0)
(0.0004524976170378776 0 0)
(0.0005164479151215805 0 0)
(0.0006270474019552439 0 0)
(0.0006963583551654682 0 0)
(0.0007815308983945401 0 0)
(0.000868097298431596 0 0)
(0.0009491725326731858 0 0)
(0.001018215985075807 0 0)
(0.001092625931704463 0 0)
(0.001174492814621398 0 0)
(0.001220099203415312 0 0)
(0.001284362786657754 0 0)
(0.001322235843417508 0 0)
(0.001369729230965389 0 0)
(0.001385973470179684 0 0)
(0.001400594645029788 0 0)
(0.001408029583587455 0 0)
(0.001387558751786562 0 0)
(0.001369632681713964 0 0)
(0.001313193899592201 0 0)
(0.001272465928658899 0 0)
(0.001184237880520897 0 0)
(0.001106560125543099 0 0)
(0.001014698966602088 0 0)
(0.0009290010818804952 0 0)
(0.0008487900144576993 0 0)
(0.0007609712501532588 0 0)
(0.0006777172334484185 0 0)
(0.0005896443054375252 0 0)
(0.0005236015897364897 0 0)
(0.0004352498731280683 0 0)
(0.0003630201817988219 0 0)
(0.0002950605260352178 0 0)
(0.0002348615534565972 0 0)
(0.0001684870442520757 0 0)
(0.0001306684590048861 0 0)
(9.08321804755451e-05 0 0)
(4.940602978541497e-05 0 0)
(4.707670526993586e-05 0 0)
(4.119772610447322e-05 0 0)
(4.824766816371662e-05 0 0)
(7.01348583406378e-05 0 0)
(0.0001197539692723928 0 0)
(0.0001637381645785314 0 0)
(0.0002454771723295852 0 0)
(0.0003327237034846657 0 0)
(0.0004137273725274106 0 0)
(0.0005023643765943162 0 0)
(0.0005860260685241321 0 0)
(0.0006660380902141243 0 0)
(0.000756617094634575 0 0)
(0.0008382042368074108 0 0)
(0.0009123392372245799 0 0)
(0.0009900142544891505 0 0)
(0.00106769798193661 0 0)
(0.001136405328956846 0 0)
(0.001197176683271496 0 0)
(0.001249087556745695 0 0)
(0.001305278446072244 0 0)
(0.001343144869465131 0 0)
(0.00137565854928712 0 0)
(0.001385651707370691 0 0)
(0.001396930906587301 0 0)
(0.001398873692168227 0 0)
(0.001373599970025731 0 0)
(0.001324709850068471 0 0)
(0.001284380147884007 0 0)
(0.00122544716568718 0 0)
(0.001124550218629265 0 0)
(0.001048752857742851 0 0)
(0.0009669283812929193 0 0)
(0.0008767767395451269 0 0)
(0.0007906344389353074 0 0)
(0.0007174519237217055 0 0)
(0.0006317475940452614 0 0)
(0.0005449441640204175 0 0)
(0.000475450045635834 0 0)
(0.000398431757332974 0 0)
(0.0003290548342898214 0 0)
(0.0002608941897805868 0 0)
(0.0002077477393756158 0 0)
(0.0001558117319064569 0 0)
(0.0001100887932653815 0 0)
(7.912948915702381e-05 0 0)
(6.001367752785943e-05 0 0)
(5.621230815161325e-05 0 0)
(4.29223007786313e-05 0 0)
(7.682148063995187e-05 0 0)
(0.0001102016706114941 0 0)
(0.0001568966136858948 0 0)
(0.0002131485743210858 0 0)
(0.0003174950810238732 0 0)
(0.0003885435287095681 0 0)
(0.000476098338068417 0 0)
(0.0005599850070297579 0 0)
(0.0006390545577966962 0 0)
(0.0007270872572521733 0 0)
(0.000809790020748602 0 0)
(0.0008860796376338094 0 0)
(0.0009537684945056875 0 0)
(0.001047268834881129 0 0)
(0.001105413421414103 0 0)
(0.00116468695560701 0 0)
(0.001230184560007796 0 0)
(0.001286190235661135 0 0)
(0.00131802788548119 0 0)
(0.001351526213020246 0 0)
(0.001387502298017519 0 0)
(0.001381711169460793 0 0)
(0.001388951074776523 0 0)
(0.001371474895522746 0 0)
(0.001342597465544041 0 0)
(0.001290977686807621 0 0)
(0.001243158128862253 0 0)
(0.001155999715519116 0 0)
(0.001070422633223912 0 0)
(0.0009961332573744952 0 0)
(0.0009046693294438701 0 0)
(0.0008255648695753783 0 0)
(0.0007443665877005102 0 0)
(0.0006601759004802846 0 0)
(0.0005795940558728921 0 0)
(0.0005088105710208792 0 0)
(0.0004321206284157903 0 0)
(0.0003511263297007084 0 0)
(0.0002999957703158034 0 0)
(0.0002368707893189699 0 0)
(0.0001762762760984835 0 0)
(0.0001365436780717489 0 0)
(0.0001060567795171378 0 0)
(7.188152023970086e-05 0 0)
(6.198426724941396e-05 0 0)
(6.655734812215132e-05 0 0)
(6.973345383715735e-05 0 0)
(0.0001055626512574997 0 0)
(0.0001528691920358072 0 0)
(0.0001964367985603903 0 0)
(0.0002784742161443959 0 0)
(0.0003783700790682566 0 0)
(0.0004480641961863503 0 0)
(0.0005236258300454023 0 0)
(0.0006240188268145764 0 0)
(0.0006954999736748248 0 0)
(0.0007725900223439076 0 0)
(0.0008572039352426741 0 0)
(0.0009403188788280634 0 0)
(0.0009987479483751891 0 0)
(0.001081922552269636 0 0)
(0.001148089094178724 0 0)
(0.001196223424263379 0 0)
(0.001256255148785688 0 0)
(0.001304680052910295 0 0)
(0.001338339470764319 0 0)
(0.001359596475369226 0 0)
(0.001383172227062802 0 0)
(0.001381566653919418 0 0)
(0.00137111201878863 0 0)
(0.001347594918142559 0 0)
(0.001310188527409334 0 0)
(0.001257092736388527 0 0)
(0.001183860654499874 0 0)
(0.001102263412341996 0 0)
(0.001023178572003833 0 0)
(0.0009370050883147109 0 0)
(0.0008494056429917502 0 0)
(0.0007789233586731181 0 0)
(0.0006931462452824333 0 0)
(0.0006109482322437356 0 0)
(0.0005352066642925846 0 0)
(0.0004681292511385718 0 0)
(0.000385827271014564 0 0)
(0.0003221249542281563 0 0)
(0.0002688558110775768 0 0)
(0.0002041166445899547 0 0)
(0.0001606430521248869 0 0)
(0.0001218132052531945 0 0)
(9.719239723954666e-05 0 0)
(6.843950054036403e-05 0 0)
(7.595996784345034e-05 0 0)
(7.883323824737641e-05 0 0)
(9.58210239156433e-05 0 0)
(0.0001416396648938324 0 0)
(0.0001904407817002737 0 0)
(0.0002543920510816251 0 0)
(0.0003437229645646558 0 0)
(0.000431246377142657 0 0)
(0.0004980643756856463 0 0)
(0.0005923810272473737 0 0)
(0.0006663746527468824 0 0)
(0.0007481032173916516 0 0)
(0.0008282482139666825 0 0)
(0.000911421715301024 0 0)
(0.0009663190043935857 0 0)
(0.001048447256896099 0 0)
(0.00112370013400945 0 0)
(0.001168449674798558 0 0)
(0.001233293059161758 0 0)
(0.001280437983642571 0 0)
(0.001317359629365811 0 0)
(0.001343654276542039 0 0)
(0.001372334002420656 0 0)
(0.001369001587115726 0 0)
(0.00136447641566908 0 0)
(0.001358961596875314 0 0)
(0.001316824293632029 0 0)
(0.001265557188739231 0 0)
(0.001211962512789238 0 0)
(0.00113645601888584 0 0)
(0.001041229189461727 0 0)
(0.0009644974550031893 0 0)
(0.0008928932516116069 0 0)
(0.0008002801907796747 0 0)
(0.0007237647129291725 0 0)
(0.0006514131539147532 0 0)
(0.0005676054835734826 0 0)
(0.0004893422216429705 0 0)
(0.0004309654280504314 0 0)
(0.0003538813916706119 0 0)
(0.0002866294228248035 0 0)
(0.0002406757539641556 0 0)
(0.0001904177305022789 0 0)
(0.0001369490219455292 0 0)
(0.0001146238114892058 0 0)
(9.606990423384793e-05 0 0)
(7.212287942103546e-05 0 0)
(8.746709085983317e-05 0 0)
(0.0001055826523329883 0 0)
(0.0001251770905082123 0 0)
(0.0001732823951348607 0 0)
(0.0002436648568892952 0 0)
(0.0003184118689894083 0 0)
(0.0003923592574068168 0 0)
(0.0004858733780042804 0 0)
(0.0005579993986794889 0 0)
(0.0006435891135847315 0 0)
(0.0007209873965784966 0 0)
(0.0008001637050974438 0 0)
(0.0008722696960863834 0 0)
(0.0009549866392737211 0 0)
(0.001023060093308633 0 0)
(0.001080562484586011 0 0)
(0.001159275595357854 0 0)
(0.001206553119350999 0 0)
(0.001256701464241824 0 0)
(0.001293289504649758 0 0)
(0.001341604908301703 0 0)
(0.001351155283304475 0 0)
(0.001364862929846684 0 0)
(0.001367682003501281 0 0)
(0.001348482389519629 0 0)
(0.001327593876868643 0 0)
(0.001283861138007662 0 0)
(0.001236279503621466 0 0)
(0.00114593252287888 0 0)
(0.001078684875023806 0 0)
(0.0009988365762351682 0 0)
(0.0009115611731000269 0 0)
(0.0008286807429635846 0 0)
(0.0007596225412259733 0 0)
(0.0006809491905146055 0 0)
(0.0005957517530337838 0 0)
(0.0005284529366929814 0 0)
(0.0004517687997149422 0 0)
(0.0003907788182238018 0 0)
(0.0003191545079802332 0 0)
(0.0002647526011991908 0 0)
(0.0002115844564415656 0 0)
(0.0001688207102888582 0 0)
(0.0001317195233987914 0 0)
(0.0001094254426157662 0 0)
(8.988109431485671e-05 0 0)
(9.055860665397599e-05 0 0)
(0.0001065515553465162 0 0)
(0.0001259556486684527 0 0)
(0.0001671540169881364 0 0)
(0.0002181563318885485 0 0)
(0.0002985681708115348 0 0)
(0.0003736132919248217 0 0)
(0.0004551535155468464 0 0)
(0.000534977636150655 0 0)
(0.0006157473749955179 0 0)
(0.0006923708992783316 0 0)
(0.000771542315688712 0 0)
(0.0008478608646446391 0 0)
(0.0009213743857917152 0 0)
(0.0009965339566439752 0 0)
(0.001057036006170963 0 0)
(0.0011253974351265 0 0)
(0.001182956829390054 0 0)
(0.001233072451959767 0 0)
(0.001277666647587649 0 0)
(0.001314472749291233 0 0)
(0.0013364781595278 0 0)
(0.001359308144215571 0 0)
(0.001358989677595596 0 0)
(0.00134447756944977 0 0)
(0.001336658156941636 0 0)
(0.001293552302779697 0 0)
(0.001238929412845976 0 0)
(0.001184822324283129 0 0)
(0.001101257078369493 0 0)
(0.001013304317482348 0 0)
(0.0009409369748099997 0 0)
(0.0008707066237440744 0 0)
(0.0007736915984997735 0 0)
(0.0007059570373926092 0 0)
(0.0006379768168933084 0 0)
(0.00054771627100084 0 0)
(0.0004756194458985136 0 0)
(0.000419757605418841 0 0)
(0.0003517516010916362 0 0)
(0.0002770752284624144 0 0)
(0.0002426273993302427 0 0)
(0.0001900598443361474 0 0)
(0.0001443463062639106 0 0)
(0.0001206951763949785 0 0)
(0.0001102734553835247 0 0)
(9.271911532447233e-05 0 0)
(0.0001046880280256781 0 0)
(0.0001266270956569562 0 0)
(0.0001558676000180604 0 0)
(0.0002061341684133484 0 0)
(0.0002681983497890259 0 0)
(0.0003512447307584285 0 0)
(0.0004295348308066871 0 0)
(0.0005113019935387502 0 0)
(0.0005853151968321334 0 0)
(0.0006622433384365583 0 0)
(0.0007506013000886966 0 0)
(0.0008134020708402232 0 0)
(0.0008977965841974207 0 0)
(0.0009592447462953697 0 0)
(0.001040934619422933 0 0)
(0.001091110419799368 0 0)
(0.001159828180940756 0 0)
(0.001210755506673978 0 0)
(0.001254283576916574 0 0)
(0.001300961216185463 0 0)
(0.001321693763756936 0 0)
(0.00134277297301937 0 0)
(0.001349934742584154 0 0)
(0.001357678826343813 0 0)
(0.001323490117517584 0 0)
(0.001305174407381611 0 0)
(0.001264843572580201 0 0)
(0.00119898618022797 0 0)
(0.001123225233275888 0 0)
(0.001051050712906604 0 0)
(0.0009708732550411637 0 0)
(0.0008862214267741778 0 0)
(0.0008199857498911688 0 0)
(0.0007334654810228506 0 0)
(0.0006585559419546479 0 0)
(0.0005867351700626338 0 0)
(0.0005164470411414014 0 0)
(0.0004433619298730473 0 0)
(0.0003746315445705233 0 0)
(0.0003218812398026925 0 0)
(0.0002642572985124178 0 0)
(0.0002124931154430082 0 0)
(0.0001722477434183509 0 0)
(0.0001442399422425106 0 0)
(0.0001185221254121684 0 0)
(0.0001102642144955226 0 0)
(0.0001117170351896884 0 0)
(0.0001209469070806098 0 0)
(0.0001554908199845342 0 0)
(0.0001952393269407889 0 0)
(0.0002488979797813688 0 0)
(0.000327756528808055 0 0)
(0.0004086242598627887 0 0)
(0.0004855131403597309 0 0)
(0.0005552843082229367 0 0)
(0.0006434883693536809 0 0)
(0.000712140287732916 0 0)
(0.000790726588042503 0 0)
(0.0008640486804044268 0 0)
(0.0009364260138720625 0 0)
(0.001004215041234494 0 0)
(0.001070950459093406 0 0)
(0.001130801988944777 0 0)
(0.00118037686395622 0 0)
(0.001236887991819723 0 0)
(0.001275266657708952 0 0)
(0.001306455695116409 0 0)
(0.001329227402579169 0 0)
(0.00134514702086558 0 0)
(0.001343539842283613 0 0)
(0.00133188730351428 0 0)
(0.001309631863702143 0 0)
(0.001266632552002371 0 0)
(0.001225408286009288 0 0)
(0.001151695521046435 0 0)
(0.001070519006496076 0 0)
(0.0009961586191360502 0 0)
(0.0009232612663881699 0 0)
(0.0008395619349935722 0 0)
(0.0007647940972631355 0 0)
(0.0006900176486335824 0 0)
(0.0006187845114703446 0 0)
(0.0005406919276527458 0 0)
(0.0004730835252121232 0 0)
(0.0004076497532538108 0 0)
(0.0003444343366165533 0 0)
(0.0002912861269628858 0 0)
(0.0002346424607563752 0 0)
(0.0001960954060373993 0 0)
(0.0001607737055199846 0 0)
(0.0001380247146835431 0 0)
(0.0001177137233554163 0 0)
(0.0001162370466379624 0 0)
(0.000130113411556344 0 0)
(0.0001489103490657055 0 0)
(0.0001830292277047191 0 0)
(0.0002379129291329801 0 0)
(0.0003071675085856025 0 0)
(0.000378150419322688 0 0)
(0.0004627533070584772 0 0)
(0.0005388481090403441 0 0)
(0.000609148560808762 0 0)
(0.0006877208691259578 0 0)
(0.0007707712924987257 0 0)
(0.0008323891655668312 0 0)
(0.0009031260558228142 0 0)
(0.000983381779478243 0 0)
(0.001046886588723249 0 0)
(0.001098160445970312 0 0)
(0.001160236954114409 0 0)
(0.001222160566212882 0 0)
(0.001247127505994749 0 0)
(0.001290342623852749 0 0)
(0.001323509983963147 0 0)
(0.001329789715498611 0 0)
(0.001330306301970022 0 0)
(0.001338831791963763 0 0)
(0.001310547738154619 0 0)
(0.00126759608325578 0 0)
(0.001238794063950343 0 0)
(0.001173365106552111 0 0)
(0.001087343311696933 0 0)
(0.001023103803371168 0 0)
(0.0009498457650949999 0 0)
(0.000866088434318863 0 0)
(0.000794194345966582 0 0)
(0.00072816720902329 0 0)
(0.0006466970071851289 0 0)
(0.0005749827571434763 0 0)
(0.000508271991231569 0 0)
(0.0004391602978404917 0 0)
(0.0003698038022010261 0 0)
(0.0003140603475626338 0 0)
(0.0002600554189089858 0 0)
(0.0002065834271021429 0 0)
(0.0001705212403090394 0 0)
(0.0001425928324829671 0 0)
(0.0001245582648310174 0 0)
(0.0001132247728233585 0 0)
(0.0001175307053620005 0 0)
(0.0001458581776943576 0 0)
(0.0001758121624583203 0 0)
(0.0002198515560237412 0 0)
(0.0002895587626672035 0 0)
(0.0003777797348461227 0 0)
(0.0004496444551199367 0 0)
(0.0005462518902706091 0 0)
(0.0006338420772157873 0 0)
(0.0007289569129696758 0 0)
(0.000810370063894813 0 0)
(0.0009121494268977579 0 0)
(0.001003020743069855 0 0)
(0.001088468410917185 0 0)
(0.00118579250657235 0 0)
(0.001268997787472388 0 0)
(0.001353013439145814 0 0)
(0.001422597036093122 0 0)
(0.001501617387559807 0 0)
(0.001549082541385374 0 0)
(0.001605979399872658 0 0)
(0.001642135051463462 0 0)
(0.001672665880333041 0 0)
(0.001684076283989369 0 0)
(0.001677861689955465 0 0)
(0.001670511396497491 0 0)
(0.001637264418803367 0 0)
(0.001585588289085709 0 0)
(0.001521183479362213 0 0)
(0.001459311642375161 0 0)
(0.001364583853954197 0 0)
(0.001276299708588376 0 0)
(0.001197423194684972 0 0)
(0.001097111851188989 0 0)
(0.001000020006484529 0 0)
(0.0009175991449493444 0 0)
(0.0008114567065682839 0 0)
(0.000717092358520786 0 0)
(0.0006270805969304706 0 0)
(0.000539328190017616 0 0)
(0.0004463695224797794 0 0)
(0.0003775647721365061 0 0)
(0.0003144989984554171 0 0)
(0.0002483909130744625 0 0)
(0.0002013519912602692 0 0)
(0.0001894144377863131 0 0)
(0.0001550242026961922 0 0)
(0.0001559116644741177 0 0)
(0.000176925063670057 0 0)
(0.0002025823856861271 0 0)
(0.0002503907446342974 0 0)
(0.0003174995839292292 0 0)
(0.0003822334551928412 0 0)
(0.0004674239474786695 0 0)
(0.0005516706941155881 0 0)
(0.0006360007625117247 0 0)
(0.0007321097611962598 0 0)
(0.0008091095470369064 0 0)
(0.0008990509624028493 0 0)
(0.0009953277603427723 0 0)
(0.001071430636894616 0 0)
(0.001155721412066549 0 0)
(0.001235594169882028 0 0)
(0.001320639551146078 0 0)
(0.001376885119763258 0 0)
(0.001449783984437716 0 0)
(0.001497840946714711 0 0)
(0.001534156239434989 0 0)
(0.001565562066162949 0 0)
(0.001588734625864151 0 0)
(0.001583331433793755 0 0)
(0.001572656211736242 0 0)
(0.001551022424271785 0 0)
(0.001510420126224897 0 0)
(0.001456100721743828 0 0)
(0.001379555170572245 0 0)
(0.001317611564239395 0 0)
(0.001216382705131365 0 0)
(0.001130253713539351 0 0)
(0.001051450043211922 0 0)
(0.0009378618820948584 0 0)
(0.0008514309055863479 0 0)
(0.0007633584533682607 0 0)
(0.0006565529314293665 0 0)
(0.0005668335013911174 0 0)
(0.0004774650581573474 0 0)
(0.000392538503754516 0 0)
(0.0003180356551610376 0 0)
(0.0002376803244311994 0 0)
(0.0001846434110748458 0 0)
(0.0001330802137789231 0 0)
(8.642580559823379e-05 0 0)
(7.717355984518726e-05 0 0)
(6.412728059819277e-05 0 0)
(6.57910908822809e-05 0 0)
(9.496324274981091e-05 0 0)
(0.0001346461787877841 0 0)
(0.0001843570021004873 0 0)
(0.0002515216398566977 0 0)
(0.0003298447014659661 0 0)
(0.0004156938938183006 0 0)
(0.0004909978288996516 0 0)
(0.0005942756665025942 0 0)
(0.0006757670314925737 0 0)
(0.0007573298123649413 0 0)
(0.0008541051786511185 0 0)
(0.0009326484848364544 0 0)
(0.001012600054283188 0 0)
(0.001089210471290567 0 0)
(0.001177386733121529 0 0)
(0.001228328964016408 0 0)
(0.001310092806423298 0 0)
(0.001362621713434318 0 0)
(0.001400736672323822 0 0)
(0.001434307164625805 0 0)
(0.001465117306698286 0 0)
(0.001462675083394503 0 0)
(0.001458920976496453 0 0)
(0.001442496359152972 0 0)
(0.001395401816566853 0 0)
(0.001361146017688238 0 0)
(0.001289803295847458 0 0)
(0.001216579465231987 0 0)
(0.001138826637120593 0 0)
(0.001045663734425142 0 0)
(0.0009535031282932174 0 0)
(0.0008700298264990821 0 0)
(0.0007675376675285196 0 0)
(0.0006628078301995817 0 0)
(0.0005794783855441375 0 0)
(0.0004870731478912919 0 0)
(0.0003777499583715611 0 0)
(0.0003059100917436631 0 0)
(0.0002291466009787496 0 0)
(0.0001432665048103063 0 0)
(8.296846564068447e-05 0 0)
(3.882560447787391e-05 0 0)
(-7.937800281375553e-06 0 0)
(-4.95407178346803e-05 0 0)
(-5.256814202621112e-05 0 0)
(-5.059919422429309e-05 0 0)
(-4.777054303363798e-05 0 0)
(4.728002813632261e-06 0 0)
(3.879573200930619e-05 0 0)
(9.298955790535641e-05 0 0)
(0.0001813347795890763 0 0)
(0.0002568001149443638 0 0)
(0.0003313098254669196 0 0)
(0.0004267043862124609 0 0)
(0.0005294137797674668 0 0)
(0.0005905143953473986 0 0)
(0.0006875146285555833 0 0)
(0.0007832177917654843 0 0)
(0.0008469429504107758 0 0)
(0.0009261995035817978 0 0)
(0.001013236558710627 0 0)
(0.001071725960944044 0 0)
(0.001131739830140778 0 0)
(0.001205971664827768 0 0)
(0.001242109911539591 0 0)
(0.001279989674950646 0 0)
(0.001318102839449226 0 0)
(0.001309899579987039 0 0)
(0.0013164371280955 0 0)
(0.001309949049281715 0 0)
(0.001260219930150865 0 0)
(0.001225857016051529 0 0)
(0.001178823146832247 0 0)
(0.001085004568263005 0 0)
(0.001018150330696756 0 0)
(0.0009324586696901388 0 0)
(0.0008406571498133771 0 0)
(0.0007471891881469998 0 0)
(0.000653134155651037 0 0)
(0.0005551787945036493 0 0)
(0.0004561288382104959 0 0)
(0.0003680180105494299 0 0)
(0.0002684834793302788 0 0)
(0.00016799757687755 0 0)
(0.0001095115131534784 0 0)
(2.191137445105724e-05 0 0)
(-5.965622988890853e-05 0 0)
(-9.484605391917714e-05 0 0)
(-0.0001433709517273984 0 0)
(-0.0002002677841045431 0 0)
(-0.0002073548770434415 0 0)
(-0.0002061313312092238 0 0)
(-0.0002118908126121266 0 0)
(-0.0001783103352719849 0 0)
(-0.0001368005352875104 0 0)
(-9.612119814276528e-05 0 0)
(-1.443901471785717e-05 0 0)
(5.762749740536642e-05 0 0)
(0.000138100953974661 0 0)
(0.0002263166352888729 0 0)
(0.0003218031524101721 0 0)
(0.0003970834834892263 0 0)
(0.0005005301044581449 0 0)
(0.0005750994645985517 0 0)
(0.0006506177670144737 0 0)
(0.0007341708760298731 0 0)
(0.0008216374882121673 0 0)
(0.000862628918175988 0 0)
(0.0009606300837676905 0 0)
(0.001001874013223344 0 0)
(0.001047792066589449 0 0)
(0.001114380579406174 0 0)
(0.001124529747270433 0 0)
(0.001147275261778721 0 0)
(0.001150040784332501 0 0)
(0.001144567458044542 0 0)
(0.001117239295036932 0 0)
(0.001084830863610211 0 0)
(0.00102692571279789 0 0)
(0.0009618988316345317 0 0)
(0.0008857156795940709 0 0)
(0.0008013901821426013 0 0)
(0.0007124830533528747 0 0)
(0.0006286389315395859 0 0)
(0.0005247444520859222 0 0)
(0.0004244942308599313 0 0)
(0.0003603023943753093 0 0)
(0.0002302547095359196 0 0)
(0.0001518618371854128 0 0)
(5.100450301421447e-05 0 0)
(-1.540776933980997e-05 0 0)
(-0.00011258008623151 0 0)
(-0.0001882865144907142 0 0)
(-0.0002320877285928128 0 0)
(-0.0002943551544527659 0 0)
(-0.0003457846502376568 0 0)
(-0.0003474362724638565 0 0)
(-0.0003663062305027922 0 0)
(-0.0003908204230714611 0 0)
(-0.000351650868874434 0 0)
(-0.0003143752846902845 0 0)
(-0.000277325896956526 0 0)
(-0.0002344107367544351 0 0)
(-0.0001364936217888595 0 0)
(-7.334029469977707e-05 0 0)
(6.531421218039583e-06 0 0)
(0.0001225048917797416 0 0)
(0.0001670178408735814 0 0)
(0.000268810890002118 0 0)
(0.00039537871176867 0 0)
(0.0004120939122419143 0 0)
(0.0005009433396707906 0 0)
(0.0006297733141733816 0 0)
(0.0006370058731341886 0 0)
(0.0007331722974633111 0 0)
(0.0008054293832773376 0 0)
(0.000827637631120033 0 0)
(0.0008856653167573254 0 0)
(0.0009403904206398703 0 0)
(0.0009228903489302429 0 0)
(0.0009793161311133696 0 0)
(0.0009325294069077643 0 0)
)
;

boundaryField
{
    inlet
    {
        type            calculated;
        value           uniform (-2.722042342200475e-05 0 0);
    }
    outlet
    {
        type            calculated;
        value           uniform (0.0009325294069077643 0 0);
    }
    frontAndBack
    {
        type            empty;
    }
}


// ************************************************************************* //
