/*--------------------------------*- C++ -*----------------------------------*\
| =========                 |                                                 |
| \\      /  F ield         | OpenFOAM: The Open Source CFD Toolbox           |
|  \\    /   O peration     | Version:  v2012                                 |
|   \\  /    A nd           | Website:  www.openfoam.com                      |
|    \\/     M anipulation  |                                                 |
\*---------------------------------------------------------------------------*/
FoamFile
{
    version     2.0;
    format      ascii;
    class       volScalarField;
    location    "0.007";
    object      p;
}
// * * * * * * * * * * * * * * * * * * * * * * * * * * * * * * * * * * * * * //

dimensions      [1 -1 -2 0 0 0 0];


internalField   nonuniform List<scalar> 
100
(
100000
100000
100000
100000
100000
100000
100000
100000
100000
100000
100000
100000
100000
100000
100000
100000
100000
100000
100000
99999.7
99983
99749.6
98702.4
96514.4
93543.8
90235.6
86830.1
83430
80080.2
76802.5
73609.1
70506.6
67498.6
64586.3
61769.9
59048.4
56420.3
53883.7
51436.3
49075.8
46799.9
44606.8
42494.7
40462.7
38510.7
36640.5
34858.9
33186.5
31692.1
30550.2
30040.9
30091.5
30386.2
30330.8
30301.7
30291.9
30285
30278.2
30267.6
30266.7
30276.4
30280.9
30279.9
30279.1
30280.5
30283.1
30286.2
30291.3
30301.8
30321.7
30342.9
30343.4
30368.4
30343
30241.3
30243.7
30250
30263.3
30291.7
30333.2
30359.7
30347.2
30327
30298.9
30269.4
30224.6
30055.6
29115.1
24677.1
15204.3
10355.8
10002.4
10000
10000
10000
10000
10000
10000
10000
10000
)
;

boundaryField
{
    sides
    {
        type            zeroGradient;
    }
    empty
    {
        type            empty;
    }
}


// ************************************************************************* //
