/*--------------------------------*- C++ -*----------------------------------*\
| =========                 |                                                 |
| \\      /  F ield         | OpenFOAM: The Open Source CFD Toolbox           |
|  \\    /   O peration     | Version:  v2012                                 |
|   \\  /    A nd           | Website:  www.openfoam.com                      |
|    \\/     M anipulation  |                                                 |
\*---------------------------------------------------------------------------*/
FoamFile
{
    version     2.0;
    format      ascii;
    class       volScalarField;
    location    "0.007";
    object      rho;
}
// * * * * * * * * * * * * * * * * * * * * * * * * * * * * * * * * * * * * * //

dimensions      [1 -3 0 0 0 0 0];


internalField   nonuniform List<scalar> 
100
(
0.999645
0.999645
0.999645
0.999645
0.999645
0.999645
0.999645
0.999645
0.999645
0.999645
0.999645
0.999645
0.999645
0.999645
0.999645
0.999645
0.999645
0.999645
0.999645
0.999643
0.999524
0.997856
0.990357
0.97462
0.953097
0.9289
0.903727
0.878311
0.85298
0.827899
0.803167
0.778844
0.754967
0.731559
0.708632
0.686193
0.664241
0.642774
0.621787
0.601272
0.581225
0.561641
0.542518
0.523862
0.505687
0.488025
0.470957
0.454705
0.439997
0.428571
0.423461
0.423984
0.426972
0.426429
0.426063
0.425896
0.425793
0.425731
0.425705
0.425864
0.426192
0.426341
0.426293
0.42603
0.425196
0.423063
0.418345
0.409084
0.393031
0.369027
0.338871
0.307986
0.283673
0.269585
0.264076
0.263278
0.263311
0.263485
0.263871
0.264417
0.264884
0.265081
0.265175
0.265167
0.265111
0.264923
0.263915
0.257995
0.229414
0.16407
0.127831
0.124976
0.124955
0.124955
0.124955
0.124955
0.124955
0.124955
0.124955
0.124955
)
;

boundaryField
{
    sides
    {
        type            calculated;
        value           nonuniform List<scalar> 2(0.124955 0.999645);
    }
    empty
    {
        type            empty;
    }
}


// ************************************************************************* //
