/*--------------------------------*- C++ -*----------------------------------*\
| =========                 |                                                 |
| \\      /  F ield         | OpenFOAM: The Open Source CFD Toolbox           |
|  \\    /   O peration     | Version:  v2012                                 |
|   \\  /    A nd           | Website:  www.openfoam.com                      |
|    \\/     M anipulation  |                                                 |
\*---------------------------------------------------------------------------*/
FoamFile
{
    version     2.0;
    format      ascii;
    class       volScalarField;
    location    "0.007";
    object      T;
}
// * * * * * * * * * * * * * * * * * * * * * * * * * * * * * * * * * * * * * //

dimensions      [0 0 0 1 0 0 0];


internalField   nonuniform List<scalar> 
100
(
348.432
348.432
348.432
348.432
348.432
348.432
348.432
348.432
348.432
348.432
348.432
348.432
348.432
348.432
348.432
348.432
348.432
348.432
348.432
348.432
348.415
348.183
347.136
344.922
341.855
338.355
334.655
330.855
327.002
323.119
319.22
315.314
311.408
307.507
303.613
299.727
295.851
291.986
288.132
284.289
280.456
276.635
272.825
269.031
265.255
261.507
257.808
254.211
250.879
248.288
247.095
247.206
247.88
247.742
247.717
247.735
247.738
247.719
247.647
247.547
247.436
247.387
247.406
247.552
248.049
249.321
252.159
257.911
268.538
286.193
311.88
343.16
372.879
392.037
398.873
400.115
400.148
400.059
399.848
399.57
399.214
398.754
398.346
397.989
397.685
397.378
396.666
393.072
374.66
322.776
282.17
278.767
278.746
278.746
278.746
278.746
278.746
278.746
278.746
278.746
)
;

boundaryField
{
    sides
    {
        type            zeroGradient;
    }
    empty
    {
        type            empty;
    }
}


// ************************************************************************* //
