/*--------------------------------*- C++ -*----------------------------------*\
| =========                 |                                                 |
| \\      /  F ield         | OpenFOAM: The Open Source CFD Toolbox           |
|  \\    /   O peration     | Version:  v2012                                 |
|   \\  /    A nd           | Website:  www.openfoam.com                      |
|    \\/     M anipulation  |                                                 |
\*---------------------------------------------------------------------------*/
FoamFile
{
    version     2.0;
    format      ascii;
    class       volVectorField;
    location    "0.007";
    object      U;
}
// * * * * * * * * * * * * * * * * * * * * * * * * * * * * * * * * * * * * * //

dimensions      [0 1 -1 0 0 0 0];


internalField   nonuniform List<vector> 
100
(
(1.30899e-12 0 0)
(6.04025e-13 0 0)
(-2.09772e-14 0 0)
(-6.48209e-14 0 0)
(-8.64758e-15 0 0)
(3.87712e-13 0 0)
(1.42378e-14 0 0)
(-2.89512e-13 0 0)
(-1.10176e-13 0 0)
(3.38617e-14 0 0)
(-3.99994e-13 0 0)
(-1.52697e-12 0 0)
(-8.85125e-14 0 0)
(1.22156e-12 0 0)
(7.39784e-13 0 0)
(-7.29411e-13 0 0)
(-1.91508e-12 0 0)
(4.48765e-10 0 0)
(1.69518e-06 0 0)
(0.000704726 0 0)
(0.0453334 0 0)
(0.669767 0 0)
(3.48579 0 0)
(9.45007 0 0)
(17.7371 0 0)
(27.2394 0 0)
(37.3403 0 0)
(47.771 0 0)
(58.4111 0 0)
(69.1978 0 0)
(80.0938 0 0)
(91.0748 0 0)
(102.125 0 0)
(113.232 0 0)
(124.39 0 0)
(135.594 0 0)
(146.842 0 0)
(158.132 0 0)
(169.466 0 0)
(180.844 0 0)
(192.267 0 0)
(203.734 0 0)
(215.245 0 0)
(226.791 0 0)
(238.361 0 0)
(249.928 0 0)
(261.43 0 0)
(272.691 0 0)
(283.198 0 0)
(291.501 0 0)
(295.313 0 0)
(294.933 0 0)
(292.747 0 0)
(293.138 0 0)
(293.36 0 0)
(293.415 0 0)
(293.471 0 0)
(293.534 0 0)
(293.622 0 0)
(293.64 0 0)
(293.588 0 0)
(293.543 0 0)
(293.547 0 0)
(293.548 0 0)
(293.531 0 0)
(293.506 0 0)
(293.486 0 0)
(293.482 0 0)
(293.52 0 0)
(293.635 0 0)
(293.739 0 0)
(293.713 0 0)
(293.982 0 0)
(293.772 0 0)
(292.797 0 0)
(292.818 0 0)
(292.84 0 0)
(292.952 0 0)
(293.206 0 0)
(293.58 0 0)
(293.814 0 0)
(293.695 0 0)
(293.474 0 0)
(293.198 0 0)
(292.91 0 0)
(292.482 0 0)
(290.881 0 0)
(281.941 0 0)
(236.578 0 0)
(106.2 0 0)
(8.41796 0 0)
(0.0581032 0 0)
(2.58419e-05 0 0)
(8.04858e-10 0 0)
(1.12742e-12 0 0)
(1.82264e-12 0 0)
(-1.38347e-13 0 0)
(-2.37503e-12 0 0)
(3.76897e-13 0 0)
(2.31594e-12 0 0)
)
;

boundaryField
{
    sides
    {
        type            zeroGradient;
    }
    empty
    {
        type            empty;
    }
}


// ************************************************************************* //
