/*--------------------------------*- C++ -*----------------------------------*\
| =========                 |                                                 |
| \\      /  F ield         | OpenFOAM: The Open Source CFD Toolbox           |
|  \\    /   O peration     | Version:  v2012                                 |
|   \\  /    A nd           | Website:  www.openfoam.com                      |
|    \\/     M anipulation  |                                                 |
\*---------------------------------------------------------------------------*/
FoamFile
{
    version     2.0;
    format      ascii;
    class       volScalarField;
    location    "0.018";
    object      rho;
}
// * * * * * * * * * * * * * * * * * * * * * * * * * * * * * * * * * * * * * //

dimensions      [1 -3 0 0 0 0 0];


internalField   nonuniform List<scalar> 
1000
(
1.176217345648656
1.176251657771712
1.176210095955769
1.176106925219667
1.176069401779498
1.176002646859936
1.175937230470709
1.175906628139952
1.175879983009417
1.175841574991671
1.175835564906732
1.175821672761859
1.175830612339762
1.175842805455461
1.175867102636921
1.175913167375902
1.1759464177039
1.176008409051525
1.176081205283513
1.176138399730563
1.176224155308486
1.176303178014863
1.176380641321139
1.17646942200806
1.176546629952039
1.176629169378528
1.176707862875927
1.176771619984756
1.176833404335275
1.176888814747746
1.176919823822389
1.176948125106455
1.176966006191346
1.176973022086812
1.176969418676705
1.176958108460714
1.176936853191875
1.176911831309605
1.176868802971221
1.176816646371061
1.176763873165794
1.176697213353755
1.176619969926284
1.176557562601998
1.176479097631277
1.176396937654498
1.176330485553218
1.17625414662099
1.176177388037701
1.176110679316448
1.176043410285541
1.175979857040138
1.175926941146684
1.175877510446803
1.175850796279584
1.17582236836906
1.175810639121617
1.175804127006008
1.175806626674244
1.175820289578481
1.175831449683633
1.175858313443694
1.175903908088494
1.17594332543672
1.176007049911487
1.176075040108116
1.176145136585618
1.176226724827556
1.176305847967707
1.176392212395272
1.176473394449388
1.176552594185244
1.176627882001964
1.176699872750616
1.176767050720112
1.176831094089051
1.176868112960749
1.176902001772469
1.176923017866404
1.176931404203702
1.176930326958675
1.176923773222834
1.17690888932124
1.176883991604426
1.176849965057295
1.176810507389777
1.176758840342383
1.176697211537428
1.176632587820914
1.176558182202568
1.176482295476414
1.176403881187125
1.176325260163961
1.176249503001349
1.176173932448063
1.176102540510761
1.176034565868445
1.175976324020742
1.175918754499187
1.175865952790341
1.175829459559837
1.175811652433123
1.175787137121799
1.175778555064135
1.175781700824641
1.175783315052647
1.175802200643036
1.175824584090355
1.175851825259357
1.17590030865571
1.175948465811774
1.176006635896066
1.176079917138226
1.17615212732119
1.176232677448224
1.176316759900075
1.176407206715342
1.176488158714816
1.17656519898776
1.176647774187101
1.176712931163467
1.176782752304868
1.176825627062125
1.176865248115724
1.176887439304057
1.176902517970814
1.176910698174543
1.176902228047772
1.176887949965238
1.17687306702944
1.176839833099097
1.176795356363651
1.176757651260451
1.176700558260003
1.176630576660937
1.176571536155918
1.176492612460923
1.17641362852008
1.176335710362856
1.176254796061439
1.176176927266412
1.176102294002373
1.176026267574083
1.175969421102709
1.175904500906128
1.175849851755935
1.175812878526289
1.175789399098863
1.175764403379648
1.175753454809912
1.175748547376661
1.175753697434785
1.175763330440202
1.175785901905949
1.175805371182071
1.175846706863286
1.175895900935791
1.175942940520628
1.176012119267655
1.176079633715446
1.176150055333361
1.17623726401353
1.176319159366717
1.17640150384447
1.176487618024156
1.176567702175169
1.176640181259355
1.176706649240676
1.176769300445876
1.176803678922185
1.176836498244056
1.176851550266802
1.17686116356424
1.176859746341711
1.176849555973279
1.176835466980349
1.176809594402681
1.176769990719998
1.176734556051978
1.176685067611296
1.176619372121782
1.176559463723183
1.176488694454959
1.176412552232047
1.176333488308983
1.176256723432228
1.176177619188391
1.17610029036658
1.17602913894835
1.175960390238888
1.17589759307145
1.175833029363737
1.175800479516299
1.175771173034576
1.175747924865869
1.175734403479477
1.175728066879816
1.175728464589037
1.175742481365563
1.175753677244061
1.175770449962402
1.175813078181809
1.175847832348528
1.175893788806177
1.175962631478617
1.176018776342862
1.176090833737732
1.176173968359493
1.176251494285097
1.176337643906287
1.176420754361556
1.176500550823266
1.176579936805637
1.176650773000545
1.176722445014534
1.176764656907439
1.176801007262189
1.176824604630959
1.176838942584612
1.176839756717705
1.176833238873416
1.176819857788
1.17679749234557
1.176767694049698
1.17672640715869
1.176681638726613
1.17662718891276
1.176562143182972
1.176496333510055
1.176422346807165
1.176342171601377
1.1762680035974
1.176186358563886
1.176106133774363
1.176034030375473
1.175958272136247
1.175887957148031
1.17583136879033
1.175777489306026
1.175748002906338
1.175722874919441
1.175710616693344
1.175699173415029
1.175698451130471
1.175703077733289
1.175720337609898
1.175734641605879
1.175761299972303
1.175804455803573
1.175840941009674
1.175897961202246
1.175960813607771
1.176024008096433
1.176100186828236
1.176177428909902
1.176260564219697
1.176343334018316
1.176425465743808
1.176505932979427
1.176583026812031
1.176650932499261
1.176712552668873
1.176744796014819
1.176781692428239
1.176793836657992
1.176802285391257
1.17679928849879
1.176787216623825
1.176772988445218
1.176745838081207
1.176703979541063
1.176669501064526
1.176614191864064
1.176551857555636
1.176494803544841
1.176419291407677
1.176345036298299
1.176271288010057
1.176189550867435
1.176110293801921
1.176033485405842
1.175960342435627
1.175888791608423
1.175828853444147
1.175767879701573
1.175735188870757
1.175709734823949
1.175696070028879
1.175682026343164
1.175681526753424
1.175688734777387
1.175698419166092
1.175710494923155
1.175742372521255
1.175770634900426
1.17580887853893
1.175863950155386
1.175913534676147
1.175975933816302
1.176051122798696
1.176120837420179
1.176206345802026
1.176289235173421
1.176365929455107
1.176455097940744
1.176529117350033
1.176599099976041
1.176671768936705
1.176715781815773
1.176748851498491
1.17677398693192
1.176784709943702
1.176785323907298
1.17677851950455
1.176764476695644
1.17673498807585
1.176704661270841
1.176671966744218
1.176611904563212
1.176558315239177
1.176498307652796
1.176422412024664
1.176352276444481
1.176274744940386
1.176193983415366
1.176114719729167
1.176033161127018
1.175958518012957
1.175884838538969
1.175814596741273
1.175756440275061
1.175702799101153
1.175677466460279
1.17565651364056
1.175641362014626
1.175635884694426
1.17564038455917
1.175653838556491
1.17566415105431
1.175681591744305
1.17571920058919
1.175751054404877
1.175793596034995
1.175855665349414
1.17590574781002
1.175972767948777
1.176052404060353
1.176121187909754
1.176200647245118
1.17628684776277
1.176363682874065
1.176441584461756
1.176522203416864
1.176585400264927
1.176650034577769
1.176684999661717
1.176711866098099
1.176732561374769
1.176738560592956
1.176730376912897
1.176720935619531
1.176703352724516
1.176669671722106
1.176635788108725
1.176593957216028
1.176532840673081
1.176479365455856
1.17641399618442
1.176337930152485
1.176266799437917
1.176190903269782
1.176108991557304
1.176033581111752
1.175957096998997
1.175876204624379
1.17581251332514
1.17574677919565
1.175686430709294
1.175650482963757
1.175630915571426
1.175611054090826
1.175604565620482
1.17560575433232
1.175613295664906
1.175629428460908
1.175647184222527
1.175673343943394
1.175711517617116
1.175749166813119
1.175803099620628
1.175858209986314
1.175916590808614
1.175988811845655
1.17606056049331
1.17613929177481
1.176217180842277
1.176292959698066
1.176381656002647
1.176443866870433
1.176520548162056
1.176587537670674
1.176631713387871
1.176658062397533
1.176683360133205
1.176692680551715
1.176689640736091
1.176677632490261
1.176668207729643
1.176644139744442
1.176603172484488
1.176570823993472
1.176519129915923
1.176456618527976
1.176402867049427
1.176332512095849
1.176260399298517
1.176185844215403
1.176107476408569
1.176030574382332
1.175952456648647
1.175879419707496
1.175809502410279
1.175744229635107
1.175683995580568
1.175637352839459
1.175610510588116
1.175600195961198
1.175583818738388
1.175582421431463
1.175590108139925
1.175604497500113
1.175619307694701
1.175644061022148
1.175680980183235
1.175714685379788
1.175764799525658
1.175821479052747
1.175872169918944
1.175943639310822
1.176017967510165
1.176085073190724
1.176166351358195
1.176249326724971
1.176323011654093
1.176400927835231
1.176476762709906
1.17654675503805
1.176600225511452
1.17663726891666
1.176664980132754
1.176679365884497
1.176683979786105
1.176676674479275
1.176663391906812
1.176646024410199
1.176610913249741
1.176569921720466
1.176527670838083
1.176466732945539
1.176407629522326
1.176342357459106
1.176267482207794
1.176193029347955
1.176114817400724
1.176037244439796
1.175959939655656
1.175883775555119
1.175807487558424
1.175745344414347
1.175682487733253
1.175621869230345
1.175597587192987
1.175573052339491
1.175554262138656
1.175555159255702
1.175553110424909
1.175569188529714
1.175583886088167
1.175603085448722
1.175637792843255
1.175674791847811
1.175714198436979
1.175770524421408
1.175829029865215
1.1758892488595
1.175958663302693
1.176033596997478
1.176111899671309
1.176187510698293
1.176269415056739
1.176345165593386
1.176417277039614
1.176491532584097
1.176555735422533
1.176603356064489
1.176637502739304
1.176659703396649
1.176668575279999
1.176667706860552
1.176660942517809
1.17664604138916
1.176621172535632
1.176589277404297
1.176552729169367
1.176500867784365
1.176450463953686
1.176394239960011
1.176321788786525
1.176259315497208
1.176187733568021
1.176110644437623
1.176043060250843
1.175970482640273
1.17589890292575
1.175831937626758
1.175773768090875
1.175716344455837
1.175663939862678
1.175635251866322
1.175615711112747
1.175599293586706
1.175595292205728
1.175598461459816
1.17560659463242
1.175624699743243
1.175640488590118
1.175669476485063
1.175710582352725
1.175742478011323
1.175791352704597
1.175845129882534
1.175895637958287
1.175957404902825
1.176021928797987
1.176084244496554
1.176149246117473
1.176216436787851
1.176276737073405
1.176337106870468
1.176394842472656
1.176449155256307
1.176485658035144
1.176516989855483
1.17653351538403
1.176548762387148
1.176549713140352
1.176543237593832
1.176532629672066
1.176518727906238
1.176489565699364
1.176456148946529
1.176421970137134
1.176371769766462
1.176325630037355
1.176270147610124
1.176210485156154
1.176150939033719
1.176085043654616
1.176022612026392
1.175957630462984
1.175894039296983
1.175834962414234
1.175779512265984
1.175731711514379
1.175683580125911
1.175657675598585
1.17564276080512
1.175627257538628
1.17562447131213
1.175629491856859
1.17563620432914
1.175653557799143
1.175673794121556
1.175699354796397
1.175737638987393
1.175775733457774
1.175826088785203
1.175877680324881
1.175931146421196
1.175995777437758
1.176056303283177
1.176123274423427
1.17618974051679
1.176254034491096
1.17631692946109
1.176378525912759
1.17643295131556
1.1764851765436
1.176518911664656
1.1765454432519
1.17656935706102
1.176573282589786
1.176574500263154
1.176566593428148
1.176548370727782
1.176530351260285
1.176501626846861
1.176461100910559
1.176423822159706
1.17637554243331
1.176317954515076
1.176263964242622
1.176201776377687
1.176137311449321
1.176070111145443
1.17600519635821
1.175940834764616
1.175872290797103
1.175822056510166
1.175765244686287
1.175715279668611
1.175682985243895
1.175666580481401
1.175645801756843
1.175643372866796
1.175644334276514
1.175652557682481
1.175668640030412
1.175683486946654
1.175712451861388
1.175744921286169
1.175774669551463
1.175821789618071
1.175870712525909
1.17591871772301
1.175979962613044
1.176041048137272
1.17610357051604
1.176168374373591
1.176229632720859
1.176297874276438
1.176360479764251
1.176410999540113
1.176473885207604
1.176510256121061
1.176541932913773
1.176567943996143
1.176578686443541
1.176582596662599
1.17657630345256
1.176562850174942
1.176545021382353
1.17651497846567
1.176477326315344
1.176434272428014
1.176387992255087
1.176332454934619
1.176271759883083
1.176215354845056
1.176148159713847
1.176079017440443
1.176015575067673
1.175946548907242
1.175885012124102
1.175825493596976
1.175765538174354
1.175715402973021
1.175679525969306
1.175652312677089
1.17563077891448
1.175625661293195
1.175618713850936
1.175629362826009
1.175635523516047
1.175657547853814
1.175676650854001
1.175704899469824
1.175743176027374
1.175780839966894
1.175831213049753
1.175883051461438
1.17593457031582
1.17600095796608
1.176061316499937
1.17612228481046
1.176190236171922
1.176255839046446
1.176310550522123
1.176370003023048
1.176424675699645
1.176469513195823
1.176500300084603
1.176524985309618
1.176545485954754
1.176549458381243
1.176548301602102
1.176545447424004
1.176521753886963
1.176502097781374
1.176474052768712
1.176431485852958
1.176393256406514
1.176341399209286
1.176285580834998
1.176231011789243
1.176166377716763
1.176103599967224
1.176039137956132
1.175973534730292
1.175911713839027
1.175850550382528
1.17578916953988
1.175743864853477
1.175690637998865
1.175667571536241
1.175638945835026
1.175629930945761
1.175622609983455
1.175623835131496
1.175635412039012
1.175652827211044
1.17567363315462
1.17569781104366
1.175734829095032
1.175772269731965
1.175813048552966
1.175867920885778
1.175915172608801
1.175971323280516
1.176035654327156
1.176096657493043
1.176160490768324
1.176224277882158
1.176286603192611
1.176350932371651
1.176400289121088
1.176455943167311
1.176493818659179
1.176523185309855
1.176545592965085
1.1765588101649
1.176559783990905
1.176556467007406
1.176547318890097
1.176523647092327
1.176502032831421
1.176468903100483
1.176421943117079
1.176381586410868
1.176324766173543
1.176263031850625
1.176207559608291
1.176140450956073
1.17607319334227
1.176011358079279
1.175943804675116
1.17588477581412
1.17582627831805
1.175771918818672
1.175719337675341
1.175688860378078
1.175659299265116
1.175639430858775
1.175629938203071
1.175625808940552
1.175633331571209
1.175647341285334
1.17566738976899
1.175689807610398
1.175725420469517
1.175762841692004
1.175801082335218
1.175855357174206
1.17590077255577
1.175954240856498
1.176015764361247
1.176069452331266
1.176131540710382
1.17619424951459
1.176254855670994
1.176315393488813
1.176373112537898
1.176429486017022
1.176471448983688
1.176506976392675
1.176538957390783
1.176553751303389
1.176562527655551
1.176565553039567
1.176552874289005
1.176533080480272
1.176514051717589
1.176478272216476
1.176429518844915
1.176393680997794
1.176337025429042
1.176268877649123
1.176217777536091
1.176147154259556
1.176073996756244
1.176012006663687
1.17594251025656
1.175879612083317
1.175821293303654
1.175761070696976
1.175717509311875
1.175670904740554
1.175647736440541
1.175622850650905
1.175611058176829
1.175604861711429
1.175605386638473
1.1756151081957
1.175634104615957
1.175654051530663
1.175683476360442
1.175722443842339
1.175758889081609
1.175806797619228
1.175858660777978
1.17591031646228
1.175966982940056
1.176024264189306
1.176085824926284
1.176148667980773
1.176210192436418
1.176270109241263
1.176330379034548
1.17638465920146
1.176430505940334
1.176468672574759
1.176498363046474
1.176516551877429
1.176527914697061
1.176532503287921
1.17652593408102
1.176512663449685
1.176492327338183
1.176464938910164
1.176428299775493
1.176390287096134
1.176342401613175
1.176287403545345
1.176232863855399
1.176170064972196
1.176104813187655
1.176038769245395
1.175975396307188
1.175911209407422
1.17584539581053
1.175792733027262
1.175739156626255
1.175688207833377
1.175663055171594
1.17563887581503
1.17562441353954
1.175611589459014
1.175612392899919
1.175619269002958
1.17562980008945
1.175644207003102
1.175671612695707
1.175704611857968
1.175740177675777
1.175786524298809
1.175842221154758
1.175892776929733
1.17594877563769
1.176012361854522
1.176068306635528
1.176125607030014
1.176184984232021
1.176244454041441
1.176294172158197
1.176352499530483
1.176403827899353
1.176447412623561
1.176481789315077
1.176510403987588
1.176530569675664
1.176542316217541
1.176544902188638
1.176537923409851
1.176522495071697
1.176499383474072
1.176465018058232
1.176425569904623
1.176379556932675
1.176322244113807
1.176264546892539
1.176204968109927
1.176138686873944
1.176070030449814
1.176003758960468
1.175941253983261
1.175875514807968
1.175818102997634
1.175763816888249
1.17571504724616
1.175676333164327
1.175661889790856
1.175632857994084
1.175626166768661
1.175624755007248
1.17562992191273
1.175639320888051
1.175659492765019
1.175678056111485
1.175702547198248
1.175741302751877
1.175777510119856
1.175824085948384
1.17587929533432
1.175933471510016
1.175995977739601
1.17605869202359
1.176119607681219
1.176181997536868
1.176236311202347
1.17628962812653
1.176340691343743
1.176385641569377
1.176428967816496
1.176462083649576
1.17649113309541
1.176516638242289
1.176537140270912
1.176547165515474
1.176548690322093
1.176537212514862
1.176516161690287
1.176488993326739
1.176444450746054
1.176396781133029
1.17634368876519
1.176280117242829
1.176218343368014
1.176149834905007
1.176081080057157
1.176013112247772
1.175944208570155
1.175880973711773
1.175817356782739
1.175761685372304
1.175707763993639
1.175665308594214
1.175639818389633
1.175613142031503
1.175605061050205
1.175591596470303
1.175600276217987
1.175606800672577
1.175621548341399
1.175641562114673
1.175666286084318
1.175693951753983
1.175737135994202
1.175776735272758
1.175824024539141
1.175881804337962
1.175935430265418
1.175994003439801
1.176058092882945
1.17612044421163
1.176180807087628
1.176244802947601
1.176301859818909
1.176343585281235
1.17639644895171
1.176423117578768
1.176441891544429
1.176464981561963
1.176481367348152
1.176495953695099
1.176501404056248
1.176501515838618
1.176490929236268
1.176469573467355
1.17643248104408
1.176386069080218
1.176339357073807
1.176281218981224
1.176215724876757
1.176160689055221
1.176095217031953
1.176022845453927
1.175964951087295
1.175899440059764
1.1758353679639
1.175784066222959
1.175728040002491
1.17568121147427
1.175648267267526
1.175631887088722
1.175613504583655
1.175605354824522
1.175606643653544
1.175613188031628
1.175625375285564
1.175645451223141
1.1756719805332
1.175693820587413
1.175732757452215
1.175777637185901
1.175809420836261
1.175858756492709
1.175918372177001
1.17595209681815
1.176001395153172
1.176102890983943
)
;

boundaryField
{
    inlet
    {
        type            calculated;
        value           uniform 1.176271021779363;
    }
    outlet
    {
        type            calculated;
        value           uniform 1.176109736500349;
    }
    frontAndBack
    {
        type            empty;
    }
}


// ************************************************************************* //
