/*--------------------------------*- C++ -*----------------------------------*\
| =========                 |                                                 |
| \\      /  F ield         | OpenFOAM: The Open Source CFD Toolbox           |
|  \\    /   O peration     | Version:  v2012                                 |
|   \\  /    A nd           | Website:  www.openfoam.com                      |
|    \\/     M anipulation  |                                                 |
\*---------------------------------------------------------------------------*/
FoamFile
{
    version     2.0;
    format      ascii;
    class       volScalarField;
    location    "0.018";
    object      T;
}
// * * * * * * * * * * * * * * * * * * * * * * * * * * * * * * * * * * * * * //

dimensions      [0 0 0 1 0 0 0];


internalField   nonuniform List<scalar> 
1000
(
299.9854059159452
299.9792552494169
299.9721894784409
299.9635244351982
299.9606507032019
299.9544494555989
299.9483455251637
299.9454731444911
299.9435462330275
299.940313028968
299.9401457014085
299.9394265889117
299.9407822231591
299.9423382842247
299.9448331858814
299.9496022779758
299.9530474917009
299.9593732763932
299.9667593644327
299.9725292557522
299.9811866922702
299.9891482895538
299.9969574600904
300.005938447427
300.013758327847
300.0221374213863
300.0301344136431
300.0366210888334
300.0429190376225
300.0485756650171
300.0517571562897
300.0546674650752
300.0565196550058
300.0572459843305
300.0568933698577
300.0557714177137
300.0536149655944
300.0510668581133
300.0466784627557
300.0413572895965
300.035971941626
300.0291676783883
300.0212814817117
300.0149069369274
300.0068922224099
299.9985004405751
299.9917129366182
299.983918128746
299.9760820585558
299.9692727288487
299.9624069731369
299.9559209415935
299.9505212724821
299.9454766141318
299.9427522893412
299.9398502491925
299.9386550430066
299.9379917687091
299.9382463188533
299.9396421857379
299.940780530771
299.9435230248488
299.9481768699595
299.9521999590527
299.9587043313924
299.965643983073
299.9727984278688
299.9811258771793
299.9892013835782
299.9980157609407
300.006300955863
300.0143834915726
300.0220665792947
300.029412879121
300.0362677907392
300.042802642127
300.046579835189
300.0500375455659
300.0521817819622
300.0530373928008
300.0529274766862
300.0522587772027
300.0507401252269
300.0481997589
300.0447279554736
300.040701875696
300.0354298977873
300.0291412838941
300.0225468542948
300.0149540134117
300.0072096600616
299.999207165669
299.9911832675006
299.9834512687527
299.975738143108
299.9684511956168
299.961512798482
299.955567726528
299.9496910408066
299.9443009596556
299.9405755812639
299.938757727009
299.9362550448817
299.9353789264388
299.9357000666628
299.9358648483561
299.9377928614597
299.9400779147022
299.942858764625
299.9478081698841
299.9527240187712
299.9586618272581
299.9661420548266
299.9735125063563
299.9817340016265
299.9903157160028
299.9995465639047
300.0078081012709
300.0156701140864
300.0240966015928
300.03074542734
300.0378699658457
300.0422447445435
300.0462875055114
300.0485517514434
300.0500902814313
300.0509249026871
300.0500607344839
300.0486040063707
300.0470854242494
300.0436944719193
300.0391563805478
300.0353089970112
300.0294831500386
300.0223421804305
300.0163171810398
300.0082629938163
300.0002024506146
299.9922502395841
299.9839919992012
299.9760442921175
299.9684265245868
299.9606662736069
299.9548636522126
299.9482365838845
299.9426578992598
299.938883517735
299.9364866274829
299.9339348788259
299.9328171773156
299.932316186168
299.9328419862263
299.933825457809
299.9361297971303
299.9381173083259
299.9423371387734
299.9473590882564
299.9521608113039
299.9592225184645
299.9661140466983
299.9733019011622
299.9822031153122
299.9905615726854
299.9989655139124
300.0077539023592
300.0159265248397
300.0233227936862
300.0301053952886
300.0364983490928
300.0400062746129
300.043355062126
300.0448909009037
300.0458717541457
300.0457271889002
300.0446874911053
300.0432499314614
300.0406100270741
300.0365691228519
300.0329533728271
300.0279034398459
300.0211998017319
300.0150862179848
300.0078641428784
300.000093591056
299.992024412731
299.9841896674307
299.9761158484125
299.968222912445
299.9609602855895
299.9539426759408
299.9475323247117
299.9409414736028
299.9376186378897
299.9346268510967
299.9322534768131
299.9308730955646
299.9302261848794
299.9302668062823
299.9316978445426
299.9328408335861
299.9345530894172
299.9389050106181
299.9424528765492
299.9471441243945
299.9541717867277
299.9599028084593
299.9672579141021
299.9757435373202
299.9836562369621
299.9924488551164
300.0009309158106
300.0090744552682
300.01717579505
300.0244043231301
300.0317179474691
300.0360252518076
300.0397343673265
300.0421421676485
300.0436051334247
300.0436882004003
300.0430231941758
300.0416578836
300.0393757998621
300.0363353003228
300.0321224613874
300.0275541733495
300.0219979182838
300.0153602453782
300.0086442648703
300.0010936147467
299.9929111468863
299.9853414126576
299.9770082490471
299.9688198066696
299.9614599775472
299.9537267997123
299.9465490283454
299.9407723188327
299.9352719676946
299.9322617568967
299.9296964464615
299.928445025453
299.9272767621302
299.9272030119683
299.9276753699746
299.9294375081262
299.9308977921226
299.9336192768419
299.9380250819127
299.9417495800038
299.9475703916272
299.9539864747496
299.9604370321964
299.9682128958194
299.9760969924795
299.9845821731523
299.993029837364
300.0014120056715
300.0096239580179
300.0174913450567
300.0244208586088
300.030708757569
300.0339988942758
300.0377637582523
300.0390029299515
300.0398649887226
300.0395592291668
300.0383274914583
300.0368756672768
300.0341052795854
300.029834121769
300.026315776787
300.0206717380514
300.0143107744841
300.0084882519728
300.0007819177703
299.9932036176027
299.9856767007491
299.9773341609824
299.9692444359791
299.961404361489
299.953938155992
299.9466342201134
299.9405154933306
299.9342909285357
299.9309535459878
299.9283549461618
299.9269598823432
299.9255261076443
299.9254751184585
299.9262110260518
299.9271997479407
299.9284325417541
299.9316870063797
299.9345722928994
299.9384763903952
299.9440984487757
299.9491601536897
299.955529696416
299.9632047307251
299.9703206292353
299.9790482713593
299.9875083559454
299.9953357881681
300.0044359544887
300.0119898425258
300.0191314202659
300.0265469668618
300.0310381472577
300.0344125611539
300.0369773561437
300.0380714932843
300.0381341751904
300.0374398890006
300.0360069628605
300.0329980076672
300.0299035013755
300.0265671722979
300.0204382078527
300.0149695764287
300.0088456639177
300.001100259871
299.9939423425309
299.9860293448333
299.9777863777718
299.9696959660685
299.9613710129822
299.9537516474168
299.9462303877513
299.9390597910316
299.9331227725814
299.9276465333955
299.9250602709214
299.9229210980606
299.9213742005406
299.9208149628223
299.921274392265
299.922648030628
299.9237008550191
299.9254813594341
299.9293210089785
299.9325729389663
299.9369158194909
299.943252318393
299.9483648266053
299.9552061119412
299.9633350979917
299.9703560235193
299.9784662877885
299.9872642871424
299.9951061477079
300.0030565414269
300.0112838711244
300.0177330856704
300.0243287966956
300.0278967430869
300.0306382358382
300.0327499691099
300.0333621407116
300.0325271256141
300.0315637065076
300.0297695156917
300.0263326910129
300.0228750536186
300.0186062723154
300.0123695247669
300.00691222654
300.0002409065621
299.9924777971713
299.9852179682596
299.9774715556616
299.9691108723915
299.9614134284536
299.9536061270562
299.9453485205889
299.9388466367473
299.9321359243341
299.9259749334648
299.9223048975533
299.9203071684732
299.9182793918282
299.9176169349391
299.917738295432
299.9185082517442
299.9201553691512
299.921968123169
299.9246388479745
299.9285361618491
299.9323796827956
299.9378855929132
299.9435115872977
299.94947111736
299.9568433929291
299.9641671383899
299.9722033392703
299.9801533328146
299.9878875916464
299.996939910974
300.0032889927948
300.0111144220204
300.017950698003
300.0224586983767
300.0251474745814
300.0277289385534
300.0286799922212
300.0283698307297
300.0271445264493
300.026182754922
300.0237267416074
300.0195463232147
300.0162451458941
300.0109697224556
300.0045903969664
299.9991046572368
299.9919242459879
299.9845643054499
299.9769546954966
299.9689556654563
299.9611060118527
299.953131915702
299.9456761942818
299.9385387237211
299.9318751235048
299.9257257495979
299.9209638441716
299.9182233560965
299.9171702898153
299.9154982069953
299.9153555262519
299.9161403405689
299.9176094659642
299.9191215145153
299.9216487046839
299.9254179812683
299.9288589106945
299.9339750760268
299.9397613876719
299.9449360118115
299.9522316981617
299.9598189552568
299.9666686586712
299.9749647317101
299.9834337192845
299.9909541911556
299.9989062299938
300.0066455179488
300.0137883299645
300.0192449434278
300.0230250827773
300.0258528211202
300.0273208023241
300.0277916269898
300.0270461935964
300.0256908238833
300.0239185213882
300.0203356368237
300.0161525963243
300.0118407800309
300.0056220372316
299.9995901908104
299.9929285464391
299.9852866655375
299.9776874801277
299.9697044512257
299.961786308172
299.9538951809077
299.9461202986366
299.9383324116304
299.9319883336573
299.9255711791399
299.919382393024
299.9169033064921
299.914398335995
299.9124798804094
299.9125714722038
299.9123622724467
299.9140038690495
299.9155044775345
299.917464617371
299.9210081468698
299.9247855887767
299.9288085531631
299.9345589097001
299.9405315852936
299.9466788413026
299.9537647237797
299.961413709362
299.9694062758284
299.9771238532422
299.9854834204417
299.9932146619166
300.0005741966954
300.0081522455844
300.014704232864
300.0195638482938
300.0230483411824
300.0253138019717
300.0262191133356
300.0261305074853
300.0254402667898
300.0239196946528
300.0213819561492
300.0181271903814
300.014397447849
300.0091049853235
300.0039611133216
299.9982230027447
299.9908287770064
299.9844525236171
299.977146334842
299.9692779502878
299.9623793613964
299.9549708394754
299.9476639788083
299.9408278910884
299.9348895623875
299.9290271784788
299.9236770898292
299.9207482224493
299.9187531820313
299.9170770200275
299.9166684890501
299.9169920549233
299.9178224399567
299.9196709409585
299.9212828706788
299.9242423340665
299.9284390293768
299.9316951799559
299.9366846801114
299.9421746469582
299.9473305874634
299.9536357546772
299.9602221949004
299.9665829982385
299.973217772545
299.9800757643693
299.9862303260782
299.9923917660316
299.9982841703531
300.0038271387168
300.0075523883328
300.0107498742248
300.0124363135072
300.0139922589613
300.0140892843691
300.0134284811307
300.012345952914
300.0109272365489
300.0079511941872
300.0045409109616
300.001052682121
299.995929417791
299.9912203497637
299.9855576249382
299.9794681823305
299.9733903339699
299.9666643177139
299.9602916450116
299.9536584431227
299.9471670283753
299.9411362336659
299.9354755130466
299.9305955661563
299.9256817725751
299.9230371033494
299.9215143838268
299.9199315789029
299.9196471146067
299.9201596926522
299.9208450025758
299.9226167164003
299.9246827121479
299.9272922077313
299.9312007399473
299.935089688533
299.9402302547504
299.9454969877683
299.9509547966392
299.9575522218612
299.9637304427023
299.9705663073884
299.9773504391555
299.9839126650305
299.9903319180595
299.9966184154127
300.0021728927393
300.0075027195992
300.0109454529864
300.0136530097265
300.0160934051702
300.0164940077844
300.0166182571197
300.0158113822775
300.0139518045082
300.0121128849472
300.0091814777838
300.0050457414973
300.0012411905786
299.9963138132115
299.990436457781
299.9849259813134
299.9785786837908
299.9719988633902
299.9651395476985
299.9585133609484
299.9519434464693
299.9449463362138
299.939818235374
299.9340184290106
299.9289175295553
299.9256205482283
299.9239457274631
299.9218243407549
299.9215763665684
299.9216745273793
299.9225141085904
299.9241560330994
299.925671751331
299.928628863155
299.9319437218623
299.9349805862456
299.9397909221298
299.9447852349721
299.9496855910259
299.9559374189556
299.9621728057147
299.9685546229805
299.9751691797514
299.9814216334477
299.9883865976096
299.9947761770046
299.9999321352745
300.0063499027942
300.0100616432764
300.0132943154886
300.0159486981098
300.0170449637126
300.017443982831
300.0168017777713
300.0154289460706
300.013609505117
300.0105436008932
300.0067011227816
300.0023072908915
299.9975840305363
299.9919158989859
299.985721237545
299.9799641980964
299.9731056549382
299.9660482294145
299.9595723411417
299.9525262654151
299.9462445406068
299.940168623772
299.9340479287994
299.9289296583851
299.9252669206618
299.9224885864753
299.920290112305
299.9197676402878
299.9190583157547
299.9201455652279
299.9207745180888
299.9230231199535
299.9249733901167
299.9278573399648
299.9317650518888
299.9356100377881
299.9407524309001
299.9460443213221
299.9513033394709
299.9580800822319
299.9642412161049
299.9704643562479
299.9774000993721
299.9840959209371
299.9896799779418
299.9957476820753
300.0013274103063
300.0059033253935
300.009045204619
300.0115643689986
300.0136564677454
300.014061869171
300.0139438153025
300.0136525173207
300.0112346409711
300.0092286887881
300.0063665581054
300.0020224819013
299.9981208398653
299.9928283013944
299.9871314145093
299.9815617979289
299.9749647133633
299.9685569671727
299.9619770901122
299.955280503517
299.9489698537178
299.9427261185587
299.9364599742348
299.9318349065491
299.9264009134326
299.924045989856
299.9211234906192
299.9202031144561
299.9194556680222
299.9195807448081
299.9207627048002
299.9225407276504
299.9246648761152
299.9271332425054
299.9309124883641
299.9347347348282
299.9388976473139
299.9444993465182
299.9493228401359
299.955054599382
299.9616213438263
299.9678481243201
299.9743636086795
299.980874212984
299.9872353962182
299.9938008927688
299.9988381979906
300.0045180091134
300.0083833271561
300.0113802532637
300.0136669847821
300.0150157693575
300.0151151459104
300.0147766656955
300.0138431053674
300.011427410784
300.0092216128507
300.0058406144545
300.0010481663576
299.9969293648839
299.9911303199356
299.984829564972
299.9791676624821
299.9723179802068
299.9654528654202
299.9591410212523
299.9522452975569
299.9462195629369
299.9402478919179
299.9346984964769
299.9293305179802
299.9262190638033
299.9232010590434
299.9211726182355
299.9202034793941
299.9197818748091
299.9205499217899
299.9219802554262
299.9240271001525
299.9263157801774
299.9299515698549
299.9337718919048
299.9376757024945
299.9432163985447
299.9478524980786
299.9533104816286
299.9595906589678
299.9650708233749
299.9714082805604
299.9778088919301
299.983994722743
299.9901734038435
299.996064203565
300.0018175180526
300.0061000494883
300.0097257115876
300.0129893847662
300.0144991265848
300.0153947353089
300.0157034555722
300.0144096405005
300.0123897017318
300.0104477619979
300.0067963582131
300.0018209495817
299.9981633682748
299.9923810644943
299.9854258466463
299.9802102235529
299.9730017476477
299.9655344941045
299.9592068145989
299.9521127364053
299.9456920171162
299.9397385482806
299.9335905822726
299.929143439839
299.9243854817309
299.9220201380946
299.9194794259953
299.9182754540098
299.9176428323299
299.9176964377614
299.9186889705247
299.9206284605416
299.9226649134342
299.9256689661579
299.9296472866352
299.9333678963739
299.9382587474957
299.9435532184103
299.9488262828737
299.9546107931418
299.960457872645
299.9667416036299
299.9731560775354
299.9794357705917
299.9855511937209
299.9917024537302
299.9972422661999
300.0019212513051
300.0058163208183
300.008846336706
300.0107025928312
300.011862141436
300.0123303963895
300.0116600486634
300.0103057684929
300.0082304248964
300.0054353121836
300.0016961477693
299.9978166818897
299.9929294421729
299.9873162803711
299.9817497131725
299.9753398988399
299.9686796329278
299.9619382969607
299.9554693511449
299.9489171509825
299.9421987064158
299.9368225933225
299.9313530294187
299.9261516288516
299.9235837479457
299.9211151840364
299.9196386513537
299.9183293384206
299.9184113768821
299.9191134225295
299.9201886255304
299.9216594473044
299.924457436945
299.9278264347414
299.9314573127061
299.9361887593525
299.9418746599053
299.9470354988386
299.9527518600021
299.9592426038275
299.9649531268506
299.9708018960987
299.9768624920993
299.9829323536276
299.9880068007286
299.9939597367501
299.9991982292607
300.0036463287331
300.0071546095
300.0100748036548
300.0121327374166
300.0133314718475
300.0135953834447
300.0128832112323
300.0113087416241
300.0089501570009
300.0054430807227
300.0014171834469
299.9967211655638
299.9908718661
299.9849830931979
299.9789020911638
299.9721368315815
299.9651288957773
299.958364209726
299.9519838088361
299.9452730331824
299.9394121962378
299.9338702723862
299.9288914063281
299.9249390113447
299.9234644483233
299.9205004525128
299.9198173286861
299.9196732125737
299.9202007285338
299.9211603186954
299.923219789426
299.925114982526
299.9276152915669
299.931571919876
299.935268242876
299.9400229875288
299.9456590143663
299.9511893208718
299.9575698617879
299.9639714443031
299.9701892267665
299.9765573397096
299.9821009596546
299.9875426980773
299.9927542961737
299.997341880773
300.0017636376328
300.0051432698944
300.0081078611757
300.0107107246399
300.0128029931151
300.0138260613436
300.0139816686159
300.012810372943
300.0106621436925
300.0078895246081
300.0033437769805
299.9984788175308
299.9930602045267
299.9865720073053
299.9802670275059
299.9732744411544
299.966256511757
299.9593186919001
299.9522851195098
299.9458300120081
299.9393357151923
299.9336523697668
299.9281475171792
299.9238131908676
299.9212107723916
299.9184872377662
299.9176622188714
299.9162875009717
299.9171737218338
299.9178398253041
299.9193455189187
299.9213888154764
299.9239129801211
299.926737386407
299.9311461221862
299.9351887432759
299.9400163490882
299.945914837537
299.951389133047
299.9573684065044
299.9639106055596
299.9702752165877
299.9764366640274
299.9829685603499
299.9887919860797
299.9930502297527
299.9984447533069
300.0011657763024
300.0030799712766
300.0054352485707
300.0071059738259
300.0085908866467
300.0091462876826
300.0091560341073
300.0080730676585
300.005893967098
300.0021114287408
299.997381821302
299.9926261412646
299.9867120397963
299.9800570222066
299.9744801842103
299.9678464118936
299.9605092879362
299.9546375752599
299.947970251197
299.9414226438602
299.9361196724285
299.930272003969
299.9252882777733
299.9218256749309
299.9197884016453
299.9175501638154
299.9164940582924
299.9162850788604
299.9165679618552
299.9174068658512
299.9192078692625
299.9216449596954
299.923665311387
299.9275687495835
299.9323436640218
299.936513358857
299.9431439830689
299.9524497615919
299.9571643012704
299.9692334220168
299.9758030456041
)
;

boundaryField
{
    inlet
    {
        type            fixedValue;
        value           uniform 300;
    }
    outlet
    {
        type            inletOutlet;
        inletValue      uniform 300;
        value           uniform 299.9795484436314;
    }
    frontAndBack
    {
        type            empty;
    }
}


// ************************************************************************* //
