/*--------------------------------*- C++ -*----------------------------------*\
| =========                 |                                                 |
| \\      /  F ield         | OpenFOAM: The Open Source CFD Toolbox           |
|  \\    /   O peration     | Version:  v2012                                 |
|   \\  /    A nd           | Website:  www.openfoam.com                      |
|    \\/     M anipulation  |                                                 |
\*---------------------------------------------------------------------------*/
FoamFile
{
    version     2.0;
    format      ascii;
    class       volVectorField;
    location    "0.018";
    object      U;
}
// * * * * * * * * * * * * * * * * * * * * * * * * * * * * * * * * * * * * * //

dimensions      [0 1 -1 0 0 0 0];


internalField   nonuniform List<vector> 
1000
(
(-0.0415915842257317 0 0)
(-0.06681497432471685 0 0)
(-0.07033592760824901 0 0)
(-0.09089795738213448 0 0)
(-0.09338921634714643 0 0)
(-0.1033213138329901 0 0)
(-0.1120740639721949 0 0)
(-0.1130782862672003 0 0)
(-0.1147033578183913 0 0)
(-0.1133018367447354 0 0)
(-0.1094621311585023 0 0)
(-0.1038641918034944 0 0)
(-0.09521881546903664 0 0)
(-0.08532736795172584 0 0)
(-0.07471867806963928 0 0)
(-0.05849069574005458 0 0)
(-0.0458191649388164 0 0)
(-0.02801295932827957 0 0)
(-0.007539382724770343 0 0)
(0.007338258538892384 0 0)
(0.02639860121810555 0 0)
(0.04433696738458146 0 0)
(0.06144074873531451 0 0)
(0.07722451385121464 0 0)
(0.09338519243288404 0 0)
(0.1076798492039699 0 0)
(0.118337408625344 0 0)
(0.1302550995039559 0 0)
(0.1383851539937539 0 0)
(0.1427456614049963 0 0)
(0.1446888108489522 0 0)
(0.145383594320663 0 0)
(0.143106031150092 0 0)
(0.1396568800085067 0 0)
(0.1337321343160546 0 0)
(0.1274664977762584 0 0)
(0.1193970090382492 0 0)
(0.1098535075694217 0 0)
(0.09730398735647594 0 0)
(0.08377366611170182 0 0)
(0.06877275573817272 0 0)
(0.0518677261092761 0 0)
(0.0345404824942326 0 0)
(0.01673822832049232 0 0)
(-0.0001772261166935875 0 0)
(-0.01735005662249769 0 0)
(-0.03440323870222944 0 0)
(-0.04965992519078558 0 0)
(-0.06385582073526445 0 0)
(-0.07747528288624936 0 0)
(-0.08979304006798886 0 0)
(-0.09819305035596905 0 0)
(-0.1073896985088325 0 0)
(-0.1120019834664781 0 0)
(-0.1125584254562831 0 0)
(-0.1100956800250201 0 0)
(-0.1077101059756587 0 0)
(-0.1009274039719423 0 0)
(-0.0930165437017175 0 0)
(-0.08342177164927278 0 0)
(-0.07525692212617929 0 0)
(-0.06211380450665039 0 0)
(-0.04782540009446501 0 0)
(-0.03545558920142727 0 0)
(-0.01553845914490893 0 0)
(0.001297353174356016 0 0)
(0.01836511144368176 0 0)
(0.03804160514040771 0 0)
(0.05490305687708505 0 0)
(0.07184433512066207 0 0)
(0.08747096751104662 0 0)
(0.1007323594545307 0 0)
(0.1139909474243695 0 0)
(0.1245389946808929 0 0)
(0.1331981542571611 0 0)
(0.140734379236141 0 0)
(0.1437076919659014 0 0)
(0.1439212040714707 0 0)
(0.1429647996790725 0 0)
(0.13868651623716 0 0)
(0.1322528732356446 0 0)
(0.1261696446689258 0 0)
(0.1195585364943927 0 0)
(0.1109194009393665 0 0)
(0.1006277189387785 0 0)
(0.09032899723343003 0 0)
(0.07630955481195952 0 0)
(0.06184250751800431 0 0)
(0.04594001652469142 0 0)
(0.02858676686453322 0 0)
(0.01203161314108477 0 0)
(-0.007118794153902587 0 0)
(-0.02453894295834404 0 0)
(-0.0397047151745078 0 0)
(-0.05602434086118631 0 0)
(-0.06913051156938481 0 0)
(-0.0801436558033695 0 0)
(-0.09177195743351711 0 0)
(-0.09929041910876819 0 0)
(-0.1055812328671843 0 0)
(-0.1065261007448607 0 0)
(-0.1056115432931086 0 0)
(-0.1019496842399066 0 0)
(-0.09616923305314495 0 0)
(-0.08750906563814106 0 0)
(-0.08021518688815715 0 0)
(-0.06839364906409176 0 0)
(-0.05793978828933102 0 0)
(-0.04593954706042878 0 0)
(-0.03010559524537135 0 0)
(-0.01644418330499809 0 0)
(0.0008949684252622932 0 0)
(0.01899046063101854 0 0)
(0.03481676452576575 0 0)
(0.05431710041657175 0 0)
(0.07271529601624059 0 0)
(0.0874649392840539 0 0)
(0.1036009013274199 0 0)
(0.1188223110105418 0 0)
(0.1287061412482775 0 0)
(0.1390981102022216 0 0)
(0.1471646164567913 0 0)
(0.1499656019082692 0 0)
(0.1527137902526424 0 0)
(0.1501503523171223 0 0)
(0.1473830632956293 0 0)
(0.1417712403318113 0 0)
(0.1355557439914584 0 0)
(0.1280420593297439 0 0)
(0.1206767459761597 0 0)
(0.1116277609974635 0 0)
(0.09900133897633544 0 0)
(0.08836243234605168 0 0)
(0.07578339609599494 0 0)
(0.05856779338389116 0 0)
(0.04499496070878187 0 0)
(0.02763210210814205 0 0)
(0.008936236462124285 0 0)
(-0.007311689021114185 0 0)
(-0.02505620096679096 0 0)
(-0.04196032865012733 0 0)
(-0.05727627470475903 0 0)
(-0.06948435734472096 0 0)
(-0.08309573240281466 0 0)
(-0.09044060338660624 0 0)
(-0.0978015876408343 0 0)
(-0.1005126765789015 0 0)
(-0.09898057169424525 0 0)
(-0.096049037159763 0 0)
(-0.09137077898958668 0 0)
(-0.08449925356033476 0 0)
(-0.07504722920329074 0 0)
(-0.06573034146772397 0 0)
(-0.05468621193296999 0 0)
(-0.04397718075649181 0 0)
(-0.02901192403325954 0 0)
(-0.01450188960971342 0 0)
(-0.0006475019281976306 0 0)
(0.01719006319489759 0 0)
(0.03338928454149024 0 0)
(0.04954708243170442 0 0)
(0.06839985293652666 0 0)
(0.08400456003648425 0 0)
(0.09966214668934488 0 0)
(0.1148793157824782 0 0)
(0.1270908012147497 0 0)
(0.1386749968959738 0 0)
(0.1486946846912054 0 0)
(0.1545530336121302 0 0)
(0.1556254085237592 0 0)
(0.1553994332452903 0 0)
(0.1528291362073223 0 0)
(0.147343028044548 0 0)
(0.1398599406818176 0 0)
(0.1336006484840364 0 0)
(0.126321862104595 0 0)
(0.1182778920718137 0 0)
(0.1057162263037942 0 0)
(0.09713515577333331 0 0)
(0.08462144241964824 0 0)
(0.06763394515441007 0 0)
(0.05668225485323516 0 0)
(0.03956976148465258 0 0)
(0.02108105346151538 0 0)
(0.006275707397868116 0 0)
(-0.01240682233117968 0 0)
(-0.02945355933001925 0 0)
(-0.04489986149467364 0 0)
(-0.06088837630507667 0 0)
(-0.07402577948972013 0 0)
(-0.08441463792039683 0 0)
(-0.09294378494913755 0 0)
(-0.09745199240245364 0 0)
(-0.09857916973444551 0 0)
(-0.09488409103220606 0 0)
(-0.09174054905043938 0 0)
(-0.08345163338953129 0 0)
(-0.07666731356209414 0 0)
(-0.06622706943969887 0 0)
(-0.05547598238655092 0 0)
(-0.04602555299634863 0 0)
(-0.0307140859445213 0 0)
(-0.01796077892683879 0 0)
(-0.003659610501550182 0 0)
(0.01491663068545151 0 0)
(0.02861042271726275 0 0)
(0.04587777807871868 0 0)
(0.06342739558503296 0 0)
(0.07874765544773663 0 0)
(0.09501125785026222 0 0)
(0.1097723322508638 0 0)
(0.1239905085729867 0 0)
(0.1357037235426234 0 0)
(0.1457678750663493 0 0)
(0.1539478787588678 0 0)
(0.1571962258970211 0 0)
(0.1576416707654749 0 0)
(0.1556658942126588 0 0)
(0.1518024999630935 0 0)
(0.1444808401601458 0 0)
(0.1370693449966557 0 0)
(0.1303509425719236 0 0)
(0.1221197241920834 0 0)
(0.1115658273846323 0 0)
(0.1017336527796801 0 0)
(0.09127952698087934 0 0)
(0.07732191917710739 0 0)
(0.06395973916126682 0 0)
(0.05078102319658635 0 0)
(0.03482246217743733 0 0)
(0.01854135006484857 0 0)
(0.001935744955041222 0 0)
(-0.0138152234575184 0 0)
(-0.03039817635237069 0 0)
(-0.04628527673050721 0 0)
(-0.05947007513690444 0 0)
(-0.07064579575474061 0 0)
(-0.08288199039630831 0 0)
(-0.08871123089672436 0 0)
(-0.08951464447440748 0 0)
(-0.08813274613394227 0 0)
(-0.08454515402050937 0 0)
(-0.07779220292770728 0 0)
(-0.06992470791773886 0 0)
(-0.06119160686594935 0 0)
(-0.04942034887876831 0 0)
(-0.03991211447670192 0 0)
(-0.02796093998670504 0 0)
(-0.01154039089978674 0 0)
(-0.0003383943490497764 0 0)
(0.01602525310779757 0 0)
(0.03261236295600168 0 0)
(0.04591431962818204 0 0)
(0.06445842690660102 0 0)
(0.08120728728183432 0 0)
(0.09507198124301147 0 0)
(0.1115652938928732 0 0)
(0.1257824729803683 0 0)
(0.1380232240200396 0 0)
(0.1485653524258991 0 0)
(0.1593830091785549 0 0)
(0.1650304199729439 0 0)
(0.1663059587056209 0 0)
(0.16537484797417 0 0)
(0.1615914524534486 0 0)
(0.1554832296754965 0 0)
(0.1477549182127315 0 0)
(0.1404885243629221 0 0)
(0.1324356289729332 0 0)
(0.1229357316309785 0 0)
(0.1108644787662808 0 0)
(0.101804850520314 0 0)
(0.08925738947050819 0 0)
(0.07484933728148863 0 0)
(0.06306124225033184 0 0)
(0.04768303597508322 0 0)
(0.03166358826392476 0 0)
(0.01572926512935573 0 0)
(-0.0002236194046010175 0 0)
(-0.01599141051000471 0 0)
(-0.03212495529897337 0 0)
(-0.04704414197114377 0 0)
(-0.05970749338100915 0 0)
(-0.07157647731240885 0 0)
(-0.08126149827243306 0 0)
(-0.08290494868262595 0 0)
(-0.08354606626062189 0 0)
(-0.08029415869574667 0 0)
(-0.07502280463835206 0 0)
(-0.06705920037240465 0 0)
(-0.05824853826154122 0 0)
(-0.04677604305877772 0 0)
(-0.03729874542321598 0 0)
(-0.02379480354934273 0 0)
(-0.00981603940231581 0 0)
(0.002679743935792612 0 0)
(0.01925393875379355 0 0)
(0.03456724331120801 0 0)
(0.04836319637036338 0 0)
(0.06585597373848445 0 0)
(0.08203234953408026 0 0)
(0.09578023495634137 0 0)
(0.1116758220095475 0 0)
(0.1270757991996539 0 0)
(0.1383261016337455 0 0)
(0.1511768848188224 0 0)
(0.1611233703409183 0 0)
(0.1694137233117439 0 0)
(0.1724241102465877 0 0)
(0.1711475885385178 0 0)
(0.1707557920278047 0 0)
(0.1656363596049062 0 0)
(0.1573833403061151 0 0)
(0.1504460820396997 0 0)
(0.1428852172085621 0 0)
(0.1332053761823384 0 0)
(0.1225509906466979 0 0)
(0.1140030234591524 0 0)
(0.1010755002293759 0 0)
(0.08895239582900399 0 0)
(0.07726718240493928 0 0)
(0.06284826814326014 0 0)
(0.04912855638511512 0 0)
(0.03383552812636303 0 0)
(0.01875010909609244 0 0)
(0.003551471588248259 0 0)
(-0.01153153211464504 0 0)
(-0.02690521760828849 0 0)
(-0.04067303795446055 0 0)
(-0.05138083477589445 0 0)
(-0.06367514954335952 0 0)
(-0.06893723716454599 0 0)
(-0.07106428422573484 0 0)
(-0.06859769787490005 0 0)
(-0.06537456510941751 0 0)
(-0.05848064153920533 0 0)
(-0.05001072159584083 0 0)
(-0.03875074250410621 0 0)
(-0.02858710070037341 0 0)
(-0.01789368990619131 0 0)
(-0.00226909664399142 0 0)
(0.0108612501041683 0 0)
(0.02457818045981401 0 0)
(0.04161047164084347 0 0)
(0.05645352488627027 0 0)
(0.07119306275111366 0 0)
(0.08717751870665737 0 0)
(0.1034404299876768 0 0)
(0.1182994073666751 0 0)
(0.1315522886692012 0 0)
(0.1461010708397166 0 0)
(0.1594047205846896 0 0)
(0.1678625803605284 0 0)
(0.1793595802050713 0 0)
(0.185550263131095 0 0)
(0.1865203352524016 0 0)
(0.1859026935771033 0 0)
(0.1817289464531546 0 0)
(0.1764066269453377 0 0)
(0.1680917632254545 0 0)
(0.1608299860534239 0 0)
(0.1525467560324532 0 0)
(0.1407889631595478 0 0)
(0.1314957360272715 0 0)
(0.120818249616153 0 0)
(0.1059302609132964 0 0)
(0.09517297953478455 0 0)
(0.08206228594304571 0 0)
(0.06695909125759618 0 0)
(0.05348722144581437 0 0)
(0.03733969645764655 0 0)
(0.02272218365852294 0 0)
(0.008123529063168799 0 0)
(-0.00739723544806111 0 0)
(-0.01949976119062036 0 0)
(-0.0335654838658069 0 0)
(-0.04396041513425599 0 0)
(-0.05371912711984708 0 0)
(-0.0559843632170109 0 0)
(-0.05494517201808821 0 0)
(-0.05438251540246323 0 0)
(-0.04752165964083244 0 0)
(-0.04023476294162987 0 0)
(-0.03088880113109858 0 0)
(-0.02020345907378369 0 0)
(-0.01004234586310385 0 0)
(0.00330265943209135 0 0)
(0.0188061923914452 0 0)
(0.03079846527500931 0 0)
(0.04732988811166094 0 0)
(0.06302515047228567 0 0)
(0.07662322188177624 0 0)
(0.09370710358084967 0 0)
(0.1086187415193071 0 0)
(0.1227439424499259 0 0)
(0.1380957797536775 0 0)
(0.1524500880976089 0 0)
(0.1630907254813389 0 0)
(0.1781445670774414 0 0)
(0.1859704094910935 0 0)
(0.1955086692303609 0 0)
(0.1998051146790815 0 0)
(0.1986101702072969 0 0)
(0.1980514063045451 0 0)
(0.1925775841349493 0 0)
(0.1856371803150226 0 0)
(0.1773252421310526 0 0)
(0.1697300699432804 0 0)
(0.1602340251358243 0 0)
(0.1477475922338098 0 0)
(0.1381547262278655 0 0)
(0.1253573330348493 0 0)
(0.1104275922120164 0 0)
(0.09877917509401811 0 0)
(0.08465339858306517 0 0)
(0.06805733150036851 0 0)
(0.05479120085975859 0 0)
(0.04011830334480668 0 0)
(0.0241429455871764 0 0)
(0.01026133692424529 0 0)
(-0.004108374938103295 0 0)
(-0.01783383424232826 0 0)
(-0.02925523135281628 0 0)
(-0.04015779888463752 0 0)
(-0.04711149200636804 0 0)
(-0.04712010681977669 0 0)
(-0.04686810640883467 0 0)
(-0.04271427522039796 0 0)
(-0.03657307398206009 0 0)
(-0.02840729058176735 0 0)
(-0.01848025825935166 0 0)
(-0.008015546946637352 0 0)
(0.004043737051778983 0 0)
(0.01875539112921213 0 0)
(0.03207380932984199 0 0)
(0.04856160945749667 0 0)
(0.06396306420819783 0 0)
(0.07901169191705619 0 0)
(0.09513550804370155 0 0)
(0.1098449412857788 0 0)
(0.1254975849290366 0 0)
(0.1396079300232667 0 0)
(0.1521164637179614 0 0)
(0.1655510313611774 0 0)
(0.1779659536669573 0 0)
(0.1868811561063147 0 0)
(0.1958277233386083 0 0)
(0.2017576759693764 0 0)
(0.2037512889308131 0 0)
(0.2019676306504993 0 0)
(0.1989646925129327 0 0)
(0.1928622073628488 0 0)
(0.1850527486528343 0 0)
(0.177386720917404 0 0)
(0.1704201138537028 0 0)
(0.1578424250184554 0 0)
(0.1479270112426246 0 0)
(0.1378248437088428 0 0)
(0.1214207581548915 0 0)
(0.1104311295428676 0 0)
(0.09740859659138221 0 0)
(0.08186750794494931 0 0)
(0.06894616122705328 0 0)
(0.0529934100615291 0 0)
(0.03897645063590184 0 0)
(0.0257949462023234 0 0)
(0.01028883052166955 0 0)
(-0.001061334385146641 0 0)
(-0.01431707915470009 0 0)
(-0.02520835788226329 0 0)
(-0.03247594090360017 0 0)
(-0.03790100982448594 0 0)
(-0.03414506136635168 0 0)
(-0.03500784264411765 0 0)
(-0.02708090935522964 0 0)
(-0.02179446866293071 0 0)
(-0.01121432232632873 0 0)
(-0.0008545909429060721 0 0)
(0.009154361068358379 0 0)
(0.02372254064839156 0 0)
(0.03819928817728149 0 0)
(0.05078491152928854 0 0)
(0.06903370603648791 0 0)
(0.08438695576130019 0 0)
(0.09852654480844043 0 0)
(0.1168077563648332 0 0)
(0.1315105891536696 0 0)
(0.145221162115645 0 0)
(0.1602719719552691 0 0)
(0.1728668175898842 0 0)
(0.186097076983274 0 0)
(0.1977849512853549 0 0)
(0.2061872100132227 0 0)
(0.2157014298763025 0 0)
(0.2210629620834411 0 0)
(0.2207927930032128 0 0)
(0.2207411235055232 0 0)
(0.2166238169637106 0 0)
(0.2101603977425945 0 0)
(0.2032600655798156 0 0)
(0.1965666697055919 0 0)
(0.1877755755465957 0 0)
(0.1764064703985747 0 0)
(0.1678178712325799 0 0)
(0.1546913256884092 0 0)
(0.1409193626039669 0 0)
(0.1296104913536338 0 0)
(0.1146914618758072 0 0)
(0.1018283347227875 0 0)
(0.08809167752718462 0 0)
(0.07241008724876237 0 0)
(0.05976923437487335 0 0)
(0.04658669915057265 0 0)
(0.03312601911155452 0 0)
(0.02224629912966938 0 0)
(0.01039319665456172 0 0)
(0.001247151685741545 0 0)
(-0.005752598785776161 0 0)
(-0.008813886324737813 0 0)
(-0.006764921735951686 0 0)
(-0.006284581453511072 0 0)
(-0.001278012852446092 0 0)
(0.005977601949131317 0 0)
(0.01323514147905343 0 0)
(0.02236683690886493 0 0)
(0.0316993769652831 0 0)
(0.04181084881838582 0 0)
(0.05524114566828699 0 0)
(0.06535149447146428 0 0)
(0.07838819221204181 0 0)
(0.09255844930784576 0 0)
(0.102834953228622 0 0)
(0.1155690896750619 0 0)
(0.1274898480166833 0 0)
(0.1381411938170288 0 0)
(0.1489251158791404 0 0)
(0.1581655625257291 0 0)
(0.1683000779346646 0 0)
(0.1758980402412763 0 0)
(0.1823174179721557 0 0)
(0.1888379187128178 0 0)
(0.1918416131639603 0 0)
(0.1933328837721782 0 0)
(0.1915683311268375 0 0)
(0.1898375100432902 0 0)
(0.1847350827279378 0 0)
(0.178619838846475 0 0)
(0.1725181777708203 0 0)
(0.1664327984696618 0 0)
(0.1563971229516376 0 0)
(0.1475936051481903 0 0)
(0.1389037053161065 0 0)
(0.1252134907976799 0 0)
(0.1153993533523944 0 0)
(0.1040436993284717 0 0)
(0.09082666175407705 0 0)
(0.07997807798982573 0 0)
(0.06719788797871892 0 0)
(0.05530688491540727 0 0)
(0.04492444084698692 0 0)
(0.03327063838429108 0 0)
(0.02344789654673493 0 0)
(0.01443643719173143 0 0)
(0.00551958585596231 0 0)
(-0.0008773635032420472 0 0)
(-0.003156810915100021 0 0)
(-0.002349037097031631 0 0)
(-0.001979984077364052 0 0)
(0.002772500580647124 0 0)
(0.009347271136491867 0 0)
(0.01573900066303269 0 0)
(0.02500398129992021 0 0)
(0.03411043486232697 0 0)
(0.04366410905560212 0 0)
(0.05790746985337503 0 0)
(0.06793132461302964 0 0)
(0.0803507553911454 0 0)
(0.09473649560616733 0 0)
(0.1052814860402984 0 0)
(0.1178040854002285 0 0)
(0.1305229838324415 0 0)
(0.1401011456650429 0 0)
(0.1500437529080405 0 0)
(0.1590576914176998 0 0)
(0.1673504898420453 0 0)
(0.1735857117202917 0 0)
(0.1794290966543538 0 0)
(0.1842779598420747 0 0)
(0.1852483707375447 0 0)
(0.1845509464464862 0 0)
(0.1834123681928312 0 0)
(0.1792377002316967 0 0)
(0.1739673842138184 0 0)
(0.1687454711995288 0 0)
(0.1610492202413654 0 0)
(0.1544391229425201 0 0)
(0.1467520240236191 0 0)
(0.1350258850227135 0 0)
(0.1259757426340868 0 0)
(0.1150205341095497 0 0)
(0.1012358287360526 0 0)
(0.09079872308756258 0 0)
(0.07815421663637209 0 0)
(0.0643256419218536 0 0)
(0.05399400122049765 0 0)
(0.04187855876158413 0 0)
(0.03035263165512599 0 0)
(0.02253440644869534 0 0)
(0.0105346521941182 0 0)
(0.003890802286667888 0 0)
(-0.002926699665799398 0 0)
(-0.006269869144261028 0 0)
(-0.005391786661907255 0 0)
(-0.006440210668593457 0 0)
(-0.001933069936782282 0 0)
(0.002862866975960904 0 0)
(0.009297273460170369 0 0)
(0.01629990560367568 0 0)
(0.02464965015525529 0 0)
(0.03542589110864632 0 0)
(0.04669277178113062 0 0)
(0.05731018932298278 0 0)
(0.07125352265475467 0 0)
(0.08517315866858186 0 0)
(0.09617295058399143 0 0)
(0.1099187701082741 0 0)
(0.122317423993943 0 0)
(0.1326518500270882 0 0)
(0.1439765731491038 0 0)
(0.1541314281913122 0 0)
(0.1611223243179402 0 0)
(0.1677959667613407 0 0)
(0.1756746465714785 0 0)
(0.1789199874547575 0 0)
(0.1804481967725406 0 0)
(0.1825966775002648 0 0)
(0.1798976693959844 0 0)
(0.1776845174317437 0 0)
(0.1726127515667335 0 0)
(0.1674540800687351 0 0)
(0.1616522319352234 0 0)
(0.156102192352525 0 0)
(0.1484709101990518 0 0)
(0.1403339860383838 0 0)
(0.1313723435361425 0 0)
(0.1215716292871278 0 0)
(0.1107753269495976 0 0)
(0.09922543137293433 0 0)
(0.08721067908099446 0 0)
(0.07562830133798297 0 0)
(0.06303287444954303 0 0)
(0.05183934429546054 0 0)
(0.0414771270323636 0 0)
(0.03013167713224767 0 0)
(0.02122815794096029 0 0)
(0.01432330342848928 0 0)
(0.006573867511813559 0 0)
(0.001365394300337903 0 0)
(0.001988926528571414 0 0)
(0.001117758159630367 0 0)
(0.00436327589889162 0 0)
(0.007557948037289802 0 0)
(0.01477468714502298 0 0)
(0.02018232493511177 0 0)
(0.0298354494113373 0 0)
(0.0379828840068912 0 0)
(0.04846189839011641 0 0)
(0.06086793861909735 0 0)
(0.07132918826951735 0 0)
(0.08413037844277127 0 0)
(0.09775814878119332 0 0)
(0.1093218155607935 0 0)
(0.1215297872522784 0 0)
(0.1337797394130943 0 0)
(0.144584248495651 0 0)
(0.1545032424182687 0 0)
(0.1626093075925392 0 0)
(0.1719594692663767 0 0)
(0.1780163918332168 0 0)
(0.1828323135034344 0 0)
(0.1872608216879752 0 0)
(0.1881055486662203 0 0)
(0.1877061975387069 0 0)
(0.1856313562622093 0 0)
(0.1824807228767463 0 0)
(0.1759344057944749 0 0)
(0.172512265139638 0 0)
(0.164139667256369 0 0)
(0.1583193219951062 0 0)
(0.1511727567230817 0 0)
(0.139420406746839 0 0)
(0.130991397313967 0 0)
(0.1199783352130921 0 0)
(0.1073029069898216 0 0)
(0.09560423813318958 0 0)
(0.08365058779993371 0 0)
(0.06976577695987188 0 0)
(0.05736771657307436 0 0)
(0.04624724858996736 0 0)
(0.03436518992897378 0 0)
(0.02476625930011997 0 0)
(0.01823028163422996 0 0)
(0.008325552035943541 0 0)
(0.004102438630113113 0 0)
(0.003660515307964505 0 0)
(0.002365899515417143 0 0)
(0.003771046514725303 0 0)
(0.008800683131466615 0 0)
(0.01220641583599471 0 0)
(0.01853459869876786 0 0)
(0.02581983277400364 0 0)
(0.03368690131087572 0 0)
(0.0423797523358827 0 0)
(0.05369650045620476 0 0)
(0.06478475823548532 0 0)
(0.07706286206554845 0 0)
(0.09133237230063362 0 0)
(0.102749921734651 0 0)
(0.1156102754082832 0 0)
(0.1292510454948473 0 0)
(0.1396330320198085 0 0)
(0.1503167333812553 0 0)
(0.1606198341716568 0 0)
(0.1683914898595262 0 0)
(0.1737263029569117 0 0)
(0.1808356183685664 0 0)
(0.184100623629685 0 0)
(0.1842294068136892 0 0)
(0.1841891949779452 0 0)
(0.1830231403771454 0 0)
(0.1791171333807717 0 0)
(0.1733032844320143 0 0)
(0.168067355545277 0 0)
(0.1625620115083602 0 0)
(0.1552183176564762 0 0)
(0.1479763901320618 0 0)
(0.1389075222804768 0 0)
(0.1292945997010502 0 0)
(0.1206086258308507 0 0)
(0.107903368395464 0 0)
(0.09743012846864536 0 0)
(0.08638288600087943 0 0)
(0.07284111112805508 0 0)
(0.06106458794531819 0 0)
(0.04867957017260151 0 0)
(0.03772345063314404 0 0)
(0.02666952223152741 0 0)
(0.01735712197034987 0 0)
(0.01003350925537953 0 0)
(0.004035319756971259 0 0)
(0.001119818373808791 0 0)
(0.0008568633249395453 0 0)
(0.003262299086461736 0 0)
(0.00596507624323259 0 0)
(0.01081104758460545 0 0)
(0.01744204125894953 0 0)
(0.02404128167084324 0 0)
(0.03114198204509797 0 0)
(0.03870150145367727 0 0)
(0.04840284564187807 0 0)
(0.05891051749085871 0 0)
(0.06966581501806103 0 0)
(0.08283647379561307 0 0)
(0.09590978686223006 0 0)
(0.10858403775758 0 0)
(0.1221274877763332 0 0)
(0.1353149911463838 0 0)
(0.1467035787302399 0 0)
(0.1570083705072925 0 0)
(0.1663831284386164 0 0)
(0.1740215613494564 0 0)
(0.1793431935073145 0 0)
(0.1828344981678665 0 0)
(0.1848113393661384 0 0)
(0.1844206179176558 0 0)
(0.1818431973931647 0 0)
(0.178516161010313 0 0)
(0.1736675970121372 0 0)
(0.1680043319469991 0 0)
(0.1621557673981904 0 0)
(0.1565345002357701 0 0)
(0.150093779782091 0 0)
(0.1432825588979288 0 0)
(0.1340308629610051 0 0)
(0.1269885226748527 0 0)
(0.1178499524102864 0 0)
(0.1061086765232194 0 0)
(0.09624500920343457 0 0)
(0.08555381148000828 0 0)
(0.07300086824735412 0 0)
(0.06226596934237499 0 0)
(0.05112724038840981 0 0)
(0.03973808652293406 0 0)
(0.03052466789288144 0 0)
(0.02277537250427836 0 0)
(0.01356374098056085 0 0)
(0.01006490000610376 0 0)
(0.01032663751110844 0 0)
(0.01009825636386359 0 0)
(0.01211208341757922 0 0)
(0.01836762009676846 0 0)
(0.02323657702023566 0 0)
(0.02995874098243505 0 0)
(0.03848174950304681 0 0)
(0.04451686437773775 0 0)
(0.05319250451610853 0 0)
(0.06462813516441854 0 0)
(0.07253835168908501 0 0)
(0.08527451865539076 0 0)
(0.09791783627852844 0 0)
(0.1090710302399042 0 0)
(0.1232250432252368 0 0)
(0.1357991420730127 0 0)
(0.1472500103054593 0 0)
(0.1584451557839137 0 0)
(0.168084486436211 0 0)
(0.1762663022781809 0 0)
(0.1820610959567295 0 0)
(0.1874508807160417 0 0)
(0.1909404226471395 0 0)
(0.1907614948463102 0 0)
(0.1894357561489872 0 0)
(0.1872027739714532 0 0)
(0.1823345147606834 0 0)
(0.1776176868244629 0 0)
(0.1727929805298899 0 0)
(0.1662282617812631 0 0)
(0.1595571308783051 0 0)
(0.1530276499315165 0 0)
(0.1431807705303981 0 0)
(0.1344008296723853 0 0)
(0.126331162993872 0 0)
(0.1138678975389189 0 0)
(0.1025083859682203 0 0)
(0.09280087340298131 0 0)
(0.07936987659797964 0 0)
(0.06731353226114799 0 0)
(0.05608134847502091 0 0)
(0.04438052175047755 0 0)
(0.03515325300378495 0 0)
(0.0253186044609734 0 0)
(0.01721737171360229 0 0)
(0.01161420160504939 0 0)
(0.00885008936916413 0 0)
(0.009872179947323541 0 0)
(0.01112812880075414 0 0)
(0.0139457483208608 0 0)
(0.0203131285682854 0 0)
(0.02774015309542701 0 0)
(0.03461406850110939 0 0)
(0.04162538881006968 0 0)
(0.05234637013398803 0 0)
(0.06144519057879375 0 0)
(0.06998564332942241 0 0)
(0.08118218154119217 0 0)
(0.09193699817520488 0 0)
(0.1023579293203021 0 0)
(0.1152983829568738 0 0)
(0.1269241365205938 0 0)
(0.1389164401811442 0 0)
(0.1517603171540732 0 0)
(0.1630972141778114 0 0)
(0.1722815825635185 0 0)
(0.1820924738694291 0 0)
(0.1875490348235289 0 0)
(0.1913839053785557 0 0)
(0.192625345535298 0 0)
(0.1901715155581651 0 0)
(0.1861990319021156 0 0)
(0.1813723693411781 0 0)
(0.1751357351424576 0 0)
(0.1679827188378124 0 0)
(0.161389431353088 0 0)
(0.1540894509634623 0 0)
(0.1474883261221112 0 0)
(0.1397137739396184 0 0)
(0.1325999022719619 0 0)
(0.1242860329541973 0 0)
(0.1137217222583489 0 0)
(0.1054541543376618 0 0)
(0.09475032233381728 0 0)
(0.08289107965379254 0 0)
(0.0723537396266434 0 0)
(0.06080540654781254 0 0)
(0.04854252405088585 0 0)
(0.03879821955101365 0 0)
(0.02845550079478117 0 0)
(0.02025398276477794 0 0)
(0.01235125799359888 0 0)
(0.008355164542850286 0 0)
(0.008396998196770075 0 0)
(0.008483648762863597 0 0)
(0.01079663089232103 0 0)
(0.01562513761189752 0 0)
(0.0217703652283434 0 0)
(0.02811404833522665 0 0)
(0.03706887771294539 0 0)
(0.04456031345350633 0 0)
(0.05334215018213463 0 0)
(0.06516048354056274 0 0)
(0.07477032087580662 0 0)
(0.08621606127595237 0 0)
(0.09767745686858198 0 0)
(0.1072388329746053 0 0)
(0.1189370391271405 0 0)
(0.1298354887801622 0 0)
(0.140516571335725 0 0)
(0.1515124902600766 0 0)
(0.1626460084801776 0 0)
(0.1724678688726833 0 0)
(0.1806175345394221 0 0)
(0.1879083338108842 0 0)
(0.1920020116748868 0 0)
(0.1914139509632028 0 0)
(0.1879854899875018 0 0)
(0.1826324939483609 0 0)
(0.1769131899093851 0 0)
(0.1687662360812976 0 0)
(0.1600660937121007 0 0)
(0.1534007567789229 0 0)
(0.1454101241945459 0 0)
(0.1401610951008484 0 0)
(0.133358106341756 0 0)
(0.1257879328209967 0 0)
(0.1193231533632005 0 0)
(0.1103125195008059 0 0)
(0.1022496817725553 0 0)
(0.093049200908374 0 0)
(0.08220614128090138 0 0)
(0.07157999513627164 0 0)
(0.06145229016420641 0 0)
(0.05076015167145889 0 0)
(0.04107185887251956 0 0)
(0.03227598023196872 0 0)
(0.02507842842270366 0 0)
(0.0185538392573487 0 0)
(0.01768886785186904 0 0)
(0.01822464884615316 0 0)
(0.01956226173377888 0 0)
(0.02207592072015661 0 0)
(0.02937146737600671 0 0)
(0.03586508490516875 0 0)
(0.0437782452516326 0 0)
(0.05116937686807727 0 0)
(0.0604328793431087 0 0)
(0.0693734322056665 0 0)
(0.0801458253362393 0 0)
(0.09039269539146851 0 0)
(0.1017290837256575 0 0)
(0.1131195886640999 0 0)
(0.1241312668697361 0 0)
(0.1368136366497201 0 0)
(0.1469619132406983 0 0)
(0.156663931623106 0 0)
(0.1675695698992425 0 0)
(0.1743998052895676 0 0)
(0.1817442498619873 0 0)
(0.1905906918118182 0 0)
(0.1951795367797154 0 0)
(0.19779141528684 0 0)
(0.1993868524944704 0 0)
(0.1961740090578126 0 0)
(0.1907528149748635 0 0)
(0.1850442113816545 0 0)
(0.1761711154621323 0 0)
(0.166682343101437 0 0)
(0.1572469137543993 0 0)
(0.1508404601884428 0 0)
(0.1435521550130661 0 0)
(0.1354640712347885 0 0)
(0.1303632123045211 0 0)
(0.1211485954443067 0 0)
(0.1119419510999795 0 0)
(0.1037150380428858 0 0)
(0.09220207339712072 0 0)
(0.08094451804571082 0 0)
(0.0695212928830658 0 0)
(0.05830459240943536 0 0)
(0.0483948043213334 0 0)
(0.03735070374873958 0 0)
(0.02984187158988441 0 0)
(0.02219868915197477 0 0)
(0.01857057560360455 0 0)
(0.01805797035023465 0 0)
(0.01885664921108281 0 0)
(0.02147084611530407 0 0)
(0.02679542205605588 0 0)
(0.03158617479496674 0 0)
(0.03930783264951449 0 0)
(0.04762375107520175 0 0)
(0.05497152281270788 0 0)
(0.06521656696315409 0 0)
(0.07590762670905471 0 0)
(0.08511519986593762 0 0)
(0.09664996117768554 0 0)
(0.1100160304416924 0 0)
(0.1170010002644181 0 0)
(0.1309126921350104 0 0)
(0.1410903891071388 0 0)
(0.155916546875797 0 0)
)
;

boundaryField
{
    inlet
    {
        type            zeroGradient;
    }
    outlet
    {
        type            pressureInletOutletVelocity;
        value           uniform (0.155916546875797 0 0);
    }
    frontAndBack
    {
        type            empty;
    }
}


// ************************************************************************* //
