/*--------------------------------*- C++ -*----------------------------------*\
| =========                 |                                                 |
| \\      /  F ield         | OpenFOAM: The Open Source CFD Toolbox           |
|  \\    /   O peration     | Version:  v2012                                 |
|   \\  /    A nd           | Website:  www.openfoam.com                      |
|    \\/     M anipulation  |                                                 |
\*---------------------------------------------------------------------------*/
FoamFile
{
    version     2.0;
    format      ascii;
    class       volVectorField;
    location    "0.018";
    object      UMean;
}
// * * * * * * * * * * * * * * * * * * * * * * * * * * * * * * * * * * * * * //

dimensions      [0 1 -1 0 0 0 0];


internalField   nonuniform List<vector> 
1000
(
(-0.0005558143983485221 0 0)
(-0.0004173391272017979 0 0)
(-0.000546899453581862 0 0)
(-0.0005012600307377356 0 0)
(-0.0003838491391120311 0 0)
(-0.0004439160246208053 0 0)
(-0.0003595897227135929 0 0)
(-0.0002309435901605145 0 0)
(-0.0002783161863865712 0 0)
(-0.0001791374175884704 0 0)
(-4.530332443339924e-05 0 0)
(-5.43043043084748e-05 0 0)
(1.154747752917082e-05 0 0)
(0.0001850406549591868 0 0)
(0.0001588469663915231 0 0)
(0.000209604357547831 0 0)
(0.0003732279098612566 0 0)
(0.000383985915526243 0 0)
(0.0003667066636654959 0 0)
(0.000485054472481053 0 0)
(0.0005184383627902109 0 0)
(0.0004972042276891146 0 0)
(0.0005178603192236015 0 0)
(0.0005555357205295421 0 0)
(0.0005372209247688635 0 0)
(0.0005098844984819307 0 0)
(0.0004812516130115287 0 0)
(0.0004649399615349056 0 0)
(0.0004222236995948788 0 0)
(0.0003405714935303178 0 0)
(0.0003185439028889355 0 0)
(0.0002490236763239996 0 0)
(0.0001699465720370731 0 0)
(0.0001004361561149316 0 0)
(6.081114797755814e-05 0 0)
(-3.515350855933057e-05 0 0)
(-9.34730915733998e-05 0 0)
(-0.000143415459714936 0 0)
(-0.0002265801673294193 0 0)
(-0.0002423385682719235 0 0)
(-0.0003290871028437966 0 0)
(-0.0003738728922589923 0 0)
(-0.0003749009587138527 0 0)
(-0.0004111063066342173 0 0)
(-0.0004854667862400736 0 0)
(-0.0004322698639723915 0 0)
(-0.0004297384153269002 0 0)
(-0.0004779614586180798 0 0)
(-0.0004293161848001306 0 0)
(-0.0003633656598763363 0 0)
(-0.0003826549722466932 0 0)
(-0.000337729930538628 0 0)
(-0.0002447680025113546 0 0)
(-0.000213207808896145 0 0)
(-0.0001668943096197704 0 0)
(-6.240139890941075e-05 0 0)
(-4.65600456954234e-06 0 0)
(4.98416849606947e-05 0 0)
(0.0001474472704252483 0 0)
(0.0002068520524318216 0 0)
(0.0002862661812741458 0 0)
(0.0003580670678921546 0 0)
(0.0004182015523344924 0 0)
(0.0004837629334252887 0 0)
(0.0005605581328792809 0 0)
(0.0005831349256609861 0 0)
(0.0006240751780342371 0 0)
(0.0006807581780239841 0 0)
(0.0006962746436439957 0 0)
(0.0006902520662134066 0 0)
(0.0007074908657001455 0 0)
(0.0007062743481049603 0 0)
(0.0006825615760923358 0 0)
(0.0006535833417398958 0 0)
(0.0006283232058406003 0 0)
(0.0005842367496070361 0 0)
(0.0005260935754525856 0 0)
(0.0004804779773407184 0 0)
(0.0004274326579080002 0 0)
(0.0003460025646725815 0 0)
(0.0002840780250717989 0 0)
(0.0002450024517225048 0 0)
(0.0001650449304055914 0 0)
(9.09636031666465e-05 0 0)
(6.762698530631025e-05 0 0)
(2.652609170625348e-06 0 0)
(-6.158976144307702e-05 0 0)
(-7.68404508358981e-05 0 0)
(-0.0001325912384658704 0 0)
(-0.0001621654220702606 0 0)
(-0.0001583604693651838 0 0)
(-0.0001980231535258985 0 0)
(-0.0001943929685240495 0 0)
(-0.0001628833420825357 0 0)
(-0.0001604628697275272 0 0)
(-0.0001477482345807944 0 0)
(-8.705807959407701e-05 0 0)
(-4.142121703928907e-05 0 0)
(-1.281063838763463e-05 0 0)
(6.167555542378701e-05 0 0)
(0.0001313023998957782 0 0)
(0.0001900464763778298 0 0)
(0.0002667113908173857 0 0)
(0.0003487090960380061 0 0)
(0.0004088610713324655 0 0)
(0.0005038489203381485 0 0)
(0.0005757804379849667 0 0)
(0.0006322607905542469 0 0)
(0.0007374620035681896 0 0)
(0.0007986103863944591 0 0)
(0.0008246343785523745 0 0)
(0.0009299559382843722 0 0)
(0.0009750052016107309 0 0)
(0.0009565728868346719 0 0)
(0.00104416952429293 0 0)
(0.001082690988313105 0 0)
(0.001023710235496575 0 0)
(0.001065268403867844 0 0)
(0.001094532326667835 0 0)
(0.001021354395018009 0 0)
(0.0009901259485465771 0 0)
(0.001001942914604214 0 0)
(0.000929239364807527 0 0)
(0.0008556601230281539 0 0)
(0.0008474107461889309 0 0)
(0.0007779157172916666 0 0)
(0.0006757695491566158 0 0)
(0.0006588286367418394 0 0)
(0.0005997911132453469 0 0)
(0.0005069581320516962 0 0)
(0.0004751141964164277 0 0)
(0.0004448953070338141 0 0)
(0.0003617609871332772 0 0)
(0.0003321028024472614 0 0)
(0.0003249382735260737 0 0)
(0.0002531561034343061 0 0)
(0.0002488329083742383 0 0)
(0.0002648624071835101 0 0)
(0.0002152266496415533 0 0)
(0.0002364431170296407 0 0)
(0.0002909468565203395 0 0)
(0.0002747303996922959 0 0)
(0.000308841824520648 0 0)
(0.00039357325657369 0 0)
(0.0004220802226085913 0 0)
(0.0004581823271799489 0 0)
(0.0005742533512291049 0 0)
(0.0006227382274232788 0 0)
(0.0006792913705782655 0 0)
(0.0007875051913618099 0 0)
(0.0008681362601532766 0 0)
(0.0009055646565361953 0 0)
(0.001032833215235087 0 0)
(0.001105628119709612 0 0)
(0.00115487947510926 0 0)
(0.001250919711166345 0 0)
(0.001340004237169286 0 0)
(0.001359823221255885 0 0)
(0.00143220664790261 0 0)
(0.001513209246398126 0 0)
(0.001499375052461623 0 0)
(0.00155025333804077 0 0)
(0.001606218202630869 0 0)
(0.001575289713136535 0 0)
(0.001568463856336034 0 0)
(0.001615916674465696 0 0)
(0.00156502743453569 0 0)
(0.001507455055563057 0 0)
(0.001525161312798098 0 0)
(0.001469066362914427 0 0)
(0.001389684658029358 0 0)
(0.001367490871027698 0 0)
(0.001314945938089806 0 0)
(0.001237135337123657 0 0)
(0.001191415657689376 0 0)
(0.001146627779039507 0 0)
(0.001083582881534974 0 0)
(0.001046764284415511 0 0)
(0.001007952415655458 0 0)
(0.0009567986876814255 0 0)
(0.0009271100355818726 0 0)
(0.0009106685562583113 0 0)
(0.000882648465047938 0 0)
(0.0008686068251801693 0 0)
(0.0008761046178840848 0 0)
(0.0008711658421418195 0 0)
(0.0008924917911709468 0 0)
(0.0009269462475799934 0 0)
(0.0009504244541320946 0 0)
(0.001005607463306928 0 0)
(0.001056183670340351 0 0)
(0.001107342723819637 0 0)
(0.001187035045642341 0 0)
(0.001258831710613702 0 0)
(0.001336426400422383 0 0)
(0.001411224103699492 0 0)
(0.001498461461253699 0 0)
(0.00157866439124762 0 0)
(0.00165130327261312 0 0)
(0.001756834837431876 0 0)
(0.001819898456450911 0 0)
(0.001900991396227154 0 0)
(0.001985510488094784 0 0)
(0.002050831776382806 0 0)
(0.002105831422232371 0 0)
(0.002160968650536863 0 0)
(0.00221846017577784 0 0)
(0.002243995517305783 0 0)
(0.00227233645810433 0 0)
(0.002296772077159913 0 0)
(0.002311704552516212 0 0)
(0.00230726036597087 0 0)
(0.002290799373071663 0 0)
(0.002284897748853904 0 0)
(0.002245884252683699 0 0)
(0.002199494214997242 0 0)
(0.00217638705884541 0 0)
(0.002123552955812589 0 0)
(0.002059371374931859 0 0)
(0.002021567245421934 0 0)
(0.001965240182135007 0 0)
(0.001902214628757492 0 0)
(0.001865532066951729 0 0)
(0.001813072059353148 0 0)
(0.001775266360395684 0 0)
(0.001741505541183109 0 0)
(0.001700593471871391 0 0)
(0.001677636667149887 0 0)
(0.001669590507424933 0 0)
(0.001637684746391357 0 0)
(0.001639268827947015 0 0)
(0.001656472054143263 0 0)
(0.001662511185680832 0 0)
(0.001686023968097838 0 0)
(0.001730194743370443 0 0)
(0.001775913682167951 0 0)
(0.001819049326962516 0 0)
(0.00188674427606299 0 0)
(0.001948057179424568 0 0)
(0.002036316550253363 0 0)
(0.002110152965846063 0 0)
(0.002191516070709242 0 0)
(0.002277275984222709 0 0)
(0.002371443723548905 0 0)
(0.002432597267051155 0 0)
(0.002543061311429836 0 0)
(0.002626587761125132 0 0)
(0.002693982755482854 0 0)
(0.002794383314996188 0 0)
(0.00285941557126561 0 0)
(0.002926202833450262 0 0)
(0.002991346671472836 0 0)
(0.00305656402865386 0 0)
(0.003081693808544081 0 0)
(0.003123832775336224 0 0)
(0.003160834014908359 0 0)
(0.003175716306273923 0 0)
(0.00318524592173541 0 0)
(0.003179462841931336 0 0)
(0.003179736481233421 0 0)
(0.003149507498692724 0 0)
(0.003117417696057661 0 0)
(0.003080672150581774 0 0)
(0.003063471005700602 0 0)
(0.00299145718491281 0 0)
(0.002940946082699938 0 0)
(0.00292386850763553 0 0)
(0.002840435101815861 0 0)
(0.002798520446617771 0 0)
(0.002782542055600699 0 0)
(0.002716567325261955 0 0)
(0.002687751588253609 0 0)
(0.002671695205916482 0 0)
(0.002630627358080702 0 0)
(0.002616376110335139 0 0)
(0.002614004961175336 0 0)
(0.002599824065542971 0 0)
(0.002603884096914662 0 0)
(0.002629527541908956 0 0)
(0.002642502631736532 0 0)
(0.002684070939121305 0 0)
(0.002731163053205995 0 0)
(0.00278507834012985 0 0)
(0.002833649651111749 0 0)
(0.002914650762032034 0 0)
(0.002990103753500121 0 0)
(0.003065311174849507 0 0)
(0.003153473266260168 0 0)
(0.00324657115416899 0 0)
(0.00332445908179636 0 0)
(0.003411472193368224 0 0)
(0.003501891870105852 0 0)
(0.003593228329451393 0 0)
(0.00367102473721664 0 0)
(0.00376217775517205 0 0)
(0.003845524106394407 0 0)
(0.00390487615118953 0 0)
(0.003986154638580777 0 0)
(0.004044448207904915 0 0)
(0.004083867324687966 0 0)
(0.004133194914587098 0 0)
(0.004169401225250292 0 0)
(0.004188188813094617 0 0)
(0.004205006831655422 0 0)
(0.004221388585193024 0 0)
(0.004204702467535578 0 0)
(0.004194631907735675 0 0)
(0.004168963135120616 0 0)
(0.004147061618079632 0 0)
(0.004095072987717911 0 0)
(0.004064134872801125 0 0)
(0.004023250468992393 0 0)
(0.003967106193373495 0 0)
(0.003922792704078508 0 0)
(0.003860215600062413 0 0)
(0.003845574181733317 0 0)
(0.003801559359254851 0 0)
(0.003747277626194103 0 0)
(0.00373520347511359 0 0)
(0.003717016884699732 0 0)
(0.003685323630078677 0 0)
(0.003671494825926834 0 0)
(0.003690037770968276 0 0)
(0.003673562805608747 0 0)
(0.003690796263670783 0 0)
(0.003711711486419495 0 0)
(0.003769605654597544 0 0)
(0.003792346308263299 0 0)
(0.00385513258748709 0 0)
(0.003916187595267902 0 0)
(0.003977933811072843 0 0)
(0.004064298240278662 0 0)
(0.004142658995590541 0 0)
(0.004240925449161092 0 0)
(0.004323807947649071 0 0)
(0.004416690322248071 0 0)
(0.004511436978084043 0 0)
(0.00461302913737863 0 0)
(0.004683849514150906 0 0)
(0.004788001991013416 0 0)
(0.00488233021492496 0 0)
(0.004968909738044292 0 0)
(0.005043906204172222 0 0)
(0.005120769206070904 0 0)
(0.0051920837203773 0 0)
(0.005252009599834004 0 0)
(0.005293458591114516 0 0)
(0.005350183383994836 0 0)
(0.005369009088042559 0 0)
(0.005397977170282688 0 0)
(0.005428842744345667 0 0)
(0.005428486370088618 0 0)
(0.005409435959896365 0 0)
(0.00541543259772807 0 0)
(0.005382058036275205 0 0)
(0.005359790145568338 0 0)
(0.005327719749155928 0 0)
(0.005292638236451565 0 0)
(0.005232758015882712 0 0)
(0.005219201380797292 0 0)
(0.005159053004410187 0 0)
(0.005112006154015811 0 0)
(0.005102316150508147 0 0)
(0.005052982673403398 0 0)
(0.005030272163185985 0 0)
(0.005025792833681402 0 0)
(0.004995751281086635 0 0)
(0.004975670765077158 0 0)
(0.005010069016155452 0 0)
(0.004991188853087294 0 0)
(0.004993679179797407 0 0)
(0.005043687720299854 0 0)
(0.005067618553637993 0 0)
(0.005100766596161023 0 0)
(0.00518059789481143 0 0)
(0.005233975484766723 0 0)
(0.005287606623476032 0 0)
(0.005380317589537125 0 0)
(0.005471280825420351 0 0)
(0.005545377733073772 0 0)
(0.005662905355709499 0 0)
(0.00574549854419378 0 0)
(0.005838860552590209 0 0)
(0.005934234153681365 0 0)
(0.006046049133576231 0 0)
(0.006119265610885184 0 0)
(0.006218391380818185 0 0)
(0.006328573869122715 0 0)
(0.006400473837660844 0 0)
(0.006476341895032785 0 0)
(0.006569421973029141 0 0)
(0.006626549363284971 0 0)
(0.006674043582163348 0 0)
(0.006740264840463805 0 0)
(0.006769452468329452 0 0)
(0.006805382792060981 0 0)
(0.006830033520045947 0 0)
(0.006841846362688497 0 0)
(0.006863917853985308 0 0)
(0.006836194976143956 0 0)
(0.006817234415624047 0 0)
(0.006831214667129015 0 0)
(0.00677686671437863 0 0)
(0.006745225580394094 0 0)
(0.006742811925498316 0 0)
(0.006666129008760042 0 0)
(0.006649144852107012 0 0)
(0.00661409541112392 0 0)
(0.006580808347376938 0 0)
(0.006541079733793744 0 0)
(0.006534816602953008 0 0)
(0.006524750000883687 0 0)
(0.006488242144429678 0 0)
(0.006495432078268895 0 0)
(0.006507378626044218 0 0)
(0.006490309093543046 0 0)
(0.006517938044331819 0 0)
(0.006549673887530514 0 0)
(0.006564744646513986 0 0)
(0.006609553253891873 0 0)
(0.006695373509289669 0 0)
(0.006738732478622464 0 0)
(0.006796260739847016 0 0)
(0.006888938644057219 0 0)
(0.006980455254917186 0 0)
(0.007051068120426336 0 0)
(0.007165555267271035 0 0)
(0.007274264829391584 0 0)
(0.007342581029413237 0 0)
(0.007457138385026336 0 0)
(0.007562949419148982 0 0)
(0.007636717235731483 0 0)
(0.007752589675879504 0 0)
(0.00784422329929315 0 0)
(0.007941986702845521 0 0)
(0.008006800927710814 0 0)
(0.0081053768742323 0 0)
(0.008179626665265012 0 0)
(0.008228501693890019 0 0)
(0.008287752936688956 0 0)
(0.008344477349357502 0 0)
(0.008366569650030306 0 0)
(0.008398326586211157 0 0)
(0.008430585476536637 0 0)
(0.0084364275545012 0 0)
(0.00842513072757215 0 0)
(0.008438572670649394 0 0)
(0.008406897718359108 0 0)
(0.008374709218792537 0 0)
(0.008376958866684584 0 0)
(0.008327644567223704 0 0)
(0.008284884376640584 0 0)
(0.008267083957921558 0 0)
(0.00822231161758174 0 0)
(0.008185714977789858 0 0)
(0.008166949968648045 0 0)
(0.008136734562749385 0 0)
(0.008127106520951779 0 0)
(0.00810736130627473 0 0)
(0.008100750528274071 0 0)
(0.00811417928462101 0 0)
(0.008108737664810777 0 0)
(0.008117810164960111 0 0)
(0.008152615263250297 0 0)
(0.008187103647008115 0 0)
(0.00821572729324894 0 0)
(0.008272210887618633 0 0)
(0.008362462126356392 0 0)
(0.008406869018019549 0 0)
(0.008478249815474851 0 0)
(0.008589348375150217 0 0)
(0.008669107718605353 0 0)
(0.008756947060325766 0 0)
(0.008878142268579659 0 0)
(0.008979735121002558 0 0)
(0.009055157891584483 0 0)
(0.00919728283830235 0 0)
(0.009267302441379053 0 0)
(0.009367200591729406 0 0)
(0.009481107127096279 0 0)
(0.009570324560685874 0 0)
(0.009665625976944573 0 0)
(0.009748968166211767 0 0)
(0.009826741031939902 0 0)
(0.009905218004715662 0 0)
(0.009954230414628703 0 0)
(0.01001510514500217 0 0)
(0.01006239533744658 0 0)
(0.01007684520266327 0 0)
(0.01011027189631135 0 0)
(0.01016064412853545 0 0)
(0.01014274786704877 0 0)
(0.01012135020357699 0 0)
(0.01015419944919336 0 0)
(0.01011717149763205 0 0)
(0.01006947050227221 0 0)
(0.01008752949023768 0 0)
(0.0100437819667729 0 0)
(0.00998352712970651 0 0)
(0.009972137567841486 0 0)
(0.009948112265334198 0 0)
(0.009892816364355283 0 0)
(0.009870618858495942 0 0)
(0.009875637002292385 0 0)
(0.009845350922214726 0 0)
(0.009819508882546922 0 0)
(0.009848756936371827 0 0)
(0.009839067499610601 0 0)
(0.009818942073750272 0 0)
(0.0098672477805045 0 0)
(0.009891269975410266 0 0)
(0.009898507970548321 0 0)
(0.009957038301157184 0 0)
(0.01001224532548489 0 0)
(0.01007943456586888 0 0)
(0.01013617893010699 0 0)
(0.01020543739871175 0 0)
(0.01029274630655687 0 0)
(0.01039633531268539 0 0)
(0.01046799790371763 0 0)
(0.01058083067688081 0 0)
(0.01068556648713397 0 0)
(0.01075313244047284 0 0)
(0.01085921175055192 0 0)
(0.01097169650453537 0 0)
(0.01103891167647803 0 0)
(0.01115171187363062 0 0)
(0.01124688660176802 0 0)
(0.01132149415519147 0 0)
(0.0114111843012733 0 0)
(0.01149835694592606 0 0)
(0.011543035113058 0 0)
(0.01160552586319116 0 0)
(0.01167801243979788 0 0)
(0.01169404918251055 0 0)
(0.01174102578819296 0 0)
(0.01178646759632573 0 0)
(0.01181124746584097 0 0)
(0.01181285870292267 0 0)
(0.01182143944311629 0 0)
(0.01182869790543234 0 0)
(0.0118208446369387 0 0)
(0.01181410063419406 0 0)
(0.0118033763192628 0 0)
(0.01178772872128135 0 0)
(0.01176276038642009 0 0)
(0.0117477137856579 0 0)
(0.01172132167463031 0 0)
(0.0116987700730058 0 0)
(0.01170740913617572 0 0)
(0.01170106113191586 0 0)
(0.01167122673379086 0 0)
(0.01168733624948381 0 0)
(0.01171129608884271 0 0)
(0.01168786189308353 0 0)
(0.01170389782779406 0 0)
(0.01175893062051694 0 0)
(0.01174426423693892 0 0)
(0.01178919725838329 0 0)
(0.01186775791254896 0 0)
(0.01190724997401141 0 0)
(0.01193539958571702 0 0)
(0.01205774064440059 0 0)
(0.01210298594306952 0 0)
(0.01216536084121816 0 0)
(0.01228444829524299 0 0)
(0.01237429981247556 0 0)
(0.01244443166790944 0 0)
(0.01255732799890947 0 0)
(0.01264854291419117 0 0)
(0.01272221762315714 0 0)
(0.01281867153244673 0 0)
(0.01292827724865704 0 0)
(0.01300184938457108 0 0)
(0.01309422543180272 0 0)
(0.01319729390090714 0 0)
(0.01325052474892893 0 0)
(0.01332407014683027 0 0)
(0.0134065412291187 0 0)
(0.01345036719400552 0 0)
(0.01347162596677732 0 0)
(0.01353508133052853 0 0)
(0.01358406398037141 0 0)
(0.01359813610723797 0 0)
(0.01360640565002281 0 0)
(0.01362659588040661 0 0)
(0.01363502045200464 0 0)
(0.01361589003898464 0 0)
(0.01360328292066876 0 0)
(0.01362798642304464 0 0)
(0.01357951940357421 0 0)
(0.01355877456086443 0 0)
(0.01354442951493223 0 0)
(0.01352822080050032 0 0)
(0.01347416277405307 0 0)
(0.01348518487461991 0 0)
(0.01348242514765606 0 0)
(0.01344733504782258 0 0)
(0.01345050856831503 0 0)
(0.01347365316186536 0 0)
(0.01344844896434259 0 0)
(0.0134629945655738 0 0)
(0.01349420699356235 0 0)
(0.01350342155211521 0 0)
(0.01351273853907871 0 0)
(0.01359180737028185 0 0)
(0.01363083180680917 0 0)
(0.01366649784885103 0 0)
(0.01374660200556997 0 0)
(0.01382259389507558 0 0)
(0.01387638809991649 0 0)
(0.01397285785736451 0 0)
(0.01406689229901884 0 0)
(0.01415440952949557 0 0)
(0.01424288229724476 0 0)
(0.01433131207296709 0 0)
(0.01442032969303828 0 0)
(0.01450550826116165 0 0)
(0.01458990815722028 0 0)
(0.01470225402661584 0 0)
(0.01477443858111542 0 0)
(0.01485257414912517 0 0)
(0.0149527851547695 0 0)
(0.01501418425258248 0 0)
(0.01506728761807083 0 0)
(0.01513812134235857 0 0)
(0.01518746107619167 0 0)
(0.01520817307151124 0 0)
(0.01526546025862584 0 0)
(0.01529848637527644 0 0)
(0.01531101449972436 0 0)
(0.01532222660316657 0 0)
(0.01533551932382466 0 0)
(0.01531172464721192 0 0)
(0.01533265936221543 0 0)
(0.01529990325115997 0 0)
(0.01529609759194348 0 0)
(0.01528472662056791 0 0)
(0.01524241689678092 0 0)
(0.01521875406906489 0 0)
(0.01520978740442182 0 0)
(0.01516518351404155 0 0)
(0.01517853836436232 0 0)
(0.01516389792965205 0 0)
(0.01515013092742329 0 0)
(0.01515222563730814 0 0)
(0.01515858116190803 0 0)
(0.01517076566693088 0 0)
(0.01517264724645035 0 0)
(0.01519762879320725 0 0)
(0.01523178149855699 0 0)
(0.01525258629611465 0 0)
(0.01532535946431379 0 0)
(0.01537262514668314 0 0)
(0.01542395806877267 0 0)
(0.01551430228236945 0 0)
(0.01556605916345538 0 0)
(0.01565593381972433 0 0)
(0.01575524288048943 0 0)
(0.01584025734736091 0 0)
(0.01593775206114997 0 0)
(0.01603311101106333 0 0)
(0.01611807710858943 0 0)
(0.01620722868116717 0 0)
(0.01629326985555554 0 0)
(0.01639711969935954 0 0)
(0.01648873826840663 0 0)
(0.01657258526374278 0 0)
(0.01666133915923634 0 0)
(0.01673350770254663 0 0)
(0.01680333948049275 0 0)
(0.01687430528154437 0 0)
(0.01691376453581021 0 0)
(0.01696617067754388 0 0)
(0.0170038150396476 0 0)
(0.01704995574185528 0 0)
(0.01707291527519725 0 0)
(0.01708432864404797 0 0)
(0.01710595684150194 0 0)
(0.0170928010068707 0 0)
(0.0170977271914548 0 0)
(0.01709436835393597 0 0)
(0.01709138557172568 0 0)
(0.01706910891979942 0 0)
(0.01704836882545677 0 0)
(0.01703649573930802 0 0)
(0.01701111408666154 0 0)
(0.01696781357018548 0 0)
(0.01698021588267488 0 0)
(0.01698602823735826 0 0)
(0.0169555538069781 0 0)
(0.01696075907313429 0 0)
(0.01697780597873853 0 0)
(0.01697740419455964 0 0)
(0.01697633281937968 0 0)
(0.01701714638864647 0 0)
(0.01703207189444005 0 0)
(0.01705414636462593 0 0)
(0.01711558305914925 0 0)
(0.01717610631135884 0 0)
(0.01721408896442649 0 0)
(0.01728936763577942 0 0)
(0.01736138095660596 0 0)
(0.01743715799524254 0 0)
(0.01753203630822735 0 0)
(0.0176108797039675 0 0)
(0.01772257925912111 0 0)
(0.01781091875797628 0 0)
(0.01789771220878313 0 0)
(0.01798242795849693 0 0)
(0.01806760379539489 0 0)
(0.01816492891706415 0 0)
(0.01827222943145572 0 0)
(0.01833260214935214 0 0)
(0.01845019476105177 0 0)
(0.01851512425235674 0 0)
(0.01858019655967454 0 0)
(0.01864776624217105 0 0)
(0.01872455243566445 0 0)
(0.01874144845481089 0 0)
(0.01880207808141554 0 0)
(0.01885433534615436 0 0)
(0.01886158240998379 0 0)
(0.0188911444675857 0 0)
(0.01891542675264394 0 0)
(0.01890784789540221 0 0)
(0.0188892523622877 0 0)
(0.01893360059439765 0 0)
(0.01887870176571494 0 0)
(0.01887505387147782 0 0)
(0.01889055358416798 0 0)
(0.0188334906920776 0 0)
(0.01881808773486581 0 0)
(0.01879087078064132 0 0)
(0.01878268468072842 0 0)
(0.01876148394951333 0 0)
(0.01876540360680001 0 0)
(0.0187579768498397 0 0)
(0.01876987329551266 0 0)
(0.0187591865073935 0 0)
(0.01875738904420255 0 0)
(0.01880567367669285 0 0)
(0.01881034884646195 0 0)
(0.01881875402762281 0 0)
(0.01887526095063041 0 0)
(0.01894901286780684 0 0)
(0.01897689084628636 0 0)
(0.01901607795729881 0 0)
(0.01913852443925206 0 0)
(0.01918010331353289 0 0)
(0.01925452546021247 0 0)
(0.01936806857409114 0 0)
(0.01946405365254547 0 0)
(0.01952221372078581 0 0)
(0.01965102969162063 0 0)
(0.01973467725931492 0 0)
(0.01979681312981024 0 0)
(0.01988982975252924 0 0)
(0.02001868734674517 0 0)
(0.02007439310644306 0 0)
(0.02016114108381822 0 0)
(0.02027547689218535 0 0)
(0.02033009697711434 0 0)
(0.02036370229261058 0 0)
(0.02048323118510804 0 0)
(0.02050600277018874 0 0)
(0.02053148455267785 0 0)
(0.02060252451162438 0 0)
(0.02064326899125199 0 0)
(0.02063884083375143 0 0)
(0.02066983867950131 0 0)
(0.02069174758607592 0 0)
(0.02067638624672748 0 0)
(0.02066955086537338 0 0)
(0.02068207955142777 0 0)
(0.02066150205339715 0 0)
(0.02063915808221615 0 0)
(0.02063534800626363 0 0)
(0.02060857968683781 0 0)
(0.02057499494585572 0 0)
(0.02054131220955936 0 0)
(0.02056401634112355 0 0)
(0.02051997037987853 0 0)
(0.02052933640987751 0 0)
(0.02055136359390243 0 0)
(0.02053211353514529 0 0)
(0.02054345484492867 0 0)
(0.02057429750802702 0 0)
(0.02057077850427284 0 0)
(0.02060777958249184 0 0)
(0.02065345621081326 0 0)
(0.02070369343950588 0 0)
(0.02074367455014368 0 0)
(0.02082286818810803 0 0)
(0.02088759959752744 0 0)
(0.02096091482303472 0 0)
(0.02103086850345698 0 0)
(0.02114635440550495 0 0)
(0.02122440340626349 0 0)
(0.02132424119365343 0 0)
(0.02141770693976324 0 0)
(0.02152684228379416 0 0)
(0.02160042528514393 0 0)
(0.02168169068742285 0 0)
(0.02179980919343722 0 0)
(0.02188359292598835 0 0)
(0.02196339379440346 0 0)
(0.0220626815960449 0 0)
(0.02216109399544149 0 0)
(0.02220510910820211 0 0)
(0.0222815602683021 0 0)
(0.02235084660521351 0 0)
(0.02237154749689826 0 0)
(0.02243829610705536 0 0)
(0.02248121583164771 0 0)
(0.02250804401309472 0 0)
(0.02252224071920959 0 0)
(0.02255039576974243 0 0)
(0.02255296084708409 0 0)
(0.02254688358076387 0 0)
(0.02254714829008566 0 0)
(0.02255183417598065 0 0)
(0.02253126012065066 0 0)
(0.0225225423145829 0 0)
(0.02250630549636752 0 0)
(0.02248228703612233 0 0)
(0.02246500719276212 0 0)
(0.02244378200926129 0 0)
(0.02243628629931197 0 0)
(0.02244269288294294 0 0)
(0.02243628071439414 0 0)
(0.02244831624721665 0 0)
(0.02246435659654312 0 0)
(0.02246927796244562 0 0)
(0.02248225813150695 0 0)
(0.02251552221217715 0 0)
(0.02253949454418398 0 0)
(0.02259647140927372 0 0)
(0.02264676595523168 0 0)
(0.02269283204005274 0 0)
(0.02277323835567606 0 0)
(0.0228398904960601 0 0)
(0.02291356078688212 0 0)
(0.02300839612268734 0 0)
(0.02309383441712869 0 0)
(0.02319583206925516 0 0)
(0.02329088097734347 0 0)
(0.02339071264271753 0 0)
(0.02346496047034837 0 0)
(0.02356656138634999 0 0)
(0.02365816793615035 0 0)
(0.02374673931217167 0 0)
(0.02383857904619553 0 0)
(0.02392307720051924 0 0)
(0.02403203524682884 0 0)
(0.02408290085442938 0 0)
(0.02416514599244219 0 0)
(0.02422817504028299 0 0)
(0.024265090727794 0 0)
(0.02430518437788864 0 0)
(0.02436551008235218 0 0)
(0.02439834966858855 0 0)
(0.02441984135843528 0 0)
(0.02443764951486104 0 0)
(0.02445919156328862 0 0)
(0.02446110972612748 0 0)
(0.024443827181085 0 0)
(0.02445508583158585 0 0)
(0.02445321129171723 0 0)
(0.02441741608236798 0 0)
(0.02444131101517145 0 0)
(0.02437842700328247 0 0)
(0.0243632693051967 0 0)
(0.02435295227971557 0 0)
(0.02434312750590583 0 0)
(0.02432166899919781 0 0)
(0.02431895239294618 0 0)
(0.02434008480271212 0 0)
(0.02433702770545648 0 0)
(0.02434305936137357 0 0)
(0.02438020653784929 0 0)
(0.02438510972760434 0 0)
(0.02439483411516305 0 0)
(0.02445952460329442 0 0)
(0.02450805192980373 0 0)
(0.02455842005020951 0 0)
(0.02460792071701872 0 0)
(0.02470743445378995 0 0)
(0.02477181453376994 0 0)
(0.02482861584286033 0 0)
(0.02495023004060114 0 0)
(0.02503093585361986 0 0)
(0.02511593251732136 0 0)
(0.02523782069388595 0 0)
(0.02532281071683899 0 0)
(0.0253739348935051 0 0)
(0.02549012717160557 0 0)
(0.02558936282320306 0 0)
(0.02566390675437007 0 0)
(0.02574060978881315 0 0)
(0.0258628189172313 0 0)
(0.02590936132861156 0 0)
(0.02599186576318845 0 0)
(0.02606909606744704 0 0)
(0.02612393286114542 0 0)
(0.02612389998889441 0 0)
(0.02620519051035181 0 0)
(0.02623709765307768 0 0)
(0.02626486097890821 0 0)
(0.02627410185427335 0 0)
(0.02630392388231731 0 0)
(0.0263001847958282 0 0)
(0.0263108080482275 0 0)
(0.02629655961519773 0 0)
(0.02630103115874115 0 0)
(0.02627479981630639 0 0)
(0.02629019446107874 0 0)
(0.02626225650904654 0 0)
(0.02620417766911055 0 0)
(0.02620798976543986 0 0)
(0.02618798131088414 0 0)
(0.02616758899548228 0 0)
(0.02618572642978747 0 0)
(0.02616835945245853 0 0)
(0.02616456214668348 0 0)
(0.02619244456510182 0 0)
(0.02623090745669379 0 0)
(0.02621878519633033 0 0)
(0.02625379214273603 0 0)
(0.02629643738458788 0 0)
(0.02634085167883263 0 0)
(0.02639703540054085 0 0)
(0.02647290004775496 0 0)
(0.02651209854377656 0 0)
(0.02661321446314534 0 0)
(0.02669172197351391 0 0)
(0.02677658171909713 0 0)
(0.02687165938326572 0 0)
(0.02696832171648127 0 0)
(0.02706766454759949 0 0)
(0.0271859808448232 0 0)
(0.02725293220430128 0 0)
(0.02732981565089744 0 0)
(0.0274433283437407 0 0)
(0.02754497724080214 0 0)
(0.02761079867354745 0 0)
(0.02773346771472716 0 0)
(0.02779174068756856 0 0)
(0.02786761669420646 0 0)
(0.02796574730552832 0 0)
(0.02801169481544399 0 0)
(0.02808354613128667 0 0)
(0.02809923482753729 0 0)
(0.02814984209343435 0 0)
(0.02820149989455776 0 0)
(0.02821833011580321 0 0)
(0.02822704455593255 0 0)
(0.0282618885820277 0 0)
(0.02824642345452122 0 0)
(0.0282560480034324 0 0)
(0.0282799737048089 0 0)
(0.02823809434621066 0 0)
(0.02824635249629379 0 0)
(0.0282486078193402 0 0)
(0.0282443906486696 0 0)
(0.02815630569341006 0 0)
(0.02819739298460752 0 0)
(0.02816127581106671 0 0)
(0.02816905392762253 0 0)
(0.0281882283926971 0 0)
(0.02816414606302121 0 0)
(0.02817759636414047 0 0)
(0.02822064263551842 0 0)
(0.02821800998762404 0 0)
(0.0282694751886463 0 0)
(0.02830064743104431 0 0)
(0.02831136522940184 0 0)
(0.02841088907115263 0 0)
(0.02844895388948672 0 0)
(0.02851817539886083 0 0)
(0.02858561585152255 0 0)
(0.02866936229463878 0 0)
(0.02877337021454332 0 0)
(0.02885253046055499 0 0)
(0.02894499065312264 0 0)
(0.02904285024836403 0 0)
(0.02916092345858442 0 0)
(0.0292557305827056 0 0)
(0.02929871137186648 0 0)
(0.02935837086589172 0 0)
(0.02958376722042248 0 0)
(0.02952821186201784 0 0)
(0.02969537164636319 0 0)
(0.02982504493871399 0 0)
(0.02978961987254103 0 0)
(0.02992110287409613 0 0)
(0.03011301478930597 0 0)
(0.02984302295276053 0 0)
(0.03010780142056564 0 0)
(0.03031716003342938 0 0)
)
;

boundaryField
{
    inlet
    {
        type            calculated;
        value           uniform (-0.0005558143983485221 0 0);
    }
    outlet
    {
        type            calculated;
        value           uniform (0.03031716003342938 0 0);
    }
    frontAndBack
    {
        type            empty;
    }
}


// ************************************************************************* //
