/*--------------------------------*- C++ -*----------------------------------*\
| =========                 |                                                 |
| \\      /  F ield         | OpenFOAM: The Open Source CFD Toolbox           |
|  \\    /   O peration     | Version:  v2012                                 |
|   \\  /    A nd           | Website:  www.openfoam.com                      |
|    \\/     M anipulation  |                                                 |
\*---------------------------------------------------------------------------*/
FoamFile
{
    version     2.0;
    format      ascii;
    class       volVectorField;
    location    "0.004";
    object      U;
}
// * * * * * * * * * * * * * * * * * * * * * * * * * * * * * * * * * * * * * //

dimensions      [0 1 -1 0 0 0 0];


internalField   nonuniform List<vector> 
100
(
(4.64682e-13 0 0)
(4.96499e-13 0 0)
(-1.17569e-14 0 0)
(-4.18679e-13 0 0)
(-1.47054e-13 0 0)
(2.06982e-13 0 0)
(4.63061e-13 0 0)
(-3.48006e-14 0 0)
(-4.48593e-13 0 0)
(-4.10199e-13 0 0)
(-8.87365e-13 0 0)
(-1.60616e-12 0 0)
(-3.77566e-13 0 0)
(7.19668e-13 0 0)
(5.03474e-13 0 0)
(-2.12421e-13 0 0)
(-1.03709e-12 0 0)
(-7.89971e-14 0 0)
(8.11811e-13 0 0)
(5.24019e-13 0 0)
(-2.50807e-13 0 0)
(-1.07376e-12 0 0)
(-9.50594e-14 0 0)
(1.15675e-12 0 0)
(1.38812e-12 0 0)
(8.08129e-13 0 0)
(-3.12147e-13 0 0)
(-7.46783e-13 0 0)
(4.47238e-12 0 0)
(6.49387e-08 0 0)
(8.15997e-05 0 0)
(0.0129773 0 0)
(0.378419 0 0)
(3.09592 0 0)
(10.9282 0 0)
(23.6341 0 0)
(39.1747 0 0)
(56.1123 0 0)
(73.7855 0 0)
(91.9059 0 0)
(110.336 0 0)
(129.007 0 0)
(147.887 0 0)
(166.968 0 0)
(186.258 0 0)
(205.757 0 0)
(225.451 0 0)
(245.166 0 0)
(264.525 0 0)
(282.096 0 0)
(294.334 0 0)
(297.308 0 0)
(292.365 0 0)
(292.838 0 0)
(293.273 0 0)
(293.331 0 0)
(293.333 0 0)
(293.32 0 0)
(293.401 0 0)
(293.557 0 0)
(293.71 0 0)
(293.867 0 0)
(294.38 0 0)
(294.74 0 0)
(292.521 0 0)
(291.905 0 0)
(292.623 0 0)
(293.556 0 0)
(294.715 0 0)
(294.469 0 0)
(290.261 0 0)
(262.559 0 0)
(157.033 0 0)
(23.7575 0 0)
(0.343843 0 0)
(0.000344225 0 0)
(1.75094e-08 0 0)
(8.01323e-13 0 0)
(-2.17424e-13 0 0)
(8.22387e-14 0 0)
(2.0544e-13 0 0)
(-2.00442e-13 0 0)
(-5.27853e-14 0 0)
(-4.06583e-14 0 0)
(1.21756e-13 0 0)
(2.30835e-13 0 0)
(-1.77078e-13 0 0)
(-1.73657e-13 0 0)
(-8.29548e-13 0 0)
(-1.82243e-12 0 0)
(-1.29941e-12 0 0)
(-7.1804e-13 0 0)
(-9.6964e-13 0 0)
(-1.16483e-13 0 0)
(8.7193e-13 0 0)
(6.21877e-13 0 0)
(8.01065e-14 0 0)
(-6.56103e-13 0 0)
(4.01899e-13 0 0)
(1.73045e-12 0 0)
)
;

boundaryField
{
    sides
    {
        type            zeroGradient;
    }
    empty
    {
        type            empty;
    }
}


// ************************************************************************* //
