/*--------------------------------*- C++ -*----------------------------------*\
| =========                 |                                                 |
| \\      /  F ield         | OpenFOAM: The Open Source CFD Toolbox           |
|  \\    /   O peration     | Version:  v2012                                 |
|   \\  /    A nd           | Website:  www.openfoam.com                      |
|    \\/     M anipulation  |                                                 |
\*---------------------------------------------------------------------------*/
FoamFile
{
    version     2.0;
    format      ascii;
    class       volScalarField;
    location    "0.019";
    object      p;
}
// * * * * * * * * * * * * * * * * * * * * * * * * * * * * * * * * * * * * * //

dimensions      [1 -1 -2 0 0 0 0];


internalField   nonuniform List<scalar> 
1000
(
101310.001078678
101308.4112474829
101298.5464748773
101289.8897689807
101281.0867370785
101272.9272739383
101265.9545402673
101260.6681616475
101256.7136687424
101253.6472399203
101252.0681835955
101252.0341874209
101253.153281681
101255.4062361072
101258.9087446522
101263.6141173776
101269.3592373969
101275.9516302606
101283.2370815765
101291.0941301309
101299.3966187514
101307.9999436545
101316.7586654842
101325.5421349065
101334.2528893308
101342.8382137436
101351.1886717001
101359.1736799908
101366.788024484
101373.5220521312
101378.7073792703
101383.2600299664
101386.8282860592
101389.369956169
101390.654002212
101390.6482636354
101389.5510238113
101387.2340522723
101383.5465772368
101378.4726119362
101372.1157995655
101364.6347633389
101356.2105053734
101347.0405577519
101337.3273210175
101327.2683274245
101317.0477181274
101306.8153401369
101296.7159379818
101286.9441962539
101277.6630748831
101269.0934977817
101261.8964556516
101256.5758940581
101252.5507549594
101249.3899219905
101247.4724107082
101246.8656272215
101247.4453318561
101248.9588081384
101251.6317358799
101255.5633144008
101260.7240135108
101266.9703095855
101274.1058575572
101281.9259186574
101290.2346848254
101298.8574658529
101307.6495418308
101316.491962017
101325.2968174812
101334.0182961818
101342.5417210812
101350.6683401035
101358.3897713994
101365.3194347486
101370.6522381894
101375.2851206706
101379.0385705623
101381.784534008
101383.5079573681
101384.052105501
101383.3908566733
101381.7072232271
101378.7442750335
101374.3971399811
101368.6804019572
101361.7021729598
101353.6248748314
101344.6469315254
101334.9898047646
101324.8807175325
101314.5341933192
101304.1250911225
101293.8049520434
101283.7768644854
101274.240159419
101265.4004565566
101257.8494058227
101252.1676183538
101247.9787355032
101244.5756241059
101242.2746319574
101241.2399042947
101241.4398820775
101242.5016064529
101244.5771888903
101247.8116498043
101252.2649806084
101257.8852788837
101264.5405556125
101272.0566805502
101280.2388723126
101288.883159389
101297.790502291
101306.7887627473
101315.7550200392
101324.6199778202
101333.2834394889
101341.5517318304
101349.3697940134
101356.5081658183
101362.1513942869
101366.8528762933
101370.7856735929
101373.7766944455
101375.8548244841
101376.8039672582
101376.5600242969
101375.3483395898
101372.9883121928
101369.3238129145
101364.3050978674
101357.9815994711
101350.4591587309
101341.8912123741
101332.4817863958
101322.467267445
101312.0891850513
101301.5623575344
101291.0684806575
101280.8274681342
101271.0799974272
101262.0202871729
101254.1093437702
101248.0299644396
101243.6402994168
101240.0146981659
101237.4247009714
101236.0453582176
101235.8225304719
101236.5407867491
101238.1620347949
101240.8533579888
101244.7081977226
101249.7317317555
101255.8458956527
101262.9268259586
101270.8196354067
101279.3345961671
101288.2583113947
101297.3874628448
101306.5516904289
101315.6214807909
101324.4881138866
101332.9683084365
101340.9077028299
101348.2042183383
101354.2529811642
101358.94067184
101363.046128837
101366.2551558624
101368.5587457326
101369.8141968488
101369.9745348751
101369.1247665092
101367.2475158434
101364.1583051605
101359.7715272472
101354.0814581521
101347.1488592368
101339.0890515965
101330.0713749483
101320.3059228558
101310.0273356335
101299.4733704999
101288.8582278892
101278.4153222229
101268.4251911128
101259.1109301231
101250.8277549157
101244.287397296
101239.6317862545
101235.8147366761
101232.9752438526
101231.200988513
101230.5628184618
101230.9951031633
101232.219527189
101234.4269038927
101237.7367353982
101242.1916432701
101247.7562806661
101254.3475855067
101261.847451961
101270.0959977319
101278.897698829
101288.0458829202
101297.3398282987
101306.6055998251
101315.7123134779
101324.4642944221
101332.6207047632
101340.1369395398
101346.586819538
101351.3955936995
101355.6029222057
101358.9730554473
101361.4366832928
101362.9987364478
101363.5059481915
101362.9361510551
101361.4734516795
101358.8900826227
101355.0657433641
101349.9612434776
101343.6083882542
101336.0898566262
101327.5343717033
101318.1156767431
101308.0481383273
101297.5713849559
101286.9154240593
101276.3171256056
101266.082170035
101256.4901470173
101247.8217478983
101240.7576993469
101235.7335425887
101231.7768158689
101228.6764182164
101226.5619555269
101225.573676138
101225.6677285188
101226.5515843322
101228.3340147516
101231.1513918585
101235.0811020642
101240.1209952239
101246.2163497582
101253.2780933198
101261.1797599156
101269.7558425677
101278.8117933467
101288.1394918773
101297.5433936384
101306.8633971291
101315.8937166554
101324.3569030091
101332.1499419604
101338.9735564114
101344.134817137
101348.3787188986
101351.8952037868
101354.5437069887
101356.3542685503
101357.1399749783
101356.8584257636
101355.7325700698
101353.588945729
101350.2809515184
101345.7396712133
101339.9703453273
101333.0207864325
101324.9793017262
101315.9862713909
101306.2320073648
101295.9424541896
101285.3496009998
101274.6879668139
101264.2639887645
101254.40307041
101245.3752165581
101237.7657898922
101232.1994747698
101228.130133513
101224.7678440551
101222.4030018948
101221.0856699941
101220.7941307031
101221.3833409891
101222.7696084272
101225.1306663497
101228.5635629415
101233.0966513115
101238.6987856336
101245.3045599633
101252.8184493422
101261.1051758814
101269.9889732349
101279.2688768241
101288.7404557596
101298.2181784221
101307.4999316906
101316.2983600541
101324.3962616325
101331.5918104146
101337.3059676769
101341.5371194133
101345.2077953437
101348.0154366816
101349.9971259189
101350.9926600051
101350.9890583355
101350.14968201
101348.3859164227
101345.550227388
101341.5506092966
101336.3597497103
101329.9949528519
101322.5158297293
101314.0333863486
101304.7052482292
101294.7282369419
101284.3247350595
101273.723172829
101263.2054688041
101253.1274631275
101243.7995287134
101235.6608181965
101229.4575083618
101225.1857528649
101221.6338578168
101219.028446905
101217.3727878315
101216.7374108911
101217.06148499
101218.105987855
101220.0531481056
101223.0271358687
101227.0766622944
101232.1882775772
101238.3197837669
101245.4055126795
101253.3385137305
101261.9642351777
101271.0972778204
101280.5372150365
101290.0877524524
101299.5548388856
101308.6563182763
101317.1003805838
101324.7303978971
101331.0210903482
101335.5181074975
101339.3222492555
101342.3368844241
101344.4888534423
101345.7461893302
101346.0524862423
101345.4605558893
101344.0639862746
101341.6691412424
101338.1677276983
101333.508389002
101327.691242038
101320.7553211773
101312.7797758988
101303.8884286132
101294.2507081268
101284.0740815972
101273.5779694102
101263.0155131686
101252.7440808913
101243.1216012245
101234.4938315267
101227.6081803942
101222.8955897758
101219.1871444721
101216.3036994398
101214.3357867528
101213.3954179125
101213.4177927481
101214.1667359908
101215.7469528834
101218.2959412608
101221.8877809472
101226.529803257
101232.1975353687
101238.8444532609
101246.3855740063
101254.6918083399
101263.6017081193
101272.9284369715
101282.4739963041
101292.0463907321
101301.3845963213
101310.1637715175
101318.1849464545
101325.0227131325
101330.0461528607
101333.968805445
101337.2064481584
101339.5818663281
101341.1320593185
101341.7330518177
101341.3876114975
101340.3096045439
101338.3179863813
101335.2847462268
101331.1434060589
101325.876727392
101319.4944910437
101312.0416871078
101303.6150023439
101294.3617574568
101284.4695738638
101274.1455877049
101263.618713479
101253.2183864854
101243.3308817857
101234.2835015974
101226.7166180219
101221.3283569208
101217.4701851734
101214.3031898057
101212.0869012271
101210.8276702254
101210.5093104048
101211.0114100786
101212.2486794886
101214.4047193192
101217.5689658405
101221.767656838
101226.9877468449
101233.1949406103
101240.3267616733
101248.2818560466
101256.9199169554
101266.067654218
101275.5321865038
101285.1240289103
101294.6148358277
101303.6805863118
101312.0450849693
101319.4062574292
101325.1291270213
101329.214043474
101332.6958411612
101335.3328701786
101337.156145293
101338.0399869193
101337.9993100665
101337.2258839559
101335.6213544985
101333.0465519857
101329.4086808615
101324.6683110144
101318.8209390018
101311.8958724449
101303.96507481
101295.143305069
101285.5886061944
101275.4959700448
101265.0789767932
101254.6203448582
101244.5130070484
101235.1271845809
101226.9504388969
101220.791424196
101216.6606464901
101213.238071307
101210.7405805783
101209.1481310552
101208.520287281
101208.7892098285
101209.7360699952
101211.5332631412
101214.2991356397
101218.0793745578
101222.8693111439
101228.6459252856
101235.3687249301
101242.9603750405
101251.2972810642
101260.2207570789
101269.5505916882
101279.1029946965
101288.6764350139
101297.9661098665
101306.6491552078
101314.490153932
101320.8907295217
101325.3961386302
101329.0768538595
101331.9940816185
101334.0575161118
101335.2473451033
101335.5394232063
101335.014992465
101333.7560409165
101331.5810033455
101328.3867023383
101324.1203261358
101318.7675395687
101312.3382127315
101304.8740238607
101296.4629439251
101287.2435451357
101277.3970718879
101267.1229227428
101256.6635953374
101246.3922746512
101236.7113296505
101228.0047026407
101221.0706541374
101216.4059254642
101212.7803753876
101209.9777505524
101208.0734464001
101207.1545733812
101207.1449392864
101207.8313680745
101209.3102699648
101211.7094392207
101215.0947715608
101219.4757897506
101224.8414086737
101231.1650552603
101238.3840868628
101246.39331792
101255.0572162518
101264.2138609965
101273.6822585285
101283.2739457936
101292.7227415391
101301.6909730844
101309.9246353184
101316.9395967321
101322.0929708756
101325.9618365125
101329.1738758541
101331.5170936764
101333.042390202
101333.6482789055
101333.3619959126
101332.3935133817
101330.574950209
101327.7832464385
101323.951412548
101319.0513633667
101313.0740106593
101306.0419247721
101298.0268255364
101289.1467785112
101279.5600091074
101269.4536504836
101259.0450953527
101248.6628638278
101238.7193684916
101229.5840049016
101221.9430634544
101216.532283326
101212.7046721746
101209.5693770015
101207.3856275852
101206.1454545271
101205.8270151821
101206.3039951196
101207.484262317
101209.5383493143
101212.5479554472
101216.5399757629
101221.5102649678
101227.438045122
101234.2775649205
101241.9481174125
101250.3331952444
101259.2826019445
101268.6217965401
101278.1732632907
101287.7130108465
101296.9105115848
101305.4631298663
101313.0291856579
101318.9349016866
101323.064118943
101326.5559586009
101329.1972079307
101331.0137852433
101331.9020653294
101331.8985243145
101331.1944786293
101329.701883891
101327.2879127145
101323.8613730439
101319.3794687673
101313.8294015734
101307.2248965053
101299.615292986
101291.0905476516
101281.7865774723
101271.8812386348
101261.5747335997
101251.1435779742
101240.9922495408
101231.5151863749
101223.2340339665
101216.998740884
101212.8306011274
101209.4070512086
101206.9172538519
101205.3352452455
101204.7086745311
101204.9633128322
101205.8756575913
101207.6044441676
101210.2567874914
101213.8743540987
101218.4585448702
101223.999679984
101230.4706643938
101237.8061994703
101245.9011279273
101254.6247913669
101263.8233183931
101273.3230532974
101282.940773271
101292.4214315151
101301.4404661471
101309.7359990052
101316.8495128983
101322.1837056186
101326.0914724492
101329.3850717374
101331.8039787856
101333.4270014872
101334.1463101597
101333.9786173778
101333.1560944319
101331.5787306654
101329.1386949286
101325.7603489876
101321.4125600142
101316.0971844343
101309.8421403955
101302.7037750608
101294.7744624312
101286.1894486997
101277.1213397931
101267.7573385848
101258.3262136217
101249.1517637408
101240.5438970096
101232.8382875979
101226.6709979949
101222.2703040468
101218.6947025225
101215.8811319222
101213.9224410863
101212.7881237342
101212.4958190454
101212.9705667732
101214.057302784
101215.8522094684
101218.4122119273
101221.7820100613
101225.9753718795
101230.9741789794
101236.7341768344
101243.1910399973
101250.2615503197
101257.8364249696
101265.7811254743
101273.953618063
101282.1774345762
101290.206861503
101297.8193270043
101304.7481213089
101310.450621547
101314.7071239947
101318.2535078579
101321.067850265
101323.0458790087
101324.1517455493
101324.3704929896
101323.7877601931
101322.5173213648
101320.4597287421
101317.5391923344
101313.6928107654
101308.9043500261
101303.204192178
101296.6540994594
101289.3390425915
101281.3772898322
101272.9244560162
101264.1572195822
101255.3086799584
101246.6826471605
101238.5570170119
101231.330032255
101225.6207543352
101221.477399621
101218.0608274597
101215.4588800131
101213.6864729016
101212.8294589331
101212.8650988761
101213.572342026
101214.9639079196
101217.1021021564
101220.0517796129
101223.8470375634
101228.4832068473
101233.9284529609
101240.1302559158
101247.0106542228
101254.4630751176
101262.3568707265
101270.5514448616
101278.8835350277
101287.115160996
101294.9993550255
101302.3070630531
101308.5373249471
101313.2758363412
101317.0150934193
101320.0951373024
101322.3066919776
101323.7064790286
101324.2098087575
101323.8192119965
101322.7828329676
101320.9922475814
101318.3683427958
101314.8453561022
101310.4005870338
101305.051167753
101298.8387692272
101291.8302000869
101284.1297507479
101275.8799273702
101267.2417776587
101258.4152564177
101249.6886944312
101241.3494839096
101233.710121818
101227.3886426552
101222.7349935124
101219.0858449811
101216.1544808187
101214.1171038804
101212.9590635377
101212.6778834768
101213.1889412166
101214.3383997962
101216.2151645185
101218.8703313421
101222.3475281391
101226.6618251314
101231.7975148043
101237.7086114898
101244.3209476461
101251.5400092086
101259.2505971957
101267.3170897984
101275.5891501756
101283.8582678204
101291.8687870995
101299.402677083
101306.0821745391
101311.3834132921
101315.3644277787
101318.7157960856
101321.2346423791
101322.9479743782
101323.7529465973
101323.643704634
101322.8536302674
101321.3436450847
101319.0436021206
101315.8841740381
101311.8227239498
101306.8495849963
101300.9901340022
101294.3062349106
101286.890719215
101278.8660487668
101270.3819345369
101261.6175301116
101252.8322991603
101244.3264577531
101236.3778068572
101229.5060840251
101224.2423384123
101220.3337551391
101217.1046952864
101214.7907223511
101213.3107176373
101212.7268814221
101213.0325330893
101213.9557836121
101215.5751459298
101217.9440330428
101221.1148603312
101225.115170756
101229.9362451708
101235.539161655
101241.8659369903
101248.8394715143
101256.3532805621
101264.2726031718
101272.4545101848
101280.7213739896
101288.8244758138
101296.5367964213
101303.5853094997
101309.4136158303
101313.7899892726
101317.3768567707
101320.2299712429
101322.2238286255
101323.3345969402
101323.5583033087
101322.9844927877
101321.7366743213
101319.727716454
101316.8899430757
101313.1619412439
101308.5251845861
101303.0037999475
101296.6465924265
101289.5212823378
101281.7303267187
101273.417513793
101264.7485308379
101255.9462047018
101247.311191592
101239.1167612014
101231.7630428937
101225.8900381234
101221.5874369594
101218.0944542941
101215.4466472648
101213.6596468437
101212.8024654626
101212.851388448
101213.5687456704
101214.9583049953
101217.0626178177
101219.9369360694
101223.6179124417
101228.1114383208
101233.3983922438
101239.4364748335
101246.1540531265
101253.450689346
101261.203348385
101269.2766976095
101277.5111168767
101285.6740419344
101293.5244880601
101300.8430057137
101307.1551179064
101312.0425244777
101315.8479342356
101319.0117370594
101321.2816099367
101322.7403906503
101323.3005265111
101322.9478211139
101321.9490520807
101320.2112569064
101317.6694908322
101314.2651840644
101309.9717110493
101304.7944465372
101298.7623735604
101291.9321440119
101284.3970506139
101276.2859422631
101267.7486446952
101258.9776447022
101250.2587035506
101241.8750767476
101234.1353826744
101227.671512285
101222.8439920751
101219.0831220254
101216.0791399293
101214.0232046299
101212.8723304485
101212.6037799003
101213.1408244454
101214.3135525028
101216.1827598196
101218.7803773053
101222.1521414856
101226.3256736684
101231.2962495421
101237.0270411038
101243.4570752744
101250.5081899472
101258.0760009225
101266.0251633918
101274.2030122894
101282.4031998525
101290.3722107761
101297.8979610869
101304.6241103293
101310.0338895404
101314.1276446987
101317.5437563068
101320.1394592083
101321.9152933395
101322.7764689651
101322.7172758572
101321.952549053
101320.4728382647
101318.229894237
101315.165470779
101311.2355352151
101306.4258270283
101300.756429471
101294.27648896
101287.0562495016
101279.1963518697
101270.836718282
101262.1507497925
101253.3933328073
101244.865594985
101236.8375620408
101229.8335257884
101224.4035890269
101220.3261655531
101216.9928017599
101214.6309611348
101213.1301394561
101212.5460083319
101212.8925176831
101213.8686771076
101215.5261456182
101217.8841130624
101220.9810771348
101224.847360814
101229.4877675066
101234.8849160046
101241.00541929
101247.7906696492
101255.1442582735
101262.9370130844
101271.028867996
101279.2389255117
101287.3090956818
101295.0131582778
101302.0860820897
101307.9935026958
101312.5043326819
101316.1373590089
101319.0440125577
101321.0673902169
101322.2409674265
101322.5458868209
101322.0230470944
101320.8256478365
101318.8606114145
101316.0810146375
101312.4517180495
101307.9729483226
101302.6708691484
101296.5751932777
101289.721454653
101282.1769865342
101274.0543242309
101265.4971046301
101256.7282725451
101248.0729745853
101239.8072376065
101232.3304783186
101226.3035538004
101221.8201695404
101218.2088849983
101215.4856578592
101213.6615471575
101212.7711984314
101212.796819268
101213.5518476441
101215.0155694894
101217.1888514334
101220.0794318379
101223.6961586618
101228.0391052998
101233.0997264317
101238.862477735
101245.3120736473
101252.367170713
101260.098708579
101267.6912248164
101278.5430131003
)
;

boundaryField
{
    inlet
    {
        type            uniformFixedValue;
        uniformValue    sine;
        uniformValueCoeffs
        {
            frequency       constant 3000;
            scale           constant 50;
            level           constant 101325;
        }
        value           uniform 101323.6440830864;
    }
    outlet
    {
        type            waveTransmissive;
        gamma           1.4;
        fieldInf        101325;
        lInf            2.25;
        value           uniform 101280.5063985903;
    }
    frontAndBack
    {
        type            empty;
    }
}


// ************************************************************************* //
