/*--------------------------------*- C++ -*----------------------------------*\
| =========                 |                                                 |
| \\      /  F ield         | OpenFOAM: The Open Source CFD Toolbox           |
|  \\    /   O peration     | Version:  v2012                                 |
|   \\  /    A nd           | Website:  www.openfoam.com                      |
|    \\/     M anipulation  |                                                 |
\*---------------------------------------------------------------------------*/
FoamFile
{
    version     2.0;
    format      ascii;
    class       volScalarField;
    location    "0.019";
    object      pMean;
}
// * * * * * * * * * * * * * * * * * * * * * * * * * * * * * * * * * * * * * //

dimensions      [1 -1 -2 0 0 0 0];


internalField   nonuniform List<scalar> 
1000
(
101325.001295117
101324.9930920837
101324.974592662
101324.992468811
101324.9900574988
101324.9952789578
101324.9978183649
101325.0035454275
101325.0089378366
101325.0149109233
101325.0202493416
101325.0246951128
101325.0273570263
101325.0297542031
101325.0267281829
101325.0234294608
101325.0169538797
101325.0077651371
101324.9953177819
101324.9797292667
101324.9607576402
101324.9388390072
101324.9138969305
101324.8878188491
101324.8582503767
101324.8283092375
101324.7958345435
101324.7611077474
101324.7242581145
101324.6872057474
101324.6500240805
101324.6132715481
101324.5771104438
101324.5412796394
101324.5070149566
101324.4728933078
101324.4425274516
101324.4097328841
101324.3807637068
101324.3538418339
101324.3292166792
101324.3070613039
101324.2873941248
101324.270251514
101324.2557640907
101324.2437991186
101324.2355706222
101324.2299401125
101324.2268650717
101324.2270907025
101324.2276912003
101324.2291922979
101324.2327297655
101324.2373125681
101324.2424420882
101324.2477148201
101324.2524897258
101324.2569832859
101324.2594191989
101324.2625045927
101324.26030616
101324.2571740643
101324.2519944196
101324.2438675775
101324.2327998818
101324.2184566246
101324.2008050224
101324.1799259488
101324.1559450107
101324.1297658546
101324.1020504063
101324.0712168068
101324.0408092526
101324.0064204849
101323.9697275892
101323.9324839018
101323.8950739894
101323.8581199156
101323.8215787892
101323.7857949583
101323.7509133796
101323.7168777881
101323.6853376792
101323.6532011116
101323.6226552526
101323.5948789303
101323.5688810655
101323.5454373061
101323.5243150629
101323.5057119057
101323.4896305131
101323.4762607474
101323.4656313377
101323.4592899523
101323.4538616761
101323.4542578434
101323.4539897738
101323.4547103423
101323.4570751357
101323.4607784216
101323.4651147396
101323.4695725686
101323.4739752501
101323.4776049343
101323.4804029594
101323.4822118957
101323.481849071
101323.4781150312
101323.4733587598
101323.4657960608
101323.4556201355
101323.4423041018
101323.4256604031
101323.4057225331
101323.3826896788
101323.3564777596
101323.3294267816
101323.2982675151
101323.2689617818
101323.2350026602
101323.1987108573
101323.1609398268
101323.1230507109
101323.0854986271
101323.048387092
101323.0120684766
101322.9762970326
101322.9420668024
101322.9087378059
101322.8774809208
101322.8452866575
101322.8161585424
101322.7887999014
101322.7638618765
101322.7411858588
101322.7208807284
101322.7030892482
101322.6879834029
101322.6752124626
101322.666829288
101322.6599356101
101322.6586449779
101322.6582194581
101322.6581852832
101322.6592307056
101322.6619534659
101322.6653457542
101322.6690895076
101322.6727329894
101322.6757372846
101322.6783824973
101322.6792130225
101322.6800549146
101322.6761244556
101322.6711431268
101322.6640110323
101322.6543595464
101322.6418579607
101322.6261047319
101322.6071346409
101322.5849171508
101322.5593679698
101322.5320045404
101322.502094124
101322.4714919255
101322.4396513543
101322.4034258902
101322.365372636
101322.3269168522
101322.2886708859
101322.2509588731
101322.2137824686
101322.1773111513
101322.1421916057
101322.1076337687
101322.0762477651
101322.0432730296
101322.0122982216
101321.9835548188
101321.956963874
101321.9326383202
101321.9105744837
101321.8909056739
101321.8737854801
101321.8591208062
101321.8477752478
101321.8397969918
101321.8350995659
101321.8350936942
101321.8338364859
101321.833607684
101321.8349801367
101321.8372727927
101321.840052264
101321.8427223155
101321.8450898935
101321.8468951753
101321.8472482345
101321.8478687277
101321.8446367526
101321.838952454
101321.831805755
101321.8223098509
101321.8102920907
101321.7952086214
101321.7769315061
101321.7553941525
101321.7306871119
101321.7030375712
101321.6737862279
101321.642123437
101321.6119481143
101321.576157701
101321.5380030125
101321.4988693496
101321.4598298711
101321.4212833941
101321.3832395229
101321.3459465672
101321.309527037
101321.2742070272
101321.2410469185
101321.2082920743
101321.1756377557
101321.1452422259
101321.1169948378
101321.0909552059
101321.0671521691
101321.045529888
101321.026382685
101321.0098463484
101320.9957770464
101320.9857119427
101320.9779659182
101320.9772179194
101320.9751673553
101320.9737973194
101320.9737153976
101320.9748407685
101320.9765309852
101320.9783160472
101320.9799080377
101320.9807043863
101320.9808444423
101320.9800027313
101320.9779082975
101320.971853281
101320.964361435
101320.9549309914
101320.9431535287
101320.9285623367
101320.9108421248
101320.8899358064
101320.8659580196
101320.8385067553
101320.809434216
101320.7771435805
101320.747285971
101320.7127716071
101320.674837542
101320.6352104883
101320.5953851927
101320.5559403731
101320.5170636124
101320.4788204671
101320.4411912324
101320.4049694656
101320.3698582634
101320.336955346
101320.3031308239
101320.2710470282
101320.2412388839
101320.2134763188
101320.1879413167
101320.1644894098
101320.1434156662
101320.1248540564
101320.1085412556
101320.096010036
101320.0854736519
101320.0819605727
101320.0801259142
101320.0774518628
101320.0760766859
101320.0759239958
101320.0764491581
101320.0773036466
101320.0780065051
101320.0779340091
101320.0775296155
101320.0755088625
101320.0736825069
101320.0678552158
101320.0598139442
101320.0502665351
101320.038499245
101320.0241878064
101320.0069363087
101319.9865731266
101319.9631221552
101319.9363045828
101319.9071439617
101319.8749985827
101319.8432918648
101319.8117610222
101319.7736088171
101319.7340433274
101319.6934939538
101319.6531309269
101319.6133402158
101319.5741112014
101319.5354335974
101319.4980331038
101319.4613167058
101319.4274734294
101319.3932943308
101319.3594089697
101319.3277936623
101319.2983148648
101319.271025525
101319.2458724503
101319.2229252042
101319.202360289
101319.184298391
101319.1690560359
101319.1568056156
101319.1484109845
101319.1481353636
101319.1436358236
101319.1413912459
101319.1400397897
101319.1395708546
101319.1395116073
101319.139480902
101319.1389258032
101319.1378319375
101319.1353022026
101319.1330756713
101319.1285025469
101319.1201099079
101319.1100732723
101319.0984528831
101319.0844264004
101319.0677762363
101319.0480203148
101319.0251920848
101318.9993284461
101318.9703242898
101318.9389054557
101318.9048683301
101318.8761237311
101318.8384925863
101318.799308396
101318.7584714993
101318.7174207993
101318.6769061595
101318.6369377757
101318.5976366729
101318.5590674429
101318.5215696595
101318.4860131566
101318.4525087324
101318.4175741809
101318.3840274902
101318.353277564
101318.3245700427
101318.2980287044
101318.2736433677
101318.2514480116
101318.2318861407
101318.2145960724
101318.2006719629
101318.1882326303
101318.1873969522
101318.1826905509
101318.1793951903
101318.1771351642
101318.1758035816
101318.174911244
101318.1743104617
101318.1733790403
101318.1716351596
101318.1691086999
101318.1656156367
101318.162150128
101318.1543217518
101318.1438625588
101318.1325135343
101318.1188193292
101318.1027121738
101318.0837149949
101318.0616116202
101318.0366032216
101318.0082124577
101317.977547551
101317.9425903214
101317.9133426798
101317.8785121001
101317.8395205171
101317.7989343661
101317.7575312043
101317.7163783674
101317.67582115
101317.6359739092
101317.5965314734
101317.5584215739
101317.5212890644
101317.4870413458
101317.452208797
101317.4175392386
101317.3857235621
101317.3558224217
101317.3281074882
101317.3025907255
101317.27910623
101317.2581687117
101317.2393949095
101317.2239262604
101317.209470222
101317.2038606686
101317.2016607499
101317.1968714222
101317.1941361146
101317.1921912861
101317.1906990849
101317.1895572489
101317.1884060757
101317.1863762886
101317.1838900278
101317.1798177466
101317.1761802154
101317.169698651
101317.1595723541
101317.1483764525
101317.13515723
101317.1196404147
101317.1015088241
101317.0803471197
101317.0561933845
101317.028881767
101316.9988424929
101316.9652247094
101316.9316316595
101316.9024068796
101316.8630636715
101316.8233288591
101316.7819982802
101316.740508313
101316.6994436773
101316.6592105662
101316.6193373763
101316.5806955794
101316.5426835599
101316.5074315079
101316.4731653163
101316.4380653815
101316.4048871604
101316.3741529741
101316.3454868091
101316.3190847128
101316.2947905155
101316.2726850449
101316.2530324829
101316.2358748397
101316.2214081944
101316.2089740245
101316.2107225557
101316.2041850637
101316.2012079035
101316.1989295139
101316.1971754785
101316.1956770842
101316.1944144609
101316.192538934
101316.1901121812
101316.1862776336
101316.1822035596
101316.1776862809
101316.1684915831
101316.1569006505
101316.1443851545
101316.1295885256
101316.1123876851
101316.0924476143
101316.069281706
101316.0432776692
101316.0139671667
101315.9822500877
101315.9455132381
101315.919980951
101315.8818156333
101315.8427486543
101315.8019796757
101315.7605458791
101315.7192999625
101315.6787916085
101315.6388910665
101315.5997720809
101315.5617090384
101315.5249537851
101315.49203287
101315.457151831
101315.4222558216
101315.3910430634
101315.3616833933
101315.3345911721
101315.3097463166
101315.2868440441
101315.266442146
101315.2480627239
101315.2331039711
101315.2176310658
101315.2177199318
101315.2126968945
101315.2087265945
101315.206326815
101315.2045109575
101315.2028653289
101315.2014455338
101315.1998910276
101315.1974763169
101315.1943198953
101315.1897035885
101315.1861631404
101315.1786422396
101315.167096382
101315.1554093943
101315.1414342321
101315.1251746946
101315.1064159358
101315.0845546531
101315.0597225196
101315.0315066924
101315.0010529524
101314.9655521167
101314.9363180104
101314.9036187859
101314.8646777034
101314.8248464422
101314.7838452521
101314.742647512
101314.7019325794
101314.6620613441
101314.6226615549
101314.5845564537
101314.5472451858
101314.5129714264
101314.4792997349
101314.4442803098
101314.4124232581
101314.3825623051
101314.3548952825
101314.329483773
101314.3061956715
101314.2849714293
101314.2659225149
101314.2496125844
101314.2351316419
101314.2265721186
101314.2272137401
101314.2214407423
101314.2190165167
101314.2172186607
101314.2155589473
101314.2139699381
101314.2124908098
101314.2103120549
101314.2075651323
101314.2033987817
101314.1990266018
101314.1936532906
101314.1834263422
101314.1716454032
101314.1585798118
101314.1431582696
101314.1253924408
101314.1048976935
101314.0811757657
101314.0543897192
101314.0243701993
101313.9923299528
101313.9557469581
101313.9313087067
101313.8915412956
101313.8528966094
101313.8124929892
101313.7715836908
101313.7307621005
101313.690688158
101313.651244591
101313.6129400163
101313.5756087799
101313.5399354359
101313.5072778611
101313.4730785144
101313.4394591812
101313.409360904
101313.3810169449
101313.3550510704
101313.3313615456
101313.3095560768
101313.2899933474
101313.2723323382
101313.258494697
101313.2432118354
101313.2477441794
101313.240890438
101313.237996155
101313.2361415882
101313.2346945154
101313.2330746763
101313.2315772239
101313.2296758581
101313.2272710674
101313.2237702223
101313.2190272361
101313.2153760335
101313.2071638964
101313.1946253344
101313.1826511042
101313.16799732
101313.1512534796
101313.1319897883
101313.1096755166
101313.0842028358
101313.0551504082
101313.0245221077
101312.987306346
101312.9628332576
101312.9265427825
101312.8878330138
101312.8478759773
101312.8069459225
101312.7655410818
101312.7245202854
101312.6840056124
101312.6444345529
101312.6057780892
101312.5680177151
101312.5336613581
101312.4988760281
101312.4621782658
101312.4296743857
101312.3984286449
101312.3691944466
101312.3419703104
101312.316516653
101312.2925743701
101312.2699927918
101312.2504144499
101312.2305913328
101312.2224709848
101312.2150962972
101312.2046132737
101312.1969594491
101312.1903538193
101312.184007834
101312.1778064686
101312.1716070134
101312.1654604849
101312.1588644292
101312.1514457073
101312.1442699826
101312.135865199
101312.122487229
101312.1095172241
101312.0952359103
101312.0793229601
101312.0618572045
101312.0425015499
101312.0205733693
101311.9959404225
101311.9694425911
101311.9404825266
101311.9122950549
101311.8907736299
101311.8568072271
101311.8239947592
101311.7895024175
101311.7539636244
101311.7178226482
101311.6818015482
101311.6463680547
101311.6115697305
101311.5776004304
101311.5446941999
101311.5140764926
101311.4809576145
101311.449095405
101311.4197986043
101311.3915193142
101311.3649813385
101311.3400148443
101311.3162119815
101311.2933558973
101311.2717270603
101311.2534588705
101311.2332993123
101311.2335778216
101311.2184893712
101311.2095640966
101311.2013341404
101311.194211682
101311.1871031992
101311.180050927
101311.1731357065
101311.1662995468
101311.1591578697
101311.1509678942
101311.1440258842
101311.1326699911
101311.1182085015
101311.1048693086
101311.0894395643
101311.0726068571
101311.0541141663
101311.0334309676
101311.0099737304
101310.9835161728
101310.9570330343
101310.9227166622
101310.9080178476
101310.873626677
101310.841237227
101310.8071815963
101310.7722813061
101310.7363334634
101310.700160678
101310.6641600067
101310.6292239849
101310.5950549094
101310.5612601875
101310.5310728681
101310.4994077395
101310.4652362496
101310.4359079487
101310.4071226627
101310.3799909346
101310.3545321627
101310.3306132316
101310.3074779954
101310.2849361944
101310.2658893919
101310.2441250567
101310.2408464069
101310.2290102314
101310.217896633
101310.2091580512
101310.2017616393
101310.1946880109
101310.1874127859
101310.1798782658
101310.172898141
101310.1656946352
101310.1574396623
101310.150467522
101310.1409061154
101310.1259042586
101310.1129636479
101310.0979767112
101310.0814435817
101310.0633446236
101310.0434930814
101310.021050532
101309.9952558368
101309.9685309248
101309.937541578
101309.9136675856
101309.8885679002
101309.8544792046
101309.8212066785
101309.7867829169
101309.7515334007
101309.7155144141
101309.6790800256
101309.6437779056
101309.6091298607
101309.5755845711
101309.5435918318
101309.5128104396
101309.4791644665
101309.44843625
101309.4194889882
101309.3917457525
101309.3656119541
101309.3412687938
101309.3181638893
101309.2953495244
101309.2742576167
101309.2556778392
101309.2385002194
101309.2383884526
101309.2228286286
101309.2140510382
101309.2059920457
101309.1991193357
101309.1920009995
101309.1840939773
101309.1765846009
101309.1691133967
101309.1618418083
101309.1532087152
101309.1454417532
101309.1326576192
101309.117926915
101309.1038744543
101309.087704232
101309.0699391846
101309.0505862798
101309.0293041878
101309.0047432302
101308.977146857
101308.9503834336
101308.9141273083
101308.9035809315
101308.8651383537
101308.8330859306
101308.7987781272
101308.7642473247
101308.7289372497
101308.6925763619
101308.6565246612
101308.6215499594
101308.5881609994
101308.5545494286
101308.5251212298
101308.4932866662
101308.4593248225
101308.4306541375
101308.4023840594
101308.3756787963
101308.3505768961
101308.3273495141
101308.3046667106
101308.2821405211
101308.2640586024
101308.2407186339
101308.2438226384
101308.2281906035
101308.2177111588
101308.2088902393
101308.2017193509
101308.1949822066
101308.1873023845
101308.1790034135
101308.1710786464
101308.1637996618
101308.1545622699
101308.1481900352
101308.1377035303
101308.1206758384
101308.1077201376
101308.0919286357
101308.0747058123
101308.0555615016
101308.0350219381
101308.0117659255
101307.9848399021
101307.9576540981
101307.9247121326
101307.9048091603
101307.8767840228
101307.8420419583
101307.8084277657
101307.7741025727
101307.7394993215
101307.7040584932
101307.6675069154
101307.6319552169
101307.5977930858
101307.5644355139
101307.5338776617
101307.5031275267
101307.468709831
101307.4390946634
101307.4105441709
101307.3834198388
101307.3575519449
101307.3336358803
101307.310998521
101307.2883972185
101307.2679102823
101307.248613127
101307.2351312575
101307.234209939
101307.2183796743
101307.2092088181
101307.2011602406
101307.1943489294
101307.1875151496
101307.1789978396
101307.1704309497
101307.1621078564
101307.1543014538
101307.1454907211
101307.1367606899
101307.1225129396
101307.1074505121
101307.0926132591
101307.0758205975
101307.0571774246
101307.0367750308
101307.0144827679
101306.9889746581
101306.9604715059
101306.9329530843
101306.895127121
101306.8889665949
101306.8465882289
101306.8144007076
101306.7796669036
101306.7453350065
101306.7108274385
101306.6749527724
101306.63878817
101306.6032522736
101306.5704957423
101306.5370523166
101306.5083352102
101306.476445886
101306.4426322009
101306.4145089804
101306.3867274654
101306.3606101734
101306.335780651
101306.3127273399
101306.2901391675
101306.268275356
101306.2508459332
101306.2262696113
101306.2354593139
101306.216113795
101306.2060850539
101306.1968445235
101306.1895412499
101306.182894
101306.1753939395
101306.1668187864
101306.1572036568
101306.1494840924
101306.1387397929
101306.1335006327
101306.122182616
101306.1027641614
101306.0897067712
101306.0731319536
101306.0553283952
101306.0354509415
101306.0138862279
101305.9887753167
101305.9616907947
101305.9337146526
101305.8992853527
101305.882286326
101305.8526203645
101305.8166907605
101305.7826587981
101305.7482290934
101305.7139424471
101305.6791512754
101305.643796292
101305.607664972
101305.5734672095
101305.5393005011
101305.5105904345
101305.4804370171
101305.4449370675
101305.4162722944
101305.3880341014
101305.3613804742
101305.3361068386
101305.3129866638
101305.28946449
101305.2674737635
101305.2480924103
101305.2287459461
101305.2164658941
101305.2204675432
101305.2002567932
101305.1917870704
101305.1835434404
101305.1766765332
101305.1694719281
101305.1615381143
101305.1529490857
101305.1437987421
101305.1333586182
101305.1245464252
101305.1163387383
101305.1009098471
101305.0849888209
101305.0698995581
101305.0522064438
101305.0324711141
101305.0116264332
101304.989388411
101304.9601091854
101304.924582853
101304.8811654876
101304.8454983046
)
;

boundaryField
{
    inlet
    {
        type            calculated;
        value           uniform 101325.0000000003;
    }
    outlet
    {
        type            calculated;
        value           uniform 101304.8651269902;
    }
    frontAndBack
    {
        type            empty;
    }
}


// ************************************************************************* //
