/*--------------------------------*- C++ -*----------------------------------*\
| =========                 |                                                 |
| \\      /  F ield         | OpenFOAM: The Open Source CFD Toolbox           |
|  \\    /   O peration     | Version:  v2012                                 |
|   \\  /    A nd           | Website:  www.openfoam.com                      |
|    \\/     M anipulation  |                                                 |
\*---------------------------------------------------------------------------*/
FoamFile
{
    version     2.0;
    format      ascii;
    class       volScalarField;
    location    "0.019";
    object      rho;
}
// * * * * * * * * * * * * * * * * * * * * * * * * * * * * * * * * * * * * * //

dimensions      [1 -3 0 0 0 0 0];


internalField   nonuniform List<scalar> 
1000
(
1.176253731030317
1.17627138480777
1.17620812135907
1.176138999304057
1.176064586215537
1.175995609361749
1.175936866019679
1.175891776387596
1.175857082393984
1.175829163688823
1.175814016971424
1.175811457390029
1.175818116340608
1.175835262151897
1.175863403641759
1.17590169845345
1.175948777004691
1.176003100226542
1.176063405344739
1.176128666563224
1.176197791101668
1.176269513530553
1.176342556000475
1.176415773527474
1.176488319297743
1.176559743700721
1.176629143608481
1.176695443653505
1.17675860675717
1.176814419609913
1.176857358827212
1.176895034282383
1.176924540384714
1.176945535875642
1.176956134543053
1.176956036058971
1.176946873290333
1.176927628870946
1.176897040337837
1.176854962846837
1.17680225519568
1.176740233781804
1.176670398770572
1.176594386265754
1.17651387169265
1.176430489216125
1.176345761979097
1.176260929863113
1.176177192045291
1.176096163199303
1.176019195744973
1.175948123342292
1.175888429772863
1.175844296639802
1.175810906560998
1.175784685331147
1.175768777115749
1.175763741180307
1.175768546211125
1.17578109707449
1.175803266162213
1.175835874331014
1.175878675946312
1.17593048036415
1.175989658665351
1.176054512271559
1.176123416785721
1.176194923133507
1.176267831003731
1.176341153986236
1.176414163225343
1.176486479016908
1.17655715072427
1.176624530709906
1.176688549824382
1.176746003269129
1.176790216569768
1.176828626544951
1.176859745124502
1.176882510847283
1.176896799061328
1.176901310419748
1.176895828422301
1.176881870292313
1.17685730574399
1.17682126507699
1.176773868806048
1.176716012750049
1.176649042973656
1.176574604076984
1.176494531774508
1.176410709703125
1.176324916380873
1.176238601610073
1.176153022003048
1.176069861803822
1.175990774285507
1.175917465051581
1.175854841379594
1.175807719291086
1.175772978131286
1.175744753572093
1.175725669533923
1.175717087618554
1.175718746122006
1.175727551778468
1.175744766162571
1.175771591864482
1.175808526155287
1.175855138212759
1.175910332961489
1.175972665837957
1.176040521075905
1.176112206801077
1.176186072176459
1.176260689593796
1.176335039706494
1.176408547923913
1.176480383509985
1.176548940753877
1.17661376336036
1.176672949120906
1.176719737476152
1.176758717155768
1.176791323302297
1.176816121083661
1.176833350182745
1.176841219172164
1.176839196653467
1.176829150866108
1.176809584470905
1.176779202827873
1.176737593167895
1.17668516486931
1.176622794917586
1.176551754898996
1.176473735900576
1.176390697452772
1.176304641912829
1.176217350357043
1.176130329404852
1.176045402806524
1.175964566720301
1.175889432219971
1.175823823148626
1.175773403055632
1.175736996240454
1.175706926022182
1.175685444745821
1.175674004484235
1.175672156284325
1.175678113376528
1.175691559830593
1.175713881312503
1.175745852581765
1.175787516273688
1.17583822456081
1.17589694973984
1.175962406825285
1.176033021953974
1.176107025092394
1.1761827299424
1.176258723674174
1.176333932312066
1.176407454415438
1.176477770403741
1.17654360061763
1.176604099008753
1.176654250819269
1.176693117019069
1.176727155408263
1.176753761187946
1.176772859897372
1.17678326858862
1.176784597855868
1.176777552470652
1.17676198836411
1.176736375915984
1.176700005072573
1.176652827980342
1.176595347921496
1.176528520484695
1.17645374915178
1.176372775396473
1.176287544376263
1.176200027291379
1.17611200022174
1.176025398814749
1.175942549757033
1.175865303601935
1.17579660684386
1.175742363040635
1.175703750115368
1.175672091682659
1.175648540819608
1.175633824951438
1.175628531840737
1.175632117159136
1.175642272523275
1.175660580515972
1.17568803210386
1.175724980524564
1.175771132276229
1.17582579805449
1.175887997891249
1.175956405372258
1.176029398578696
1.176105263268832
1.17618233470805
1.17625917045664
1.176334685218172
1.176407256583822
1.176474887820798
1.176537209437236
1.176590688200362
1.176630559177881
1.176665442917865
1.176693384991584
1.17671381096768
1.176726761881979
1.176730967103572
1.176726242842063
1.17671411550179
1.176692696600464
1.176660988486713
1.176618665885023
1.176565992058067
1.1765036519971
1.176432712433507
1.176354613419604
1.176271131952066
1.17618425467167
1.176095888652448
1.176007998117328
1.175923118199952
1.175843567939025
1.175771675752673
1.175713088077752
1.175671418064286
1.175638600789461
1.17561288567013
1.175595347872169
1.175587150824992
1.175587930834305
1.175595261601383
1.175610045309227
1.175633412910112
1.175666006029494
1.175707806536754
1.175758360204219
1.175816927858038
1.175882460186476
1.175953584134436
1.176028685899074
1.176106039264844
1.176184022475835
1.176261307856935
1.176336189068505
1.176406365719254
1.176470983985345
1.176527562795595
1.176570357255149
1.176605544953474
1.176634701038519
1.176656660254261
1.176671671825188
1.176678186163417
1.176675851728754
1.176666516998863
1.176648743756487
1.176621316328431
1.176583663025238
1.17653582691324
1.176478203949
1.17641152578977
1.176336955857606
1.17625607166401
1.17617074632327
1.176082903263423
1.175994487121043
1.17590803921967
1.175826258482454
1.175751384663376
1.175688273274331
1.175642106236727
1.17560835459756
1.175580467020652
1.175560852315017
1.17554992589392
1.175547507700643
1.175552394700397
1.175563892721929
1.1755834758737
1.175611948903753
1.17564954671857
1.175696010659424
1.175750797852275
1.175813115588878
1.175881841472524
1.175955517378495
1.176032476323946
1.176111022738404
1.176189617953931
1.176266585980704
1.176339544175785
1.17640669182485
1.176466355862911
1.176513735620184
1.176548818288865
1.176579253398417
1.176602532488267
1.176618963201971
1.17662721740393
1.176627187473444
1.176620227867669
1.176605603875166
1.176582092111525
1.176548929489531
1.176505889223894
1.176453114372137
1.176391098704875
1.176320762110814
1.176243411065669
1.176160677152659
1.176074404071386
1.175986485880094
1.175899260469711
1.175815679087951
1.175738316216545
1.175670814693752
1.175619364095641
1.175583933344521
1.17555447289979
1.175532862656195
1.175519129892959
1.175513859749969
1.175516547674072
1.175525211101404
1.17554136149745
1.175566028623036
1.17559961627718
1.175642012610852
1.175692867264834
1.175751635167444
1.175817428839815
1.175888966046533
1.175964708807474
1.176042994652013
1.176122195544614
1.176200702234561
1.176276175068873
1.176346194577369
1.176409462422723
1.176461623590466
1.176498911354735
1.176530453625409
1.176555449388724
1.176573292234195
1.176583717243296
1.176586256807514
1.176581348803092
1.176569769187361
1.176549912386101
1.176520880296805
1.176482246815793
1.176434012544436
1.17637650068865
1.176310367022937
1.176236637736317
1.176156717243111
1.176072325505039
1.175985281784699
1.175897685222241
1.175812499627528
1.1757326938009
1.175661135909907
1.175604025712971
1.175564938384323
1.175534179265245
1.175510262738216
1.17549393989423
1.17548613996623
1.175486325479086
1.175492537476606
1.175505644459192
1.17552678677793
1.175556578688729
1.17559508074446
1.175642089634173
1.175697219089272
1.175759763827192
1.175828652761208
1.175902546488581
1.175979895157319
1.176059056493169
1.176138438181943
1.176215875681521
1.176288675488735
1.176355188086211
1.176411886499662
1.176453539880532
1.176486065299913
1.176512910537844
1.176532606381174
1.176545459751395
1.176550442815821
1.176547578526429
1.17653864014035
1.176522126507131
1.17649697606521
1.176462637371501
1.176418967175742
1.176366046172829
1.176304246930869
1.176234370646685
1.176157638399159
1.176075605539814
1.175989989393858
1.175902688091994
1.175816433674198
1.175734429918982
1.175659391837076
1.175596631358186
1.175551939740263
1.175519938608912
1.175493670069389
1.175475286974095
1.175464842149933
1.175462201428198
1.175466366044666
1.175476628542316
1.175494511763815
1.17552075737168
1.175555582767931
1.175598879457757
1.175650362628267
1.175709513679408
1.175775491545409
1.175847132122648
1.175922997836949
1.176001488765865
1.176081033315411
1.176159737815748
1.176234915432523
1.176304276175181
1.176365315672163
1.176412769316904
1.176446640653003
1.176475510715306
1.176497375989264
1.176512493795646
1.176519822189892
1.176519484847652
1.176513071827723
1.1764997676384
1.17647841822501
1.176448253963263
1.176408947639222
1.176360461552845
1.176303038278366
1.176237274037323
1.176164119906212
1.176084885931886
1.176001188671649
1.175914799002272
1.175828061411628
1.175744234762475
1.175666389916883
1.175598571299164
1.17554748685966
1.175513224587233
1.175484836085497
1.175464120485937
1.175450911706807
1.175445703932224
1.175447934463687
1.175455788194278
1.175470695069071
1.175493636585982
1.175524991497383
1.175564720820064
1.175612633291516
1.175668392675188
1.175731357120745
1.175800501110682
1.175874508146141
1.175951883312333
1.176031102157182
1.176110493275508
1.176187529071924
1.176259532442865
1.176324551663043
1.176377625505869
1.176414983937155
1.176445503695946
1.176469692519374
1.176486801796941
1.176496667371382
1.176499089112623
1.176494740649882
1.176484301782746
1.1764662669927
1.176439780596616
1.17640440445845
1.176360019400764
1.176306706866604
1.176244811981026
1.176175063697488
1.176098610586216
1.176016955158147
1.17593175061371
1.175845007780008
1.175759821612005
1.175679529471518
1.175607316253201
1.175549803611036
1.175511112572264
1.175481040480098
1.175457793890381
1.175441998356929
1.175434376591047
1.175434296613551
1.175439990194746
1.175452257048279
1.175472157074279
1.175500236676134
1.175536574611175
1.175581078640705
1.175633528001509
1.175693402717885
1.175759829951059
1.175831685203559
1.175907625195983
1.175986148591529
1.176065692267418
1.17614404879351
1.176218418140285
1.176286694345838
1.176344863413749
1.176387595171946
1.176419675338675
1.17644630889014
1.176465738183995
1.176478385414307
1.176483409192404
1.176481035354489
1.176473004913912
1.176457925843376
1.17643477762924
1.176403004606433
1.176362373622454
1.176312808957156
1.176254497323033
1.176188032934246
1.176114394309191
1.176034893040129
1.175951080553434
1.175864759390968
1.175778653964264
1.17569618479996
1.175620416019473
1.175557040469507
1.175512161482027
1.175480413411926
1.175454407463874
1.175436294023935
1.175426007141296
1.17542336572488
1.175427322035809
1.1754371118592
1.175454149666595
1.175479112970209
1.175512224647583
1.17555345005145
1.17560261651175
1.175659344170671
1.175722963218119
1.175792506928502
1.175866729222676
1.175944182220839
1.176023393511106
1.17610250543469
1.176178777085116
1.176249699126914
1.176312438703131
1.176361409384431
1.176395648661735
1.176424602494335
1.176446503139392
1.176461565669278
1.176468930992941
1.176468901565654
1.176463063721736
1.176450687447047
1.176430671265649
1.176402258855003
1.176365095111922
1.17631907358836
1.17626430768712
1.176201206066872
1.176130514163275
1.176053358553752
1.175971213687174
1.175885739475034
1.175799228929831
1.175715036633515
1.175636434280397
1.175567749011375
1.175516031363379
1.175481458830145
1.1754530619375
1.175432409925868
1.175419287605042
1.175414090331653
1.175416202403172
1.175423769926409
1.175438109560259
1.175460109659184
1.17549011564575
1.175528138903168
1.175574098843061
1.175627770369986
1.175688611479879
1.175755749574103
1.175828100588006
1.175904388013606
1.175983171379422
1.176062931024032
1.176141551850372
1.176216342542506
1.17628513184207
1.176344118141262
1.176388349242192
1.176420751959033
1.176448061775351
1.176468118647739
1.176481576179518
1.176487540399732
1.176486149886748
1.176479329715932
1.176466250640779
1.176446018456394
1.176418005825781
1.176381954381802
1.176337879229922
1.176286011515224
1.176226818075141
1.176161064475871
1.176089871826152
1.176014671127351
1.175937014563799
1.175858799208966
1.175782710495299
1.175711318924473
1.175647408952634
1.175596256709046
1.175559756236159
1.175530098924973
1.175506761940357
1.175490515579483
1.175481106922941
1.175478682341292
1.175482620076753
1.175491633945578
1.175506521707806
1.175527755415762
1.175555705688312
1.175590486539316
1.175631947455457
1.175679721105553
1.175733273668331
1.175791914629985
1.175854737332981
1.175920625724524
1.175988401685433
1.176056601651267
1.176123187971419
1.176186315084507
1.176243771581852
1.176291058266458
1.176326353814299
1.176355760609161
1.176379097055306
1.176395498692788
1.176404668389341
1.176406482173239
1.176401650154334
1.176391115736969
1.176374054260963
1.176349837146264
1.176317942632636
1.176278235860825
1.176230968453441
1.176176652202275
1.176115991337537
1.176049966231284
1.17597986702821
1.175907158667879
1.175833774165949
1.175762233189287
1.175694840722234
1.175634900127998
1.175587546500813
1.175553180363041
1.175524842038593
1.175503260316256
1.17548855906574
1.175481450521124
1.17548174607951
1.17548761223318
1.175499154508006
1.175516889615125
1.175541355362511
1.175572834400669
1.175611287784704
1.175656451204798
1.175707888750126
1.175764953486669
1.175826761201144
1.17589222806344
1.175960187824122
1.176029286372699
1.176097550118087
1.176162931125768
1.176223530194245
1.176275193550017
1.176314486188435
1.176345492419838
1.176371032141165
1.176389370200071
1.176400977059694
1.17640515057259
1.176401911729589
1.176393318108121
1.1763784706506
1.176356713244655
1.176327500424843
1.176290643739285
1.176246284968659
1.176194769323291
1.176136650433441
1.176072792749372
1.176004377680692
1.175932740494653
1.175859539259928
1.175787165174887
1.175718001890796
1.175654641507541
1.175602210504638
1.175563612020728
1.175533344721147
1.175509030732923
1.175492131725227
1.175482526300895
1.175480193992404
1.17548443290052
1.175493967015517
1.175509533736338
1.17553155675879
1.175560397801551
1.175596181669207
1.175638777832367
1.175687804587605
1.175742646471136
1.175802519275954
1.175866467278626
1.175933365448932
1.176001966822772
1.176070542136
1.176136971333582
1.176199446556434
1.176254835545242
1.17629879470677
1.176331805779128
1.176359595445905
1.176380481623346
1.176394688402326
1.176401363119086
1.17640045724058
1.176393905941748
1.176381385201091
1.176362313274594
1.17633611515926
1.176302437119744
1.176261198744859
1.176212610148625
1.176157183966351
1.176095689621793
1.176029142282171
1.175958783158843
1.175886097749653
1.17581323776128
1.175742693108637
1.175676768041485
1.175619773660926
1.175576115136309
1.175543696130709
1.175516913018585
1.175497719837573
1.175485443892139
1.175480601208921
1.1754831363799
1.17549079420672
1.175504225918652
1.175523874455848
1.175550174437968
1.175583354141977
1.175623341022441
1.175669811981225
1.175722285798243
1.175780122697039
1.175842439210208
1.175908117416587
1.175975971745854
1.176044528991651
1.176111726554081
1.176175681968391
1.176234131427391
1.176282461479847
1.1763187511147
1.176348493675823
1.176372151676069
1.176388684599273
1.176397894956825
1.176399749857895
1.176394991803671
1.176384644923482
1.17636798668647
1.176344455796855
1.176313542847923
1.176275093988915
1.176229308992207
1.176176592222955
1.176117504876254
1.176052896212304
1.17598395829291
1.175912064886795
1.175839063783015
1.175767448453539
1.175699485479437
1.175638493840099
1.175589782284625
1.1755540953293
1.175525123225857
1.175503161115307
1.175488338811314
1.175481228872118
1.17548163459896
1.17548758463269
1.175499110256609
1.175516564334018
1.1755404050278
1.175570936196776
1.175608206504043
1.175652057098331
1.175702136850477
1.175757851323173
1.175818367189355
1.175882663752955
1.175949618406358
1.176017907228942
1.176085601521547
1.176150702938645
1.176211391895491
1.176263734186734
1.176304261639481
1.176335816517733
1.176362050846841
1.176380872526533
1.176392968585751
1.176397613138295
1.17639468847052
1.176386406677
1.176371996913998
1.176350920554247
1.17632269178248
1.176287089615712
1.17624415835823
1.176194138023657
1.176137498029696
1.176075011633798
1.176007746986759
1.175936946277772
1.175864205615664
1.175791894855594
1.175722363305796
1.175658170865067
1.175604558911949
1.175564518325045
1.175533324373381
1.175508408054484
1.175491355106282
1.175481809127638
1.17547958157365
1.175484036016436
1.175493763133491
1.175509267163579
1.175530812844481
1.175558779398192
1.175593395748877
1.175634622481213
1.175682153860593
1.175735483868011
1.17579396392125
1.175856727988078
1.175922653325802
1.175990473646494
1.176058477600256
1.176124562855194
1.176186970842823
1.176242746919229
1.176287606304869
1.176321552366013
1.176349878985894
1.176371402527732
1.17638612761699
1.176393268389372
1.176392777505147
1.176386436361079
1.176374166617597
1.176355568107425
1.176330157719213
1.176297570155564
1.176257686929861
1.176210674280149
1.17615693940416
1.176097064432732
1.176031883577442
1.17596255685737
1.175890522037832
1.175817892831914
1.175747166679467
1.175680583310753
1.175622491570255
1.175577454646975
1.175543635233383
1.175515986980095
1.175496396761226
1.175483948158222
1.175479103039928
1.175481977129134
1.175490073857506
1.175503821698644
1.175523379724199
1.175549067113659
1.175581135197145
1.17561962357368
1.175664387778867
1.175715150560626
1.175771425495248
1.175832412700961
1.175897040666407
1.175964147656779
1.176032233482409
1.176099158024468
1.176163045693206
1.176221699227499
1.176270688043321
1.176308096418299
1.176338226510276
1.176362333877588
1.176379116856502
1.176388853010704
1.176391385513602
1.176387054149703
1.176377126805101
1.176360826707374
1.176337761987643
1.176307637050098
1.17627044974759
1.176226415380809
1.176175782258466
1.176118851889329
1.176056195871356
1.175988766489721
1.1759177758552
1.175845090881932
1.17577342180037
1.175705069278165
1.175643353381342
1.175593749650846
1.175557012103822
1.175527532509978
1.175505407638091
1.175490697134512
1.175483560277194
1.175484048166545
1.175490674790912
1.175502961655742
1.175520871071528
1.175544462014032
1.175573787063338
1.175608924651959
1.175649971331976
1.175696839458524
1.175749063781591
1.175805325299312
1.175866100017693
1.175926639568202
1.176022418063331
)
;

boundaryField
{
    inlet
    {
        type            calculated;
        value           uniform 1.176395973595895;
    }
    outlet
    {
        type            calculated;
        value           uniform 1.176043829673177;
    }
    frontAndBack
    {
        type            empty;
    }
}


// ************************************************************************* //
