/*--------------------------------*- C++ -*----------------------------------*\
| =========                 |                                                 |
| \\      /  F ield         | OpenFOAM: The Open Source CFD Toolbox           |
|  \\    /   O peration     | Version:  v2012                                 |
|   \\  /    A nd           | Website:  www.openfoam.com                      |
|    \\/     M anipulation  |                                                 |
\*---------------------------------------------------------------------------*/
FoamFile
{
    version     2.0;
    format      ascii;
    class       volScalarField;
    location    "0.019";
    object      T;
}
// * * * * * * * * * * * * * * * * * * * * * * * * * * * * * * * * * * * * * //

dimensions      [0 0 0 1 0 0 0];


internalField   nonuniform List<scalar> 
1000
(
299.9958793205839
299.9866692210468
299.9735919068642
299.9655849917601
299.9584932584324
299.9519201856945
299.9462511391743
299.942093923121
299.9392299330665
299.9372681556452
299.9364543184113
299.9370065329884
299.9386229683006
299.9409230686709
299.944119654263
299.9482891407141
299.9532975275177
299.9589670962754
299.9651630037122
299.9717869986047
299.9787440396341
299.9859285339252
299.9932356343335
300.0005704573178
300.0078603888982
300.0150640402594
300.0220877750767
300.0288193205945
300.0352527999502
300.0409540918083
300.0453534420685
300.0492220290577
300.0522598225082
300.0544290874673
300.0555270582859
300.0555351832682
300.0546239787259
300.0526732809347
300.0495586370202
300.0452694796126
300.0398933581547
300.0335638547747
300.0264339454881
300.0186709136603
300.0104464913085
300.0019285987904
299.99327390779
299.9846098686478
299.9760592757955
299.9677869198307
299.9599306101233
299.9526771555214
299.9465858817424
299.942083260191
299.9386772627578
299.9360027198138
299.9343804562298
299.9338675744091
299.9343591410744
299.9356409530493
299.9379038597309
299.9412322099159
299.9456010115833
299.9508886272523
299.9569287577049
299.9635480455717
299.9705807176351
299.9778788892414
299.9853200460498
299.9928034843024
300.0002547779239
300.0076351342961
300.0148474957968
300.0217236934747
300.0282566633978
300.0341193938458
300.0386309074912
300.0425501219618
300.0457252533835
300.0480480547575
300.0495058529973
300.0499661149916
300.0494067517635
300.047982557362
300.0454761743881
300.0417988116409
300.0369626930674
300.0310591408552
300.0242254148122
300.0166292446533
300.0084578814352
299.999903494446
299.9911475569332
299.9823380236541
299.9736031537709
299.9651148743984
299.9570419785832
299.9495586224811
299.9431658237397
299.9383553465456
299.934808721679
299.9319273173229
299.9299790420621
299.9291029214614
299.9292722698025
299.9301712887524
299.9319287410925
299.9346673813845
299.9384379377285
299.9431963681614
299.9488308117261
299.9551937344625
299.9621201390612
299.9694372796257
299.9769766232522
299.9845924454773
299.9921807101149
299.999682784694
300.0070139006657
300.0140102140239
300.0206251964609
300.0266647691008
300.0314391312738
300.0354166065521
300.038743675355
300.0412739623716
300.0430319523487
300.0438348719091
300.0436285313751
300.0426035521193
300.0406071185387
300.0375071035083
300.0332613405847
300.0279115285474
300.0215470685204
300.0142976271204
300.0063356910165
299.9978611654005
299.9890783574714
299.9801690227389
299.9712869308507
299.9626182444804
299.9543667561198
299.9466969764034
299.9399993247452
299.9348520847115
299.9311353516907
299.9280654709726
299.9258724176632
299.9247044607101
299.9245157967144
299.9251240151941
299.9264968362958
299.9287757084626
299.9320397029981
299.93629312146
299.941469762574
299.9474646420913
299.954146517005
299.9613546694715
299.9689083787891
299.9766354967575
299.9843918116676
299.9920677160206
299.9995712238583
300.0067472761515
300.0134653199817
300.0196390588956
300.0247568091859
300.028722838646
300.0321961657294
300.0349110251913
300.0368598448518
300.0379219359313
300.0380575939581
300.0373387400493
300.0357506456014
300.0331372046164
300.0294259282272
300.0246118707637
300.0187463079085
300.0119266640511
300.0042960741099
299.9960321815497
299.9873334430822
299.9784010056577
299.9694161328067
299.9605764027281
299.9521193420174
299.944233908126
299.9372209597576
299.9316832829386
299.9277412644086
299.9245091870275
299.9221048019735
299.9206024066767
299.9200620258444
299.9204281056121
299.9214649609094
299.9233341390947
299.9261367961225
299.9299089559187
299.9346205959825
299.9402012787973
299.9465508932322
299.9535339685407
299.9609848847577
299.968728621078
299.9765952359347
299.9844375016016
299.9921446601472
299.9995511493456
300.0064532294517
300.012813242583
300.0182706727082
300.0223393618424
300.0258990639972
300.0287503695072
300.0308346854375
300.0321562234654
300.0325853441092
300.0321033126606
300.0308658720835
300.0286802881566
300.0254447322284
300.021125961777
300.0157507687627
300.009388970286
300.0021493382689
299.994178751652
299.9856584962064
299.9767912827721
299.9677717333427
299.9588003328097
299.950135876327
299.9420151421668
299.9346758962482
299.9286946740798
299.9244404848474
299.9210900420733
299.9184646542881
299.9166741212409
299.9158372379199
299.9159169046304
299.9166654025105
299.91817481035
299.9205605827164
299.9238881988875
299.9281557575039
299.9333168225035
299.9392958632591
299.9459856902936
299.953246075502
299.9609122335081
299.9688079280003
299.9767676106632
299.9846557719049
299.9922982720747
299.9994603691738
300.0060549784984
300.0118289516679
300.016196104041
300.019786932026
300.0227622061831
300.0250030427831
300.0265348990745
300.0271996580481
300.026961473718
300.026008969666
300.0241953534259
300.02139655099
300.0175541846684
300.0126725866285
300.0067920868245
299.999987267121
299.9923767743435
299.9841215291949
299.9754126460865
299.9664464054501
299.9574212828558
299.9485966943846
299.9402481885663
299.9326044774129
299.9261613484841
299.9214479732896
299.9180020824344
299.9151548496792
299.9131522335874
299.9120366700416
299.9117897972872
299.9122887969452
299.9134627768354
299.9154622204538
299.9183692734092
299.9222078778247
299.926951568561
299.9325448567066
299.938906745822
299.9459225872606
299.9534434732165
299.9612991964385
299.9693166565283
299.9773387930907
299.9851945506067
299.9926407758356
299.9994937402007
300.0055827555081
300.0104179728795
300.0139981830219
300.0171040636706
300.0194796545892
300.0211563711132
300.0219986887956
300.0219956588516
300.0212855030575
300.019793214428
300.0173939348046
300.0140097631983
300.0096175040464
300.0042316873682
299.9979026241949
299.9907241106579
299.9828294052501
299.9743849655794
299.9655789246075
299.9566045837073
299.9477005797762
299.9391682051258
299.9312703367725
299.9243789543436
299.9191260957365
299.9155087236431
299.9125008617148
299.9102944720204
299.9088923655065
299.9083542955536
299.9086287676625
299.9095133551557
299.9111623535728
299.9136808881793
299.9171101550823
299.9214386844435
299.9266306457263
299.9326303243739
299.939347049149
299.946649857464
299.9543816965325
299.962372828563
299.9704570557951
299.9784701204587
299.9861732386772
299.993319516134
299.9997765046828
300.005099817579
300.0089051507271
300.0121240935607
300.0146749264406
300.0164957853644
300.0175596554067
300.0178188324103
300.0173180132129
300.0161363710745
300.0141100343514
300.0111473312617
300.0072047350811
300.0022822454465
299.9964127734416
299.9896631653933
299.9821380740707
299.973980766316
299.9653667363165
299.9564816405193
299.947539732762
299.9388435717966
299.9306962774495
299.9233907361764
299.9175600149735
299.9135692749297
299.910428787463
299.9079868979415
299.9063203181308
299.905523935945
299.9055429043561
299.9061772086362
299.9075154953434
299.9096741880217
299.9127159795934
299.9166470090043
299.9214464629359
299.9270748417475
299.933460073727
299.9404927462923
299.9480360677193
299.9559317821129
299.9640122227711
299.9721148460679
299.9800187239047
299.9874489744749
299.9942373016601
300.000023812675
300.0042747656753
300.0075941120078
300.0103337395726
300.0123437350001
300.0136554421687
300.0141639797816
300.0138717091002
300.0129595849891
300.0112743893628
300.0087077742041
300.0052034302607
300.0007466849465
299.9953457073011
299.9890384451219
299.9819065892982
299.9740746919304
299.9657014393418
299.9569620735888
299.9480503184184
299.9392450570434
299.9308733809881
299.9232125309623
299.9168049175053
299.9122419542605
299.9089746287179
299.9062925717127
299.9044156169348
299.9033491802554
299.9030795732922
299.9035048293372
299.90455270608
299.9063786685822
299.9090584273969
299.9126141442678
299.9170346912026
299.9222909301311
299.9283298496034
299.9350655173155
299.9423790300278
299.9501235822271
299.9581358168211
299.96625529197
299.9742887128148
299.9819618576739
299.9890410482449
299.9952707490254
300.0001137499424
300.0035705183719
300.0065168381151
300.0087482665013
300.0102910862615
300.0110389709706
300.0110045690661
300.0103501506869
300.0089924650507
300.0068137271151
300.00373537015
299.999723955856
299.9947755771844
299.9889149206102
299.9822027601921
299.9747360895277
299.966648551763
299.9581050946775
299.9492864422199
299.940431900963
299.9318741655251
299.9239267917159
299.9170027715348
299.9117870951114
299.908288889001
299.9053903651416
299.9032752425402
299.9019265858123
299.9013948631231
299.901622640461
299.9024245823332
299.9039466681772
299.9062891015811
299.9094905270387
299.9135469195323
299.9184386963825
299.9241314669964
299.9305596365607
299.9376184451973
299.9451734393916
299.9530719705883
299.9611583969452
299.9692620978531
299.9771250867281
299.9844741574871
299.9911101686318
299.9965268503695
300.0003395525839
300.0034542768519
300.0059228653662
300.0076689382005
300.0086757635492
300.0089229284382
300.0084791875267
300.0074139071025
300.0055734221567
300.0028703911668
299.9992600639002
299.994730224222
299.9892891195263
299.9829719004138
299.9758528896522
299.9680492448996
299.9597142658083
299.9510166550948
299.9421616464344
299.9334651830291
299.9252680109253
299.9178953562068
299.9120233763595
299.9080729795098
299.9050025486409
299.9026289968406
299.90101621641
299.9002380046663
299.9002298620642
299.9008112469233
299.9020637866108
299.9040956934008
299.9069627368564
299.9106729198992
299.9152167744967
299.9205717022562
299.9266845513389
299.933466146348
299.9408016291929
299.9485538224651
299.9565694336126
299.9646888839732
299.9726868507031
299.9802775612562
299.9872461212642
299.9931829205502
299.9975440684789
300.0008180819428
300.0035361970757
300.0055190583079
300.0068097725938
300.0073224817193
300.0070802516898
300.0062607537106
300.0047219028982
300.0023595399089
299.9991169278384
299.9949702251902
299.9899116447461
299.9839601726205
299.9771763800786
299.9696600658141
299.961545036894
299.9529895994846
299.9441777153435
299.9353874842998
299.926968122488
299.9192325127668
299.9127619660514
299.9081797743015
299.9049382176757
299.9022829168214
299.9004334577829
299.8993831264854
299.8991134432951
299.8995174386538
299.9005170725782
299.9022567498654
299.9048056345652
299.9081864518494
299.9123956182602
299.9174154497111
299.9232071027872
299.929702129518
299.9368017737226
299.9443787720782
299.9522852787157
299.9603709649564
299.9684461988531
299.9762312243649
299.9834699624504
299.9898733413294
299.9948712936124
299.9983656997152
300.001320644179
300.0035557407834
300.0050929600288
300.0058446329136
300.0058416534084
300.0052459158938
300.0039828914796
300.0019401608889
299.999040516551
299.9952476778392
299.9905507265014
299.9849611707574
299.9785206457266
299.9713051592515
299.9634296293418
299.9550444971289
299.9463191556797
299.937487652526
299.9288924518577
299.9208676129186
299.9138549959782
299.9085745812662
299.9050446379586
299.9021452099303
299.9000365464076
299.8986966970178
299.8981660388469
299.8983817243961
299.8991544548277
299.9006186453026
299.9028649929595
299.9059287431368
299.9098110172737
299.9145035362191
299.9199832593901
299.9261947869931
299.9330489698862
299.9404350791359
299.9482227541957
299.9562649158501
299.9644064225038
299.9724313768053
299.9800651017204
299.9870860368001
299.9931062483261
299.9976204187212
300.0009273505911
300.0037144805942
300.0057613876571
300.007134794454
300.0077434741797
300.0076015911407
300.006905604705
300.0055708634187
300.0035061005161
300.0006472729311
299.9969679756681
299.9924697024252
299.9871759884111
299.981134419678
299.9744230728033
299.9671563217109
299.9594801863302
299.9515530755482
299.9435686254014
299.9358009811054
299.9285125956025
299.9219877955891
299.9167653334851
299.9130386967615
299.9100106950516
299.9076279710056
299.9059691930872
299.9050085560562
299.9047610163166
299.9051630986002
299.9060834686704
299.9076035629999
299.9097715712384
299.9126253118489
299.9161763922205
299.9204094066513
299.9252868109249
299.9307540635626
299.93674062924
299.94315391297
299.9498799532421
299.9567984646227
299.9637600365529
299.9705566781313
299.9770000311797
299.9828644166028
299.9876906828653
299.9912930223599
299.99429430105
299.9966760087121
299.9983499390382
299.9992857841256
299.9994709088255
299.9989777912506
299.9979026972145
299.9961614470601
299.9936898753274
299.9904347023711
299.9863821232676
299.981557771739
299.9760138329577
299.9698221348169
299.9630826962388
299.9559271659543
299.9485050495756
299.9410136525549
299.9337101978663
299.9268300265094
299.9207104356469
299.9158757785493
299.9123670445841
299.9094737030674
299.9072701878981
299.9057691682353
299.9050433734203
299.9050735716557
299.905672555638
299.9068510742196
299.9086618781535
299.9111598639636
299.9143738617328
299.9182998582015
299.9229108267996
299.9281622197088
299.93398794671
299.9402976991637
299.9469807990727
299.9539181660161
299.9609715549091
299.9679395038131
299.9746129892071
299.9807981918205
299.9860712032778
299.9900815171736
299.993246051481
299.9958526343095
299.9977241997675
299.9989087829413
299.9993347336033
299.9990042082197
299.9981271906381
299.9966119041821
299.9943913758179
299.9914099123424
299.9876482432034
299.9831207943159
299.9778627505364
299.9719305685528
299.96541243351
299.9584288916141
299.9511162066166
299.9436436088783
299.9362551933755
299.929194319382
299.9227256566864
299.9173726594278
299.9134318294704
299.910341553709
299.9078590785861
299.9061336647647
299.9051529386236
299.9049148210296
299.9053476534763
299.9063211412784
299.9079105556364
299.9101591479146
299.9131038267167
299.9167572999858
299.9211062011483
299.9261115174115
299.9317103712727
299.9378226622285
299.9443507871044
299.9511798690646
299.9581825958337
299.9651824373154
299.9719629974138
299.9783397718347
299.9839931009386
299.9884797301773
299.9918489050593
299.9946851336823
299.9968167668973
299.9982666980314
299.9989479133463
299.9988554819247
299.9981869019091
299.9969090797856
299.9949626348249
299.992288865294
299.988851636332
299.9846426992352
299.9796834521342
299.9740261681044
299.9677493318724
299.960956517369
299.9537743821556
299.946354533855
299.9389166077855
299.931714797498
299.9249843739896
299.9191655274203
299.9147081032956
299.9113981554185
299.9086635907533
299.9067039429776
299.9054505520228
299.9049561128538
299.9052149852841
299.9059969030922
299.9073683354044
299.9093744983056
299.9120597494927
299.9154473655029
299.9195299021495
299.9242743313835
299.9296314810355
299.9355359938037
299.9418976398567
299.9486022642508
299.9555288177575
299.9625269018079
299.9693859746216
299.9759139078557
299.9818796718519
299.9868124515022
299.9905162653366
299.9935518245742
299.9959663586528
299.9976536947029
299.9985936946866
299.9987830184465
299.9982974503048
299.9972414942861
299.9955413932622
299.9931398501889
299.9899848478571
299.9860606454102
299.9813875878635
299.9760068992449
299.9699758103259
299.9633809575604
299.9563439766535
299.9490050647799
299.9415528243921
299.9342417993099
299.9273034033298
299.9210765208556
299.9161032312489
299.9124596474065
299.9095016007049
299.9072592507878
299.9057458742164
299.9050199388666
299.9050613885696
299.9056689410816
299.906845762297
299.9086278738193
299.9110620419275
299.9141792639667
299.9179844736612
299.9224614141127
299.9275741955228
299.9332620884113
299.9394399794671
299.9460036356889
299.9528384311139
299.9598092009481
299.9667190626601
299.9733640504093
299.9795584669144
299.9849008073813
299.9890371735185
299.9922577210146
299.9949352098585
299.9968561438123
299.998090660233
299.998564686626
299.9982662268542
299.9974210343071
299.9959504150447
299.9937993877944
299.9909183493493
299.987284711178
299.9829029531504
299.9777975260732
299.9720162933921
299.9656381328721
299.9587720290964
299.9515447425755
299.9441191757418
299.9367372404852
299.9296387852543
299.9230851871059
299.9176116263565
299.9135235627105
299.910338676905
299.9077947043037
299.9060535738152
299.9050789139098
299.9048514923174
299.9053063367857
299.9062995335848
299.9078825498869
299.9100824080862
299.9129378054079
299.9164720825913
299.9206811782446
299.9255338387285
299.9309783626833
299.9369484963282
299.9433557911938
299.950085601015
299.9570086383518
299.9639501995228
299.9706956947014
299.977065647214
299.9827585205489
299.987337056155
299.99080167495
299.9936927189334
299.9958894105349
299.9973922450712
299.9981210270316
299.9980709500167
299.9974238183431
299.996171609654
299.9942734750261
299.9916800923701
299.9883541492403
299.9842835142071
299.9794851106537
299.974000452703
299.9678889096343
299.9612355846278
299.9541588459254
299.9468054261523
299.9393910780566
299.9321707583229
299.9253731458076
299.9194422779617
299.9148441305138
299.911391204281
299.9085683069642
299.906568117538
299.9052970915947
299.9048023985845
299.905095868094
299.9059225832411
299.9073262737323
299.9093231750535
299.9119458637878
299.91521998114
299.9191495495174
299.9237198000121
299.9289024043654
299.934647670285
299.9408738916537
299.9474716235057
299.9543222069857
299.9612724285644
299.9681037505864
299.9746246462376
299.9806107777858
299.985609923839
299.9894266338081
299.9925000932919
299.994958595927
299.9966695969366
299.9976614921707
299.9979184772238
299.997475005258
299.9964613301423
299.9947999216757
299.9924517237756
299.9893879911995
299.9856098325979
299.9811396794103
299.9760020365875
299.9702250653776
299.9638622074356
299.9570036898348
299.9497656165265
299.9423320348606
299.9349747152793
299.9279245232322
299.9215179358192
299.9163162580177
299.9124050776787
299.9092259836702
299.9068016847917
299.905149820393
299.9043324721778
299.9042839129505
299.9048304714623
299.9060328303539
299.9079031351649
299.910449210766
299.9136837807122
299.9175869541509
299.9221086645468
299.9272250865184
299.9330094754291
299.9395571676383
299.9469566971402
299.9540036673777
299.9617148725233
)
;

boundaryField
{
    inlet
    {
        type            fixedValue;
        value           uniform 300;
    }
    outlet
    {
        type            inletOutlet;
        inletValue      uniform 300;
        value           uniform 299.9620685786704;
    }
    frontAndBack
    {
        type            empty;
    }
}


// ************************************************************************* //
