/*--------------------------------*- C++ -*----------------------------------*\
| =========                 |                                                 |
| \\      /  F ield         | OpenFOAM: The Open Source CFD Toolbox           |
|  \\    /   O peration     | Version:  v2012                                 |
|   \\  /    A nd           | Website:  www.openfoam.com                      |
|    \\/     M anipulation  |                                                 |
\*---------------------------------------------------------------------------*/
FoamFile
{
    version     2.0;
    format      ascii;
    class       volVectorField;
    location    "0.019";
    object      U;
}
// * * * * * * * * * * * * * * * * * * * * * * * * * * * * * * * * * * * * * //

dimensions      [0 1 -1 0 0 0 0];


internalField   nonuniform List<vector> 
1000
(
(0.04101833564160732 0 0)
(0.01302229514032816 0 0)
(0.006054270184056324 0 0)
(-0.005868409253511671 0 0)
(-0.01620477096976591 0 0)
(-0.02525173708945288 0 0)
(-0.03158957916340839 0 0)
(-0.03422646442395941 0 0)
(-0.03439191436045613 0 0)
(-0.03274218721514215 0 0)
(-0.02794925087007093 0 0)
(-0.01967122045270629 0 0)
(-0.009987066867832486 0 0)
(0.001835731285782737 0 0)
(0.01596469109902822 0 0)
(0.03225636604064676 0 0)
(0.05026950468511233 0 0)
(0.06944791596814825 0 0)
(0.08926607437390859 0 0)
(0.109248062173928 0 0)
(0.1289486279615369 0 0)
(0.1479451356120683 0 0)
(0.165839451075609 0 0)
(0.1822901701413155 0 0)
(0.1970886361210038 0 0)
(0.2101445480405165 0 0)
(0.2212587343420933 0 0)
(0.2303473238631188 0 0)
(0.2375640765069627 0 0)
(0.2417550963377046 0 0)
(0.2425409684510745 0 0)
(0.2411534658072347 0 0)
(0.2377386271692311 0 0)
(0.2324654897298245 0 0)
(0.2252836516052147 0 0)
(0.2154089013107841 0 0)
(0.2050779363809678 0 0)
(0.1932058764704948 0 0)
(0.1796289691465736 0 0)
(0.1644044751123167 0 0)
(0.1478822732843008 0 0)
(0.1304879362961284 0 0)
(0.1126005781235955 0 0)
(0.0945680252364566 0 0)
(0.07672856986694629 0 0)
(0.05939521090065895 0 0)
(0.04282250807862549 0 0)
(0.02716221453198257 0 0)
(0.01254736908492932 0 0)
(-0.0007695032659080242 0 0)
(-0.0125920965788842 0 0)
(-0.02255057048530656 0 0)
(-0.02931315530849148 0 0)
(-0.03193741009201662 0 0)
(-0.03191294691950253 0 0)
(-0.03024093594023516 0 0)
(-0.02638431136344882 0 0)
(-0.01909331788952667 0 0)
(-0.01055211108464731 0 0)
(-0.0003857753290224315 0 0)
(0.01181292222709491 0 0)
(0.02630194261972569 0 0)
(0.04299199049333938 0 0)
(0.06147027146459765 0 0)
(0.08113567579092788 0 0)
(0.1013394176923506 0 0)
(0.1214726249935209 0 0)
(0.1410102760393846 0 0)
(0.159536117010516 0 0)
(0.1767470271757718 0 0)
(0.192433667285466 0 0)
(0.2064654037897743 0 0)
(0.218638188326094 0 0)
(0.2286793905494318 0 0)
(0.2366001120331813 0 0)
(0.2416636230679657 0 0)
(0.2430675848757659 0 0)
(0.2419639429597876 0 0)
(0.2389457804254998 0 0)
(0.2341774635645013 0 0)
(0.2278578713219653 0 0)
(0.2188372018529798 0 0)
(0.2091777683516749 0 0)
(0.1983810433644616 0 0)
(0.1861242290163935 0 0)
(0.1722195279594837 0 0)
(0.1567960361698041 0 0)
(0.140149131339853 0 0)
(0.1226289120225876 0 0)
(0.1046177983392982 0 0)
(0.08652087020070849 0 0)
(0.06872652221687627 0 0)
(0.0515673345657697 0 0)
(0.03526596878021605 0 0)
(0.01997950738935762 0 0)
(0.005982604946775909 0 0)
(-0.006443604364502357 0 0)
(-0.01698438077048826 0 0)
(-0.02444973286122986 0 0)
(-0.02759053130617175 0 0)
(-0.02784480844934121 0 0)
(-0.02643626269334936 0 0)
(-0.02299820820913255 0 0)
(-0.016913516962048 0 0)
(-0.008713584055085119 0 0)
(0.0005551657216921795 0 0)
(0.0114890240303455 0 0)
(0.02443881505431078 0 0)
(0.03953875985481251 0 0)
(0.0566242063246087 0 0)
(0.07529552536195606 0 0)
(0.0950155940240331 0 0)
(0.1151761599298848 0 0)
(0.1351627920422512 0 0)
(0.1544340110631728 0 0)
(0.1725596525007329 0 0)
(0.1892101942551275 0 0)
(0.2041971870132949 0 0)
(0.2173655418439567 0 0)
(0.228337626147421 0 0)
(0.2369885858621913 0 0)
(0.2431004274709943 0 0)
(0.2454216105947229 0 0)
(0.244814510791218 0 0)
(0.2423586209233098 0 0)
(0.2380403574151123 0 0)
(0.2321760017652405 0 0)
(0.2243995934870082 0 0)
(0.2149440686096599 0 0)
(0.2048826353206122 0 0)
(0.1935937050420629 0 0)
(0.1808022871551794 0 0)
(0.1664569824458351 0 0)
(0.1507204422924494 0 0)
(0.1338595417794628 0 0)
(0.116192601655703 0 0)
(0.09808387245977498 0 0)
(0.07993210927074031 0 0)
(0.06214410877782609 0 0)
(0.04506041859570557 0 0)
(0.02892614113085161 0 0)
(0.01406757486008001 0 0)
(0.000877583413489279 0 0)
(-0.01036283860750591 0 0)
(-0.01872871336516269 0 0)
(-0.0227596366194525 0 0)
(-0.02343576024080034 0 0)
(-0.02225052201624239 0 0)
(-0.01922733051702743 0 0)
(-0.01423147040016035 0 0)
(-0.006271674663380179 0 0)
(0.002280914313030609 0 0)
(0.01232962160191393 0 0)
(0.02412397162139503 0 0)
(0.0378937143933672 0 0)
(0.05363721532345064 0 0)
(0.07111495644042932 0 0)
(0.08992502090828786 0 0)
(0.1095626065978507 0 0)
(0.129473463134412 0 0)
(0.149106467060424 0 0)
(0.167943142575426 0 0)
(0.1855297682879025 0 0)
(0.2015604887421131 0 0)
(0.2158154801603682 0 0)
(0.2278587357579041 0 0)
(0.2374466717473636 0 0)
(0.2446203913010664 0 0)
(0.2480331912379478 0 0)
(0.2481362756722206 0 0)
(0.2463140478734892 0 0)
(0.2425740483952396 0 0)
(0.2373109899024363 0 0)
(0.2306764234738107 0 0)
(0.2214568867888126 0 0)
(0.2121469710775694 0 0)
(0.2016585760680534 0 0)
(0.1898274502094953 0 0)
(0.1765054750483818 0 0)
(0.1617532579694475 0 0)
(0.1457540288055077 0 0)
(0.1287308040628202 0 0)
(0.1109600982988691 0 0)
(0.09280069971497858 0 0)
(0.07467295979068093 0 0)
(0.0569854637471869 0 0)
(0.04006676512246819 0 0)
(0.02429049008619411 0 0)
(0.01015827987586252 0 0)
(-0.001974881997114841 0 0)
(-0.01138609951332615 0 0)
(-0.01655552243486536 0 0)
(-0.01781395246144337 0 0)
(-0.01697098685758478 0 0)
(-0.0144284945431035 0 0)
(-0.01001324629200609 0 0)
(-0.00288702559379493 0 0)
(0.00536634367955854 0 0)
(0.0147386042524725 0 0)
(0.0255884784905493 0 0)
(0.03822494752933774 0 0)
(0.0527462982545974 0 0)
(0.06902845186663771 0 0)
(0.08677839147833299 0 0)
(0.1056020142163756 0 0)
(0.1250438984040222 0 0)
(0.1446033617311244 0 0)
(0.1637567317675998 0 0)
(0.1820059182585862 0 0)
(0.1989407870533911 0 0)
(0.2142368555661765 0 0)
(0.227459923305946 0 0)
(0.2382094099017536 0 0)
(0.2464252599220302 0 0)
(0.251180988322154 0 0)
(0.252211221270237 0 0)
(0.2509611667825937 0 0)
(0.2479108024462486 0 0)
(0.2432797000025479 0 0)
(0.2372747464123125 0 0)
(0.2289261245397514 0 0)
(0.2200169797555463 0 0)
(0.2102117049569784 0 0)
(0.1992238990601297 0 0)
(0.1868175984999065 0 0)
(0.1729838438847136 0 0)
(0.1578292848330376 0 0)
(0.1415039191139517 0 0)
(0.1242175966005635 0 0)
(0.1062707115257382 0 0)
(0.08804139835573087 0 0)
(0.06994567949369704 0 0)
(0.0523688970199146 0 0)
(0.03571756114938969 0 0)
(0.020554639665116 0 0)
(0.007379547645780657 0 0)
(-0.003217318767924105 0 0)
(-0.009816028650470009 0 0)
(-0.01193624099286931 0 0)
(-0.0115124438747958 0 0)
(-0.009378823300145472 0 0)
(-0.005391590068684781 0 0)
(0.0007007336195834271 0 0)
(0.008834553065964035 0 0)
(0.01765927078393623 0 0)
(0.02778807465156012 0 0)
(0.03950299871308463 0 0)
(0.05298084469687347 0 0)
(0.06818092788605941 0 0)
(0.08489405749548873 0 0)
(0.1028185005121621 0 0)
(0.1215881084279911 0 0)
(0.140772406611475 0 0)
(0.1598958451908353 0 0)
(0.1784721111441681 0 0)
(0.1960363306795357 0 0)
(0.212203310882118 0 0)
(0.2265539980438507 0 0)
(0.2385184172281738 0 0)
(0.2478516398994539 0 0)
(0.2540980332004241 0 0)
(0.2562860415130017 0 0)
(0.2556724479151958 0 0)
(0.2533456691003427 0 0)
(0.2493322430724436 0 0)
(0.2438915891761531 0 0)
(0.2365921059281559 0 0)
(0.2279805261416759 0 0)
(0.2187784918500447 0 0)
(0.2085258889604334 0 0)
(0.1969528911227382 0 0)
(0.1839670045719967 0 0)
(0.169619028398978 0 0)
(0.1540227638504299 0 0)
(0.137338332063217 0 0)
(0.1197940914282366 0 0)
(0.1016999753344123 0 0)
(0.08344472092389804 0 0)
(0.06543566791142058 0 0)
(0.04808201155307483 0 0)
(0.03195708770753438 0 0)
(0.01770797243150002 0 0)
(0.005876427344617122 0 0)
(-0.002355436691448862 0 0)
(-0.00570059283105082 0 0)
(-0.005806486697344531 0 0)
(-0.004101968897510151 0 0)
(-0.0005783816728602209 0 0)
(0.004689460939433595 0 0)
(0.01257070125613728 0 0)
(0.02096847954064222 0 0)
(0.03053055924018246 0 0)
(0.04149982997242691 0 0)
(0.05409031532814004 0 0)
(0.06832724938059044 0 0)
(0.08407083132516847 0 0)
(0.1010878192735256 0 0)
(0.1190814424634826 0 0)
(0.1376924600366514 0 0)
(0.1565130911182192 0 0)
(0.1750994301137323 0 0)
(0.1929875111205487 0 0)
(0.209772890203748 0 0)
(0.2250436660359302 0 0)
(0.2381639694578544 0 0)
(0.2487330361552239 0 0)
(0.2564868966505399 0 0)
(0.2600996272549561 0 0)
(0.2603540233107128 0 0)
(0.2587969034984253 0 0)
(0.2554634362332069 0 0)
(0.25066059435959 0 0)
(0.2443999921790307 0 0)
(0.2360790883831822 0 0)
(0.2275172590257278 0 0)
(0.2178982610702306 0 0)
(0.2070327177018347 0 0)
(0.1947637877741776 0 0)
(0.1811043520285884 0 0)
(0.1661499461706952 0 0)
(0.150015323462449 0 0)
(0.1328613231931629 0 0)
(0.1149404406021005 0 0)
(0.09660515322731918 0 0)
(0.07825940656713087 0 0)
(0.06030476363883465 0 0)
(0.04327651474440103 0 0)
(0.02790861973267549 0 0)
(0.01479483866082522 0 0)
(0.004886348269723432 0 0)
(-0.0001296514674271188 0 0)
(-0.001044174737850657 0 0)
(0.0001245517353899415 0 0)
(0.003078975419436167 0 0)
(0.007819766361927903 0 0)
(0.01488708215593717 0 0)
(0.02310192724476073 0 0)
(0.03219181526018276 0 0)
(0.04251846346524476 0 0)
(0.05434395472658098 0 0)
(0.06773960745736327 0 0)
(0.08261752827758011 0 0)
(0.09879311954769057 0 0)
(0.1160206235797641 0 0)
(0.1340051533697788 0 0)
(0.1524069214292572 0 0)
(0.1708336847073841 0 0)
(0.1888470283804791 0 0)
(0.2060319895228005 0 0)
(0.2219876040146695 0 0)
(0.2361226958133444 0 0)
(0.2478906887889347 0 0)
(0.256963087054255 0 0)
(0.2622267536496496 0 0)
(0.2635155345978549 0 0)
(0.2625374106112899 0 0)
(0.2598561142252784 0 0)
(0.2556561412340103 0 0)
(0.2501089512344466 0 0)
(0.24226078745293 0 0)
(0.2340985254552155 0 0)
(0.2249985326549921 0 0)
(0.2147489020322409 0 0)
(0.2031543702026021 0 0)
(0.1901802114650953 0 0)
(0.1758812325034444 0 0)
(0.1603412058029243 0 0)
(0.1436873170696592 0 0)
(0.1261261182562341 0 0)
(0.1079533051709487 0 0)
(0.08953966164062931 0 0)
(0.07127777097142382 0 0)
(0.05364462579345893 0 0)
(0.03735872094411585 0 0)
(0.02313642055626277 0 0)
(0.01177291909590523 0 0)
(0.004884046748198811 0 0)
(0.002844828484313239 0 0)
(0.003472641059517677 0 0)
(0.005886990040152801 0 0)
(0.01012762203330275 0 0)
(0.01625402980652089 0 0)
(0.02440158145360536 0 0)
(0.0330535431694725 0 0)
(0.04286134539821384 0 0)
(0.05403888147666114 0 0)
(0.06671417352958789 0 0)
(0.08083649303998873 0 0)
(0.09624691281575003 0 0)
(0.1127432648506977 0 0)
(0.1300922128456629 0 0)
(0.1480100572103566 0 0)
(0.166150283513883 0 0)
(0.184116240365855 0 0)
(0.2015039449355855 0 0)
(0.2179356065313852 0 0)
(0.2329015093453012 0 0)
(0.2457335579987968 0 0)
(0.2560075028276075 0 0)
(0.2629537301993892 0 0)
(0.2655233478374583 0 0)
(0.2651963853082943 0 0)
(0.26321593983839 0 0)
(0.2596149419851681 0 0)
(0.2545699086189626 0 0)
(0.2475123784380478 0 0)
(0.23950812596861 0 0)
(0.2308007018284162 0 0)
(0.2210686352336592 0 0)
(0.2100546538122262 0 0)
(0.1976658466482445 0 0)
(0.1839298437549521 0 0)
(0.1689310544805111 0 0)
(0.1527834526513503 0 0)
(0.1356427666811092 0 0)
(0.1177373939404199 0 0)
(0.09939306683859553 0 0)
(0.08099077275719067 0 0)
(0.0629526251592038 0 0)
(0.04592328034130629 0 0)
(0.03071529614045799 0 0)
(0.01803526908745125 0 0)
(0.009210518776030383 0 0)
(0.005689062953787081 0 0)
(0.005661377893395238 0 0)
(0.007518782398041129 0 0)
(0.01120744453099111 0 0)
(0.01659813127030973 0 0)
(0.02438868205811998 0 0)
(0.03271390484904225 0 0)
(0.04205708998557638 0 0)
(0.05265614893648848 0 0)
(0.06467614824879114 0 0)
(0.07810514625432839 0 0)
(0.09281859505700459 0 0)
(0.1086474866632519 0 0)
(0.1253908219930688 0 0)
(0.1427981277245498 0 0)
(0.1605705784885268 0 0)
(0.1783683230994411 0 0)
(0.195816014808343 0 0)
(0.2125529421361793 0 0)
(0.2281386087563138 0 0)
(0.2418931938550057 0 0)
(0.2533022487529207 0 0)
(0.2617961043568624 0 0)
(0.2659265334304119 0 0)
(0.2664648779021901 0 0)
(0.2651364879763848 0 0)
(0.2620779296869752 0 0)
(0.2574902591855479 0 0)
(0.2513257610164479 0 0)
(0.2433403076923552 0 0)
(0.2349854386822683 0 0)
(0.2256272114610064 0 0)
(0.2150633609511391 0 0)
(0.2031539309464643 0 0)
(0.1899080589511545 0 0)
(0.1754015101440372 0 0)
(0.1597189256518473 0 0)
(0.1429782218599797 0 0)
(0.1253737299853642 0 0)
(0.1071909332816635 0 0)
(0.08878070489082912 0 0)
(0.07051700537810714 0 0)
(0.05294026834342581 0 0)
(0.03687434440288982 0 0)
(0.02305809310868738 0 0)
(0.01257375607400213 0 0)
(0.007273280488215537 0 0)
(0.006339893719900919 0 0)
(0.007588869830273234 0 0)
(0.01067163692346994 0 0)
(0.01553280364999874 0 0)
(0.0225672769907077 0 0)
(0.03077026660276545 0 0)
(0.03974383327671616 0 0)
(0.04984130753631072 0 0)
(0.06127506841636546 0 0)
(0.07407981551706605 0 0)
(0.08816941967299581 0 0)
(0.1033996796324543 0 0)
(0.1195844586600451 0 0)
(0.1364983661464551 0 0)
(0.1538873912733889 0 0)
(0.1714598681671336 0 0)
(0.1888696092144046 0 0)
(0.205765709300309 0 0)
(0.22177122996799 0 0)
(0.2362862322301771 0 0)
(0.2486912803864078 0 0)
(0.2584672381877346 0 0)
(0.2643503828479175 0 0)
(0.2659986578495261 0 0)
(0.2652237936599822 0 0)
(0.2627485296000249 0 0)
(0.2586924323406544 0 0)
(0.2532094636973043 0 0)
(0.2454997478483563 0 0)
(0.2374038588585203 0 0)
(0.228394154694421 0 0)
(0.2182708266184789 0 0)
(0.206859211435894 0 0)
(0.1941224618337658 0 0)
(0.1801074859528264 0 0)
(0.1648964377814294 0 0)
(0.1486058904286623 0 0)
(0.1314012364639958 0 0)
(0.113511676270856 0 0)
(0.0952444974504186 0 0)
(0.07694703040548165 0 0)
(0.05906863371839104 0 0)
(0.04235693353021806 0 0)
(0.02762808650393263 0 0)
(0.01576769071488154 0 0)
(0.008500136684084982 0 0)
(0.006336541635671988 0 0)
(0.006993684698297626 0 0)
(0.009496004336093995 0 0)
(0.01382893938243946 0 0)
(0.01995288982489148 0 0)
(0.0280947159098394 0 0)
(0.03666642262295782 0 0)
(0.04633138580626445 0 0)
(0.05724800158951321 0 0)
(0.06950596382322591 0 0)
(0.08304454664689306 0 0)
(0.09772416938034195 0 0)
(0.1133791294038016 0 0)
(0.1298255661934407 0 0)
(0.1468451811876724 0 0)
(0.1641685261926372 0 0)
(0.1814764926413302 0 0)
(0.1984360982701422 0 0)
(0.2147200233827195 0 0)
(0.2298310785893257 0 0)
(0.2430780357785706 0 0)
(0.2539393026078536 0 0)
(0.2614876527548242 0 0)
(0.2644757822510184 0 0)
(0.2643663210927088 0 0)
(0.2625513544480815 0 0)
(0.2590507759279743 0 0)
(0.2540320289316388 0 0)
(0.2470298497707465 0 0)
(0.2389866341141007 0 0)
(0.2302717227847509 0 0)
(0.2205625196449287 0 0)
(0.2096244586439586 0 0)
(0.197375648464409 0 0)
(0.1838543529389003 0 0)
(0.1691508728634878 0 0)
(0.1533657199823686 0 0)
(0.1366197427473063 0 0)
(0.1190966445331338 0 0)
(0.1010742074378734 0 0)
(0.08288590230325947 0 0)
(0.06490706060596033 0 0)
(0.04775834274475829 0 0)
(0.03229493114699027 0 0)
(0.0193040659558418 0 0)
(0.01021076182415882 0 0)
(0.006561573641515697 0 0)
(0.006507774735927276 0 0)
(0.008370993336292848 0 0)
(0.0120873076102315 0 0)
(0.01751214308366297 0 0)
(0.02528598274298635 0 0)
(0.0336006729033564 0 0)
(0.04287457854777198 0 0)
(0.05331332437222266 0 0)
(0.06505035259608681 0 0)
(0.07806158445399265 0 0)
(0.09223013306253937 0 0)
(0.1074070544693725 0 0)
(0.1234211978018406 0 0)
(0.1400636694723794 0 0)
(0.1570905153538771 0 0)
(0.1742280653690345 0 0)
(0.1911691138778043 0 0)
(0.2076066182294353 0 0)
(0.2231318126618254 0 0)
(0.2370807098366693 0 0)
(0.2488953256020018 0 0)
(0.2578682090098828 0 0)
(0.2624650725390323 0 0)
(0.2632603416922464 0 0)
(0.2620712941379773 0 0)
(0.2591218519438381 0 0)
(0.25457527376222 0 0)
(0.2484435460645552 0 0)
(0.2404145344957432 0 0)
(0.2320334066951724 0 0)
(0.2226600783023006 0 0)
(0.212134116890285 0 0)
(0.200333620376228 0 0)
(0.1872717403516993 0 0)
(0.1730227039828876 0 0)
(0.1576684698983142 0 0)
(0.1413183368664554 0 0)
(0.124141940837275 0 0)
(0.106380823875801 0 0)
(0.08833706251527794 0 0)
(0.07034020142976145 0 0)
(0.05289403399433749 0 0)
(0.03681850478685728 0 0)
(0.02288425565489238 0 0)
(0.01223590988710142 0 0)
(0.006793800089236813 0 0)
(0.005789901818070922 0 0)
(0.007009172822955183 0 0)
(0.01007568124767244 0 0)
(0.01493010798653576 0 0)
(0.02193634771535299 0 0)
(0.0301209369768399 0 0)
(0.03904825901572397 0 0)
(0.04903931452527234 0 0)
(0.06027802103075909 0 0)
(0.0727889172960087 0 0)
(0.08648093601769903 0 0)
(0.101207116730772 0 0)
(0.116798186652701 0 0)
(0.1330724087528561 0 0)
(0.1498245742864021 0 0)
(0.1668084272456939 0 0)
(0.1837347376417395 0 0)
(0.2003033755862002 0 0)
(0.2162205193597966 0 0)
(0.2310312701485488 0 0)
(0.2440934154638169 0 0)
(0.2549122167614677 0 0)
(0.2626091988175854 0 0)
(0.2658808145103101 0 0)
(0.2660442097303937 0 0)
(0.2645670517000677 0 0)
(0.2614218338868957 0 0)
(0.2568313892738731 0 0)
(0.2505343262209667 0 0)
(0.2429006056799756 0 0)
(0.2347839001598251 0 0)
(0.2258529604018005 0 0)
(0.2159535489057764 0 0)
(0.2050200547152392 0 0)
(0.1930932433549316 0 0)
(0.1802559730996003 0 0)
(0.1665999986100652 0 0)
(0.1522485666862766 0 0)
(0.137371112105149 0 0)
(0.1221784764059658 0 0)
(0.106926531197666 0 0)
(0.09189399812514011 0 0)
(0.07745301902949069 0 0)
(0.06419780162530082 0 0)
(0.05269415855715423 0 0)
(0.04364784931874395 0 0)
(0.03838893134323854 0 0)
(0.03690000550580996 0 0)
(0.03747259368912852 0 0)
(0.03957386716235265 0 0)
(0.04310997962642047 0 0)
(0.04788755648046967 0 0)
(0.05468751964474036 0 0)
(0.06180419311677084 0 0)
(0.0695838346930954 0 0)
(0.07803138446432777 0 0)
(0.08720429644199815 0 0)
(0.09709286877248083 0 0)
(0.1076162314616349 0 0)
(0.1186738657468278 0 0)
(0.130178308494416 0 0)
(0.1420317889971322 0 0)
(0.1541046672457839 0 0)
(0.1662425608067481 0 0)
(0.1782768254268066 0 0)
(0.1900364715106989 0 0)
(0.2012645472448431 0 0)
(0.2115397504789674 0 0)
(0.2205001995756039 0 0)
(0.2276110705270169 0 0)
(0.2317450198103688 0 0)
(0.2329041046874346 0 0)
(0.2323821219851669 0 0)
(0.2304688317310551 0 0)
(0.2272333060477309 0 0)
(0.2228141909065989 0 0)
(0.2162551333079665 0 0)
(0.2095080371463732 0 0)
(0.2020023913825205 0 0)
(0.1937504990729571 0 0)
(0.18467615584046 0 0)
(0.1747630135321723 0 0)
(0.1640651045752786 0 0)
(0.1526548207572718 0 0)
(0.1406106217919198 0 0)
(0.1280499208260143 0 0)
(0.1151446512686567 0 0)
(0.1021001187221021 0 0)
(0.08913868925153491 0 0)
(0.07662287668728816 0 0)
(0.06509259554079536 0 0)
(0.05501913130155163 0 0)
(0.04722937940142676 0 0)
(0.04305559267004813 0 0)
(0.04206058338896677 0 0)
(0.04275159910325352 0 0)
(0.04494611188609202 0 0)
(0.04856456472032335 0 0)
(0.053616445059653 0 0)
(0.06040421315371288 0 0)
(0.06749934273705804 0 0)
(0.07533176514412214 0 0)
(0.08389791915691157 0 0)
(0.09323194248286676 0 0)
(0.1033018288279237 0 0)
(0.1140183678895153 0 0)
(0.1252731507629417 0 0)
(0.1369532529312497 0 0)
(0.1489412247268657 0 0)
(0.1611043182365944 0 0)
(0.1732747885441519 0 0)
(0.1852701118727251 0 0)
(0.1968711098986089 0 0)
(0.2076919445317887 0 0)
(0.2173087345044799 0 0)
(0.2252994750161634 0 0)
(0.2306768224660611 0 0)
(0.232729952413236 0 0)
(0.2326527135374606 0 0)
(0.2312371709519331 0 0)
(0.2284223842074853 0 0)
(0.2243575404985974 0 0)
(0.2183578903174265 0 0)
(0.2116703717580019 0 0)
(0.2043491162453325 0 0)
(0.1963308807838787 0 0)
(0.1875309847058591 0 0)
(0.1779221414155502 0 0)
(0.167531996131387 0 0)
(0.1564319168714676 0 0)
(0.1447184440068794 0 0)
(0.132504046519565 0 0)
(0.1199214297107412 0 0)
(0.1071444094939023 0 0)
(0.09437408884859153 0 0)
(0.08188632559942863 0 0)
(0.07015028784574751 0 0)
(0.05965140751949201 0 0)
(0.05100292646555916 0 0)
(0.04545833764374865 0 0)
(0.04349879123044116 0 0)
(0.04366487812544863 0 0)
(0.04527733088073572 0 0)
(0.0483362032817074 0 0)
(0.05268380644665382 0 0)
(0.05918109201373303 0 0)
(0.06601017358674564 0 0)
(0.07359103834879768 0 0)
(0.08189732280042802 0 0)
(0.09096749594677815 0 0)
(0.1007934220009754 0 0)
(0.1112865052721008 0 0)
(0.1223164104935329 0 0)
(0.1337674114505538 0 0)
(0.1455392673364911 0 0)
(0.1575103507822199 0 0)
(0.1695191949308642 0 0)
(0.1813945586316825 0 0)
(0.1929670548804172 0 0)
(0.2039303905262089 0 0)
(0.2138508993399411 0 0)
(0.2223886200565761 0 0)
(0.2287955423365301 0 0)
(0.2319480178028553 0 0)
(0.2325140531476947 0 0)
(0.2316664779665477 0 0)
(0.2293666822123135 0 0)
(0.2257393732831579 0 0)
(0.2206353393675164 0 0)
(0.2139992030058658 0 0)
(0.2069718479583518 0 0)
(0.1992185464881031 0 0)
(0.1906895905448789 0 0)
(0.1813263030770709 0 0)
(0.1711543201399169 0 0)
(0.1602744755573158 0 0)
(0.1487959847619251 0 0)
(0.1368092729540331 0 0)
(0.1244236591688925 0 0)
(0.111808446552069 0 0)
(0.09916117200800252 0 0)
(0.08669591346558625 0 0)
(0.07480253878749003 0 0)
(0.06398502104979542 0 0)
(0.05469920971743603 0 0)
(0.04797474460036 0 0)
(0.04491800152804481 0 0)
(0.04449207863724915 0 0)
(0.04552401892726295 0 0)
(0.04804330254438059 0 0)
(0.0519135805309433 0 0)
(0.05764677593000846 0 0)
(0.06431392541956181 0 0)
(0.0716167122104944 0 0)
(0.07964808807684733 0 0)
(0.08845726322962039 0 0)
(0.09802701535616272 0 0)
(0.1082766570179437 0 0)
(0.1190906273871395 0 0)
(0.1303538534279355 0 0)
(0.1419471025021906 0 0)
(0.1537368235643154 0 0)
(0.1655820515028858 0 0)
(0.1773347981335815 0 0)
(0.1888442620053898 0 0)
(0.1998758233796712 0 0)
(0.2100319081388972 0 0)
(0.2189667217155097 0 0)
(0.2261592174452467 0 0)
(0.2304719964811109 0 0)
(0.2318005521438503 0 0)
(0.2314135783047583 0 0)
(0.2296447159582564 0 0)
(0.2265384741660881 0 0)
(0.2222392237531414 0 0)
(0.215788026441772 0 0)
(0.2091052134571823 0 0)
(0.2016301326001418 0 0)
(0.1933970206100183 0 0)
(0.1843619781902337 0 0)
(0.1745289031316273 0 0)
(0.1639636298864061 0 0)
(0.1527541278154584 0 0)
(0.1410006404460092 0 0)
(0.1288340279646846 0 0)
(0.1164158399522757 0 0)
(0.1039242750415019 0 0)
(0.09154647338766035 0 0)
(0.0795928086183732 0 0)
(0.06854177828491541 0 0)
(0.05879863681540529 0 0)
(0.05114392304505874 0 0)
(0.04689850904055652 0 0)
(0.04575521075156254 0 0)
(0.04627177447129207 0 0)
(0.04825463351877215 0 0)
(0.05164268613399874 0 0)
(0.05646156238732446 0 0)
(0.06300165088646509 0 0)
(0.06994541280668402 0 0)
(0.07768439413316472 0 0)
(0.0861922303909307 0 0)
(0.09547771207069719 0 0)
(0.105495789688743 0 0)
(0.1161318324099727 0 0)
(0.1272358195488244 0 0)
(0.1386619208995835 0 0)
(0.1502864440477633 0 0)
(0.1619902340586196 0 0)
(0.1736268848572612 0 0)
(0.185045274303562 0 0)
(0.1960778324278233 0 0)
(0.2063969171717038 0 0)
(0.215624069074238 0 0)
(0.2233997506972754 0 0)
(0.22881364010908 0 0)
(0.2310401384845827 0 0)
(0.2311435350721364 0 0)
(0.2299494164523034 0 0)
(0.2273431026817142 0 0)
(0.2234963818048493 0 0)
(0.2177927525763321 0 0)
(0.2112684856745474 0 0)
(0.2041037837604774 0 0)
(0.1962195045222263 0 0)
(0.1875432594177634 0 0)
(0.1780537707497891 0 0)
(0.1677872201205529 0 0)
(0.1568385843679178 0 0)
(0.1453323367114122 0 0)
(0.1333954792849774 0 0)
(0.1211631060166444 0 0)
(0.1088103237246632 0 0)
(0.09653036073158092 0 0)
(0.08456251112716223 0 0)
(0.07333203938898052 0 0)
(0.06327057356527047 0 0)
(0.05491274257444244 0 0)
(0.04947892597000764 0 0)
(0.04747884573556007 0 0)
(0.04753357945516339 0 0)
(0.04900349077605191 0 0)
(0.05186713294594372 0 0)
(0.05592279129698546 0 0)
(0.06214329954527356 0 0)
(0.06868060726154383 0 0)
(0.07606657601809984 0 0)
(0.08424584324335266 0 0)
(0.09322997983472768 0 0)
(0.1029936675883286 0 0)
(0.1134261276215543 0 0)
(0.1243673960635342 0 0)
(0.1356695340734114 0 0)
(0.1471992163115182 0 0)
(0.1588100055312754 0 0)
(0.1703433111229218 0 0)
(0.1816602715162059 0 0)
(0.1926398433022776 0 0)
(0.2030332528210063 0 0)
(0.2124696407116652 0 0)
(0.2206691898835427 0 0)
(0.2269412691544626 0 0)
(0.2302126989523879 0 0)
(0.2309583749843204 0 0)
(0.2302873837472768 0 0)
(0.228191751800792 0 0)
(0.2247795342393796 0 0)
(0.2200112510067194 0 0)
(0.2135501693262533 0 0)
(0.2067548692515665 0 0)
(0.1991902397712883 0 0)
(0.1908388627174233 0 0)
(0.1816445199335412 0 0)
(0.1716284109091899 0 0)
(0.1608908779222949 0 0)
(0.1495519954370932 0 0)
(0.1377317126586305 0 0)
(0.1255815135321173 0 0)
(0.1132992061679405 0 0)
(0.1010823359372698 0 0)
(0.08911898042771416 0 0)
(0.07776161837710419 0 0)
(0.06745735548354903 0 0)
(0.0585677542951435 0 0)
(0.0520783416964478 0 0)
(0.04909064013967785 0 0)
(0.0486287396342917 0 0)
(0.04957444310271886 0 0)
(0.05196624900896859 0 0)
(0.05560712248548171 0 0)
(0.0610380391229727 0 0)
(0.06732406643026785 0 0)
(0.07431499056504826 0 0)
(0.08208648122945851 0 0)
(0.09069237004533978 0 0)
(0.1001247171915112 0 0)
(0.1103108903294458 0 0)
(0.1211103168974405 0 0)
(0.1323445939600767 0 0)
(0.1438239366318988 0 0)
(0.1553733792037543 0 0)
(0.1668470703412499 0 0)
(0.1781076513131103 0 0)
(0.189028814562777 0 0)
(0.1994340004003523 0 0)
(0.2090002108441816 0 0)
(0.2174556733021396 0 0)
(0.2243611697999185 0 0)
(0.2286782982016685 0 0)
(0.2301858766432889 0 0)
(0.2300083393141301 0 0)
(0.2284815438326528 0 0)
(0.2256017378640122 0 0)
(0.221542781159093 0 0)
(0.2153797235431852 0 0)
(0.2088629383436283 0 0)
(0.2015858143629931 0 0)
(0.1935721249141604 0 0)
(0.1847769547789214 0 0)
(0.1751614684304887 0 0)
(0.1647314622695382 0 0)
(0.1535594452115179 0 0)
(0.1417917555046553 0 0)
(0.1296337105005314 0 0)
(0.1173147359787509 0 0)
(0.1050730780518015 0 0)
(0.09312273064694809 0 0)
(0.08172561905425474 0 0)
(0.07127379142597637 0 0)
(0.06205687022833156 0 0)
(0.05475682530631727 0 0)
(0.05066301036270227 0 0)
(0.04949881933007751 0 0)
(0.04994606017035247 0 0)
(0.05188219318219785 0 0)
(0.05516868203063989 0 0)
(0.05969353574990955 0 0)
(0.06599178112956636 0 0)
(0.07256380417475003 0 0)
(0.07991631665130985 0 0)
(0.08802802167437768 0 0)
(0.09696748731296125 0 0)
(0.1067593374173987 0 0)
(0.1173203055488645 0 0)
(0.1284773860742673 0 0)
(0.1400023158008293 0 0)
(0.1516647362456448 0 0)
(0.163140475483899 0 0)
(0.1745883865343289 0 0)
(0.1843059454013092 0 0)
(0.2001658492253738 0 0)
)
;

boundaryField
{
    inlet
    {
        type            zeroGradient;
    }
    outlet
    {
        type            pressureInletOutletVelocity;
        value           uniform (0.2001658492253738 0 0);
    }
    frontAndBack
    {
        type            empty;
    }
}


// ************************************************************************* //
