/*--------------------------------*- C++ -*----------------------------------*\
| =========                 |                                                 |
| \\      /  F ield         | OpenFOAM: The Open Source CFD Toolbox           |
|  \\    /   O peration     | Version:  v2012                                 |
|   \\  /    A nd           | Website:  www.openfoam.com                      |
|    \\/     M anipulation  |                                                 |
\*---------------------------------------------------------------------------*/
FoamFile
{
    version     2.0;
    format      ascii;
    class       volVectorField;
    location    "0.019";
    object      UMean;
}
// * * * * * * * * * * * * * * * * * * * * * * * * * * * * * * * * * * * * * //

dimensions      [0 1 -1 0 0 0 0];


internalField   nonuniform List<vector> 
1000
(
(0.009284925935924334 0 0)
(0.009249865018023338 0 0)
(0.009316792001017715 0 0)
(0.009336178555654042 0 0)
(0.009393312977139114 0 0)
(0.009432537987451304 0 0)
(0.009485542426830878 0 0)
(0.009540009371522716 0 0)
(0.009603523317851628 0 0)
(0.009669958157189129 0 0)
(0.009739217942896424 0 0)
(0.009807656913728122 0 0)
(0.009871760995650779 0 0)
(0.009939051321287336 0 0)
(0.009996757547001455 0 0)
(0.01005642570279385 0 0)
(0.01011369426285038 0 0)
(0.01016456900729869 0 0)
(0.01020859553602561 0 0)
(0.01024512157246619 0 0)
(0.01027320323403447 0 0)
(0.01029385931899328 0 0)
(0.01030523054427844 0 0)
(0.01030998254284053 0 0)
(0.01030174800817924 0 0)
(0.01029137115120496 0 0)
(0.01027405154426201 0 0)
(0.01024521956842043 0 0)
(0.01021067200500745 0 0)
(0.01016835521153889 0 0)
(0.01012103983595498 0 0)
(0.01006946973887782 0 0)
(0.0100148236647335 0 0)
(0.009957080603082856 0 0)
(0.009897842623417476 0 0)
(0.009833591517171239 0 0)
(0.009774693819583201 0 0)
(0.009708510155129413 0 0)
(0.00965261068071549 0 0)
(0.009602079778730196 0 0)
(0.00955684897672034 0 0)
(0.009517346284775487 0 0)
(0.009484621503449959 0 0)
(0.009459358032806545 0 0)
(0.009442644790914605 0 0)
(0.009434561494825407 0 0)
(0.009436682816266752 0 0)
(0.009445116605322695 0 0)
(0.009465342159851481 0 0)
(0.009499276037497022 0 0)
(0.00953750974253811 0 0)
(0.009585316237443303 0 0)
(0.009639840531498035 0 0)
(0.009700681915588328 0 0)
(0.009766376511514749 0 0)
(0.009836115516410483 0 0)
(0.009908563365277645 0 0)
(0.009983044104014837 0 0)
(0.01005332305590102 0 0)
(0.01012555708383413 0 0)
(0.01018858867856895 0 0)
(0.0102549925392714 0 0)
(0.01031891031427075 0 0)
(0.01037861181925131 0 0)
(0.0104313304505834 0 0)
(0.01047648853248969 0 0)
(0.01051381325934429 0 0)
(0.01054244243286582 0 0)
(0.01056315858801381 0 0)
(0.01057518155641244 0 0)
(0.0105780021723901 0 0)
(0.01057143503161201 0 0)
(0.01056399305011589 0 0)
(0.01054378252568203 0 0)
(0.01051682666532289 0 0)
(0.01048233180738414 0 0)
(0.0104423220238026 0 0)
(0.01039805229487648 0 0)
(0.01035033040474722 0 0)
(0.01029994878958744 0 0)
(0.01024794167064161 0 0)
(0.01019220033615503 0 0)
(0.01013696469068893 0 0)
(0.01007833495682938 0 0)
(0.01002475817980586 0 0)
(0.009977505036246006 0 0)
(0.009936523945435684 0 0)
(0.009900359426979796 0 0)
(0.009870509291743003 0 0)
(0.009848033172870243 0 0)
(0.009833382727770524 0 0)
(0.009828220340534368 0 0)
(0.009831379820030571 0 0)
(0.009844858497224237 0 0)
(0.009863719108891935 0 0)
(0.009901332149262166 0 0)
(0.009943701656212217 0 0)
(0.009994339618565771 0 0)
(0.01005259940940195 0 0)
(0.0101171331369735 0 0)
(0.0101868244601773 0 0)
(0.01026049289200791 0 0)
(0.01033771301612538 0 0)
(0.01041700972594985 0 0)
(0.01049549930185354 0 0)
(0.01057112380152146 0 0)
(0.01064395914170923 0 0)
(0.01071310696756676 0 0)
(0.01078383511427093 0 0)
(0.01085203275552725 0 0)
(0.010913794040703 0 0)
(0.01096838197317357 0 0)
(0.01101504220256862 0 0)
(0.01105336840202715 0 0)
(0.01108360019764954 0 0)
(0.01110404088374935 0 0)
(0.0111178020687164 0 0)
(0.0111170115286913 0 0)
(0.01111791855846122 0 0)
(0.01110805587818932 0 0)
(0.01108900677666368 0 0)
(0.0110631525530098 0 0)
(0.01103093637822615 0 0)
(0.01099430518625459 0 0)
(0.01095411435625102 0 0)
(0.01091128252748047 0 0)
(0.01086631709873565 0 0)
(0.010819800252104 0 0)
(0.01076990415684838 0 0)
(0.0107206688585156 0 0)
(0.01066856051090785 0 0)
(0.0106255824419477 0 0)
(0.01058912296614228 0 0)
(0.01055724473717295 0 0)
(0.01053114143199315 0 0)
(0.01051147777430181 0 0)
(0.01049995527947286 0 0)
(0.01049696125724646 0 0)
(0.01050243060109124 0 0)
(0.01051902675979153 0 0)
(0.01053942629629094 0 0)
(0.01057680809202821 0 0)
(0.01062450562492349 0 0)
(0.0106779599240109 0 0)
(0.01073980504575259 0 0)
(0.01080776403277961 0 0)
(0.01088109714464883 0 0)
(0.01095873619961507 0 0)
(0.01104006655333372 0 0)
(0.01112367314529628 0 0)
(0.01120898390949267 0 0)
(0.01129004561174789 0 0)
(0.01137116274028853 0 0)
(0.01144302596250781 0 0)
(0.01151923371462125 0 0)
(0.01159439554930606 0 0)
(0.01166445810867725 0 0)
(0.01172781562955185 0 0)
(0.01178323687569068 0 0)
(0.01183091964958684 0 0)
(0.01186980044670154 0 0)
(0.01189981986309051 0 0)
(0.01192174918807313 0 0)
(0.01193117909624059 0 0)
(0.01193571688628102 0 0)
(0.0119361159685614 0 0)
(0.01192539034652519 0 0)
(0.01190748888593784 0 0)
(0.01188269337918555 0 0)
(0.01185311349711018 0 0)
(0.0118200678695079 0 0)
(0.0117840260823254 0 0)
(0.01174583047649964 0 0)
(0.01170689562644617 0 0)
(0.01166418337022825 0 0)
(0.01162290766816177 0 0)
(0.0115742050661701 0 0)
(0.01153449318111439 0 0)
(0.01150199025696173 0 0)
(0.01147453753087911 0 0)
(0.01145229878858713 0 0)
(0.01143585005227597 0 0)
(0.01142709348215527 0 0)
(0.0114262045642422 0 0)
(0.0114345482369384 0 0)
(0.01145218569330989 0 0)
(0.01147728575793664 0 0)
(0.011512513540217 0 0)
(0.01156356389314234 0 0)
(0.01162014467653451 0 0)
(0.01168477385318383 0 0)
(0.01175589665665628 0 0)
(0.01183255540281457 0 0)
(0.01191374086975444 0 0)
(0.01199869468463092 0 0)
(0.01208645319279006 0 0)
(0.01217677724094563 0 0)
(0.01226459757656997 0 0)
(0.0123519037752243 0 0)
(0.01242961375680911 0 0)
(0.01250895887708198 0 0)
(0.01259011021865156 0 0)
(0.01266775434471504 0 0)
(0.01273916736976004 0 0)
(0.01280325650616924 0 0)
(0.01285945113084574 0 0)
(0.01290725726182955 0 0)
(0.01294664319003726 0 0)
(0.01297653818846269 0 0)
(0.01299692001446882 0 0)
(0.01300662414257188 0 0)
(0.01301501558232929 0 0)
(0.01301293556988796 0 0)
(0.01300251232602185 0 0)
(0.01298514949096218 0 0)
(0.01296240678821321 0 0)
(0.01293600262756564 0 0)
(0.01290649899306553 0 0)
(0.0128749567338403 0 0)
(0.01284228110224786 0 0)
(0.01280782474915683 0 0)
(0.01277229723930231 0 0)
(0.01273195959706058 0 0)
(0.01269266369086228 0 0)
(0.01266429661931913 0 0)
(0.01264108791015034 0 0)
(0.01262282835547557 0 0)
(0.01261009568046814 0 0)
(0.01260389621016577 0 0)
(0.01260569243012201 0 0)
(0.01261646649686647 0 0)
(0.01263540362194851 0 0)
(0.01266455491474589 0 0)
(0.01269926346470348 0 0)
(0.01275132045501988 0 0)
(0.01281126382004509 0 0)
(0.01287832986358068 0 0)
(0.01295265985352158 0 0)
(0.01303254637106865 0 0)
(0.01311704744861559 0 0)
(0.0132055685668775 0 0)
(0.01329728095582615 0 0)
(0.01339149299076553 0 0)
(0.01348618924872585 0 0)
(0.01357845724984294 0 0)
(0.01366588225587162 0 0)
(0.01374542942253019 0 0)
(0.01383224398408664 0 0)
(0.01391658934677272 0 0)
(0.01399567715106158 0 0)
(0.01406810825658912 0 0)
(0.01413249035499125 0 0)
(0.01418914401038933 0 0)
(0.0142372523022976 0 0)
(0.01427572467697738 0 0)
(0.01430621507209932 0 0)
(0.01432271469807745 0 0)
(0.0143372793790595 0 0)
(0.01434442008796489 0 0)
(0.01434174610980872 0 0)
(0.01433197380257632 0 0)
(0.01431597134187435 0 0)
(0.01429597922878023 0 0)
(0.01427289903691729 0 0)
(0.01424765873863655 0 0)
(0.01422071664240165 0 0)
(0.01419357593060952 0 0)
(0.01416451009223937 0 0)
(0.01413403086378593 0 0)
(0.01409481520437617 0 0)
(0.01406994059994164 0 0)
(0.01405050659751337 0 0)
(0.01403635804220792 0 0)
(0.01402730744107135 0 0)
(0.01402407577341059 0 0)
(0.01402842328426607 0 0)
(0.01404107975256539 0 0)
(0.01406204794654128 0 0)
(0.01409365218016931 0 0)
(0.01412931057728424 0 0)
(0.01417962885628725 0 0)
(0.01424312016201089 0 0)
(0.01431285602342799 0 0)
(0.01438984505892127 0 0)
(0.01447267164524027 0 0)
(0.01456015563621485 0 0)
(0.01465190165045493 0 0)
(0.01474706222502806 0 0)
(0.01484458090491301 0 0)
(0.0149444872820904 0 0)
(0.01504232444938669 0 0)
(0.01513898353448451 0 0)
(0.01522056339850166 0 0)
(0.01531085900054414 0 0)
(0.01540078401786026 0 0)
(0.01548689162604602 0 0)
(0.01556695013902813 0 0)
(0.01563933813272071 0 0)
(0.01570411665485636 0 0)
(0.01576030696147345 0 0)
(0.0158078162673394 0 0)
(0.01584660807137094 0 0)
(0.01587259206029632 0 0)
(0.01589056024873127 0 0)
(0.01590685192503272 0 0)
(0.01591269193521013 0 0)
(0.01590998815572054 0 0)
(0.01590068949823067 0 0)
(0.01588678731032439 0 0)
(0.01586963131389509 0 0)
(0.01585025354013528 0 0)
(0.01582886927830662 0 0)
(0.01580769025138918 0 0)
(0.01578503878717325 0 0)
(0.01576334255971713 0 0)
(0.01572948500466642 0 0)
(0.01570478363514615 0 0)
(0.0156889566087597 0 0)
(0.01567836926323978 0 0)
(0.01567279808233787 0 0)
(0.01567282357507949 0 0)
(0.01567930291584032 0 0)
(0.01569368915383315 0 0)
(0.01571691376937247 0 0)
(0.01574903129359695 0 0)
(0.01578861202541169 0 0)
(0.01583546946487955 0 0)
(0.01590030709985381 0 0)
(0.01597254679372158 0 0)
(0.01605095960191007 0 0)
(0.01613609189422846 0 0)
(0.0162260100149506 0 0)
(0.01632014160160197 0 0)
(0.01641789769223032 0 0)
(0.01651832223955819 0 0)
(0.01662150921012681 0 0)
(0.01672407577977194 0 0)
(0.0168272026017556 0 0)
(0.01691762883727177 0 0)
(0.01700577867047067 0 0)
(0.01710097215763373 0 0)
(0.01719223478554163 0 0)
(0.01727892987817079 0 0)
(0.01735864128334639 0 0)
(0.01743051220485081 0 0)
(0.01749429667365914 0 0)
(0.01755004151923568 0 0)
(0.01759598685861408 0 0)
(0.01763250632407593 0 0)
(0.01765569786669367 0 0)
(0.01767797216951616 0 0)
(0.01769167961518248 0 0)
(0.01769542209103721 0 0)
(0.01769247000509172 0 0)
(0.01768408269188761 0 0)
(0.01767210926482244 0 0)
(0.01765769195863648 0 0)
(0.01764138043791211 0 0)
(0.01762445542526953 0 0)
(0.01760734488281846 0 0)
(0.01759102316836071 0 0)
(0.01756924601102986 0 0)
(0.0175386698976988 0 0)
(0.01752727155486379 0 0)
(0.01751850483727615 0 0)
(0.01751571372191367 0 0)
(0.01751817634812216 0 0)
(0.01752641626511674 0 0)
(0.01754200517886638 0 0)
(0.01756632757343385 0 0)
(0.01759853248757996 0 0)
(0.01764082770594601 0 0)
(0.01768703704007112 0 0)
(0.01774958635270851 0 0)
(0.01782317466224996 0 0)
(0.01790240697756521 0 0)
(0.01798910735841449 0 0)
(0.01808085370709796 0 0)
(0.01817673007308322 0 0)
(0.01827647515816169 0 0)
(0.01837936274740868 0 0)
(0.01848451694136784 0 0)
(0.01859129057161792 0 0)
(0.01869772807368389 0 0)
(0.01880133332238054 0 0)
(0.01888398027970037 0 0)
(0.01898436849404985 0 0)
(0.01907960258989483 0 0)
(0.01917188917098185 0 0)
(0.01925796457053693 0 0)
(0.01933659966870186 0 0)
(0.01940716612674572 0 0)
(0.0194699605971263 0 0)
(0.01952291920342334 0 0)
(0.01956835387760832 0 0)
(0.0195986936972979 0 0)
(0.01962447904592554 0 0)
(0.01964583571926671 0 0)
(0.01965644493883604 0 0)
(0.01965959165792268 0 0)
(0.01965658208094723 0 0)
(0.01964936531886442 0 0)
(0.01963929031189309 0 0)
(0.0196275171516083 0 0)
(0.01961430791092992 0 0)
(0.01960148381652782 0 0)
(0.01958925863698363 0 0)
(0.01957882797335149 0 0)
(0.01954564331121061 0 0)
(0.01953541448657131 0 0)
(0.01952862702608078 0 0)
(0.01952764511120047 0 0)
(0.0195320016965825 0 0)
(0.01954183292208721 0 0)
(0.01955809229027076 0 0)
(0.01958251902147831 0 0)
(0.01961487569421966 0 0)
(0.01965768446397391 0 0)
(0.01970450068966495 0 0)
(0.01976212644207474 0 0)
(0.01983636857958646 0 0)
(0.01991687154756463 0 0)
(0.02000416682215091 0 0)
(0.02009707112333992 0 0)
(0.02019429054286794 0 0)
(0.02029513712956455 0 0)
(0.0203997830009663 0 0)
(0.02050645493921341 0 0)
(0.02061576121807098 0 0)
(0.02072494711891252 0 0)
(0.02083716837741673 0 0)
(0.02092295936861861 0 0)
(0.02102201921765781 0 0)
(0.0211216004274841 0 0)
(0.02121790470329716 0 0)
(0.02130933009540976 0 0)
(0.02139406237304997 0 0)
(0.02147060455669826 0 0)
(0.02153939506711393 0 0)
(0.0215994356367216 0 0)
(0.02165104703413092 0 0)
(0.02169064340933892 0 0)
(0.02171740933231233 0 0)
(0.02174557328191286 0 0)
(0.02176425090903044 0 0)
(0.02177281720403706 0 0)
(0.02177489333082863 0 0)
(0.0217720629294325 0 0)
(0.02176580279294885 0 0)
(0.02175780077540143 0 0)
(0.02174803323308118 0 0)
(0.02173836936804971 0 0)
(0.02172906827520633 0 0)
(0.0217240348493247 0 0)
(0.02170079420945655 0 0)
(0.02168366303234889 0 0)
(0.02167952674128516 0 0)
(0.02167884697317582 0 0)
(0.02168425178204762 0 0)
(0.02169505799641773 0 0)
(0.02171171136296253 0 0)
(0.02173550206949013 0 0)
(0.02176796573990873 0 0)
(0.02180864279392853 0 0)
(0.02185830280171294 0 0)
(0.02190978356319491 0 0)
(0.02198242180363237 0 0)
(0.02206408789235724 0 0)
(0.02215039172179063 0 0)
(0.02224355808054978 0 0)
(0.02234132435433956 0 0)
(0.02244262830973107 0 0)
(0.0225478207997237 0 0)
(0.0226556193579271 0 0)
(0.02276606234487011 0 0)
(0.02287712836589332 0 0)
(0.02299093998473477 0 0)
(0.02309246551313911 0 0)
(0.02318157411023069 0 0)
(0.02328602212869149 0 0)
(0.02338436486809619 0 0)
(0.02347982106722383 0 0)
(0.02356929876506159 0 0)
(0.02365130587893115 0 0)
(0.0237250971707969 0 0)
(0.02379125314052773 0 0)
(0.02384754939883356 0 0)
(0.023896001963424 0 0)
(0.02392727099281046 0 0)
(0.02395897756795011 0 0)
(0.02398364323082882 0 0)
(0.02399663549183269 0 0)
(0.02400319821627966 0 0)
(0.02400409756908263 0 0)
(0.02400107373743428 0 0)
(0.02399556545692157 0 0)
(0.02398877660552966 0 0)
(0.02398122034682683 0 0)
(0.02397445911374077 0 0)
(0.02396924692132149 0 0)
(0.02396392154611614 0 0)
(0.02393353241699774 0 0)
(0.02393326278900615 0 0)
(0.02393156724087449 0 0)
(0.02393713384502737 0 0)
(0.02394800361569564 0 0)
(0.02396482322212624 0 0)
(0.02398768887891404 0 0)
(0.02401931503280971 0 0)
(0.02405784038525404 0 0)
(0.02410794627371065 0 0)
(0.02415880247222738 0 0)
(0.02422647637088004 0 0)
(0.02430651726663827 0 0)
(0.02439173917678481 0 0)
(0.02448439822278138 0 0)
(0.0245821684404914 0 0)
(0.02468361690923117 0 0)
(0.02478854880672516 0 0)
(0.02489707140531269 0 0)
(0.02500798903296881 0 0)
(0.02512070869534923 0 0)
(0.0252339767906592 0 0)
(0.02535056383804618 0 0)
(0.02543147057513821 0 0)
(0.0255384765695731 0 0)
(0.02563913337924441 0 0)
(0.02573743970340421 0 0)
(0.02583075096080276 0 0)
(0.02591746037764311 0 0)
(0.02599605212816067 0 0)
(0.02606690843011488 0 0)
(0.0261282809862492 0 0)
(0.02618244957846413 0 0)
(0.02622133044012159 0 0)
(0.02625341051769327 0 0)
(0.02628302526541229 0 0)
(0.02630197191203016 0 0)
(0.02631257159456453 0 0)
(0.02631697906610503 0 0)
(0.02631691086064243 0 0)
(0.02631349754540303 0 0)
(0.02630896091337254 0 0)
(0.02630323691010524 0 0)
(0.02629798316123455 0 0)
(0.0262937625009116 0 0)
(0.02629592687768381 0 0)
(0.02626687263498957 0 0)
(0.02626132388854418 0 0)
(0.02626126624606494 0 0)
(0.02626579698695533 0 0)
(0.02627624714606241 0 0)
(0.02629266442828929 0 0)
(0.02631495113720355 0 0)
(0.02634469899944751 0 0)
(0.02638235587878697 0 0)
(0.02642928672509154 0 0)
(0.02648270025572263 0 0)
(0.02654131188451037 0 0)
(0.02661979056650627 0 0)
(0.02670611099063786 0 0)
(0.02679731405483863 0 0)
(0.0268947908527239 0 0)
(0.02699619669458661 0 0)
(0.02710088104020935 0 0)
(0.02720927889198331 0 0)
(0.02732056801825968 0 0)
(0.02743403081314774 0 0)
(0.02754832624366208 0 0)
(0.02766664457051022 0 0)
(0.02776090292175036 0 0)
(0.02785765363731932 0 0)
(0.02796335102468564 0 0)
(0.02806300828095711 0 0)
(0.02815946400501402 0 0)
(0.02825010410700129 0 0)
(0.02833339976016529 0 0)
(0.02840833510323228 0 0)
(0.02847535699703798 0 0)
(0.02853228796727438 0 0)
(0.02858155338254686 0 0)
(0.02861072258106051 0 0)
(0.02864504926481192 0 0)
(0.02867219756541477 0 0)
(0.02868613447864359 0 0)
(0.02869415104942344 0 0)
(0.02869695231755908 0 0)
(0.0286959137869673 0 0)
(0.02869279678070079 0 0)
(0.02868890370378604 0 0)
(0.02868493528636435 0 0)
(0.0286819075181493 0 0)
(0.02868228260187073 0 0)
(0.02867241988421577 0 0)
(0.02865135200944902 0 0)
(0.02865472336593261 0 0)
(0.02865737356603917 0 0)
(0.02866704504318021 0 0)
(0.02868263754968333 0 0)
(0.02870445640066537 0 0)
(0.02873267641288501 0 0)
(0.02876940653582395 0 0)
(0.02881285000914527 0 0)
(0.02886813481711089 0 0)
(0.02892141063702179 0 0)
(0.02899618706174294 0 0)
(0.02908255693510116 0 0)
(0.02917175462151562 0 0)
(0.02926839621300665 0 0)
(0.02936961544011996 0 0)
(0.02947414711346551 0 0)
(0.02958197101251947 0 0)
(0.02969333599905101 0 0)
(0.0298074505714614 0 0)
(0.02992267205173796 0 0)
(0.0300387998188495 0 0)
(0.03015356859708346 0 0)
(0.0302358538156752 0 0)
(0.03034689500474754 0 0)
(0.03044754607286139 0 0)
(0.03054649599204169 0 0)
(0.0306403678558793 0 0)
(0.03072794721610679 0 0)
(0.03080746340376891 0 0)
(0.03087912721117487 0 0)
(0.03094029956286155 0 0)
(0.0309954235744443 0 0)
(0.03103189848322875 0 0)
(0.03106729860649543 0 0)
(0.03109768259992982 0 0)
(0.03111568460569291 0 0)
(0.03112604816136546 0 0)
(0.03113052970646007 0 0)
(0.03113008655589869 0 0)
(0.03112645743512381 0 0)
(0.03112148529598052 0 0)
(0.03111641462632544 0 0)
(0.03111127000442931 0 0)
(0.03110682083424531 0 0)
(0.03110898515886538 0 0)
(0.03107246062637425 0 0)
(0.03107219933533514 0 0)
(0.0310690194588005 0 0)
(0.03107165325373923 0 0)
(0.03107933927292197 0 0)
(0.03109286777318435 0 0)
(0.03111185775617005 0 0)
(0.03113735771078508 0 0)
(0.03116899036122269 0 0)
(0.03121008388916916 0 0)
(0.03125313266722154 0 0)
(0.03130728571495846 0 0)
(0.03137636017634299 0 0)
(0.03145140901589408 0 0)
(0.03153209169567293 0 0)
(0.03161970506745532 0 0)
(0.03171176251949505 0 0)
(0.0318075357936058 0 0)
(0.03190738120528446 0 0)
(0.03201176925351761 0 0)
(0.03211900608839253 0 0)
(0.03222763125016897 0 0)
(0.03234265336321036 0 0)
(0.03242222817082824 0 0)
(0.03252311447623793 0 0)
(0.03262449916204466 0 0)
(0.03272330211183358 0 0)
(0.0328194868992451 0 0)
(0.03291236592682978 0 0)
(0.03299981746184683 0 0)
(0.03308100164799407 0 0)
(0.03315490722026711 0 0)
(0.03322153611178419 0 0)
(0.03327859203096219 0 0)
(0.03332326311922746 0 0)
(0.03337069821723446 0 0)
(0.03341043815990376 0 0)
(0.03343825681975318 0 0)
(0.03345999176158184 0 0)
(0.03347521077421149 0 0)
(0.03348550021967688 0 0)
(0.03349265681866841 0 0)
(0.03349928567224253 0 0)
(0.03350493407373007 0 0)
(0.03351007456790794 0 0)
(0.03351865329453852 0 0)
(0.03350670276158848 0 0)
(0.03349657077483096 0 0)
(0.03350330108775527 0 0)
(0.03350871112882976 0 0)
(0.03351876688636335 0 0)
(0.03353373255236044 0 0)
(0.03355367388346637 0 0)
(0.03357865923887255 0 0)
(0.033609369120447 0 0)
(0.03364493150631469 0 0)
(0.0336901235529679 0 0)
(0.0337301234283385 0 0)
(0.03379363216778458 0 0)
(0.03386814547504913 0 0)
(0.03394250484841178 0 0)
(0.03402528495253203 0 0)
(0.03411385812263421 0 0)
(0.03420661765634617 0 0)
(0.03430328302336329 0 0)
(0.03440491374046145 0 0)
(0.03451069828850395 0 0)
(0.0346189179092168 0 0)
(0.03472906665737416 0 0)
(0.03483170577502676 0 0)
(0.03491222173419537 0 0)
(0.0350199983914144 0 0)
(0.03511826333372515 0 0)
(0.03521575248097808 0 0)
(0.03531008453270928 0 0)
(0.03540043406642183 0 0)
(0.03548515806580992 0 0)
(0.03556307996156534 0 0)
(0.03563159057434524 0 0)
(0.03569618102113688 0 0)
(0.03573980906961383 0 0)
(0.03578922812033469 0 0)
(0.03583472726403843 0 0)
(0.03586483884774506 0 0)
(0.03588880264475722 0 0)
(0.03590635725801423 0 0)
(0.03591829351872408 0 0)
(0.03592615991576883 0 0)
(0.03593237334410565 0 0)
(0.03593891056514379 0 0)
(0.03594470088765897 0 0)
(0.03594928253755947 0 0)
(0.03595863402973026 0 0)
(0.03592810081485377 0 0)
(0.03593984116950506 0 0)
(0.03594296684275305 0 0)
(0.03595201121243351 0 0)
(0.03596467070268249 0 0)
(0.03598326261433336 0 0)
(0.03600727085042652 0 0)
(0.03603664940598377 0 0)
(0.03607023538221964 0 0)
(0.03611349501442574 0 0)
(0.03615383242581922 0 0)
(0.03621137932147898 0 0)
(0.03628146745641642 0 0)
(0.03635451569303937 0 0)
(0.0364342439091262 0 0)
(0.03652097513567661 0 0)
(0.0366125684409907 0 0)
(0.03670783937842168 0 0)
(0.0368069854639389 0 0)
(0.03691212366530242 0 0)
(0.03702016039053303 0 0)
(0.03712799362221917 0 0)
(0.03724523200818206 0 0)
(0.0373141386667473 0 0)
(0.03742342413620876 0 0)
(0.03752273129506001 0 0)
(0.03762129338813842 0 0)
(0.03771597526760156 0 0)
(0.03780790331158732 0 0)
(0.03789533515622351 0 0)
(0.0379766094540472 0 0)
(0.03804897411767143 0 0)
(0.03811504762071578 0 0)
(0.03816707709503034 0 0)
(0.03821472709943888 0 0)
(0.03826061502084006 0 0)
(0.03829724187520048 0 0)
(0.03832321493310054 0 0)
(0.0383433005606656 0 0)
(0.03835766809511414 0 0)
(0.03836718475361401 0 0)
(0.03837333677477893 0 0)
(0.03838043701315762 0 0)
(0.03838698909989067 0 0)
(0.03839204081743534 0 0)
(0.03840347777712468 0 0)
(0.03838177475434217 0 0)
(0.03838134491558903 0 0)
(0.03838765337039583 0 0)
(0.03839498951720067 0 0)
(0.03840573911782444 0 0)
(0.0384218612924218 0 0)
(0.03844429894331639 0 0)
(0.03847270076698283 0 0)
(0.03850549591048216 0 0)
(0.03854391627144561 0 0)
(0.03858882274383416 0 0)
(0.03863368900843472 0 0)
(0.03869981626285546 0 0)
(0.03877599642171527 0 0)
(0.0388518886933325 0 0)
(0.03893646262236864 0 0)
(0.03902651368598363 0 0)
(0.0391207750834784 0 0)
(0.03921794205804832 0 0)
(0.03932086822156401 0 0)
(0.03942801809154049 0 0)
(0.03953693758780737 0 0)
(0.03964769973309992 0 0)
(0.03974328774962025 0 0)
(0.03982815439766427 0 0)
(0.03993530705684459 0 0)
(0.04003308321876713 0 0)
(0.04012878760032151 0 0)
(0.04022081943746566 0 0)
(0.04030986353823894 0 0)
(0.04039435825666775 0 0)
(0.04047106821921671 0 0)
(0.04053769609751212 0 0)
(0.04060024591372612 0 0)
(0.0406385372288303 0 0)
(0.04068763471409372 0 0)
(0.04073458256412053 0 0)
(0.04076162621692118 0 0)
(0.04078440075849648 0 0)
(0.04080065025128398 0 0)
(0.04081239557864828 0 0)
(0.04081958762006318 0 0)
(0.04082580942988227 0 0)
(0.04083294690927318 0 0)
(0.04083980781365754 0 0)
(0.04084461821706661 0 0)
(0.04085215820369965 0 0)
(0.0408210402778984 0 0)
(0.04083704319202527 0 0)
(0.0408414941800754 0 0)
(0.0408515502548502 0 0)
(0.04086479192476722 0 0)
(0.04088447421255483 0 0)
(0.04091178757190545 0 0)
(0.04094412801833033 0 0)
(0.04097984069029925 0 0)
(0.04102554886163259 0 0)
(0.04106418728981828 0 0)
(0.04112594164290839 0 0)
(0.04120136066423094 0 0)
(0.04127479606986657 0 0)
(0.04135653442033408 0 0)
(0.04144446706412856 0 0)
(0.04153772931927052 0 0)
(0.04163406311659103 0 0)
(0.04173418174170647 0 0)
(0.04184031254392732 0 0)
(0.04195000878888309 0 0)
(0.04205627261404565 0 0)
(0.04217658277275853 0 0)
(0.0422332575553549 0 0)
(0.04235115387640041 0 0)
(0.04244856787454775 0 0)
(0.0425464183048324 0 0)
(0.04263889815738109 0 0)
(0.04272803955504339 0 0)
(0.04281483844332828 0 0)
(0.0428957287007 0 0)
(0.04296666573433375 0 0)
(0.04303115305142446 0 0)
(0.04307799383764624 0 0)
(0.04312612573125114 0 0)
(0.04317162430400377 0 0)
(0.04320564843736347 0 0)
(0.04322975858830403 0 0)
(0.04324829189835695 0 0)
(0.04326179278029771 0 0)
(0.04327133170091263 0 0)
(0.04327711382465857 0 0)
(0.04328450038019365 0 0)
(0.04329208156150851 0 0)
(0.04329656892183815 0 0)
(0.04331092148916239 0 0)
(0.04327884623917074 0 0)
(0.04328834195543509 0 0)
(0.04329494768911479 0 0)
(0.04330443320622886 0 0)
(0.04331610816965788 0 0)
(0.04333235434792457 0 0)
(0.04335679346351529 0 0)
(0.04338872109629452 0 0)
(0.04342467391920614 0 0)
(0.04346596373189965 0 0)
(0.04351019781614549 0 0)
(0.0435613450124281 0 0)
(0.04362930706612694 0 0)
(0.04370712581067429 0 0)
(0.04378461333986496 0 0)
(0.04387069593584873 0 0)
(0.04396195545341088 0 0)
(0.04405800484537422 0 0)
(0.04415651573011928 0 0)
(0.04426103441122959 0 0)
(0.04436916537576572 0 0)
(0.04447833682218132 0 0)
(0.04458949225471664 0 0)
(0.04467789760436077 0 0)
(0.04476728496327995 0 0)
(0.04487401263013643 0 0)
(0.04497198407053456 0 0)
(0.0450663054463212 0 0)
(0.0451558033892951 0 0)
(0.04524225919665747 0 0)
(0.04532642896335894 0 0)
(0.04540322926243288 0 0)
(0.04546854660247578 0 0)
(0.04552893827366331 0 0)
(0.04556408142833576 0 0)
(0.04561106362030865 0 0)
(0.04565965224187035 0 0)
(0.04568362475247797 0 0)
(0.04570518713174419 0 0)
(0.04572005197613876 0 0)
(0.04573149539344879 0 0)
(0.04573893273058986 0 0)
(0.04574667492357656 0 0)
(0.04575327640721107 0 0)
(0.04576147367482538 0 0)
(0.0457660839120064 0 0)
(0.04577278918855204 0 0)
(0.04574042446680868 0 0)
(0.04576079470008098 0 0)
(0.04576747625112276 0 0)
(0.04577938927250647 0 0)
(0.04579372295557575 0 0)
(0.04581347975271473 0 0)
(0.04584281197816248 0 0)
(0.04587924582302819 0 0)
(0.04591817882096321 0 0)
(0.04596671125903259 0 0)
(0.04600368487247973 0 0)
(0.04606819906734929 0 0)
(0.04615007559878568 0 0)
(0.046224079575525 0 0)
(0.04630781495545478 0 0)
(0.04639682888230316 0 0)
(0.04649108759571376 0 0)
(0.04658866196611799 0 0)
(0.04669229283493862 0 0)
(0.04679842207742664 0 0)
(0.04690929833288523 0 0)
(0.04701360666406017 0 0)
(0.04713783959179055 0 0)
(0.04718072657674214 0 0)
(0.04730800818199093 0 0)
(0.04740404748537751 0 0)
(0.04750164266972937 0 0)
(0.04759270400229212 0 0)
(0.0476789716182512 0 0)
(0.04776281191032267 0 0)
(0.04784299039997651 0 0)
(0.0479145965330512 0 0)
(0.04797807784149971 0 0)
(0.04802107816173703 0 0)
(0.0480670290740375 0 0)
(0.04811314428645765 0 0)
(0.04814530999635304 0 0)
(0.04816773958376269 0 0)
(0.048184940671205 0 0)
(0.04819755776852416 0 0)
(0.04820596426332878 0 0)
(0.04821404131302948 0 0)
(0.04822298491913655 0 0)
(0.04822977266470971 0 0)
(0.04823455403257926 0 0)
(0.04825069002372312 0 0)
(0.04820882961431965 0 0)
(0.04822821659237608 0 0)
(0.04823613002400408 0 0)
(0.04824781253305798 0 0)
(0.0482613810724991 0 0)
(0.04827899528801841 0 0)
(0.04830358868876799 0 0)
(0.04833588621609103 0 0)
(0.04837629601860962 0 0)
(0.04842125014684917 0 0)
(0.04846840379572796 0 0)
(0.04851900507240459 0 0)
(0.04858825278444426 0 0)
(0.04867150909107556 0 0)
(0.0487486687649742 0 0)
(0.04883644924247017 0 0)
(0.04892899996943514 0 0)
(0.04902543770910048 0 0)
(0.04912450221320262 0 0)
(0.04923372517603426 0 0)
(0.04934176158557038 0 0)
(0.0494491116921618 0 0)
(0.04956067480261939 0 0)
(0.04964060773930149 0 0)
(0.04973115647619648 0 0)
(0.04984146682029847 0 0)
(0.04993812840173276 0 0)
(0.05003032344780826 0 0)
(0.05011881272405847 0 0)
(0.05020576924618177 0 0)
(0.05028607597534508 0 0)
(0.05035634969699514 0 0)
(0.05043064884420317 0 0)
(0.05055620253199293 0 0)
(0.05054836795544015 0 0)
)
;

boundaryField
{
    inlet
    {
        type            calculated;
        value           uniform (0.009284925935924334 0 0);
    }
    outlet
    {
        type            calculated;
        value           uniform (0.05054836795544015 0 0);
    }
    frontAndBack
    {
        type            empty;
    }
}


// ************************************************************************* //
