/*--------------------------------*- C++ -*----------------------------------*\
| =========                 |                                                 |
| \\      /  F ield         | OpenFOAM: The Open Source CFD Toolbox           |
|  \\    /   O peration     | Version:  v2012                                 |
|   \\  /    A nd           | Website:  www.openfoam.com                      |
|    \\/     M anipulation  |                                                 |
\*---------------------------------------------------------------------------*/
FoamFile
{
    version     2.0;
    format      ascii;
    class       volScalarField;
    location    "0.007";
    object      p;
}
// * * * * * * * * * * * * * * * * * * * * * * * * * * * * * * * * * * * * * //

dimensions      [1 -1 -2 0 0 0 0];


internalField   nonuniform List<scalar> 
1000
(
101307.070772176
101308.866729736
101303.7393863222
101302.6562855435
101302.0568351607
101296.7981244529
101287.4018574516
101277.7518069846
101271.9170661533
101271.2822585711
101274.4902688626
101280.0497299085
101280.6282579728
101278.9791356954
101276.5416159217
101277.6536918831
101283.2792874361
101290.6839450463
101294.0083816396
101298.3399169943
101306.8298331941
101317.2532109229
101326.2029250008
101332.9214513074
101336.4574938423
101337.801198582
101340.0865845916
101346.4669528105
101358.3787832877
101370.5059616433
101377.1312873471
101376.0729799983
101371.834217012
101368.5718850304
101370.1952743474
101375.4717751175
101379.2507291007
101377.4075706401
101371.981410747
101365.2312962536
101361.5473085182
101355.3878382968
101347.2611445542
101339.9727204989
101335.2875841515
101330.9949194652
101329.2152166802
101326.553578523
101316.7621654403
101299.6928733992
101286.0863103805
101282.6761749963
101283.7306734718
101284.1653006325
101281.4031277128
101275.8777920712
101270.9314698239
101269.6082954158
101273.0875505056
101278.1856848362
101282.2987248714
101281.4915814461
101281.7661085192
101284.4955715199
101289.7634397223
101296.2771539253
101303.4842128735
101307.9042824601
101315.789854703
101328.5109187584
101337.9489127626
101343.2029827918
101346.7263718237
101348.6621230214
101354.1608969035
101365.3028788901
101374.0046787517
101376.7779684163
101376.7507778142
101373.3771421439
101371.3804610558
101372.1579578126
101375.7076491947
101378.8729945508
101377.1664911748
101371.8198725697
101363.1611030006
101356.1020685792
101351.5152344042
101349.3490345088
101346.4481013445
101339.5222151993
101327.5882928907
101312.7915688653
101301.8655639327
101299.7338867699
101299.0953409917
101295.7035078411
101288.1043659882
101280.3360917088
101272.9358696137
101272.3210687371
101274.2443630518
101276.0534349959
101273.7795227528
101271.1571005718
101271.4468911758
101275.4874382607
101282.0349143972
101287.9162519609
101289.5224016683
101291.8064930433
101297.221267917
101304.7519237682
101311.3564436232
101319.0506983059
101325.6804520678
101337.1849303725
101351.6822264835
101359.4634102929
101362.9398501916
101367.1746931759
101371.2948247156
101374.4972628089
101374.8612724808
101374.1690425374
101374.1872675038
101374.7347572488
101376.5336991589
101378.6493239162
101379.0506341161
101376.1165762954
101370.7551550338
101364.4266603383
101356.6672988659
101345.6694809077
101337.2616420248
101332.8162767033
101329.5939626057
101324.3415992692
101319.3181456409
101308.2195281214
101293.3807272063
101285.7864821109
101283.5571515829
101279.9695673851
101276.9000085573
101274.0637544582
101273.7375903436
101274.3467754175
101274.8668161719
101275.700514271
101274.402548509
101273.0421761079
101272.1990793384
101274.9722146376
101280.2681407916
101288.5719803072
101299.8447333097
101314.3132045612
101323.4084446054
101324.6181849022
101325.3597810247
101329.6006983864
101339.2631826424
101354.567872248
101367.7012458922
101369.8684906493
101368.0686248002
101366.0866855723
101367.050333708
101370.2860037219
101374.271547643
101378.827386047
101381.5499837514
101382.3925331219
101382.3464216111
101382.5770256265
101377.3237096103
101363.5495860091
101347.8528129555
101341.3101890985
101340.216852704
101342.1907391756
101343.9888212839
101340.9037955574
101329.2500430453
101305.1950999593
101283.910047976
101278.0388101658
101278.8596927481
101281.9789159321
101282.9152278706
101280.1958382068
101273.585970301
101267.247921003
101263.7240256535
101264.5341708152
101268.0685441766
101271.6980171396
101274.2443472131
101274.8356262248
101275.6572068121
101279.0701974467
101285.6921538405
101293.7767981723
101301.2240480291
101307.5170001048
101313.8159848464
101326.0110625122
101349.9313836626
101373.3891637184
101380.9360999475
101382.9310092622
101383.1031906033
101381.352027425
101378.9003717338
101376.8470498173
101375.9774964639
101376.2848628377
101377.0592521599
101377.086681457
101376.0885401484
101374.4560898587
101373.0769750622
101372.8404201863
101372.8135005714
101372.1294885912
101369.9018594527
101365.6224511034
101357.9927965969
101341.1225364474
101307.965902919
101277.4275819085
101269.6594427396
101269.0669773491
101268.9331494905
101269.8001517297
101271.4160928785
101273.6494376516
101275.801633172
101276.438948482
101276.4708467207
101276.6748030621
101276.0189579435
101275.055620446
101274.5616694873
101274.747299379
101275.3320033464
101275.7875205181
101277.0024232016
101279.9110829559
101286.4951442261
101305.9566033095
101340.4645867706
101362.3252686463
101365.002233575
101365.019721107
101365.3190084112
101365.0150789803
101364.569955649
101364.5146468021
101366.3070588719
101369.1162980663
101375.4593165772
101379.5282614682
101380.1941975369
101380.4372294924
101379.4296193611
101378.1005446403
101374.9288155294
101367.6087088167
101361.9239667743
101360.549455397
101360.9026591448
101360.4797080804
101358.417434263
101355.5882483435
101342.0495378334
101309.1451045546
101275.5180317359
101267.5336066954
101267.3255137542
101267.4067915822
101267.3350117227
101267.801295863
101268.8729060186
101269.8816606534
101270.9507745768
101272.9774534586
101276.1076792151
101279.1245550135
101280.7631849408
101281.3643122411
101282.0287309606
101282.9025094227
101283.9171604872
101290.3316777182
101304.3922527263
101327.092024069
101339.6354625464
101341.6763035356
101341.9476007926
101341.6982768249
101343.8718021323
101348.9894208513
101361.6110969477
101371.8502375726
101373.6242685478
101373.641106017
101373.5210532924
101373.6168936291
101373.9170672643
101373.9169875557
101374.400897311
101376.2389984203
101377.8650729638
101378.2045638689
101377.860849588
101377.8515503519
101377.287558014
101374.0023684092
101367.631195315
101345.7781531865
101304.4491924491
101277.0274124365
101273.5186647512
101273.5268631216
101273.5715497467
101273.5629670705
101273.9974246493
101274.9359213488
101276.1909757057
101276.6554561675
101276.7241196884
101276.7911774611
101276.7207598456
101276.5971496629
101276.5428103733
101276.6766623172
101276.7738535074
101276.5880839944
101276.8745424783
101277.8620636971
101278.8857314217
101284.739834668
101301.4743745055
101336.6014099952
101366.0639424355
101371.5477527174
101371.6588785039
101371.60774329
101371.6058124992
101371.6005467619
101371.5583312892
101371.454332523
101371.7369762181
101372.3142620939
101373.1938219965
101375.9637146978
101378.7147970115
101379.420677962
101379.1751459629
101378.9146711253
101379.2700269513
101378.7222666288
101377.4346319557
101376.1344667056
101369.1204711214
101347.4704273367
101306.7076115922
101279.3834684268
101275.746173196
101275.6489766105
101275.5592133905
101275.6730498727
101275.8966256235
101276.0610412432
101276.0605266634
101276.0702743065
101276.1210393757
101276.0650366659
101275.7665934398
101275.2985397645
101274.748884615
101274.2717853985
101274.0091152096
101273.8178953246
101274.176993069
101274.875109609
101275.6784695898
101279.5735274596
101290.620909155
101319.9152429685
101359.6133072706
101374.87494768
101375.8109998865
101375.8045535873
101375.7761037088
101375.7285194003
101375.4972452993
101375.0704692019
101374.6947460965
101374.6337428331
101374.6406009316
101374.6211623134
101374.6666401336
101374.6973849058
101374.7152643797
101374.6508762075
101374.5580424643
101374.421345512
101374.0749678064
101373.3461164514
101371.6154354593
101365.867130941
101348.9374163686
101311.8586483497
101277.7914737821
101270.5666399307
101270.3763604268
101270.4320328795
101270.4536685393
101270.471432848
101270.6581258789
101270.9929018525
101271.3141847276
101271.5918707337
101271.8036180908
101271.9745927565
101271.9367092932
101271.6909055123
101271.9251688958
101272.4874514227
101272.6016354022
101272.5934511037
101274.6007772728
101279.2917460247
101295.2045390955
101330.9053093079
101364.6699096454
101372.20498333
101372.4072186586
101372.3384258783
101372.3624116315
101372.3499913851
101372.3030181641
101372.1617663077
101372.5091822654
101373.1548859156
101373.5503624881
101375.3966940958
101378.0994937678
101379.0536495898
101379.0263442409
101378.6819331566
101378.6387142539
101378.5784702783
101377.9001400436
101376.5431302634
101375.0338556552
101367.8343303965
101348.0876158938
101308.0376456774
101276.6412387032
101271.3260469434
101271.1924596827
101271.2784707415
101271.3907556108
101271.4588651865
101271.6932912282
101271.9842744714
101272.1111883152
101272.0303593583
101271.9213982007
101272.074916153
101272.2719198115
101272.1695730331
101272.1019489833
101272.5348070685
101273.1024860105
101273.0637706459
101273.4939293563
101276.1879920419
101281.2435971855
101299.2829833924
101337.5720257823
101371.195835554
101377.8637605943
101378.0791068176
101378.1466879907
101378.0226494163
101377.7943344356
101377.6586826335
101377.5988230305
101377.49482649
101377.3492481832
101377.3109551041
101377.4787872836
101377.4026775975
101377.059805507
101376.8190446228
101377.0877228595
101376.8165909211
101376.0412872329
101375.2874376327
101374.7580385018
101370.0518696988
101358.0544226148
101326.2084676296
101285.6117725773
101271.4248753757
101270.6791193927
101270.7275577395
101270.7549706017
101270.8379682691
101271.1698400859
101271.5622055198
101271.720293923
101271.6833811526
101271.7076872669
101271.9358275895
101272.0214146187
101271.7513717361
101271.9631388019
101272.5592444815
101272.9216409852
101272.5258953309
101273.3304488235
101275.6401884593
101278.254477854
101290.4788364981
101321.532769856
101362.9874009286
101378.4239213697
101379.3383522869
101379.3752762091
101379.305827426
101379.1698423941
101379.0118406978
101378.7022129507
101378.3117351031
101378.0198336095
101377.866858661
101377.7333742664
101377.4747800959
101377.1301752336
101376.7932912734
101376.3098553876
101375.69325323
101375.135663664
101374.6788137717
101373.6732828988
101370.5012013471
101362.044469866
101337.1879642263
101296.102387775
101273.365847568
101271.0442743144
101270.9149846838
101270.6811107486
101271.0944158837
101271.6371151666
101271.7977345333
101271.7086256171
101272.1237613304
101272.7962728749
101273.1047946761
101272.7966642969
101273.5412014127
101274.9106842497
101275.8171721215
101276.3188421236
101277.2006938662
101278.4869069605
101279.6540447612
101279.9766528213
101286.2458815218
101302.441874311
101339.2572860358
101372.4155968808
101379.2666372046
101379.4834590539
101379.3070566334
101379.149056107
101379.0822266452
101378.7546432421
101378.2363758406
101377.7860142651
101377.218038445
101375.7015496918
101374.0792003021
101373.5597395616
101373.7840656581
101374.0271177214
101373.555766333
101373.1524283822
101373.5948707997
101372.8380702029
101370.1334995672
101366.6119520754
101351.4332238273
101316.5809278387
101280.153543452
101270.7720921766
101270.3593098842
101270.2431315586
101270.4363344187
101270.7668878499
101271.0057357604
101271.654671224
101273.6779729195
101276.1239785682
101277.0544634186
101277.0592195526
101277.0326651937
101277.1710881799
101277.0594993917
101276.6291605002
101277.0696977689
101277.9366466839
101278.337712607
101278.7917954926
101283.0862444574
101292.7727772631
101320.576604625
101361.08944427
101378.7083231226
101379.9835233521
101379.8679183509
101379.7707266691
101379.7475955508
101379.3955947625
101378.5137677043
101377.1815360347
101374.7681825653
101373.1835900278
101372.8412077453
101373.0757138169
101373.4481480043
101373.441593608
101373.0949321466
101373.0188972085
101373.3687769037
101372.4123558915
101370.307971629
101368.6316801282
101358.4872820681
101332.0913677724
101291.3811472192
101271.9438110728
101270.2094652406
101270.0557714769
101270.2900353675
101270.6494778659
101270.8237461263
101271.499750236
101273.5002105583
101275.8504318518
101276.7612606917
101276.7952710634
101276.8291192587
101276.850715588
101276.520569818
101276.0597187374
101276.5152935943
101277.2839197256
101277.426498984
101277.9164208044
101281.7050661661
101289.4843391615
101313.8542169168
101354.5889523517
101377.0079929547
101379.2534864507
101379.2214787946
101379.2013157899
101379.1253388722
101378.7586712187
101378.0593864767
101376.9968129265
101374.8380948363
101373.243716798
101372.8921421309
101373.1661766347
101373.5099154531
101373.4045128401
101373.2210847585
101373.3325628773
101373.5067993767
101372.5691247917
101370.8509881005
101369.7576830958
101361.6276975076
101339.9211339211
101300.0144354575
101274.4272900502
101271.0968607519
101270.9484982364
101271.1558973679
101271.4576726899
101271.5990266616
101272.3698126477
101274.1953992097
101276.1036745833
101276.7483224292
101276.805657199
101276.9145586762
101276.8465403917
101276.5339082781
101276.1992638508
101276.6952832291
101277.3523086296
101277.217278551
101277.7824268913
101280.8965724242
101286.3711260686
101305.689488109
101344.1643333616
101373.6097905393
101378.3689597766
101378.4708324939
101378.5200543521
101378.363619239
101377.775914122
101376.932792315
101375.3897631483
101373.9181992021
101373.4070177407
101373.2712107596
101373.5496108136
101373.8176271171
101373.5272019747
101373.1966501176
101373.4364185724
101373.3861657331
101372.5019286476
101371.230401914
101370.5741708796
101364.4500255141
101347.8157532353
101311.2134683295
101278.7427368037
101272.1757333746
101271.9590040575
101272.0983531674
101272.3347830964
101272.6472963952
101273.877099968
101275.5084496554
101276.1658195635
101276.1374180011
101276.0717621555
101276.2806083226
101276.3841675784
101276.1230164892
101276.273339331
101276.8695831741
101277.3530418724
101276.9893851123
101277.7114327273
101280.2723284381
101283.6653403447
101297.965353664
101331.4005709323
101367.7829566265
101377.7743569211
101378.2159080376
101378.3086097751
101378.13393397
101377.6029358778
101376.9508947474
101375.495867614
101373.9161241948
101373.3483774454
101373.2647934798
101373.4974828641
101373.6471659202
101373.4069597603
101373.2057465966
101373.5372827984
101373.2636878129
101372.4248609724
101371.6634057787
101371.2479738466
101366.6649281652
101354.9515182634
101324.1404438564
101285.6871413492
101272.7363853713
101272.0733726636
101272.1615250329
101272.2973678754
101272.5057774296
101273.5360589762
101275.1537706888
101276.1822334597
101276.3269908097
101276.3588842199
101276.5114350282
101276.4943892296
101276.2358612288
101276.515266609
101277.0557421886
101277.2372212242
101276.9094872604
101277.7422957622
101279.794471578
101281.7168510278
101291.9927644123
101318.6366154769
101358.4967224214
101376.6799006389
101378.1892290829
101378.3132627862
101378.1236991638
101377.6865465222
101377.2525228121
101375.9094735551
101374.1031474868
101373.329609613
101373.273298469
101373.4133691916
101373.4091004105
101373.2770273959
101373.2717051471
101373.517404151
101373.0273203448
101372.2403428034
101372.0115444518
101371.6115108388
101368.0878722678
101360.4360827988
101336.6426878503
101296.4468580768
101274.1099535337
101271.8559551171
101271.879119329
101271.9276663318
101272.1170616135
101273.0455723779
101274.5890987051
101276.0749582752
101276.5026844122
101276.6162114514
101276.6791114776
101276.5351705557
101276.4085536452
101276.7790713337
101277.2247028174
101277.0810805705
101277.0239598704
101277.9125724811
101279.4242803754
101280.3689217611
101287.5763757779
101306.9306932145
101345.4088599101
101374.1081402871
101378.7102221279
101378.8859610076
101378.6940693274
101378.3724752988
101378.1457240054
101377.038709478
101374.9117494391
101373.2440537485
101372.9187278475
101372.9112403448
101372.7941803841
101372.8804995383
101373.1121473591
101373.2622183053
101372.7068614274
101372.0856553519
101372.292782368
101371.7288876161
101368.9010849245
101364.2119687005
101346.8009428611
101309.7790593298
101277.8918512387
101271.8058440672
101271.6592987228
101271.6316839826
101271.8011391051
101272.5620477999
101273.83428708
101275.7071177663
101276.6281217323
101276.8132312829
101276.7774166462
101276.5660522346
101276.5822106555
101276.9569703219
101277.2200980736
101276.9030946327
101277.1840019244
101278.0791916902
101278.9413996415
101279.4703834004
101284.7387804091
101297.9850660534
101330.9778476443
101368.1665884451
101378.9945756398
101379.4810393153
101379.3226304104
101379.1453056343
101378.9774521593
101377.9883385961
101376.0333219998
101373.7219422808
101372.7108405142
101372.4897947139
101372.2830125247
101372.5383971689
101372.9190704297
101372.9256633076
101372.3712184548
101372.0395222972
101372.4563150741
101371.5914768444
101369.2333934535
101366.7761780352
101354.8089949525
101324.6322406184
101285.7323037601
101271.9077944206
101271.1076110203
101271.013936926
101271.1509990211
101271.5051848818
101271.9378873684
101272.9748036665
101275.4562910772
101277.5426743367
101277.9679588731
101277.7949057468
101277.6250597708
101277.7238619511
101277.6008456362
101277.3023998408
101277.4195041439
101278.0765270723
101278.7631939158
101279.0615853923
101282.7569995312
101292.6719471185
101320.2878981466
101359.8263666876
101376.4197069852
101377.5345732383
101377.5403307972
101377.5404520119
101377.5401966787
101377.5399049539
101377.5400258688
101377.5398077101
101377.5380056119
101377.5352042853
101377.5250370094
101377.4892945733
101377.3728673051
101376.9612813207
101375.5196561617
101370.6637396203
101357.1361253117
101336.0394640981
101325.8437537951
101325.0055843015
101325.0000011597
101324.9999999991
101324.9999999991
101324.9999999991
101324.9999999993
101324.9999999997
101325.0000000006
101325.0000000016
101325.0000000021
101325.0000000021
101325.0000000019
101325.0000000018
101325.0000000016
101325.0000000015
101325.0000000014
101325.0000000014
101325.0000000014
101325.0000000015
101325.0000000015
101325.0000000015
101325.0000000015
101325.0000000014
101325.0000000015
101325.0000000015
101325.0000000015
101325.0000000014
101325.0000000014
101325.0000000015
101325.0000000015
)
;

boundaryField
{
    inlet
    {
        type            uniformFixedValue;
        uniformValue    sine;
        uniformValueCoeffs
        {
            frequency       constant 3000;
            scale           constant 50;
            level           constant 101325;
        }
        value           uniform 101325;
    }
    outlet
    {
        type            waveTransmissive;
        gamma           1.4;
        fieldInf        101325;
        lInf            2.25;
        value           uniform 101325.0000000015;
    }
    frontAndBack
    {
        type            empty;
    }
}


// ************************************************************************* //
