/*--------------------------------*- C++ -*----------------------------------*\
| =========                 |                                                 |
| \\      /  F ield         | OpenFOAM: The Open Source CFD Toolbox           |
|  \\    /   O peration     | Version:  v2012                                 |
|   \\  /    A nd           | Website:  www.openfoam.com                      |
|    \\/     M anipulation  |                                                 |
\*---------------------------------------------------------------------------*/
FoamFile
{
    version     2.0;
    format      ascii;
    class       volScalarField;
    location    "0.007";
    object      rho;
}
// * * * * * * * * * * * * * * * * * * * * * * * * * * * * * * * * * * * * * //

dimensions      [1 -3 0 0 0 0 0];


internalField   nonuniform List<scalar> 
1000
(
1.176256865827898
1.176283827701968
1.176244013277194
1.17623298996649
1.176226327186709
1.176181194336375
1.176101684037501
1.176021155553698
1.175972612418803
1.175967208323441
1.175993658164934
1.176039477391202
1.176044096992983
1.176030305527863
1.176009986641642
1.176019175525205
1.176065802636217
1.176127188550013
1.176154745075052
1.176190666417887
1.176261079904175
1.17634752760857
1.176421752679319
1.176477473479184
1.176506801856881
1.176517948698582
1.176536901535953
1.176589805540365
1.176688568443862
1.176789112252654
1.176844039696081
1.176835263877511
1.176800118984991
1.176773070319261
1.176786529005173
1.17683027482729
1.176861604842724
1.176846324052815
1.176801337697507
1.176745373733829
1.17671482985408
1.17666376092416
1.176596380229922
1.176535948616215
1.176497101357419
1.176461507903535
1.176446751030013
1.176424681182202
1.176343490994458
1.176201947230205
1.176089113048899
1.176060833638086
1.176069578561292
1.176073182962003
1.1760502766977
1.176004455459196
1.175963435324521
1.175952462118347
1.175981316182842
1.176023595464901
1.176057704656266
1.176051011152433
1.176053287865884
1.176075922956128
1.176119608156889
1.176173624055714
1.176233388483326
1.176270041079663
1.176335429522105
1.176440911529984
1.176519168659684
1.176562732954485
1.176591946897997
1.176607996910319
1.176653588649277
1.176745967395468
1.176818112730614
1.176841105312607
1.176840879884806
1.176812910038877
1.176796356081363
1.176802802222968
1.176832231820425
1.176858474697971
1.176844326661261
1.176799999287884
1.176728210413652
1.176669683282632
1.176631652712504
1.176613692084346
1.176589639318953
1.176532213567888
1.176433261226286
1.17631056633665
1.176219964733968
1.176202288207321
1.176196993175718
1.176168866376902
1.176105849604814
1.176041428742455
1.175980058646991
1.175974960288326
1.175990910719818
1.176005913793755
1.175987056461169
1.175965308976846
1.175967712627634
1.176001221519336
1.176055520055022
1.17610429339697
1.176117613186825
1.176136555007619
1.176181458091373
1.176243906157619
1.176298673440566
1.176362475981713
1.176417450137251
1.1765128424652
1.176633046270113
1.176697562455116
1.176726386442178
1.176761497972352
1.176795658183487
1.176822210070323
1.176825229081941
1.176819490662469
1.176819642959376
1.176824183292498
1.176839098778519
1.176856639923512
1.176859967846015
1.176835643498632
1.17679119486865
1.176738727332923
1.176674394985435
1.176583210139613
1.176513497870576
1.176476639357683
1.176449921925241
1.176406371585372
1.176364718335608
1.176272687605317
1.176149638406784
1.17608666267287
1.176068175946786
1.176038425130066
1.176012969997116
1.175989449167434
1.175986744309221
1.175991796286345
1.175996108800136
1.176003022001699
1.175992257046708
1.175980974221509
1.175973981187169
1.17599697736752
1.176040894049371
1.17610975442265
1.176203232563444
1.176323206358719
1.176398622061774
1.176408650958205
1.176414797680856
1.17644996017121
1.176530075956169
1.176656970268739
1.176765856757515
1.176783823518513
1.176768899702975
1.176752465681074
1.17676045299661
1.176787277107322
1.17682031830263
1.176858087302544
1.176880657927768
1.176887641962607
1.176887258013147
1.176889167777304
1.176845612950493
1.176731412969978
1.17660126730722
1.176547018420562
1.176537951950317
1.176554317435711
1.176569225228675
1.176543644786665
1.176447014815363
1.176247547740628
1.176071038934237
1.176022348983037
1.176029155562671
1.176055021549045
1.176062785337942
1.176040232993393
1.175985416202745
1.175932852513815
1.175903626960372
1.175910344960479
1.175939655476319
1.175969754376774
1.175990870232705
1.175995772712374
1.176002585121947
1.176030887963661
1.176085801958606
1.176152844440782
1.176214599907
1.176266782336037
1.176319013696694
1.176420133758574
1.176618468627008
1.1768129571759
1.176875526198101
1.176892064087575
1.176893490852488
1.176878972380934
1.17685864612832
1.176841622065268
1.176834412219564
1.176836959904933
1.176843379373327
1.176843606223676
1.176835330446673
1.176821795584253
1.17681036098232
1.176808399011857
1.176808175102256
1.176802503323019
1.176784033544937
1.176748552587215
1.176685294136964
1.176545416140653
1.176270481285575
1.176017238450912
1.175952817388371
1.175947903283788
1.175946792763129
1.175953982295663
1.175967382770826
1.175985903597029
1.176003751341914
1.176009036075937
1.176009300103778
1.176010991062967
1.176005551760028
1.17599756238352
1.175993465760231
1.175995004848416
1.175999853366642
1.176003630688288
1.176013705655512
1.176037826831478
1.176092427107762
1.176253811407448
1.176539946672976
1.176721201215878
1.176743396307401
1.176743541245466
1.176746022554405
1.176743502633066
1.176739812075871
1.176739353468798
1.176754214196406
1.176777505201545
1.176830093660002
1.176863827964758
1.176869349002979
1.17687136390685
1.176863010294948
1.176851991592665
1.176825695999818
1.176765006598559
1.176717874964866
1.176706479155173
1.176709407842082
1.176705901410396
1.176688803327703
1.176665346618502
1.176553093052876
1.176280252006007
1.176001396054459
1.175935182109228
1.175933456555654
1.175934130775104
1.175933535726354
1.175937402920333
1.175946290120677
1.175954655930629
1.175963522233212
1.175980329658257
1.176006288715036
1.17603130751135
1.176044896469104
1.176049881486929
1.176055391327182
1.176062637318148
1.176071051466885
1.176124245323345
1.176240842291341
1.176429069865815
1.176533076484367
1.17654999789112
1.176552246963159
1.176550179318695
1.1765682005629
1.17661063221071
1.176715280088465
1.176800171790264
1.176814879685562
1.176815019080662
1.176814023558501
1.176814817928282
1.176817306420304
1.176817305586885
1.176821317406456
1.176836556447287
1.176850037572109
1.176852852086836
1.17685000240428
1.176849925218957
1.176845249289603
1.176818012786474
1.176765190529595
1.17658400329877
1.176241305627541
1.176013908621299
1.175984811242084
1.175984879226256
1.175985249797964
1.175985178607648
1.175988781591079
1.175996564608391
1.176006972837637
1.17601082480329
1.176011394257352
1.176011950401959
1.176011366467001
1.176010341419448
1.176009890825022
1.176011000906556
1.176011806972306
1.176010266422967
1.176012642069038
1.176020831625413
1.176029320898138
1.176077868357389
1.176216641282696
1.17650791282137
1.17675219627721
1.176797662929701
1.176798584308191
1.176798160402502
1.176798144449605
1.176798100833686
1.176797750880435
1.176796888672228
1.17679923201533
1.176804018152002
1.176811310339718
1.176834274683552
1.176857082878182
1.176862935007658
1.176860899319245
1.176858739685735
1.176861685682964
1.176857144261802
1.176846468771457
1.17683568935274
1.176777537747161
1.176598034286161
1.176260032789809
1.176033446630909
1.176003283315073
1.17600247718024
1.176001732679831
1.176002676656955
1.176004530731798
1.1760058942278
1.176005889956535
1.176005970822725
1.176006391875729
1.176005927503308
1.17600345259959
1.175999571144339
1.175995012962088
1.175991056470734
1.175988878280268
1.175987292624614
1.175990270810921
1.175996060505109
1.176002722901619
1.176035024656188
1.176126638382795
1.176369555315842
1.176698712156854
1.176825247460852
1.176833008172621
1.176832954691476
1.176832718747153
1.176832324147327
1.176830406621504
1.176826868236107
1.176823753094878
1.176823247203727
1.176823303923408
1.176823142645298
1.176823519552101
1.176823774272695
1.176823922395954
1.176823388443515
1.176822618622514
1.176821485184824
1.176818613350438
1.176812570526903
1.176798221750432
1.176750563269869
1.176610196463395
1.176302745443053
1.176020242097438
1.175960327621878
1.175958749652106
1.175959211373197
1.175959390838217
1.175959538197926
1.175961086507097
1.175963862887713
1.175966527371363
1.175968830294728
1.175970586370209
1.175972004324835
1.175971690190696
1.175969651732202
1.175971594530618
1.175976257630482
1.175977204584258
1.175977136712299
1.175993783636525
1.176032685827521
1.176164646514051
1.17646068028857
1.176740635667299
1.1768031094831
1.17680478620763
1.176804215858619
1.176804414715283
1.176804311741824
1.176803922298914
1.176802751214121
1.176805631565635
1.176810984947308
1.176814263746626
1.176829571167694
1.176851979187482
1.176859889748167
1.176859663369579
1.176856807984812
1.176856449664926
1.17685595019623
1.176850326391242
1.176839075871927
1.176826562896373
1.176766873022
1.17660315018792
1.176271060158176
1.176010703372423
1.175966625205789
1.175965517307849
1.175966230539357
1.175967161621838
1.175967726361349
1.175969670388447
1.17597208342847
1.175973135839038
1.17597246540508
1.175971561663664
1.175972834711658
1.175974468384769
1.175973619519258
1.175973058642639
1.175976648340361
1.175981356113304
1.175981035020361
1.175984602360263
1.176006944411494
1.17604887033507
1.176198465067799
1.176515956085149
1.176794739626058
1.176850023082211
1.176851808542475
1.176852368910746
1.176851340638775
1.176849447850587
1.176848323286305
1.176847827075796
1.176846964924713
1.176845758051013
1.176845440635131
1.176846832114978
1.176846201156217
1.176843358564128
1.176841362539648
1.176843590094036
1.176841342256837
1.176834914504467
1.17682866460965
1.176824275534585
1.176785257818064
1.176685787175872
1.176421735042317
1.176085093363515
1.175967444603836
1.175961260115489
1.175961661821184
1.175961889147869
1.175962577433023
1.17596532966047
1.175968583557726
1.175969894569988
1.175969588407277
1.17596978994168
1.175971681903321
1.175972391646908
1.175970152121147
1.175971908308239
1.175976851858868
1.175979857231321
1.175976575261294
1.175983247487723
1.176002402320731
1.176024082613616
1.176125457005718
1.176382964380241
1.176726683538973
1.176854667745451
1.17686224914837
1.176862555273899
1.176861979506762
1.176860852117044
1.176859542195572
1.176856975199744
1.176853737903672
1.176851317865567
1.176850049615707
1.176848942954058
1.176846799049641
1.176843942056399
1.176841149069886
1.176837141064048
1.176832029010521
1.176827406203614
1.176823618591123
1.17681528199521
1.176788982966764
1.176718868750327
1.176512774815594
1.17617208745707
1.175983540406514
1.175964287853497
1.175963215634213
1.175961276078506
1.175964703673784
1.175969204345945
1.175970536375279
1.175969797378859
1.175973240144036
1.175978817348894
1.175981375941337
1.175978820578147
1.175984995082388
1.175996352291164
1.176003869822836
1.176008030178172
1.176015343375369
1.176026009915515
1.176035688933278
1.176038364276862
1.176090354144323
1.176224660676417
1.176529930481734
1.176804853126974
1.176861654436861
1.176863452057886
1.176861989577892
1.176860679662041
1.17686012560894
1.176857409742705
1.17685311298273
1.176849379197943
1.176844670306601
1.176832097583566
1.17681864714697
1.176814340435164
1.176816200264036
1.176818215343383
1.176814307489876
1.176810963514899
1.176814631690231
1.17680835722682
1.176785934211921
1.176756737485434
1.176630889123233
1.176341902806299
1.176039829455742
1.175962030652913
1.175958607447787
1.175957643960498
1.175959246219744
1.175961987547923
1.175963968347276
1.17596935005441
1.175986129499812
1.176006414345721
1.176014130876425
1.176014170319764
1.176013950104188
1.176015098046695
1.176014172641563
1.176010603839679
1.176014257217597
1.176021446823839
1.176024772854347
1.176028538532245
1.17606415205109
1.176144479855146
1.176375036327049
1.176710947357126
1.176857025350325
1.176867597815615
1.176866639381596
1.176865833603824
1.176865641832676
1.176862723532445
1.176855412640153
1.176844367573979
1.176824359202022
1.176811221773423
1.176808383167002
1.17681032740079
1.176813415162298
1.176813360822065
1.176810486742004
1.176809856358063
1.176812757127105
1.176804827666383
1.176787380665386
1.176773482776495
1.1766893756976
1.176470515187651
1.176132936308035
1.175971747522827
1.175957364691854
1.175956090080526
1.17595803285891
1.17596101375799
1.175962458977272
1.17596806515772
1.175984655169962
1.176004145664936
1.176011699181243
1.176011981216842
1.176012261903487
1.176012440992459
1.176009703077918
1.176005881223094
1.176009659310778
1.176016033536388
1.176017215948805
1.176021278858972
1.176052697907502
1.17611720976806
1.176319294219981
1.17665705053948
1.176842928164702
1.17686154525939
1.176861279914816
1.176861112779256
1.176860482914787
1.176857443039868
1.176851645549505
1.176842836138258
1.176824938888738
1.176811720355291
1.176808805554649
1.176811077523408
1.176813927400997
1.176813053549196
1.176811532810459
1.17681245706692
1.176813901628698
1.176806127608913
1.176791882928565
1.176782818520709
1.176715413356552
1.176535437480115
1.176204528438396
1.175992343145184
1.175964724261776
1.175963493879129
1.175965213870561
1.175967716535787
1.175968888802349
1.175975281021059
1.175990420767707
1.176006246178185
1.176011592256209
1.176012067731702
1.176012970848295
1.176012406769184
1.17600981410249
1.176007038886348
1.17601115237907
1.176016601090236
1.176015481278422
1.176020168029007
1.176045993499341
1.176091393059192
1.176251591200499
1.176570617139076
1.176814754362639
1.17685421218724
1.176855056785201
1.176855464856548
1.176854167900024
1.176849295440741
1.176842305398544
1.17682951261758
1.176817312289124
1.176813074211039
1.176811948265351
1.17681425640602
1.176816478456381
1.176814070613885
1.176811330090954
1.176813317950976
1.176812901317776
1.176805570322229
1.17679502837658
1.176789587678206
1.176738813087571
1.176600895434907
1.1762973947356
1.176028130317739
1.175973671284939
1.175971873956081
1.175973029598648
1.17597499034525
1.175977582056237
1.175987780930924
1.17600130980958
1.176006761405671
1.176006525875125
1.176005981393718
1.176007713363534
1.176008572187682
1.176006406460085
1.176007653093977
1.176012597756956
1.176016607086625
1.176013591284098
1.176019579215226
1.17604081663962
1.176068954469466
1.176187539682118
1.176464786192255
1.176766444177591
1.176849282500253
1.176852943317293
1.176853711873894
1.17685226369979
1.176847861383612
1.176842455531454
1.176830392357014
1.176817295149329
1.176812588108708
1.176811895134678
1.176813824303867
1.176815065287456
1.176813073799389
1.176811405591762
1.176814154275774
1.176811885967909
1.176804931457553
1.176798618401415
1.176795174126539
1.176757176794041
1.176660060208116
1.176404587002927
1.176085718376314
1.175978320786
1.175972822485119
1.175973553545349
1.175974680109388
1.175976408476498
1.175984952704184
1.175998368493256
1.176006897579164
1.176008098061312
1.176008362558438
1.176009627671923
1.176009486318734
1.176007342347481
1.176009659467713
1.176014141646401
1.176015646660905
1.176012928768999
1.176019835248431
1.176036853889693
1.17605279600345
1.176138011716253
1.176358950281357
1.176689451136954
1.176840208604818
1.176852722231156
1.176853750553819
1.176852178953522
1.176848554680488
1.17684495634088
1.176833821553951
1.176818845824438
1.176812432626198
1.176811965765182
1.176813127056759
1.176813091664935
1.176811996680518
1.176811952553791
1.176813989582312
1.176809926416635
1.176803401771255
1.176801504850655
1.176798188240755
1.176768974370575
1.176705533555267
1.176508253747968
1.17617494436148
1.175989711601837
1.175971019471803
1.175971211574334
1.17597161417384
1.175973184844394
1.175980885076866
1.175993685649126
1.176006007940924
1.176009555079777
1.176010496556009
1.176011018180994
1.176009824470433
1.176008774430378
1.176011847133481
1.176015542751526
1.176014351686523
1.176013877981345
1.176021247231815
1.176033783774256
1.176041617600517
1.176101387835015
1.176261883522394
1.176580935912447
1.176818886030738
1.176857041373374
1.176858498368523
1.176856907462719
1.176854241241263
1.176852361324648
1.176843183448009
1.176825549472006
1.176811723050492
1.176809025853069
1.176808963772932
1.176807993252886
1.176808708901426
1.176810629432519
1.176811873631386
1.17680726929853
1.176802119019167
1.176803836257369
1.176799161113628
1.176775716328905
1.176736839236928
1.176592481151288
1.176285500135447
1.176021073889416
1.175970603617106
1.175969388319872
1.175969159302582
1.17597056460944
1.175976874909483
1.175987425698987
1.17600295718014
1.17601059508906
1.176012130200935
1.176011833186324
1.176010080334954
1.176010214333685
1.176013322216115
1.176015504331479
1.176012875418887
1.176015204980586
1.176022628779133
1.176029779041006
1.176034165856816
1.176077856081737
1.176187702858259
1.176461280854613
1.176769624379331
1.176859398541918
1.176863431712057
1.1768621184044
1.17686064827176
1.176859256661619
1.176851056285226
1.176834847889992
1.176815684893447
1.176807302106145
1.176805469467245
1.17680375508299
1.176805872418645
1.176809028491142
1.176809083150968
1.176804486379885
1.176801736362292
1.17680519189775
1.176798021704263
1.17677847128311
1.176758098791879
1.176658878206072
1.17640866472866
1.176086092406975
1.175971448817902
1.175964812948049
1.175964036094691
1.17596517276762
1.175968110077152
1.175971698532025
1.175980297787866
1.176000876919903
1.176018179330856
1.176021706212661
1.176020271084997
1.176018862552719
1.176019681916767
1.176018661743187
1.176016186733175
1.176017157877483
1.176022606559916
1.176028301067782
1.176030775606165
1.176061421368315
1.176143643428796
1.17637264211646
1.176700475062139
1.17683805108064
1.176847294307033
1.176847342041247
1.176847343045953
1.176847340928822
1.176847338509797
1.176847339511853
1.176847337702784
1.176847322761861
1.176847299536771
1.176847215243133
1.176846918914723
1.176845953656221
1.176842541336183
1.176830589280249
1.176790330027001
1.17667817264132
1.17650325175427
1.176418712370834
1.176411762476161
1.176411716181811
1.176411716172187
1.176411716172187
1.176411716172187
1.176411716172188
1.176411716172191
1.176411716172199
1.176411716172207
1.176411716172211
1.17641171617221
1.176411716172209
1.176411716172209
1.176411716172207
1.176411716172206
1.176411716172206
1.176411716172207
1.176411716172206
1.176411716172206
1.176411716172206
1.176411716172205
1.176411716172205
1.176411716172205
1.176411716172205
1.176411716172205
1.176411716172205
1.176411716172204
1.176411716172204
1.176411716172205
1.176411716172206
)
;

boundaryField
{
    inlet
    {
        type            calculated;
        value           uniform 1.176411716172193;
    }
    outlet
    {
        type            calculated;
        value           uniform 1.17641171617221;
    }
    frontAndBack
    {
        type            empty;
    }
}


// ************************************************************************* //
