/*--------------------------------*- C++ -*----------------------------------*\
| =========                 |                                                 |
| \\      /  F ield         | OpenFOAM: The Open Source CFD Toolbox           |
|  \\    /   O peration     | Version:  v2012                                 |
|   \\  /    A nd           | Website:  www.openfoam.com                      |
|    \\/     M anipulation  |                                                 |
\*---------------------------------------------------------------------------*/
FoamFile
{
    version     2.0;
    format      ascii;
    class       volScalarField;
    location    "0.007";
    object      T;
}
// * * * * * * * * * * * * * * * * * * * * * * * * * * * * * * * * * * * * * //

dimensions      [0 0 0 1 0 0 0];


internalField   nonuniform List<scalar> 
1000
(
299.9864027077805
299.9848446449888
299.9798157180359
299.9794197415682
299.9793438723318
299.9752819048377
299.9677342023719
299.9596935372613
299.9547938396403
299.9542920365314
299.95704717617
299.9618261582339
299.9623613063824
299.9609947502382
299.9589580213716
299.9599079772783
299.964676553582
299.9709492091495
299.9737661308896
299.9774318989816
299.9846145194269
299.9934320853315
300.0010021380699
300.0066842677547
300.0096741568225
300.0108097761417
300.0127426827913
300.0181408978387
300.0282193902483
300.038479516098
300.0440845249083
300.0431897172189
300.0396045858025
300.0368450849616
300.0382185712427
300.0426823231273
300.0458790230087
300.0443198234896
300.0397295229169
300.034019022313
300.0309023480903
300.0256912614651
300.0188154797555
300.0126485843771
300.0086842263154
300.0050518357951
300.0035458448189
300.0012935311164
299.9930075536496
299.9785613581549
299.9670443988964
299.9641577304696
299.9650503167252
299.9654181924641
299.9630800322818
299.9584027286656
299.9542154188839
299.9530952472983
299.9560405940585
299.9603562434447
299.9638379262632
299.9631546740306
299.9633870366173
299.965697475329
299.9701565177444
299.975669868664
299.9817697801298
299.9855107273883
299.9921844424135
300.0029497602221
300.0109359954387
300.0153816605346
300.0183628372733
300.0200006692061
300.0246530659508
300.0340795363666
300.0414409484696
300.0437869526961
300.04376395133
300.0409100741357
300.0392209594256
300.0398786664144
300.0428814915515
300.0455591083819
300.0441155533913
300.0395926474706
300.0322674898611
300.0262953941171
300.0224146902955
300.0205819173202
300.0181274761619
300.0122673060901
300.0021690359669
299.9896472544954
299.9804001293482
299.9785958481426
299.9780553667251
299.9751845048808
299.9687522745577
299.962176563747
299.9559120954036
299.9553915737373
299.9570196290694
299.9585509757136
299.9566259461633
299.9544057994986
299.9546510268557
299.9580714468781
299.9636138103622
299.9685920818882
299.9699515005146
299.9718846992509
299.9764677119761
299.9828413549423
299.9884307977362
299.9949421524437
300.0005524249784
300.0102873943367
300.0225536877241
300.0291366948524
300.0320776480368
300.0356601324182
300.0391454307179
300.0418542140184
300.0421618608243
300.0415761062063
300.0415912178593
300.0420540432822
300.0435755709322
300.0453649065263
300.0457041733366
300.0432219620321
300.0386860919508
300.0333319808188
300.0267671558825
300.0174618791592
300.0103473722251
300.0065855917753
300.0038585858555
299.999413562178
299.9951621920094
299.9857692625569
299.9732098183616
299.9667814122581
299.9648941556821
299.9618571311564
299.9592585516935
299.9568574915124
299.9565813690706
299.9570970777434
299.9575373654753
299.9582432937876
299.9571447430549
299.955993425367
299.9552799958551
299.9576279936041
299.9621116926438
299.9691411980817
299.9786832490389
299.9909293082753
299.9986269208221
299.9996512011629
300.0002794040281
300.003868775285
300.0120455331881
300.024995527883
300.0361073212134
300.0379411492062
300.0364188676772
300.0347426814349
300.0355584766211
300.0382963752977
300.0416684800906
300.0455228916235
300.0478262876425
300.0485392919827
300.0485007098643
300.0486963029206
300.0442529219168
300.0326008274605
300.0193208470221
300.0137853298824
300.0128604835986
300.0145309180423
300.0160525599294
300.0134424898345
300.003581687168
299.9832249541325
299.9652090789648
299.9602391693838
299.9609343051811
299.9635751100306
299.9643679244394
299.9620661633769
299.9564710521338
299.9511058297603
299.9481227728596
299.9488088390729
299.9518012256059
299.9548740434304
299.9570299091035
299.9575307114063
299.9582264589213
299.9611158930881
299.9667215802048
299.9735650649176
299.979868669341
299.9851950156645
299.9905262733923
300.0008469253465
300.021087867287
300.0409336370321
300.047317784676
300.0490055247495
300.0491513516496
300.0476701510222
300.0455964281747
300.0438596624941
300.0431242508883
300.0433844122515
300.0440396772313
300.044063022269
300.0432187983401
300.041838030016
300.0406715599246
300.0404716381404
300.0404490504784
300.0398706117126
300.0379863660492
300.0343663022404
300.0279117126483
300.0136383708815
299.9855809271068
299.9597323714584
299.9531561222715
299.9526547346603
299.9525416087164
299.9532757559091
299.9546439424909
299.9565347136638
299.9583567577498
299.9588963988459
299.9589235302249
299.9590962997229
299.9585412041891
299.9577258079639
299.9573077282474
299.957464960046
299.9579600485107
299.9583457335493
299.9593742402182
299.9618365200502
299.9674099265449
299.9838824528541
300.0130852411032
300.0315805845866
300.0338451956168
300.033860002771
300.0341132147642
300.0338561073669
300.033479550062
300.0334327700344
300.0349491505729
300.0373257267115
300.0426916394877
300.0461336234262
300.0466969359828
300.046902511155
300.0460501471787
300.0449258246804
300.0422427250355
300.0360501848703
300.0312408362892
300.0300778954243
300.0303766474003
300.030018751528
300.0282739100362
300.0258801818267
300.0144251144588
299.9865808448007
299.9581175407297
299.9513578016621
299.951181581559
299.9512503478294
299.9511895198304
299.9515842156064
299.952491381755
299.9533453533516
299.9542504297092
299.9559661342373
299.9586160062699
299.9611698746387
299.9625570040614
299.9630658756378
299.9636283302882
299.9643680105215
299.9652269470329
299.9706566428688
299.9825576908922
300.0017685622692
300.0123825298165
300.0141094344266
300.014339086673
300.014128221544
300.0159674213146
300.0202975924977
300.0309763645057
300.0396385399865
300.0411393264283
300.0411536209943
300.041052112907
300.0411332441301
300.0413872173702
300.0413871939411
300.0417965904624
300.0433515318708
300.0447270960955
300.0450142986388
300.0447235625507
300.0447157187519
300.0442386424721
300.0414595921898
300.03606984591
300.0175813377855
299.9826081338367
299.9593964832551
299.9564260098532
299.9564329515462
299.9564707852808
299.9564635231239
299.9568313108127
299.9576257807285
299.9586882169205
299.9590814055049
299.9591395239153
299.9591962811755
299.9591366611487
299.9590320087481
299.9589859985418
299.9590992956715
299.9591815553475
299.9590242872035
299.9592667697713
299.96010271271
299.9609692538963
299.9659247013425
299.980089323082
300.0098169284895
300.0347440532248
300.0393829118206
300.0394769046654
300.0394336348675
300.0394319875085
300.0394275224169
300.0393917981165
300.0393038134841
300.0395429169529
300.0400312778796
300.0407753504711
300.0431185267877
300.0454457505089
300.046042878709
300.0458352004745
300.0456148964029
300.0459155270937
300.0454522079035
300.0443630192996
300.0432632214814
300.0373297803262
300.0190132546707
299.9845196509984
299.9613910966077
299.9583118741942
299.9582296149666
299.958153650932
299.9582500354293
299.9584393103278
299.9585784944328
299.9585780598073
299.9585863041148
299.9586292635335
299.9585818406061
299.9583291761267
299.9579329212477
299.9574675856979
299.957063673056
299.9568412740226
299.9566793618012
299.9569833106034
299.9575742475697
299.9582542921057
299.9615515042212
299.9709028492273
299.9956966071033
300.0292872514776
300.042197649845
300.0429894424835
300.0429839987539
300.042959951253
300.0429197218539
300.0427241056138
300.0423631091622
300.0420453037934
300.0419937319943
300.0419995689357
300.0419831551366
300.0420216615188
300.0420477144856
300.0420628675669
300.0420084318376
300.0419299415782
300.0418143351116
300.0415213482925
300.0409048076893
300.0394407607072
300.0345778735013
300.0202547550672
299.9888793793236
299.9600440098501
299.9539275139687
299.9537664187613
299.9538135435802
299.9538318500026
299.9538468789848
299.9540049167562
299.9542883153005
299.9545602890581
299.9547953560007
299.9549746042171
299.9551193326848
299.9550872527017
299.9548791612003
299.9550774714706
299.9555534648819
299.9556501235414
299.955643194815
299.9573424787673
299.96131349229
299.9747831188513
300.004997578937
300.0335654170652
300.0399395122325
300.0401105842486
300.0400523898012
300.0400726815639
300.0400621746337
300.0400224371617
300.0399029440579
300.0401968402322
300.0407430711492
300.0410776225411
300.0426395084198
300.0449258772229
300.0457330094565
300.0457099116285
300.0454185704198
300.0453820129957
300.0453310538542
300.0447572468599
300.0436093243218
300.0423325921647
300.0362421214944
300.0195358199589
299.9856457358429
299.9590702692666
299.9545704689519
299.9544573902639
299.9545302212646
299.9546253049191
299.9546829894646
299.9548814687581
299.9551278317719
299.9552352965296
299.9551668987599
299.9550746865062
299.9552046714481
299.9553714706426
299.9552848524702
299.9552276212621
299.9555940678205
299.9560746458218
299.9560418773522
299.9564060265807
299.958686630464
299.9629662603039
299.97823564155
300.0106394234951
300.0390866401706
300.044726906202
300.0449090456244
300.0449661940623
300.0448612453948
300.0446680864891
300.0445533162676
300.0445026633449
300.044414678224
300.0442915135711
300.0442591055783
300.0444010680515
300.0443366749237
300.0440466204071
300.0438429436865
300.044070216849
300.0438408527358
300.0431849913476
300.0425472746015
300.042099431589
300.0381182251845
300.0279684169792
300.0010230460153
299.966664254618
299.9546541834886
299.9540228150036
299.9540638211067
299.9540870308271
299.954157300007
299.9544382567968
299.9547704263438
299.9549042655273
299.9548730272333
299.9548936136621
299.9550867550638
299.9551592190414
299.9549306207107
299.9551098984295
299.9556145368069
299.9559213271169
299.9555863126844
299.9562674074491
299.9582226803333
299.9604357372052
299.9707834127427
299.9970663318537
300.0321426458457
300.0452006099601
300.045974087396
300.0460053207801
300.0459465718898
300.0458315382289
300.0456978801823
300.0454359592432
300.045105645178
300.0448587177108
300.0447293105796
300.0446163909032
300.0443976382905
300.0441061272833
300.0438211473729
300.0434121948245
300.042890591669
300.0424189072885
300.0420324413321
300.041181823897
300.0384983896847
300.0313441368675
300.0103136267303
299.9755442212139
299.9562975388091
299.9543320787939
299.9542226282094
299.9540246415003
299.9543745292307
299.9548339554103
299.9549699300365
299.954894495942
299.9552459311603
299.9558152462918
299.9560764262397
299.9558155819466
299.956445868109
299.9576051881712
299.9583725605276
299.9587972391608
299.9595437482208
299.9606325490514
299.9616205420591
299.9618936374581
299.9672004345339
299.9809090856264
300.0120651720469
300.0401183200823
300.0459134609987
300.0460968636974
300.0459476422204
300.0458139864615
300.0457574535457
300.0454803456668
300.0450419344295
300.0446609649362
300.0441805022555
300.0428976635537
300.0415252586454
300.0410858238566
300.041275591491
300.0414812000043
300.0410824638104
300.0407412618528
300.0411155452549
300.0404753362887
300.0381873794539
300.0352082473088
300.0223666243687
299.9928759418295
299.9620438255212
299.9541016493875
299.9537521888764
299.9536538373133
299.9538173959834
299.9540972295254
299.9542994283405
299.9548487885086
299.9565616100073
299.9586322374858
299.9594199126819
299.9594239386661
299.9594014599087
299.9595186376388
299.9594241752771
299.9590598836039
299.9594328081902
299.9601666944054
299.9605062023447
299.9608905929424
299.9645258239378
299.9727250874395
299.9962570564456
300.0305369986366
300.0454412570753
300.046519891464
300.04642210029
300.0463398852413
300.0463203185188
300.0460225580747
300.0452766093347
300.0441496504189
300.0421081235187
300.0407676471883
300.0404780089585
300.0406763889111
300.0409914478727
300.0409859030536
300.0406926448984
300.0406283224738
300.0409243015059
300.0401152189396
300.0383349928827
300.0369169076184
300.0283347235707
300.0060011083114
299.9715479964789
299.9550936635978
299.953625354161
299.9534952438234
299.9536935652787
299.9539978583828
299.9541453900796
299.9547176694158
299.9564111604475
299.9584007111904
299.9591717519422
299.9592005457191
299.9592292032223
299.959247487421
299.9589680145936
299.9585778944987
299.9589635510371
299.9596142083982
299.9597349035712
299.9601496320664
299.9633567235658
299.9699416703623
299.9905679382662
300.0250374607034
300.0440030048152
300.0459023747922
300.0458752944453
300.0458582311666
300.0457939535535
300.0454837777892
300.04489223603
300.043993378213
300.0421672486321
300.0408184894097
300.0405210706406
300.0407528857444
300.0410436639636
300.0409544953586
300.0407993204982
300.0408936201761
300.0410410120495
300.0402477848581
300.0387943099436
300.0378694158545
300.0309915224572
300.0126262024729
299.9788552871639
299.9571960622836
299.9543765192767
299.9542509197263
299.9544264945739
299.9546819636348
299.954801627475
299.9554541376681
299.9569995773635
299.9586149950719
299.9591607045054
299.9592092402365
299.9593014287473
299.9592438505779
299.9589792017151
299.9586959179144
299.9591158113709
299.9596719976193
299.9595576940561
299.9600361073381
299.9626722477274
299.967306376069
299.9836577063304
300.0162172146401
300.0411284274393
300.0451540894944
300.0452402630077
300.0452819027984
300.045149574595
300.0446524262488
300.043939212993
300.042633922612
300.0413890713077
300.0409566413077
300.040841756903
300.0410772693313
300.0413039971132
300.0410583142535
300.040778685252
300.0409815166302
300.0409390053352
300.0401909858422
300.0391153291957
300.0385601868991
300.0333792756163
300.019305962408
299.9883335448624
299.9608494143682
299.9552898947592
299.9551064140281
299.955224379153
299.955424527272
299.9556890836669
299.9567301650704
299.9581111586426
299.9586676387153
299.9586435949652
299.9585880145172
299.9587648072194
299.958852471364
299.9586313993633
299.9587586506876
299.9592633838767
299.9596726398478
299.9593647964616
299.9599760249596
299.9621438394177
299.9650160032166
299.9771201413156
300.0054168404058
300.0361994024771
300.0446511167031
300.0450246138205
300.0451030317068
300.0449552705916
300.0445060890406
300.0439545131106
300.0427236649065
300.0413872997688
300.0409070170233
300.0408363095122
300.0410331522033
300.0411597759235
300.0409565746543
300.0407863589383
300.0410668205727
300.0408353741666
300.0401257684669
300.0394816119845
300.0391301778577
300.0352530417127
300.025343302378
299.9992730768623
299.9667280533523
299.9557645257188
299.9552032184469
299.9552778432648
299.9553928399923
299.9555692678576
299.9564414463483
299.9578108988345
299.9586815200661
299.9588040591953
299.9588310566174
299.9589601927717
299.9589457610872
299.9587269091718
299.9589634310838
299.9594209530675
299.9595745764465
299.9592971413007
299.9600021289729
299.9617393106367
299.9633666061805
299.9720648033212
299.9946152172693
300.0283434324125
300.043725324335
300.0450020202945
300.0451069413749
300.0449465855568
300.0445767888787
300.0442096386643
300.043073517839
300.0415454814452
300.0408911106409
300.0408434742582
300.0409619665019
300.0409583554548
300.0408466288003
300.0408421267892
300.0410499749179
300.0406353907991
300.0399696463273
300.0397760946182
300.0394376883374
300.0364567999758
300.0299834130766
300.0098521963443
299.9758356894517
299.9569273869155
299.9550191489336
299.9550387589242
299.9550798581744
299.9552401927124
299.9560262226386
299.9573328822907
299.9585907094794
299.9589527910726
299.9590488956752
299.9591021434398
299.9589802958059
299.9588731125696
299.9591867656824
299.9595640034121
299.9594424257699
299.9593940727083
299.9601463012189
299.9614259778076
299.962225626266
299.9683265945204
299.9847082322743
300.0172702586498
300.0415500078718
300.0454427923107
300.0455914495835
300.0454291268567
300.0451570867569
300.0449652751096
300.0440288298484
300.0422295726208
300.0408187995328
300.0405435907248
300.0405372574582
300.0404382316584
300.040511254051
300.0407072174005
300.0408341701014
300.0403643676488
300.0398388575305
300.0400140787311
300.0395370536177
300.037144828223
300.0331779129504
300.0184473622148
299.9871196166434
299.960129143344
299.9549767981244
299.9548527342388
299.9548293580982
299.9549728122799
299.955616960352
299.9566939685208
299.9582793857813
299.9590590389782
299.9592157392774
299.9591854222962
299.9590064984977
299.9590201778143
299.9593374209337
299.9595601648142
299.9592918155096
299.959529610135
299.9602874036163
299.9610172731925
299.9614650673965
299.9659247100192
299.9771368995293
300.0050591911009
300.0365240593223
300.0456834069231
300.0460948894094
300.0459608900817
300.0458108895018
300.0456689005543
300.044832194431
300.043178400483
300.041223120649
300.0403677801751
300.0401807862251
300.0400058584768
300.0402219016185
300.0405439320836
300.0405495093564
300.0400804761089
300.039799876444
300.040152463436
300.0394208523339
300.0374259941589
300.0353472503858
300.025222800049
299.9996893053641
299.9667664074578
299.9550631773375
299.9543857391571
299.9543064389483
299.9544224703513
299.9547223086011
299.9550886143936
299.9559664150792
299.9580670906875
299.9598332632075
299.960193272724
299.9600467808164
299.9599030038361
299.9599866418585
299.9598825066578
299.9596298671536
299.9597289984199
299.9602851789944
299.9608664509632
299.9611190446795
299.9642471991505
299.9726398131612
299.9960128015458
300.0294684196634
300.0435053069473
300.0444483376029
300.0444532079687
300.0444533105687
300.0444530946412
300.0444528479761
300.0444529503648
300.0444527659192
300.0444512415762
300.0444488719426
300.044440271301
300.0444100360813
300.0443115477703
300.0439633776098
300.0427438650381
300.0386360221666
300.0271917104916
300.0093418435006
300.0007140365755
300.0000047257283
300.0000000009809
299.9999999999988
299.9999999999989
299.9999999999989
299.999999999999
299.9999999999994
300.0000000000002
300.000000000001
300.0000000000015
300.0000000000015
300.0000000000014
300.0000000000013
300.000000000001
300.0000000000009
300.0000000000006
300.0000000000006
300.0000000000007
300.000000000001
300.0000000000011
300.0000000000011
300.0000000000012
300.0000000000011
300.0000000000013
300.0000000000013
300.0000000000013
300.0000000000013
300.0000000000013
300.0000000000013
300.0000000000011
)
;

boundaryField
{
    inlet
    {
        type            fixedValue;
        value           uniform 300;
    }
    outlet
    {
        type            inletOutlet;
        inletValue      uniform 300;
        value           uniform 300;
    }
    frontAndBack
    {
        type            empty;
    }
}


// ************************************************************************* //
