/*--------------------------------*- C++ -*----------------------------------*\
| =========                 |                                                 |
| \\      /  F ield         | OpenFOAM: The Open Source CFD Toolbox           |
|  \\    /   O peration     | Version:  v2012                                 |
|   \\  /    A nd           | Website:  www.openfoam.com                      |
|    \\/     M anipulation  |                                                 |
\*---------------------------------------------------------------------------*/
FoamFile
{
    version     2.0;
    format      ascii;
    class       volVectorField;
    location    "0.007";
    object      U;
}
// * * * * * * * * * * * * * * * * * * * * * * * * * * * * * * * * * * * * * //

dimensions      [0 1 -1 0 0 0 0];


internalField   nonuniform List<vector> 
1000
(
(0.02386033502112202 0 0)
(-0.01891288199910349 0 0)
(-0.05627695600713269 0 0)
(-0.08442904349398628 0 0)
(-0.09212362203343889 0 0)
(-0.08552221490509199 0 0)
(-0.07838224800943795 0 0)
(-0.0824768168816619 0 0)
(-0.1056611179426628 0 0)
(-0.1252026970042646 0 0)
(-0.1450301167981684 0 0)
(-0.1404697824422873 0 0)
(-0.1221079002338148 0 0)
(-0.1009094868146095 0 0)
(-0.09457517143863459 0 0)
(-0.09602176874665375 0 0)
(-0.1071968137595521 0 0)
(-0.1076437645710184 0 0)
(-0.09174681678728083 0 0)
(-0.06129148555694384 0 0)
(-0.02727164243279845 0 0)
(-0.004896764559085871 0 0)
(0.002471655782059978 0 0)
(0.00496031183255637 0 0)
(0.01406532145843841 0 0)
(0.03087490827332403 0 0)
(0.05022549072096395 0 0)
(0.06545321986640371 0 0)
(0.0804913939357105 0 0)
(0.09886098795308519 0 0)
(0.1142370933044765 0 0)
(0.120197969551284 0 0)
(0.127781019763282 0 0)
(0.124563393384988 0 0)
(0.1205923087059819 0 0)
(0.1120772867880854 0 0)
(0.1123822369777005 0 0)
(0.1141109307654629 0 0)
(0.1216033680040868 0 0)
(0.1202753011942754 0 0)
(0.1021622252700545 0 0)
(0.06966331700024828 0 0)
(0.03902883843275806 0 0)
(0.02568341887971858 0 0)
(0.02544454780145148 0 0)
(0.02482310005218194 0 0)
(0.01788573621726928 0 0)
(0.001917216516353536 0 0)
(-0.02188960847125467 0 0)
(-0.05800682782073197 0 0)
(-0.0901259482968728 0 0)
(-0.1035592414733811 0 0)
(-0.1114454485771278 0 0)
(-0.1155329001175281 0 0)
(-0.1139480966394238 0 0)
(-0.1094856924853098 0 0)
(-0.1095368988170002 0 0)
(-0.1167286822920049 0 0)
(-0.1289432027618572 0 0)
(-0.137598489192199 0 0)
(-0.1312089733167116 0 0)
(-0.114731820764694 0 0)
(-0.09124979796194062 0 0)
(-0.07329020824139641 0 0)
(-0.06903484494564613 0 0)
(-0.0737532106526454 0 0)
(-0.07504004782586569 0 0)
(-0.05967983544507896 0 0)
(-0.02526493607321822 0 0)
(0.01890436247587772 0 0)
(0.04404329138801581 0 0)
(0.05012073973555333 0 0)
(0.05126475840043474 0 0)
(0.05831907203728552 0 0)
(0.07428161937741876 0 0)
(0.09765867253949706 0 0)
(0.1115578063733862 0 0)
(0.1144966316409137 0 0)
(0.1160297225086142 0 0)
(0.1250006544253728 0 0)
(0.1327418529895492 0 0)
(0.1349378014894932 0 0)
(0.12538396686373 0 0)
(0.1132225391275219 0 0)
(0.1046349918094317 0 0)
(0.1074739075466963 0 0)
(0.1066008753279228 0 0)
(0.09417397713567843 0 0)
(0.07189988281360421 0 0)
(0.05189319585388039 0 0)
(0.03785676708551887 0 0)
(0.03259834989393608 0 0)
(0.0182187516199743 0 0)
(-0.01733059951880166 0 0)
(-0.05562812783278769 0 0)
(-0.07291839792972081 0 0)
(-0.08165812487675742 0 0)
(-0.08042619274309502 0 0)
(-0.07772584658062839 0 0)
(-0.08911670265002815 0 0)
(-0.1153578209048136 0 0)
(-0.1304048406533401 0 0)
(-0.1434223674555491 0 0)
(-0.1407908126293331 0 0)
(-0.1304145380870981 0 0)
(-0.1155982108950026 0 0)
(-0.1081288909822667 0 0)
(-0.1102873922870599 0 0)
(-0.1149850350781539 0 0)
(-0.1139103863401494 0 0)
(-0.1002797468780105 0 0)
(-0.07511833725448813 0 0)
(-0.05000071865542998 0 0)
(-0.03550753560640924 0 0)
(-0.03310839969345714 0 0)
(-0.0323956922148655 0 0)
(-0.01534340815527905 0 0)
(0.02667172676539496 0 0)
(0.0774893953946825 0 0)
(0.1021903461905005 0 0)
(0.1064731419506386 0 0)
(0.100937698204832 0 0)
(0.09680292465584762 0 0)
(0.101578198058306 0 0)
(0.1124650933533313 0 0)
(0.1256784490034813 0 0)
(0.1365651902048389 0 0)
(0.13909491676945 0 0)
(0.1332547912002582 0 0)
(0.1234276238203898 0 0)
(0.1161570264168365 0 0)
(0.1143830692750026 0 0)
(0.1153250752456562 0 0)
(0.1095396784246122 0 0)
(0.08600145085889753 0 0)
(0.04747402348961923 0 0)
(0.01927859935987084 0 0)
(0.01014005300274231 0 0)
(0.01147946975701745 0 0)
(0.01295267902245368 0 0)
(-0.001608490801163324 0 0)
(-0.04068546505775626 0 0)
(-0.08899135086897368 0 0)
(-0.1112668317487165 0 0)
(-0.1134714400463163 0 0)
(-0.1068438764469313 0 0)
(-0.1015582009345665 0 0)
(-0.1049356603527893 0 0)
(-0.1155473772432143 0 0)
(-0.1284743943997106 0 0)
(-0.1404542526782658 0 0)
(-0.1410527722003659 0 0)
(-0.1332439612424245 0 0)
(-0.1202093283237431 0 0)
(-0.1094175943205983 0 0)
(-0.1040624796086352 0 0)
(-0.1054390601684913 0 0)
(-0.1028390692994333 0 0)
(-0.0810375451537146 0 0)
(-0.03935860476667147 0 0)
(-0.003485086892022932 0 0)
(0.0117735281045756 0 0)
(0.02032034420426281 0 0)
(0.02094403437426738 0 0)
(0.03095089014551997 0 0)
(0.06055569437976907 0 0)
(0.09237153275598217 0 0)
(0.1024229630266007 0 0)
(0.1097712595839383 0 0)
(0.1111971241566393 0 0)
(0.1121885395791192 0 0)
(0.109221186609031 0 0)
(0.1135121699536694 0 0)
(0.127785464057399 0 0)
(0.1408546990222055 0 0)
(0.1462581794899367 0 0)
(0.1441646114296257 0 0)
(0.1332279307872712 0 0)
(0.1178537811617704 0 0)
(0.09088641635529261 0 0)
(0.06221422569218037 0 0)
(0.05139376356716943 0 0)
(0.04831891096511605 0 0)
(0.04185488121990789 0 0)
(0.03276355838704101 0 0)
(0.02375574700820433 0 0)
(0.004873815786973063 0 0)
(-0.041622682624729 0 0)
(-0.08693857479372231 0 0)
(-0.1021276820440639 0 0)
(-0.1073287731937377 0 0)
(-0.1149691631911555 0 0)
(-0.1202153811160753 0 0)
(-0.1222133334310647 0 0)
(-0.1253651246348306 0 0)
(-0.1296680126068974 0 0)
(-0.1346373659797728 0 0)
(-0.1367492491518963 0 0)
(-0.1419163440830473 0 0)
(-0.1440665349088445 0 0)
(-0.1392224508568728 0 0)
(-0.1293695584478877 0 0)
(-0.1151576210510712 0 0)
(-0.09948775379811865 0 0)
(-0.08493920620160286 0 0)
(-0.07362660803499864 0 0)
(-0.06504180792670447 0 0)
(-0.05449966717662194 0 0)
(-0.03454962456865229 0 0)
(0.003721283003449344 0 0)
(0.06798123378989929 0 0)
(0.1256366437651191 0 0)
(0.1400927640611241 0 0)
(0.1393806047578735 0 0)
(0.1350029716657378 0 0)
(0.1333559914672713 0 0)
(0.132715628101654 0 0)
(0.132169228507207 0 0)
(0.1299421171938646 0 0)
(0.1270340878511049 0 0)
(0.1232041492176573 0 0)
(0.1217343676943581 0 0)
(0.1225083895696222 0 0)
(0.1236521413694695 0 0)
(0.1232062320553324 0 0)
(0.1199827356588463 0 0)
(0.1152568323276453 0 0)
(0.1106990550994744 0 0)
(0.1071709407568375 0 0)
(0.10107721430691 0 0)
(0.08411359739699417 0 0)
(0.04102589790804167 0 0)
(-0.04266861259627952 0 0)
(-0.11841360454772 0 0)
(-0.1367950781603098 0 0)
(-0.1369126170694631 0 0)
(-0.1353806027819502 0 0)
(-0.1345087344918261 0 0)
(-0.131770732433279 0 0)
(-0.1264352310055864 0 0)
(-0.1205098031231517 0 0)
(-0.1184383307912708 0 0)
(-0.1183569284247511 0 0)
(-0.1195911230920084 0 0)
(-0.1205891302789861 0 0)
(-0.1215939636500083 0 0)
(-0.1221933720603632 0 0)
(-0.1222961294291001 0 0)
(-0.1222138768933629 0 0)
(-0.1206644789376164 0 0)
(-0.1179755268393691 0 0)
(-0.1121118907546555 0 0)
(-0.09316756118103932 0 0)
(-0.04603115763994518 0 0)
(0.03739018493941598 0 0)
(0.09131701210761969 0 0)
(0.09877476617433757 0 0)
(0.09915623296522172 0 0)
(0.09750935213420714 0 0)
(0.09601293293958824 0 0)
(0.09714881038731954 0 0)
(0.09911314361085166 0 0)
(0.09888849784413652 0 0)
(0.107782399288972 0 0)
(0.1247700724966691 0 0)
(0.1343158005871623 0 0)
(0.1345858341640053 0 0)
(0.1340112883547886 0 0)
(0.1348250120385681 0 0)
(0.1310140979604392 0 0)
(0.1190176417589676 0 0)
(0.1031854421407265 0 0)
(0.09262008771650011 0 0)
(0.08932727872371167 0 0)
(0.08668751214158583 0 0)
(0.08423980630981052 0 0)
(0.08482902218059629 0 0)
(0.07388819406798454 0 0)
(0.04097278905064178 0 0)
(-0.03906500020533676 0 0)
(-0.1206718875476279 0 0)
(-0.1402305889331917 0 0)
(-0.1411449339429469 0 0)
(-0.1413946198901129 0 0)
(-0.1405638815217697 0 0)
(-0.1396962789729661 0 0)
(-0.1386860719395778 0 0)
(-0.1357198224155991 0 0)
(-0.131165506648018 0 0)
(-0.1264536127425995 0 0)
(-0.1207395473370137 0 0)
(-0.1129839569652497 0 0)
(-0.1073741930811661 0 0)
(-0.1057515359920854 0 0)
(-0.1061189519300676 0 0)
(-0.1047403705225426 0 0)
(-0.09815500428278286 0 0)
(-0.08708869802051589 0 0)
(-0.04953971653541536 0 0)
(0.006537520118598787 0 0)
(0.03563677348088336 0 0)
(0.03947980654589155 0 0)
(0.040823018178423 0 0)
(0.04307159229794073 0 0)
(0.04457759065621745 0 0)
(0.05921269824464907 0 0)
(0.08989446729087536 0 0)
(0.1144339972869433 0 0)
(0.1186566725560036 0 0)
(0.1190429169236471 0 0)
(0.1194008185709813 0 0)
(0.1191291859866728 0 0)
(0.1184774886670822 0 0)
(0.1198342037645902 0 0)
(0.1225590637197615 0 0)
(0.1247876719788766 0 0)
(0.1278308683496594 0 0)
(0.1301473683262169 0 0)
(0.1317462022590417 0 0)
(0.1292089466602981 0 0)
(0.1249430355343849 0 0)
(0.1225109685506862 0 0)
(0.1036526284166949 0 0)
(0.050603431386326 0 0)
(-0.05021194123421508 0 0)
(-0.1171997578942523 0 0)
(-0.1260294698852949 0 0)
(-0.1263729060205011 0 0)
(-0.1260458303033282 0 0)
(-0.1254187942601943 0 0)
(-0.1249984509506596 0 0)
(-0.1227156972041352 0 0)
(-0.1194598646647935 0 0)
(-0.1182110114277308 0 0)
(-0.1181212051260793 0 0)
(-0.1182788117558669 0 0)
(-0.1183676336435034 0 0)
(-0.1182389199711233 0 0)
(-0.1183631299075008 0 0)
(-0.1186910077333863 0 0)
(-0.1185346188829915 0 0)
(-0.117801848463741 0 0)
(-0.1171557926952598 0 0)
(-0.11696564910802 0 0)
(-0.1117711416823457 0 0)
(-0.09908783895461847 0 0)
(-0.0574637517498511 0 0)
(0.02850816812822763 0 0)
(0.1004296476474117 0 0)
(0.1137949136233709 0 0)
(0.1141736904030458 0 0)
(0.1142855714385047 0 0)
(0.1140308551487611 0 0)
(0.1137838832565705 0 0)
(0.1138777181062646 0 0)
(0.1142089861951473 0 0)
(0.1141854400401685 0 0)
(0.1150986090303604 0 0)
(0.1189984631131584 0 0)
(0.1248521268262638 0 0)
(0.130593785954213 0 0)
(0.13264327215354 0 0)
(0.1335054921089139 0 0)
(0.1330361095936932 0 0)
(0.1313732540959142 0 0)
(0.1301883777987536 0 0)
(0.130408192853636 0 0)
(0.1246903997126177 0 0)
(0.107648373299117 0 0)
(0.05507686225526977 0 0)
(-0.04448690780181566 0 0)
(-0.1116738028902514 0 0)
(-0.1208729445038036 0 0)
(-0.121104358216915 0 0)
(-0.1207438146763335 0 0)
(-0.1203985102023549 0 0)
(-0.1203430675938896 0 0)
(-0.1201440630570249 0 0)
(-0.119751899583799 0 0)
(-0.119445653833524 0 0)
(-0.1198322563170013 0 0)
(-0.1203298555386232 0 0)
(-0.1202905559849708 0 0)
(-0.1211190565839323 0 0)
(-0.1232071894705754 0 0)
(-0.1246621682004751 0 0)
(-0.1248889128634986 0 0)
(-0.1245868040742556 0 0)
(-0.1245715464959742 0 0)
(-0.1236979196211072 0 0)
(-0.1197205986860462 0 0)
(-0.1118006813152698 0 0)
(-0.08383086233223269 0 0)
(-0.01234962986812946 0 0)
(0.08462718166221388 0 0)
(0.1219314521513046 0 0)
(0.1242990025798687 0 0)
(0.1243901949232254 0 0)
(0.1243164781909771 0 0)
(0.1240405673469904 0 0)
(0.1236254105591766 0 0)
(0.1226314611631096 0 0)
(0.1216166592649066 0 0)
(0.1213871150325718 0 0)
(0.1213769045973009 0 0)
(0.1215146614379946 0 0)
(0.1216303656607239 0 0)
(0.1216184552754464 0 0)
(0.1215453065130549 0 0)
(0.1215581757149915 0 0)
(0.1213581298343598 0 0)
(0.1208361121437758 0 0)
(0.120096577234125 0 0)
(0.1185005840971772 0 0)
(0.1137869686123572 0 0)
(0.1002972558193543 0 0)
(0.05848262952732505 0 0)
(-0.03231506094983202 0 0)
(-0.1155231754575682 0 0)
(-0.1331251466838415 0 0)
(-0.1336938433578538 0 0)
(-0.1338298520166046 0 0)
(-0.1335673194301455 0 0)
(-0.1332098434486776 0 0)
(-0.1330953168314588 0 0)
(-0.1325749165507395 0 0)
(-0.1313505517081397 0 0)
(-0.1303827786461956 0 0)
(-0.13018526611091 0 0)
(-0.1303768931004807 0 0)
(-0.1301828584374289 0 0)
(-0.129499886611991 0 0)
(-0.1294764913558226 0 0)
(-0.130352585502168 0 0)
(-0.1286934589863728 0 0)
(-0.1259203384684845 0 0)
(-0.1246494262966577 0 0)
(-0.1120429082085993 0 0)
(-0.0725521544993154 0 0)
(0.01462269697217853 0 0)
(0.09682433017375741 0 0)
(0.1152679031425695 0 0)
(0.1160745423547193 0 0)
(0.1163374808328955 0 0)
(0.1158400030866489 0 0)
(0.1153134081374972 0 0)
(0.1156296212885637 0 0)
(0.1162965471389094 0 0)
(0.1163560066471066 0 0)
(0.1167263792049631 0 0)
(0.1193578730630686 0 0)
(0.1239797991165391 0 0)
(0.1296208527729602 0 0)
(0.1316159854628949 0 0)
(0.1319912957576635 0 0)
(0.1326781838874515 0 0)
(0.1313560573110805 0 0)
(0.1297313393014407 0 0)
(0.1293418338881606 0 0)
(0.1279465980515817 0 0)
(0.1207942361771372 0 0)
(0.1055293673321539 0 0)
(0.0564972168229655 0 0)
(-0.04170766413460199 0 0)
(-0.11847435167138 0 0)
(-0.1312900164026026 0 0)
(-0.1315770651275125 0 0)
(-0.1316642071893677 0 0)
(-0.1314559115283187 0 0)
(-0.1308701600901561 0 0)
(-0.1302953097308577 0 0)
(-0.1299576342945686 0 0)
(-0.1297860770130859 0 0)
(-0.1296002515762902 0 0)
(-0.1294555360264109 0 0)
(-0.129687741423195 0 0)
(-0.1299006862775072 0 0)
(-0.1292127379107178 0 0)
(-0.1283000615733003 0 0)
(-0.1285267830312931 0 0)
(-0.1287292908865633 0 0)
(-0.1270016847394518 0 0)
(-0.1238424130736957 0 0)
(-0.1216929291496427 0 0)
(-0.1061281749826218 0 0)
(-0.06320382152198611 0 0)
(0.03059668368477007 0 0)
(0.1131316871230987 0 0)
(0.129550615125826 0 0)
(0.1299581256702862 0 0)
(0.1297992451949889 0 0)
(0.1297070067111734 0 0)
(0.1295044352706566 0 0)
(0.1289255393479354 0 0)
(0.1284297324570498 0 0)
(0.1282606676997125 0 0)
(0.1284678299697273 0 0)
(0.1284107608902081 0 0)
(0.1278943583017201 0 0)
(0.1275963445213974 0 0)
(0.1281697771419649 0 0)
(0.1277720997613792 0 0)
(0.1264682293289197 0 0)
(0.125494157898061 0 0)
(0.1262251216641342 0 0)
(0.1245900497382442 0 0)
(0.1190611832122869 0 0)
(0.1118376417199782 0 0)
(0.08047670630532937 0 0)
(0.002758454401231698 0 0)
(-0.09629671111758013 0 0)
(-0.1309523962491461 0 0)
(-0.1329808022851682 0 0)
(-0.1331897254955104 0 0)
(-0.1328296627300553 0 0)
(-0.132204738872141 0 0)
(-0.1318226834240699 0 0)
(-0.1312277992392178 0 0)
(-0.1305354419907525 0 0)
(-0.1300872047622579 0 0)
(-0.130112511798752 0 0)
(-0.1306295219210762 0 0)
(-0.130312394641036 0 0)
(-0.1293551239780023 0 0)
(-0.128897401947536 0 0)
(-0.1297492772380146 0 0)
(-0.1288651310139147 0 0)
(-0.1266703488964496 0 0)
(-0.1249685813475207 0 0)
(-0.1239061539087249 0 0)
(-0.1128048461148044 0 0)
(-0.08489285567226806 0 0)
(-0.008550296718582326 0 0)
(0.09303808824518493 0 0)
(0.1308273919326281 0 0)
(0.1329682829070949 0 0)
(0.1329394178252997 0 0)
(0.1329169396600625 0 0)
(0.1327160331589322 0 0)
(0.1320886703928756 0 0)
(0.1312794089243219 0 0)
(0.1305438705808195 0 0)
(0.1299272347671793 0 0)
(0.1293337695170886 0 0)
(0.128810771340954 0 0)
(0.1284697142076735 0 0)
(0.1278626364755106 0 0)
(0.1266473153112779 0 0)
(0.1252505334729044 0 0)
(0.1241429713703737 0 0)
(0.1230896381349229 0 0)
(0.1214252211325316 0 0)
(0.1185924931041184 0 0)
(0.1122657807443771 0 0)
(0.08969516759325055 0 0)
(0.03028485608342486 0 0)
(-0.07023943091726635 0 0)
(-0.1266023403510081 0 0)
(-0.132657965053921 0 0)
(-0.132723013757725 0 0)
(-0.1319741532330445 0 0)
(-0.1317324216702382 0 0)
(-0.1317486543814458 0 0)
(-0.1306828564702571 0 0)
(-0.1292649226467598 0 0)
(-0.1287412214155835 0 0)
(-0.1292614320906955 0 0)
(-0.1281592087144491 0 0)
(-0.1259551747021514 0 0)
(-0.1246851947694865 0 0)
(-0.1247677644875925 0 0)
(-0.1218336910473905 0 0)
(-0.1172239821039206 0 0)
(-0.1149276262103155 0 0)
(-0.1159177888409927 0 0)
(-0.1137108546055452 0 0)
(-0.1061601198620152 0 0)
(-0.09679220283063678 0 0)
(-0.05498332876280233 0 0)
(0.03530366715456356 0 0)
(0.1160789980836452 0 0)
(0.1324631022513893 0 0)
(0.1330435442009376 0 0)
(0.1333219161508523 0 0)
(0.1328252106264784 0 0)
(0.131865452728773 0 0)
(0.1311892831069718 0 0)
(0.1308435723462486 0 0)
(0.1295867106616733 0 0)
(0.1269217603710108 0 0)
(0.1238319194346387 0 0)
(0.1208481374509825 0 0)
(0.1194140107537967 0 0)
(0.118665773076904 0 0)
(0.1188558117563116 0 0)
(0.1198373045851732 0 0)
(0.119577524234974 0 0)
(0.1173888005569896 0 0)
(0.1150052112462371 0 0)
(0.1137726107816789 0 0)
(0.1000734853443995 0 0)
(0.06501607698441109 0 0)
(-0.02023148803245631 0 0)
(-0.1098355647670987 0 0)
(-0.1331028846854141 0 0)
(-0.1339750861272162 0 0)
(-0.1336371588541806 0 0)
(-0.1333722861840041 0 0)
(-0.1332808754649327 0 0)
(-0.1323151719132755 0 0)
(-0.1299005119911455 0 0)
(-0.1259098015296884 0 0)
(-0.1202047385394451 0 0)
(-0.1173531569844637 0 0)
(-0.1166908026397163 0 0)
(-0.1172041048131184 0 0)
(-0.1180116441026467 0 0)
(-0.1180040984030211 0 0)
(-0.1168828191320069 0 0)
(-0.1164693793990883 0 0)
(-0.1173911593468936 0 0)
(-0.1151675848661299 0 0)
(-0.1097873837203345 0 0)
(-0.1048912258463118 0 0)
(-0.07838342340149748 0 0)
(-0.01039035516539786 0 0)
(0.08820522212658634 0 0)
(0.1310299995221424 0 0)
(0.1344128104809645 0 0)
(0.1347774670030115 0 0)
(0.1342286487520268 0 0)
(0.1334219275105547 0 0)
(0.1329626910783575 0 0)
(0.1317765398483143 0 0)
(0.1273234772990819 0 0)
(0.1211900139112197 0 0)
(0.1180889856077491 0 0)
(0.1178277454051223 0 0)
(0.1177811311043684 0 0)
(0.1175003718830209 0 0)
(0.1181583746532696 0 0)
(0.1193356619967149 0 0)
(0.118134964763755 0 0)
(0.1160395724213561 0 0)
(0.1154266519637943 0 0)
(0.1142859686325732 0 0)
(0.104230797668535 0 0)
(0.08267230652048681 0 0)
(0.01772539280396477 0 0)
(-0.08252009073441653 0 0)
(-0.1302793167884171 0 0)
(-0.1341735401740949 0 0)
(-0.133997450156048 0 0)
(-0.1338686663946353 0 0)
(-0.1336850390399466 0 0)
(-0.1325657576991551 0 0)
(-0.1302789786142481 0 0)
(-0.126502915488805 0 0)
(-0.1208984546748941 0 0)
(-0.1179173739955022 0 0)
(-0.1172070393766085 0 0)
(-0.1179611162848255 0 0)
(-0.1189203559657701 0 0)
(-0.1188733650909633 0 0)
(-0.1183092702049793 0 0)
(-0.1182960075120887 0 0)
(-0.1190257618884688 0 0)
(-0.1167934504240222 0 0)
(-0.1121192332459051 0 0)
(-0.108569198533761 0 0)
(-0.08611965267954008 0 0)
(-0.02698424729162945 0 0)
(0.07214298567762401 0 0)
(0.126928205402888 0 0)
(0.1328223214028652 0 0)
(0.1332001661345893 0 0)
(0.1326368702184074 0 0)
(0.131882383394993 0 0)
(0.1316462005654992 0 0)
(0.1305444693351687 0 0)
(0.1267085269553967 0 0)
(0.1214630429677692 0 0)
(0.1184226865444124 0 0)
(0.1179329929166219 0 0)
(0.1176787876420247 0 0)
(0.1177127212126677 0 0)
(0.1185164123172538 0 0)
(0.1195784272972169 0 0)
(0.1182835499907141 0 0)
(0.1164606120968365 0 0)
(0.1165553306078731 0 0)
(0.1152493968522019 0 0)
(0.1067316310588419 0 0)
(0.09067357211122158 0 0)
(0.03668220622347126 0 0)
(-0.06148979954586334 0 0)
(-0.1240800170507241 0 0)
(-0.1318138552704163 0 0)
(-0.1318951968410881 0 0)
(-0.1319637821254671 0 0)
(-0.131622438917032 0 0)
(-0.1303687569606113 0 0)
(-0.1284553185362807 0 0)
(-0.1248648216592127 0 0)
(-0.1200839369907132 0 0)
(-0.1178146318966935 0 0)
(-0.1173183668973977 0 0)
(-0.1180301904770919 0 0)
(-0.1187727902655728 0 0)
(-0.1184299807494195 0 0)
(-0.1180806392683361 0 0)
(-0.118511585950497 0 0)
(-0.118675917303253 0 0)
(-0.1165277144396313 0 0)
(-0.1129407021831142 0 0)
(-0.1107315066167917 0 0)
(-0.09346450035268931 0 0)
(-0.04717761134722863 0 0)
(0.0465699366381108 0 0)
(0.1187368349875109 0 0)
(0.1308117601085536 0 0)
(0.1312378226722339 0 0)
(0.1307911393717932 0 0)
(0.1301082238830287 0 0)
(0.1296459769637704 0 0)
(0.1273002946705194 0 0)
(0.1228729128283369 0 0)
(0.1194523363974655 0 0)
(0.1187737939484258 0 0)
(0.1187372669728419 0 0)
(0.1184151650270888 0 0)
(0.1186016182944217 0 0)
(0.1191809357555182 0 0)
(0.1193622641526971 0 0)
(0.1179551277010489 0 0)
(0.1164612118508399 0 0)
(0.1170304323635309 0 0)
(0.1156089281611146 0 0)
(0.1087531726709835 0 0)
(0.09766940208528518 0 0)
(0.05586405066934491 0 0)
(-0.03401409427368109 0 0)
(-0.1134014576468355 0 0)
(-0.1291607711346431 0 0)
(-0.1295801842483819 0 0)
(-0.1296844332780968 0 0)
(-0.129291632707136 0 0)
(-0.1276616868471876 0 0)
(-0.12515406508081 0 0)
(-0.1215418087220715 0 0)
(-0.11971254157607 0 0)
(-0.1192736896568792 0 0)
(-0.1193219835217002 0 0)
(-0.119831528612025 0 0)
(-0.1197987734164331 0 0)
(-0.1188603204814481 0 0)
(-0.1181282653101775 0 0)
(-0.1188905292378623 0 0)
(-0.1182887958008934 0 0)
(-0.116117205953055 0 0)
(-0.1138214970300386 0 0)
(-0.1125695173995799 0 0)
(-0.09965098347106062 0 0)
(-0.06633233793598535 0 0)
(0.01530123801773089 0 0)
(0.1046376949626801 0 0)
(0.1294387704722645 0 0)
(0.1304905847739267 0 0)
(0.1301474599732315 0 0)
(0.1297125441875083 0 0)
(0.129307827861134 0 0)
(0.1270962371413804 0 0)
(0.1231110862897735 0 0)
(0.1196584694850596 0 0)
(0.1187367472130235 0 0)
(0.118505197790069 0 0)
(0.1180673680551252 0 0)
(0.1184896775411279 0 0)
(0.1192279178933323 0 0)
(0.1189643185900006 0 0)
(0.1176713491116113 0 0)
(0.1167083792862834 0 0)
(0.1176045751179115 0 0)
(0.1158294629125648 0 0)
(0.1102425525218693 0 0)
(0.1035040425487985 0 0)
(0.07309164313769667 0 0)
(-0.002375615546728536 0 0)
(-0.09626235622511256 0 0)
(-0.1277349638977053 0 0)
(-0.129415531329121 0 0)
(-0.1295959836287031 0 0)
(-0.1292506264932754 0 0)
(-0.1280054987178951 0 0)
(-0.1262030573079399 0 0)
(-0.1223780019847862 0 0)
(-0.1194219575668919 0 0)
(-0.118807808134134 0 0)
(-0.118902085192846 0 0)
(-0.1193287756932809 0 0)
(-0.1191238481098906 0 0)
(-0.1183546123395727 0 0)
(-0.1181608958198149 0 0)
(-0.1188253732465522 0 0)
(-0.1177648085201112 0 0)
(-0.1157655615154839 0 0)
(-0.1147965341592204 0 0)
(-0.1137492349763771 0 0)
(-0.1038691299796188 0 0)
(-0.08133740296779504 0 0)
(-0.01588917997537726 0 0)
(0.08212383439205151 0 0)
(0.1267849594207753 0 0)
(0.1302234279362974 0 0)
(0.130072186854819 0 0)
(0.1299078497998566 0 0)
(0.1295326338445926 0 0)
(0.1275609871285902 0 0)
(0.1241964579535198 0 0)
(0.1203795345866853 0 0)
(0.1187014717093162 0 0)
(0.1181983220046838 0 0)
(0.1177428748251385 0 0)
(0.1183512909784783 0 0)
(0.1191709594139608 0 0)
(0.1184687091923745 0 0)
(0.1172010710478763 0 0)
(0.11702644680724 0 0)
(0.1176558205715964 0 0)
(0.1155906899037155 0 0)
(0.1111238150854261 0 0)
(0.1075815009873646 0 0)
(0.08616199846009741 0 0)
(0.02827580853363668 0 0)
(-0.06977689561928092 0 0)
(-0.1243558960577511 0 0)
(-0.1300901382015501 0 0)
(-0.1303485168595232 0 0)
(-0.1299807818078109 0 0)
(-0.1289970614668894 0 0)
(-0.1276131337754052 0 0)
(-0.1236110690630706 0 0)
(-0.119503285667157 0 0)
(-0.1184197904104552 0 0)
(-0.118611044455263 0 0)
(-0.1189037721271789 0 0)
(-0.118474729648428 0 0)
(-0.1179367474854408 0 0)
(-0.1183128994930709 0 0)
(-0.1184511868555049 0 0)
(-0.1171019946923676 0 0)
(-0.1154024993363976 0 0)
(-0.1156535765834361 0 0)
(-0.1142932622340524 0 0)
(-0.1065468615399014 0 0)
(-0.09265480329130127 0 0)
(-0.044380754032649 0 0)
(0.0502754470876371 0 0)
(0.1204386444131041 0 0)
(0.1312677555317188 0 0)
(0.1314591536776096 0 0)
(0.1315341308666261 0 0)
(0.1311478119163846 0 0)
(0.1295655611516043 0 0)
(0.127123334943801 0 0)
(0.12257797953659 0 0)
(0.1183391450963039 0 0)
(0.1169796002711932 0 0)
(0.1166437285853378 0 0)
(0.1173327787555229 0 0)
(0.1180001122509044 0 0)
(0.1174150605519928 0 0)
(0.1166911715809247 0 0)
(0.1172431426836312 0 0)
(0.1172081873450619 0 0)
(0.1150543595668383 0 0)
(0.1118370769819435 0 0)
(0.1101559919588777 0 0)
(0.09492027456676613 0 0)
(0.05330881599039709 0 0)
(-0.03701884242004482 0 0)
(-0.1151622977669134 0 0)
(-0.1303778141866672 0 0)
(-0.1308636798458443 0 0)
(-0.1305400955035751 0 0)
(-0.1298779151937398 0 0)
(-0.1289154652306804 0 0)
(-0.1252288767003147 0 0)
(-0.1203084991485386 0 0)
(-0.1183220965272007 0 0)
(-0.1183338761550662 0 0)
(-0.118480734877344 0 0)
(-0.1179970969312406 0 0)
(-0.1178217330661102 0 0)
(-0.1184925788824958 0 0)
(-0.1180571587698387 0 0)
(-0.1165982339575187 0 0)
(-0.1155262980428272 0 0)
(-0.1164623118200761 0 0)
(-0.1145664517610651 0 0)
(-0.1082658257877982 0 0)
(-0.1003226712306035 0 0)
(-0.06589415683757477 0 0)
(0.01507362858149795 0 0)
(0.1056636794905247 0 0)
(0.1317693169033455 0 0)
(0.1330554722295161 0 0)
(0.1333577021408519 0 0)
(0.1328224304238161 0 0)
(0.1313964033278405 0 0)
(0.1297959590009917 0 0)
(0.1254345941609122 0 0)
(0.1191720824729993 0 0)
(0.1162537092975183 0 0)
(0.115936523716288 0 0)
(0.1164721727170127 0 0)
(0.116760104749976 0 0)
(0.1163532697267878 0 0)
(0.1163441791766368 0 0)
(0.1174050794242586 0 0)
(0.1164261602299178 0 0)
(0.1141259116398232 0 0)
(0.112526269654718 0 0)
(0.111588994658607 0 0)
(0.1004496987076605 0 0)
(0.07305930107602682 0 0)
(-0.0004552105477360851 0 0)
(-0.09600398985404782 0 0)
(-0.130314768979592 0 0)
(-0.1322860164669605 0 0)
(-0.1318955112217859 0 0)
(-0.1314196455738208 0 0)
(-0.1313727149404582 0 0)
(-0.1302165742237199 0 0)
(-0.126729429787412 0 0)
(-0.1212262489899004 0 0)
(-0.1166902687758179 0 0)
(-0.115474873734935 0 0)
(-0.1150160614039296 0 0)
(-0.115490895446845 0 0)
(-0.1163447525617886 0 0)
(-0.1168560609882452 0 0)
(-0.1160217163568082 0 0)
(-0.1152284669215778 0 0)
(-0.1160002843131486 0 0)
(-0.1146735221640177 0 0)
(-0.1101928074657822 0 0)
(-0.1044793414174915 0 0)
(-0.07893228049953573 0 0)
(-0.01154541087078354 0 0)
(0.08523415374567422 0 0)
(0.1258356257636354 0 0)
(0.1285632427284594 0 0)
(0.1285768730338359 0 0)
(0.128576792115265 0 0)
(0.1285769653119118 0 0)
(0.1285769732791547 0 0)
(0.128575923097704 0 0)
(0.1285740464690292 0 0)
(0.1285735163741595 0 0)
(0.1285643757748752 0 0)
(0.1285373743409027 0 0)
(0.1284554519727542 0 0)
(0.128164714824353 0 0)
(0.1271616866510171 0 0)
(0.1236326916508049 0 0)
(0.1117521554324836 0 0)
(0.0786510516402729 0 0)
(0.02702075208466899 0 0)
(0.002065293867147926 0 0)
(1.366897164777623e-05 0 0)
(2.832755131065556e-09 0 0)
(-8.056117507170973e-12 0 0)
(-8.064808033068766e-12 0 0)
(-7.882306989217428e-12 0 0)
(-7.70849647126333e-12 0 0)
(-6.822062829697479e-12 0 0)
(-4.466930311419259e-12 0 0)
(-2.172631474426075e-12 0 0)
(-1.251435729269591e-12 0 0)
(-1.251435729269374e-12 0 0)
(-1.025482055929047e-12 0 0)
(-1.207983099781014e-12 0 0)
(-1.520842032098328e-12 0 0)
(-1.851082016210756e-12 0 0)
(-2.05096411185779e-12 0 0)
(-2.094416741346638e-12 0 0)
(-2.068345163653583e-12 0 0)
(-2.094416741346623e-12 0 0)
(-2.059654637755656e-12 0 0)
(-1.964058852880874e-12 0 0)
(-2.085726215448991e-12 0 0)
(-2.024892534165071e-12 0 0)
(-1.920606223392358e-12 0 0)
(-1.833700964415344e-12 0 0)
(-1.929296749290386e-12 0 0)
(-2.190012526221191e-12 0 0)
(-2.137869370834941e-12 0 0)
(-2.250846207505359e-12 0 0)
(-2.389894621868287e-12 0 0)
)
;

boundaryField
{
    inlet
    {
        type            zeroGradient;
    }
    outlet
    {
        type            pressureInletOutletVelocity;
        value           uniform (-2.389894621868287e-12 0 0);
    }
    frontAndBack
    {
        type            empty;
    }
}


// ************************************************************************* //
