/*--------------------------------*- C++ -*----------------------------------*\
| =========                 |                                                 |
| \\      /  F ield         | OpenFOAM: The Open Source CFD Toolbox           |
|  \\    /   O peration     | Version:  v2012                                 |
|   \\  /    A nd           | Website:  www.openfoam.com                      |
|    \\/     M anipulation  |                                                 |
\*---------------------------------------------------------------------------*/
FoamFile
{
    version     2.0;
    format      ascii;
    class       volScalarField;
    location    "0.005";
    object      p;
}
// * * * * * * * * * * * * * * * * * * * * * * * * * * * * * * * * * * * * * //

dimensions      [1 -1 -2 0 0 0 0];


internalField   nonuniform List<scalar> 
1000
(
101310.9384100881
101313.5736339312
101306.8350426241
101301.5406765198
101295.7075596293
101290.4664701989
101285.9464054903
101282.0762767144
101278.7566077565
101276.5352718176
101275.951177216
101275.9677254532
101276.3346348988
101277.3494578012
101279.3279032042
101282.332610304
101286.2499311509
101290.9030087862
101296.1456712011
101301.8764588016
101308.0114204147
101314.4597015347
101321.1149927843
101327.8552643075
101334.5460055108
101341.0510903664
101347.2540883241
101353.0848980948
101358.5355021567
101363.6191299906
101368.1802316074
101371.5672998819
101373.0167631073
101373.1832892522
101373.1127459462
101372.8489445387
101372.1079225283
101370.654778465
101368.2809560091
101364.8913950446
101360.5261411829
101355.3385768027
101349.5327303589
101343.2997797838
101336.7883463545
101330.111872153
101323.3707276097
101316.6674852864
101310.1069311284
101303.7782838559
101297.7262344768
101291.9486159521
101286.4967697818
101281.7445651658
101278.5844747529
101277.5086859848
101277.4355529307
101277.4765699385
101277.7373644916
101278.3797971839
101279.6293570805
101281.6774294046
101284.6603768294
101288.6217055505
101293.4999793605
101299.1430483916
101305.3464903806
101311.9010128122
101318.6277304418
101325.3889422089
101332.0818492576
101338.6343399303
101345.0103760973
101351.2085034996
101357.2227800565
101362.9250004639
101367.8267111767
101370.9819883565
101372.0190091895
101372.0946467184
101372.0381545156
101371.8328247816
101371.2862098202
101370.2238542696
101368.4604668943
101365.8450833791
101362.2873276998
101357.7812295355
101352.4113294614
101346.3383922261
101339.7697491862
101332.9227533401
101325.9894887457
101319.1112584498
101312.3695789738
101305.7929221277
101299.3760536375
101293.1306407061
101287.2282594004
101282.2693254625
101279.2679349178
101278.3938731889
101278.3495694853
101278.3858695526
101278.5939979327
101279.0993493625
101280.0782159334
101281.6960726301
101284.0983220993
101287.3845211058
101291.5888592428
101296.6671771674
101302.4977545984
101308.899627587
101315.6640252736
101322.5888002898
101329.5084173322
101336.3162713326
101342.9727052955
101349.4848311651
101355.839954315
101361.8624701963
101366.9735010929
101370.1776673828
101371.2030192431
101371.2813240015
101371.2387828004
101371.0807763642
101370.6537507788
101369.8140180633
101368.401602685
101366.2700110637
101363.3033382819
101359.4370242258
101354.6729807607
101349.0858523735
101342.818128218
101336.0616717461
101329.0255190623
101321.8976754116
101314.8149341028
101307.8519844915
101301.0371298735
101294.4147729952
101288.2045301848
101283.0646082524
101280.0141370299
101279.1358619912
101279.0861991963
101279.1135351884
101279.2775427601
101279.6849769085
101280.4834912738
101281.8174292211
101283.8235544729
101286.6131295789
101290.2560012286
101294.7653714157
101300.0889603037
101306.1114944406
101312.6690630492
101319.57244817
101326.6369238968
101333.7141362567
101340.7134583581
101347.5931460247
101354.3003423895
101360.6297781907
101365.9855110363
101369.3695297433
101370.495134568
101370.5953365043
101370.5645098874
101370.446177985
101370.1094065315
101369.4314193592
101368.2705966515
101366.490764897
101363.9724300052
101360.6286489195
101356.4188089066
101351.3590907015
101345.5274086244
101339.0585707045
101332.1259226357
101324.9122671131
101317.5797892442
101310.2501511267
101303.0078567343
101295.9547016971
101289.3664324343
101283.9481425725
101280.732016584
101279.7791992492
101279.713929794
101279.7344892801
101279.8653130171
101280.197538568
101280.8593132753
101281.9789320519
101283.6835299302
101286.0852116376
101289.2685449418
101293.277178353
101298.1036189309
101303.6858359935
101309.9117384922
101316.6313422562
101323.6776242358
101330.8943371268
101338.1596190429
101345.3857736612
101352.4718446559
101359.1744691556
101364.8771624264
101368.5603648143
101369.8630314982
101370.0017629739
101369.9801379412
101369.8907136784
101369.6218612117
101369.0669425213
101368.099863811
101366.5950013821
101364.4349602969
101361.5232025523
101357.7956897687
101353.2314450322
101347.8605634613
101341.7657751505
101335.0735781277
101327.9358673344
101320.5078620354
101312.9295669331
101305.3235273681
101297.8405894779
101290.8088665648
101284.9850688458
101281.4610752699
101280.3606226901
101280.269309278
101280.2825943945
101280.3850230582
101280.6557025622
101281.209007847
101282.1597417418
101283.6249501487
101285.7130122246
101288.5141107236
101292.0890336798
101296.4594601117
101301.6023723177
101307.4493987185
101313.8918378308
101320.7937640069
101328.0129585057
101335.4208134036
101342.9046457801
101350.3302173328
101357.4268386927
101363.5640800854
101367.6801995111
101369.2630447437
101369.468358782
101369.4546765516
101369.3900815161
101369.1767973212
101368.7211569772
101367.9091940582
101366.6255580079
101364.7580809591
101362.2075790669
101358.8972328754
101354.7821694637
101349.8580794128
101344.1656676433
101337.7877027247
101330.8388073871
101323.4510891068
101315.7601365158
101307.9029542164
101300.0588080718
101292.5873542919
101286.2738346563
101282.2844515151
101280.9160335012
101280.7715755219
101280.7796405438
101280.8585709324
101281.0783403192
101281.5414501075
101282.35222277
101283.6192061739
101285.446270469
101287.9248870037
101291.1249523005
101295.0865431779
101299.8141180559
101305.2734132503
101311.3921693574
101318.0676451344
101325.1811682875
101332.6127052914
101340.242678963
101347.9221921858
101355.3736834008
101361.9783574619
101366.6461264216
101368.6478977118
101368.9744695524
101368.9693032101
101368.9261817802
101368.7594539878
101368.3872544025
101367.7048075869
101366.6054690879
101364.9828320621
101362.7384183242
101359.7890569061
101356.0750449454
101351.5681595542
101346.2770612797
101340.2477656996
101333.5591412754
101326.3148727516
101318.6344095321
101310.6525227558
101302.5551434602
101294.7025834561
101287.8666408084
101283.2718070328
101281.4877580675
101281.2431915697
101281.2447573837
101281.3024725795
101281.4771281524
101281.8620434722
101282.5532164226
101283.651815494
101285.2567757342
101287.4586287699
101290.3320157006
101293.9288386156
101298.2727521082
101303.3549864571
101309.1328463756
101315.5336672631
101322.4642556393
101329.820370755
101337.4873365866
101345.3169134345
101353.0444742431
101360.0936690562
101365.3888782637
101367.963917325
101368.5003768043
101368.5133665445
101368.4866932164
101368.3596835376
101368.0589209944
101367.487515915
101366.5460096705
101365.1332840945
101363.1528254373
101360.5186251531
101357.161998944
101353.0384028167
101348.132802762
101342.462247896
101336.0751397265
101329.0473342658
101321.4769349056
101313.4860045591
101305.2515222674
101297.10997417
101289.7781307471
101284.4882191136
101282.1247928639
101281.6996612895
101281.6929639827
101281.7295570707
101281.8639723816
101282.1786554538
101282.7638088373
101283.7148405434
101285.1262601927
101287.0866604354
101289.672723585
101292.9436897456
101296.9363832321
101301.6607057349
101307.0970926905
101313.1982280922
101319.8946082148
101327.0999517079
101334.7109239181
101342.589871477
101350.4982672735
101357.9251220228
101363.8606852511
101367.1457223063
101368.0224750042
101368.0771543063
101368.0619858809
101367.9686581762
101367.730258416
101367.2559631304
101366.452580065
101365.2235352498
101363.4747315463
101361.1191690735
101358.0826194572
101354.3095244962
101349.7679681724
101344.4529588935
101338.3878844574
101331.6238328009
101324.2374468657
101316.3335516723
101308.0706338383
101299.7466334661
101291.9949033847
101285.988816895
101282.8870143057
101282.1555107275
101282.1207337092
101282.1440496257
101282.2432682606
101282.4965921099
101282.9878539339
101283.807826081
101285.0472749409
101286.7928322083
101289.1222366419
101292.099544815
101295.770460922
101300.1582821635
101305.2613914693
101311.0531488794
101317.4841050142
101324.4851456395
101331.9678064556
101339.8111243292
101347.8080445954
101355.5216345691
101362.0490197441
101366.1294887042
101367.5030474913
101367.6469786408
101367.6386813668
101367.5761815685
101367.3933662422
101367.0068760533
101366.3275791191
101365.2628810102
101363.7209553985
101361.614721
101358.8667444578
101355.4143715234
101351.2138758273
101346.2437090885
101340.5075081658
101334.0357956387
101326.8854382426
101319.1421366519
101310.9415033024
101302.5381183484
101294.4702462374
101287.7959249466
101283.8438300904
101282.6410155068
101282.5362420877
101282.5520184472
101282.6203471855
101282.81985877
101283.2270083917
101283.9291917436
101285.0139669403
101286.5662099423
101288.6637454726
101291.3736686006
101294.7482856635
101298.8208852638
101303.6029577898
101309.0838611519
101315.2316104611
101321.9932130964
101329.2938913869
101337.0288554315
101345.024146007
101352.9202928642
101359.9479722376
101364.8541154989
101366.9039406292
101367.2313349251
101367.2362785616
101367.1933222057
101367.0571304046
101366.7450569904
101366.1741030272
101365.254749974
101363.8975341559
101362.0160207603
101359.5309997379
101356.374630807
101352.4943048901
101347.8563032432
101342.449136321
101336.2857109778
101329.4044330175
101321.8730874279
101313.8054568347
101305.4130711746
101297.138346705
101289.8935948716
101285.0549759164
101283.2063093764
101282.9560361651
101282.9603829813
101283.005256211
101283.1560780309
101283.4867060305
101284.0809426992
101285.0237325896
101286.3984760903
101288.2832172031
101290.7471968023
101293.847152399
101297.6237261615
101302.098868285
101307.2745158259
101313.1320093522
101319.6319692107
101326.7138751027
101334.2896168539
101342.2139050876
101350.1957383303
101357.6050422278
101363.287608048
101366.1565846685
101366.8056962888
101366.8332312862
101366.8097913842
101366.7122897954
101366.4662548705
101365.9922489895
101365.2039017969
101364.013951331
101362.3370298519
101360.0930342794
101357.2106554991
101353.6310405643
101349.3113825719
101344.2281587696
101338.3798006194
101331.7891418583
101324.5076773386
101316.6280975462
101308.3227312887
101299.9480054204
101292.2608714308
101286.5680086211
101283.9014668801
101283.3741993798
101283.3596689952
101283.3866307099
101283.4968718789
101283.7609239061
101284.2584545143
101285.0724739981
101286.2851628236
101287.9745986949
101290.2115539279
101293.0560938333
101296.5543853417
101300.7363029242
101305.6137851577
101311.1795277401
101317.4062146098
101324.2460241565
101331.6259322208
101339.4258816971
101347.4122493724
101355.0799292626
101361.4260757595
101365.186042998
101366.3306051806
101366.429967058
101366.4164851957
101366.3510404857
101366.1623968577
101365.7757451463
101365.1075691004
101364.072468964
101362.5856588641
101360.5663320045
101357.9406727386
101354.6450129465
101350.6294017839
101345.8611450043
101340.3275475565
101334.0383743832
101327.0302817766
101319.37734624
101311.2191612269
101302.8387051023
101294.8441180118
101288.3951168219
101284.7982669787
101283.8207558694
101283.7537441089
101283.767066459
101283.8440916777
101284.0490634102
101284.4599941253
101285.1571779983
101286.2216392242
101287.7311854451
101289.7574959624
101292.3630875522
101295.5985006817
101299.4999236417
101304.0871994212
101309.362244165
101315.3081503649
101321.8884198242
101329.0430824377
101336.6731838496
101344.5931284212
101352.4077322988
101359.2873116471
101363.9471040234
101365.7774771766
101366.0382293948
101366.0357921769
101365.9944669645
101365.8545092489
101365.5442210638
101364.9826899834
101364.0864146262
101362.7717140549
101360.9577133245
101358.569148024
101355.5392889652
101351.8130324968
101347.3500587843
101342.1279361004
101336.1452814205
101329.4258354009
101322.0264887708
101314.0584717485
101305.7461160349
101297.571640729
101290.5149261792
101285.9675295332
101284.3466761459
101284.1529801495
101284.1583327476
101284.2083843946
101284.3630806019
101284.6958217592
101285.2851457083
101286.2109015107
101287.5509946385
101289.3782696399
101291.7575621433
101294.7431000392
101298.3762529202
101302.683390349
101307.6740073778
101313.339650355
101319.6531504418
101326.565439749
101333.9941381258
101341.7898710832
101349.645654405
101356.9031966794
101362.3900492228
101365.0807672153
101365.6609475797
101365.6826834296
101365.6634925286
101365.573635405
101365.3528960008
101364.9299854254
101364.2321498209
101363.1882363107
101361.7330635838
101359.8115561437
101357.383325501
101354.4276637162
101350.9491710683
101346.9849049273
101342.6162294814
101337.9944407073
101333.3985561555
101329.3302166421
101326.4963074264
101325.2599796593
101325.0154074686
101325.0002031622
101325.0000003748
101324.9999999774
101324.9999999774
101324.9999999776
101324.9999999779
101324.9999999782
101324.9999999787
101324.9999999791
101324.9999999793
101324.9999999796
101324.9999999797
101324.9999999798
101324.9999999798
101324.9999999799
101324.9999999799
101324.99999998
101324.99999998
101324.9999999801
101324.9999999801
101324.9999999801
101324.9999999801
101324.99999998
101324.99999998
101324.9999999801
101324.9999999801
101324.9999999802
101324.9999999802
101324.9999999802
101324.9999999803
101324.9999999804
101324.9999999805
101324.9999999806
101324.9999999806
101324.9999999806
101324.9999999806
101324.9999999807
101324.9999999806
101324.9999999806
101324.9999999806
101324.9999999805
101324.9999999805
101324.9999999805
101324.9999999805
101324.9999999806
101324.9999999806
101324.9999999806
101324.9999999807
101324.9999999807
101324.9999999808
101324.9999999808
101324.9999999809
101324.9999999809
101324.9999999809
101324.9999999808
101324.9999999808
101324.9999999809
101324.999999981
101324.999999981
101324.999999981
101324.999999981
101324.999999981
101324.999999981
101324.999999981
101324.999999981
101324.999999981
101324.9999999811
101324.9999999811
101324.9999999811
101324.999999981
101324.999999981
101324.999999981
101324.999999981
101324.999999981
101324.9999999811
101324.999999981
101324.9999999811
101324.999999981
101324.9999999811
101324.999999981
101324.999999981
101324.999999981
101324.999999981
101324.999999981
101324.999999981
101324.999999981
101324.999999981
101324.999999981
101324.999999981
101324.9999999811
101324.9999999811
101324.9999999812
101324.9999999813
101324.9999999813
101324.9999999813
101324.9999999813
101324.9999999813
101324.9999999814
101324.9999999814
101324.9999999813
101324.9999999814
101324.9999999814
101324.9999999815
101324.9999999815
101324.9999999814
101324.9999999814
101324.9999999813
101324.9999999813
101324.9999999813
101324.9999999813
101324.9999999813
101324.9999999812
101324.9999999812
101324.9999999813
101324.9999999812
101324.9999999813
101324.9999999813
101324.9999999812
101324.9999999813
101324.9999999812
101324.9999999811
101324.9999999811
101324.999999981
101324.999999981
101324.999999981
101324.999999981
101324.999999981
101324.999999981
101324.999999981
101324.999999981
101324.9999999811
101324.9999999811
101324.9999999811
101324.9999999811
101324.9999999812
101324.9999999812
101324.9999999812
101324.9999999812
101324.9999999812
101324.9999999812
101324.9999999812
101324.9999999813
101324.9999999813
101324.9999999813
101324.9999999813
101324.9999999813
101324.9999999813
101324.9999999812
101324.9999999812
101324.9999999812
101324.9999999811
101324.9999999811
101324.9999999811
101324.9999999811
101324.9999999811
101324.9999999811
101324.9999999811
101324.9999999811
101324.9999999811
101324.9999999811
101324.9999999811
101324.9999999811
101324.999999981
101324.999999981
101324.999999981
101324.999999981
101324.9999999811
101324.9999999811
101324.9999999812
101324.9999999812
101324.9999999812
101324.9999999812
101324.9999999812
101324.9999999812
101324.9999999811
101324.9999999811
101324.9999999811
101324.999999981
101324.999999981
101324.999999981
101324.9999999809
101324.9999999808
101324.9999999806
101324.9999999806
101324.9999999805
101324.9999999805
101324.9999999804
101324.9999999804
101324.9999999804
101324.9999999803
101324.9999999803
101324.9999999803
101324.9999999803
101324.9999999803
101324.9999999804
101324.9999999804
101324.9999999804
101324.9999999804
101324.9999999805
101324.9999999805
101324.9999999805
101324.9999999805
101324.9999999805
101324.9999999804
101324.9999999804
101324.9999999803
101324.9999999804
101324.9999999804
101324.9999999804
101324.9999999804
101324.9999999804
101324.9999999804
101324.9999999804
101324.9999999804
101324.9999999804
101324.9999999804
101324.9999999804
101324.9999999804
101324.9999999804
101324.9999999804
101324.9999999804
101324.9999999804
101324.9999999804
101324.9999999804
101324.9999999804
101324.9999999804
101324.9999999804
101324.9999999804
101324.9999999803
101324.9999999803
101324.9999999802
101324.9999999802
101324.9999999802
101324.9999999801
101324.9999999801
101324.9999999801
101324.9999999801
101324.9999999801
101324.9999999801
101324.9999999802
101324.9999999802
101324.9999999802
101324.9999999802
101324.9999999802
101324.9999999802
101324.9999999803
101324.9999999803
101324.9999999803
101324.9999999802
101324.9999999801
101324.9999999801
101324.9999999801
101324.9999999801
101324.9999999801
101324.9999999802
101324.9999999802
101324.9999999802
101324.9999999801
101324.9999999799
101324.9999999798
101324.9999999798
101324.9999999798
101324.9999999797
101324.9999999796
101324.9999999795
101324.9999999793
101324.9999999792
101324.9999999792
101324.9999999792
101324.9999999792
101324.9999999792
101324.9999999792
101324.9999999791
101324.999999979
101324.9999999789
101324.9999999788
101324.9999999787
101324.9999999788
101324.9999999787
101324.9999999787
101324.9999999787
101324.9999999787
101324.9999999787
101324.9999999787
101324.9999999788
101324.9999999788
101324.9999999788
101324.9999999788
101324.999999979
101324.9999999789
101324.9999999789
101324.9999999789
101324.9999999789
101324.9999999788
101324.9999999789
101324.9999999789
101324.999999979
101324.999999979
101324.999999979
101324.999999979
)
;

boundaryField
{
    inlet
    {
        type            uniformFixedValue;
        uniformValue    sine;
        uniformValueCoeffs
        {
            frequency       constant 3000;
            scale           constant 50;
            level           constant 101325;
        }
        value           uniform 101323.6421297957;
    }
    outlet
    {
        type            pressureOutletNSCBC;
        pInf            101325;
        gamma           1.4;
        etaAc           1;
        fieldInf        1;
        lInf            2.25;
        value           uniform 101324.999999979;
    }
    frontAndBack
    {
        type            empty;
    }
}


// ************************************************************************* //
