/*--------------------------------*- C++ -*----------------------------------*\
| =========                 |                                                 |
| \\      /  F ield         | OpenFOAM: The Open Source CFD Toolbox           |
|  \\    /   O peration     | Version:  v2012                                 |
|   \\  /    A nd           | Website:  www.openfoam.com                      |
|    \\/     M anipulation  |                                                 |
\*---------------------------------------------------------------------------*/
FoamFile
{
    version     2.0;
    format      ascii;
    class       volScalarField;
    location    "0.005";
    object      pMean;
}
// * * * * * * * * * * * * * * * * * * * * * * * * * * * * * * * * * * * * * //

dimensions      [1 -1 -2 0 0 0 0];


internalField   nonuniform List<scalar> 
1000
(
101325.0307682014
101325.0081710918
101325.0353832434
101325.0609858119
101325.0983383234
101325.1432918895
101325.1945252827
101325.2535421363
101325.3169845462
101325.3855578378
101325.4558585245
101325.5266309562
101325.5968700814
101325.6664592288
101325.7337605921
101325.7978398328
101325.8568546619
101325.9100338708
101325.9559787108
101325.9943087025
101326.0239629513
101326.0447865903
101326.056018845
101326.0578027919
101326.0497399153
101326.0323204837
101326.0055404682
101325.970222829
101325.9265859036
101325.8754625617
101325.8170878576
101325.7528045013
101325.6845898105
101325.6153632888
101325.5459953095
101325.4769289903
101325.4084972741
101325.3415829357
101325.2772729751
101325.2169935172
101325.162135345
101325.1140484861
101325.0737579698
101325.0420783854
101325.0195006759
101325.0063973704
101325.0029274275
101325.0091574191
101325.0249489648
101325.0500499209
101325.0840868702
101325.126693663
101325.1774685837
101325.235791832
101325.3001699744
101325.3678779492
101325.4363742559
101325.5048621419
101325.5730955267
101325.6408041692
101325.7071397757
101325.771296246
101325.8318667105
101325.8876657074
101325.9371365102
101325.9792349942
101326.012801234
101326.0373309065
101326.0522448765
101326.0575471502
101326.0530776742
101326.0391441558
101326.0157997513
101325.9834605147
101325.9422236078
101325.8925475032
101325.834929852
101325.7711923934
101325.704125625
101325.6363944877
101325.5686103489
101325.5010388033
101325.4339560698
101325.3679708235
101325.3039177999
101325.2429065553
101325.1862004601
101325.1351720464
101325.091120785
101325.0552122078
101325.028317249
101325.0110380118
101325.00364691
101325.0062078672
101325.0185748095
101325.0405517988
101325.071892559
101325.112405404
101325.1617668159
101325.2192153568
101325.2827786729
101325.3493578222
101325.4165359767
101325.4837110353
101325.550674092
101325.6172272103
101325.6827017985
101325.746462101
101325.8073673153
101325.864366455
101325.9160303245
101325.9612018655
101325.9985577726
101326.0272595938
101326.0464683004
101326.0559232525
101326.0553528231
101326.0449680204
101326.0248063205
101325.9952159861
101325.9562649422
101325.9083737847
101325.8521503074
101325.7895979556
101325.7237090697
101325.6571463296
101325.5905259192
101325.5240786587
101325.4579990226
101325.3927957956
101325.3291161627
101325.2679085394
101325.2102337862
101325.1573719511
101325.1105752042
101325.0711322827
101325.0401051339
101325.0183957398
101325.0065505838
101325.0048983455
101325.0134541517
101325.0321433585
101325.0607502324
101325.099099971
101325.1467932426
101325.2029582283
101325.2654069816
101325.3309186159
101325.3970250361
101325.4631460064
101325.529092158
101325.5947152237
101325.6594585672
101325.7228014436
101325.7837701503
101325.8414555707
101325.8945661241
101325.9419891727
101325.9823867928
101326.0147745743
101326.0381206592
101326.0518917233
101326.0555767318
101326.0491579674
101326.0325384918
101326.005979438
101325.969543617
101325.9236843322
101325.8690893717
101325.8078541047
101325.7430647745
101325.6775019549
101325.6118596364
101325.5463598618
101325.4811372891
101325.4166217101
101325.3533433008
101325.2921167591
101325.2338599497
101325.1797267997
101325.1308874888
101325.0886225561
101325.0540643318
101325.0282895549
101325.0120683385
101325.0060095753
101325.0103724082
101325.0253053353
101325.0507124424
101325.0864859653
101325.1321857048
101325.1868498582
101325.2481285331
101325.3126579182
101325.3778466769
101325.4430686987
101325.5081420737
101325.5729645084
101325.6370527609
101325.6999819181
101325.7608969651
101325.8190119066
101325.8731535489
101325.9222928135
101325.9651251923
101326.0006308515
101326.027664528
101326.0455132228
101326.0534423598
101326.0511969339
101326.0384772053
101326.0153858377
101325.9819029881
101325.9384531865
101325.8857525423
101325.8259355109
101325.7621956733
101325.6975063132
101325.6327122221
101325.5680360381
101325.5035707552
101325.4396837123
101325.3768148824
101325.3156722022
101325.2570536539
101325.2020019578
101325.1515913639
101325.1070544735
101325.0695300611
101325.0401781345
101325.0199190678
101325.0095737904
101325.0096420334
101325.0205083035
101325.0422766939
101325.0749714124
101325.1182198285
101325.171047326
101325.2310268656
101325.2946101792
101325.3589866091
101325.4234104869
101325.4877167899
101325.5518247378
101325.6153213299
101325.6778441724
101325.7386428721
101325.7970251704
101325.8519303367
101325.9024089396
101325.9472224689
101325.9853509911
101326.0156097747
101326.0371638768
101326.0491239615
101326.0510244298
101326.0423692519
101326.0230651013
101325.9929556008
101325.9523569065
101325.9019243964
101325.8437427971
101325.78108378
101325.7172005371
101325.6531663029
101325.5892332687
101325.5254524139
101325.4621497076
101325.3996842469
101325.3386890899
101325.279852947
101325.2241275695
101325.1724863674
101325.1261033004
101325.0860843312
101325.0536233939
101325.0297258765
101325.0153644986
101325.0112310219
101325.0179290001
101325.0357728732
101325.0649672085
101325.1052771922
101325.1558254423
101325.2142312582
101325.2768139047
101325.3404367627
101325.40413902
101325.4677489523
101325.5312014204
101325.5941483561
101325.6562704341
101325.716913991
101325.7754525515
101325.8309365301
101325.882478113
101325.9289253564
101325.9692685959
101326.002335814
101326.0272071185
101326.0429044033
101326.04878432
101326.0441965545
101326.0288421858
101326.0024222882
101325.9650804503
101325.917349077
101325.8611284814
101325.7996910149
101325.7365879352
101325.6732605528
101325.6100082492
101325.546872176
101325.4841159038
101325.4220602261
101325.3612463949
101325.3023012405
101325.2460690969
101325.1934580616
101325.1455530041
101325.1034336243
101325.0682735236
101325.0411367371
101325.0230796812
101325.0149492782
101325.0175184696
101325.0313005658
101325.0566826926
101325.0936134158
101325.1414068101
101325.19787244
101325.2593151626
101325.3221976682
101325.3852274844
101325.4481820283
101325.5110222621
101325.5734415687
101325.6351727965
101325.6956251944
101325.7542478478
101325.8101655173
101325.8625713142
101325.9103716992
101325.9526085393
101325.9881133756
101326.0159491478
101326.0350565493
101326.0446938166
101326.04405725
101326.0327040998
101326.0101599844
101325.9764182062
101325.9317962129
101325.8779459667
101325.8179526932
101325.7556738796
101325.6930037266
101325.6304040107
101325.5678701244
101325.5056532039
101325.4439988421
101325.3834114304
101325.3244235679
101325.2678269307
101325.214430327
101325.1652722423
101325.1213599674
101325.0838641326
101325.0538426592
101325.0324263552
101325.0205443843
101325.0191210671
101325.0288138783
101325.0501963671
101325.0833987925
101325.127994735
101325.1820983739
101325.2421675465
101325.3042747154
101325.3666585081
101325.4289848399
101325.4912296219
101325.5531385798
101325.6144708491
101325.6747119714
101325.7333510084
101325.7896038649
101325.8427065073
101325.8916530236
101325.9355063823
101325.973151709
101326.0036189378
101326.0258393614
101326.0389671896
101326.0421253688
101326.0347128972
101326.0161460212
101325.9862244791
101325.9450802904
101325.8940012488
101325.835785857
101325.7744231509
101325.7124079151
101325.6504225717
101325.5884853748
101325.5267875961
101325.4655558119
101325.4052143836
101325.3462604216
101325.2893925492
101325.2353769893
101325.1851618986
101325.1397269151
101325.1001832755
101325.0676075755
101325.043132145
101325.0277738685
101325.0225287728
101325.0282030731
101325.0454932092
101325.0747361539
101325.1157449409
101325.1670500748
101325.2254108534
101325.2866588646
101325.3484093301
101325.4101343559
101325.4717983543
101325.5332027859
101325.5941268099
101325.6541272808
101325.7127271351
101325.7692246451
101325.8228938052
101325.8728097939
101325.9180601166
101325.9575866642
101325.9904044783
101326.0154539919
101326.0318180568
101326.0385723774
101326.0349911194
101326.0204013365
101325.9944303202
101325.957025205
101325.9090915804
101325.8530264902
101325.7927691881
101325.7314304502
101325.6700540387
101325.6087072419
101325.5475412578
101325.4867423921
101325.4266872683
101325.3678172284
101325.3107725598
101325.2562577944
101325.2051617464
101325.1584116794
101325.117079341
101325.0822224536
101325.0549779867
101325.0363986433
101325.0275438016
101325.0293133106
101325.0425203471
101325.0676635718
101325.1048053668
101325.152895195
101325.2091576865
101325.2693667992
101325.3304808023
101325.3916127205
101325.4527121399
101325.5136002395
101325.5741136625
101325.6338326176
101325.6923533513
101325.7490053464
101325.8031416001
101325.8538670648
101325.9003406184
101325.94151615
101325.9764527271
101326.0040641929
101326.0234335681
101326.0335630821
101326.0336821096
101326.022999584
101326.0010474332
101325.9675589831
101325.9231300333
101325.8696266218
101325.8107632899
101325.750125066
101325.68934105
101325.6285588943
101325.5679149467
101325.5075573974
101325.44781405
101325.3890816379
101325.3319398106
101325.2770414888
101325.2252136651
101325.1773369699
101325.1344354642
101325.0975434772
101325.0677853144
101325.0462333909
101325.0339830123
101325.0320029727
101325.0411962738
101325.0622004303
101325.0952962776
101325.1398299675
101325.1935699266
101325.252473743
101325.3129005306
101325.3734407811
101325.4339609818
101325.4943305359
101325.5543977395
101325.6138123978
101325.6721902417
101325.7289380982
101325.7834322709
101325.8348554022
101325.8823835273
101325.9250355839
101325.961866457
101325.9918279495
101326.0139636011
101326.0272753095
101326.0309120463
101326.0240449398
101326.0060763216
101325.9766117195
101325.9359140221
101325.8853780484
101325.8282498188
101325.7684498165
101325.7082436393
101325.6480324222
101325.5879139153
101325.52801628
101325.4686145839
101325.410070351
101325.352901555
101325.2977195832
101325.2452869071
101325.1964452484
101325.1521629277
101325.1134527393
101325.0814091339
101325.0571168183
101325.0416802804
101325.0361242656
101325.0414098128
101325.058294705
101325.087232934
101325.127933729
101325.1787209085
101325.2359721882
101325.295615723
101325.3555775912
101325.415529204
101325.475380006
101325.5349890995
101325.594071526
101325.6522623671
101325.7090400166
101325.7638045242
101325.8158092819
101325.8642511308
101325.9082088777
101325.9467440909
101325.9788450597
101326.0035361411
101326.0198216209
101326.0267986354
101326.0236022863
101326.0095413838
101325.9841059607
101325.9472975614
101325.9000616068
101325.8450853587
101325.7863273458
101325.7267357014
101325.6670989071
101325.6075238195
101325.5481145067
101325.4890957755
101325.4307957558
101325.3736726307
101325.3182988424
101325.2653750112
101325.2157059929
101325.1702055935
101325.1298625329
101325.0957361802
101325.0689134176
101325.0504956496
101325.0415457572
101325.0430630611
101325.0559000499
101325.0806497811
101325.1173281354
101325.1647812616
101325.2199643511
101325.2786478373
101325.3380225186
101325.397413187
101325.4567371426
101325.5158807753
101325.5745990174
101325.6325669173
101325.6893091294
101325.7442683429
101325.7967466963
101325.8459794907
101325.8910887087
101325.9311610097
101325.9652121518
101325.9922676472
101326.0113340286
101326.0214792545
101326.0218109289
101326.0115679236
101325.9901477363
101325.9573380066
101325.9136934008
101325.8612910943
101325.8038575364
101325.744918596
101325.6858374247
101325.6267938448
101325.567868586
101325.5092476398
101325.4512187228
101325.3941942746
101325.3387005697
101325.2853897932
101325.235020117
101325.188460879
101325.1466627965
101325.110655974
101325.0815094711
101325.0603221721
101325.0481710311
101325.046091711
101325.0549995811
101325.0756073042
101325.1081674109
101325.1519922469
101325.2046648268
101325.2621105944
101325.3208376614
101325.379660661
101325.438439235
101325.4970865641
101325.5553998568
101325.6130895948
101325.6697289988
101325.7248008901
101325.7776545532
101325.8275638631
101325.8736898805
101325.915148776
101325.9509799278
101325.9802212874
101326.0018802606
101326.0150139535
101326.0187038563
101326.0121471828
101325.9946635966
101325.9658891697
101325.9260490612
101325.8766440908
101325.8209117942
101325.7627273144
101325.7041608975
101325.6456112134
101325.5871320525
101325.5288612532
101325.4710268041
101325.4139612108
101325.3581008269
101325.3039811174
101325.2522256597
101325.2035289578
101325.1586324597
101325.1182930975
101325.083243086
101325.0541374096
101325.0314780268
101325.0154854359
101325.0058628815
101325.0014533181
101325.0001825348
101325.0000081682
101325.0000000838
101324.9999999972
101324.999999997
101324.9999999969
101324.9999999968
101324.9999999968
101324.9999999968
101324.9999999967
101324.9999999968
101324.9999999967
101324.9999999967
101324.9999999966
101324.9999999966
101324.9999999966
101324.9999999965
101324.9999999964
101324.9999999964
101324.9999999964
101324.9999999964
101324.9999999964
101324.9999999963
101324.9999999963
101324.9999999963
101324.9999999963
101324.9999999963
101324.9999999962
101324.9999999962
101324.9999999962
101324.9999999961
101324.9999999961
101324.9999999961
101324.9999999961
101324.9999999961
101324.999999996
101324.999999996
101324.999999996
101324.9999999959
101324.9999999959
101324.9999999958
101324.9999999958
101324.9999999957
101324.9999999957
101324.9999999957
101324.9999999958
101324.9999999957
101324.9999999957
101324.9999999957
101324.9999999956
101324.9999999956
101324.9999999956
101324.9999999956
101324.9999999956
101324.9999999955
101324.9999999954
101324.9999999954
101324.9999999954
101324.9999999954
101324.9999999954
101324.9999999954
101324.9999999953
101324.9999999952
101324.9999999952
101324.9999999952
101324.9999999952
101324.9999999952
101324.9999999951
101324.999999995
101324.999999995
101324.9999999949
101324.9999999949
101324.9999999948
101324.9999999948
101324.9999999948
101324.9999999948
101324.9999999947
101324.9999999946
101324.9999999946
101324.9999999946
101324.9999999946
101324.9999999946
101324.9999999946
101324.9999999946
101324.9999999946
101324.9999999945
101324.9999999945
101324.9999999945
101324.9999999944
101324.9999999944
101324.9999999944
101324.9999999943
101324.9999999943
101324.9999999943
101324.9999999944
101324.9999999943
101324.9999999943
101324.9999999942
101324.9999999942
101324.9999999942
101324.9999999942
101324.9999999941
101324.9999999941
101324.9999999941
101324.9999999941
101324.9999999941
101324.999999994
101324.999999994
101324.9999999939
101324.9999999939
101324.9999999939
101324.9999999938
101324.9999999938
101324.9999999938
101324.9999999938
101324.9999999938
101324.9999999937
101324.9999999937
101324.9999999937
101324.9999999937
101324.9999999937
101324.9999999937
101324.9999999937
101324.9999999937
101324.9999999937
101324.9999999937
101324.9999999937
101324.9999999937
101324.9999999937
101324.9999999937
101324.9999999936
101324.9999999936
101324.9999999936
101324.9999999936
101324.9999999935
101324.9999999935
101324.9999999935
101324.9999999935
101324.9999999934
101324.9999999934
101324.9999999933
101324.9999999933
101324.9999999933
101324.9999999933
101324.9999999932
101324.9999999932
101324.9999999932
101324.9999999932
101324.9999999932
101324.9999999931
101324.999999993
101324.999999993
101324.9999999929
101324.9999999929
101324.9999999928
101324.9999999928
101324.9999999927
101324.9999999927
101324.9999999926
101324.9999999926
101324.9999999926
101324.9999999925
101324.9999999925
101324.9999999925
101324.9999999925
101324.9999999925
101324.9999999924
101324.9999999924
101324.9999999924
101324.9999999924
101324.9999999924
101324.9999999924
101324.9999999924
101324.9999999923
101324.9999999923
101324.9999999922
101324.9999999922
101324.9999999922
101324.9999999922
101324.9999999922
101324.9999999921
101324.9999999921
101324.9999999921
101324.999999992
101324.999999992
101324.999999992
101324.999999992
101324.999999992
101324.9999999919
101324.9999999919
101324.9999999918
101324.9999999918
101324.9999999918
101324.9999999918
101324.9999999918
101324.9999999918
101324.9999999918
101324.9999999917
101324.9999999917
101324.9999999916
101324.9999999915
101324.9999999915
101324.9999999915
101324.9999999914
101324.9999999914
101324.9999999914
101324.9999999913
101324.9999999913
101324.9999999913
101324.9999999912
101324.9999999912
101324.9999999912
101324.9999999912
101324.9999999911
101324.9999999911
101324.9999999911
101324.9999999911
101324.9999999911
101324.999999991
101324.999999991
101324.999999991
101324.9999999909
101324.9999999908
101324.9999999908
101324.9999999908
101324.9999999907
101324.9999999907
101324.9999999907
101324.9999999907
101324.9999999907
101324.9999999907
101324.9999999907
101324.9999999907
101324.9999999906
101324.9999999906
101324.9999999905
101324.9999999905
101324.9999999905
101324.9999999904
101324.9999999904
101324.9999999904
101324.9999999903
101324.9999999903
101324.9999999903
101324.9999999903
101324.9999999902
101324.9999999902
101324.9999999902
101324.9999999901
101324.9999999901
101324.9999999901
101324.99999999
101324.99999999
101324.99999999
101324.99999999
101324.9999999899
101324.9999999898
101324.9999999898
101324.9999999898
101324.9999999897
101324.9999999897
101324.9999999896
101324.9999999896
101324.9999999895
101324.9999999895
101324.9999999896
101324.9999999895
101324.9999999894
101324.9999999894
101324.9999999893
101324.9999999894
101324.9999999894
101324.9999999894
101324.9999999893
101324.9999999892
101324.9999999892
101324.9999999892
101324.9999999892
101324.9999999891
101324.9999999891
101324.9999999891
101324.9999999891
101324.9999999891
101324.9999999891
101324.9999999891
101324.999999989
101324.9999999889
101324.9999999889
101324.9999999889
101324.9999999888
101324.9999999888
101324.9999999887
101324.9999999887
101324.9999999886
101324.9999999886
101324.9999999885
101324.9999999885
101324.9999999885
101324.9999999885
101324.9999999884
101324.9999999883
101324.9999999883
)
;

boundaryField
{
    inlet
    {
        type            calculated;
        value           uniform 101324.9999999997;
    }
    outlet
    {
        type            calculated;
        value           uniform 101324.9999999883;
    }
    frontAndBack
    {
        type            empty;
    }
}


// ************************************************************************* //
