/*--------------------------------*- C++ -*----------------------------------*\
| =========                 |                                                 |
| \\      /  F ield         | OpenFOAM: The Open Source CFD Toolbox           |
|  \\    /   O peration     | Version:  v2012                                 |
|   \\  /    A nd           | Website:  www.openfoam.com                      |
|    \\/     M anipulation  |                                                 |
\*---------------------------------------------------------------------------*/
FoamFile
{
    version     2.0;
    format      ascii;
    class       volScalarField;
    location    "0.005";
    object      rho;
}
// * * * * * * * * * * * * * * * * * * * * * * * * * * * * * * * * * * * * * //

dimensions      [1 -3 0 0 0 0 0];


internalField   nonuniform List<scalar> 
1000
(
1.176296243154237
1.176319889786334
1.176266393574751
1.176223173034041
1.176172877076255
1.1761271482993
1.176088492797253
1.176056065247718
1.176028439773632
1.176009860377488
1.176004848721426
1.176004754061001
1.176007576080826
1.176015999683761
1.176032542360426
1.176057611018182
1.176090223771716
1.176128911489829
1.17617246579559
1.176220045454272
1.176270951965401
1.176324431232167
1.176379604961054
1.176435468008061
1.176490913193604
1.176544819250071
1.176596226060468
1.176644554893564
1.176689739485205
1.176731888489867
1.176769710153138
1.1767978000516
1.17680982660946
1.176811214994463
1.176810636689115
1.176808453563317
1.176802308863395
1.176790258719707
1.176770575192117
1.176742470081636
1.176706275572289
1.176663263437719
1.176615125132161
1.176563445441056
1.176509456268649
1.176454097860036
1.176398202157721
1.176342619494982
1.176288218714798
1.176235739721068
1.176185553280706
1.176137641631342
1.176092430744982
1.176053021283584
1.176026814765033
1.176017893232712
1.176017286743925
1.176017626950146
1.176019789809212
1.176025117561053
1.176035480138847
1.176052464639639
1.176077201791012
1.17611005218908
1.176150506102268
1.176197301522576
1.176248743011651
1.176303094833368
1.176358873503025
1.17641493713754
1.176470433339412
1.1765247642206
1.176577631037624
1.176629021812102
1.176678887357191
1.176726164806818
1.176766804588631
1.176792964517156
1.176801562250094
1.176802189339463
1.176801720969028
1.176800018618262
1.176795486743154
1.176786678950914
1.176772058979308
1.176750375108833
1.176720877875121
1.17668351754219
1.176638994756004
1.176588642152558
1.176534178527144
1.176477405875818
1.176419916798273
1.176362882939954
1.176306980276897
1.17625244497164
1.176199233695986
1.176147443275982
1.176098496632861
1.17605737309672
1.17603248284891
1.176025234299322
1.176024866887485
1.176025167918248
1.176026893916075
1.176031084772489
1.176039202454738
1.176052619197445
1.176072540729247
1.176099792518497
1.176134657883899
1.176176770360902
1.176225120283513
1.176278206744046
1.17633429833711
1.176391718697362
1.176449095165341
1.176505543815322
1.176560735886677
1.176614730418623
1.176667422226582
1.176717355445922
1.176759730812793
1.1767862961433
1.176794797154929
1.176795446362147
1.176795093658239
1.176793783654412
1.176790243264549
1.176783281187364
1.176771571063365
1.176753898270654
1.1767293017362
1.176697246013545
1.176657746710146
1.176611422426784
1.176559454284174
1.176503432841917
1.176445091150741
1.17638598800286
1.17632725765845
1.176269519485158
1.176213008245922
1.176158092228654
1.176106592751397
1.176063968424692
1.176038671212804
1.176031387738503
1.176030975885223
1.176031202576945
1.176032562679578
1.17603594150565
1.176042563527711
1.176053625748038
1.176070262277311
1.176093395696879
1.176123605070586
1.176160999658831
1.176205145658499
1.176255086880471
1.176309463853264
1.176366707333791
1.17642528543633
1.176483967977736
1.176542003517808
1.176599045980179
1.176654657178777
1.176707135304038
1.176751539624647
1.17677959615901
1.176788928369663
1.176789759122961
1.176789503540794
1.176788522467612
1.176785730351664
1.176780109269398
1.176770485053588
1.176755728663273
1.176734849299784
1.176707125983854
1.176672221795768
1.176630270638329
1.176581918228436
1.176528282017712
1.176470799049571
1.176410984876533
1.176350184203668
1.176289405819267
1.176229350465915
1.176170862337522
1.176116228221886
1.176071295577282
1.176044624669794
1.176036723035476
1.176036181757125
1.176036352250564
1.176037437158003
1.176040192277892
1.176045680319289
1.17605496520232
1.17606910120301
1.176089017912773
1.176115416510749
1.176148658782894
1.17618868236156
1.176234972587563
1.176286599679469
1.176342319675714
1.176400747403022
1.1764605871373
1.176520828365629
1.176580743938511
1.176639496825555
1.176695069361755
1.176742350498228
1.176772887614435
1.176783687838831
1.176784838035615
1.176784658741553
1.176783917334182
1.176781688318359
1.176777087570209
1.176769069650883
1.176756592998555
1.176738684240383
1.176714542878212
1.176683637809129
1.176645794895557
1.176601263398444
1.176550728969231
1.176495240174828
1.17643605621867
1.176374463953146
1.176311624168509
1.176248552973237
1.17618650124979
1.17612819001023
1.176079894751917
1.17605067081376
1.176041544870845
1.176040787612959
1.17604089778016
1.17604174720774
1.176043991927374
1.176048580435096
1.176056464766533
1.176068615539696
1.17608593146862
1.176109160323785
1.176138806058973
1.176175048254255
1.176217695792818
1.176266181438604
1.17631960353455
1.1763768347187
1.176436695517597
1.176498119400416
1.176560171963747
1.176621740161798
1.176680579713074
1.176731463916022
1.176765590416246
1.176778713590655
1.176780415816442
1.176780302375402
1.17677976682263
1.176777998512098
1.176774220861426
1.176767488980876
1.176756846489932
1.17674136336831
1.176720217205513
1.176692770962659
1.176658652413711
1.176617825595607
1.17657062773077
1.176517744794413
1.176460126901765
1.176398869198328
1.176335095770507
1.176269942535858
1.176204895961471
1.17614293856221
1.17609058239312
1.176057499150813
1.17604615102212
1.176044953043741
1.1760450199223
1.176045674480385
1.176047497004779
1.176051337525945
1.176058061169491
1.176068568087159
1.176083719613691
1.176104274226279
1.176130811440676
1.176163663435067
1.176202866968914
1.176248137661713
1.176298876043589
1.176354229896425
1.176413214943321
1.176474835683407
1.176538100474428
1.176601774655145
1.1766635568952
1.176718316888167
1.1767570172238
1.176773613703942
1.176776321266375
1.176776278430337
1.176775920912682
1.176774538593308
1.176771452735361
1.176765794652322
1.176756680150427
1.176743226984604
1.176724618613128
1.176700165362242
1.176669372080596
1.176632004565686
1.176588134374618
1.176538142755334
1.176482683347357
1.176422615579301
1.176358929646547
1.176292742865935
1.176225596886876
1.176160479569688
1.176103791394876
1.176065687396724
1.176050892525392
1.176048864361374
1.176048877343931
1.176049355966983
1.176050804365817
1.176053996425676
1.176059728239072
1.17606883876643
1.176082148426218
1.176100407918522
1.176124236126824
1.176154063319375
1.176190085469338
1.176232229626904
1.176280141488511
1.176333218229648
1.176390686815639
1.176451682648792
1.17651525466359
1.176580173579272
1.176644245229834
1.176702691132472
1.176746593747843
1.176767943192565
1.176772390914847
1.176772498609541
1.176772277462151
1.17677122443964
1.176768730854783
1.176763993402163
1.176756187468781
1.176744474665705
1.176728054752134
1.176706214548264
1.17667838446311
1.176644195002361
1.176603521292023
1.176556504425092
1.176503545424001
1.176445272949199
1.176382500154282
1.17631623891536
1.176247956569586
1.176180443305593
1.176119643159288
1.176075775215087
1.176056175701478
1.176052650138368
1.176052594596956
1.176052898057677
1.176054012747571
1.176056622377197
1.176061474980236
1.176069361749854
1.176081066412539
1.176097323601112
1.176118769144118
1.176145894184346
1.176179003931539
1.176218180292413
1.176263260789042
1.176313852797868
1.176369379709268
1.176429125813133
1.176492234037382
1.176557562818233
1.176623134316171
1.176684711858363
1.176733923903593
1.176761159974395
1.176768429043728
1.176768882382778
1.17676875662203
1.176767982852381
1.176766006308041
1.176762073978827
1.17675541320837
1.176745223289448
1.17673072402805
1.176711194041498
1.176686017794314
1.176654734497655
1.176617079331251
1.176573010662767
1.176522722125142
1.176466637006149
1.176405390489384
1.176339851470327
1.176271333878406
1.176202308170737
1.176138026501633
1.176088219748061
1.176062497079397
1.176056430824449
1.176056142422562
1.17605633577791
1.176057158585492
1.176059259368679
1.176063333338319
1.176070133247329
1.17608041178592
1.176094887334876
1.17611420449807
1.176138894378883
1.176169335846912
1.176205721914549
1.176248038951629
1.176296065797801
1.176349392136011
1.176407444589967
1.176469489358874
1.176534523221042
1.176600829219528
1.176664784596413
1.176718903780046
1.176752734865454
1.176764122931208
1.176765316249519
1.176765247457366
1.176764729278215
1.176763213576665
1.176760009227483
1.176754377240514
1.176745549907291
1.176732765869472
1.176715303082614
1.176692519456701
1.17666389539117
1.176629068168451
1.176587858902995
1.176540297481412
1.176486636678389
1.176427347689464
1.176363140805768
1.176295140232951
1.176225456793982
1.176158553990424
1.176103206081561
1.176070432221101
1.176060457473329
1.176059588602053
1.176059719433217
1.176060286074501
1.176061940597955
1.176065317033866
1.176071140135071
1.176080135990555
1.176093008428996
1.176110402779065
1.176132875357653
1.17616085980324
1.176194632003881
1.17623428704268
1.176279736434531
1.176330714688358
1.176386782104228
1.176447318351029
1.176511454277533
1.176577747283107
1.176643216779828
1.176701484328568
1.176742161247606
1.176759156228475
1.176761870625857
1.176761911613063
1.176761555466453
1.176760426314492
1.176757838944993
1.17675310521693
1.176745482927365
1.176734230313321
1.176718630700999
1.176698027285084
1.176671857486775
1.176639684963149
1.176601229943379
1.176556396915634
1.176505292606699
1.176448235141797
1.176385786244345
1.176318889073254
1.176249297405769
1.176180679811136
1.176120601906145
1.176080476473029
1.176065145818078
1.176063070341154
1.176063106388831
1.176063478516508
1.176064729261064
1.176067471111578
1.1760723990245
1.176080217418525
1.176091617892121
1.176107247602325
1.176127680674314
1.176153387509986
1.176184704997005
1.176221814976144
1.176264733290568
1.176313304958795
1.176367203164174
1.176425925789088
1.176488741964989
1.176554446767616
1.176620627230941
1.176682059316629
1.176729173816841
1.176752960409821
1.176758342147249
1.176758570437779
1.176758376100014
1.176757567723924
1.176755527871311
1.176751597928708
1.176745061797261
1.176735195973632
1.176721292639935
1.17670268759964
1.17667878953069
1.176649110341914
1.17661329493289
1.176571148042065
1.176522656391424
1.176468008997911
1.176407632508002
1.176342295165766
1.176273425639629
1.176203979346069
1.176140233393356
1.176093024179747
1.176070911101552
1.176066538561578
1.176066418063652
1.17606664165348
1.176067555867518
1.176069745611264
1.176073871553242
1.176080622074434
1.176090678661948
1.176104688760615
1.176123239207198
1.176146828015069
1.176175837904342
1.176210516446982
1.176250962440958
1.176297115079347
1.176348747586897
1.17640546314292
1.176466655957216
1.176531330292756
1.176597548870478
1.176661123674161
1.176713740275431
1.176744914160797
1.176754403663028
1.17675522746526
1.176755115688561
1.176754573092459
1.176753009064339
1.176749803365457
1.176744263562185
1.176735681594964
1.176723354477536
1.176706612189886
1.17668484264308
1.176657517841259
1.176624223473106
1.176584688254988
1.176538806673788
1.176486659399976
1.176428550047955
1.1763650925077
1.176297443971476
1.176227950724338
1.176161655703904
1.176108176378794
1.176078348556934
1.176070242239376
1.176069686522396
1.176069797002786
1.176070435761193
1.176072135559454
1.176075543339986
1.17608132496156
1.176090152326764
1.176102670647807
1.176119474292946
1.176141081618137
1.176167911627756
1.176200264269351
1.176238303905923
1.176282046205755
1.176331350715313
1.176385914513342
1.176445240047871
1.176508506540742
1.176574174888481
1.17663896837442
1.176696008101406
1.176734642609738
1.176749818171077
1.176751980051957
1.176751959845393
1.176751617221548
1.176750456843074
1.176747884266196
1.176743228646883
1.176735797668259
1.176724897511039
1.176709857599443
1.176690053845677
1.176664932890805
1.176634037720276
1.176597033845916
1.176553735044831
1.176504129571323
1.176448413958331
1.176387059593679
1.176320988461337
1.176252060479317
1.176184274269562
1.176125755775309
1.176088045459244
1.176074604056266
1.176072997770642
1.176073042159019
1.17607345722926
1.176074740099252
1.176077499464506
1.176082386620388
1.176090063727764
1.176101176816031
1.176116329925333
1.176136060652982
1.176160818596416
1.176190946686097
1.176226663423897
1.176268047341723
1.176315028101165
1.176367380149663
1.176424696337048
1.176486293304434
1.176550932247835
1.176616067672905
1.17667624157894
1.176721733512388
1.176744042230721
1.176748852478761
1.176749032689531
1.176748873579221
1.176748128580145
1.176746298444432
1.176742792117806
1.176737006394852
1.176728351334636
1.17671628649228
1.17670035519129
1.176680222502914
1.176655716647341
1.176626875657369
1.176594006661664
1.176557784153942
1.176519462493299
1.176481355125687
1.17644762156018
1.176424123335266
1.176413871889801
1.176411843929034
1.176411717856793
1.176411716175304
1.176411716172009
1.176411716172009
1.176411716172011
1.176411716172014
1.176411716172018
1.176411716172022
1.176411716172025
1.176411716172027
1.176411716172028
1.17641171617203
1.176411716172031
1.176411716172032
1.176411716172032
1.176411716172032
1.176411716172032
1.176411716172031
1.176411716172031
1.176411716172032
1.176411716172033
1.176411716172033
1.176411716172033
1.176411716172032
1.176411716172033
1.176411716172033
1.176411716172034
1.176411716172034
1.176411716172034
1.176411716172034
1.176411716172035
1.176411716172035
1.176411716172036
1.176411716172037
1.176411716172036
1.176411716172036
1.176411716172037
1.176411716172037
1.176411716172036
1.176411716172036
1.176411716172036
1.176411716172036
1.176411716172036
1.176411716172036
1.176411716172037
1.176411716172038
1.176411716172038
1.176411716172038
1.176411716172039
1.17641171617204
1.17641171617204
1.17641171617204
1.17641171617204
1.176411716172039
1.176411716172038
1.176411716172038
1.176411716172038
1.176411716172039
1.176411716172039
1.176411716172039
1.176411716172039
1.17641171617204
1.17641171617204
1.17641171617204
1.17641171617204
1.17641171617204
1.17641171617204
1.17641171617204
1.17641171617204
1.17641171617204
1.17641171617204
1.176411716172041
1.176411716172041
1.176411716172041
1.17641171617204
1.17641171617204
1.176411716172039
1.176411716172039
1.176411716172039
1.17641171617204
1.17641171617204
1.17641171617204
1.17641171617204
1.17641171617204
1.176411716172039
1.176411716172039
1.176411716172039
1.176411716172039
1.17641171617204
1.176411716172041
1.176411716172042
1.176411716172042
1.176411716172043
1.176411716172043
1.176411716172044
1.176411716172044
1.176411716172044
1.176411716172044
1.176411716172044
1.176411716172043
1.176411716172044
1.176411716172044
1.176411716172045
1.176411716172045
1.176411716172045
1.176411716172044
1.176411716172044
1.176411716172044
1.176411716172043
1.176411716172044
1.176411716172043
1.176411716172043
1.176411716172042
1.176411716172042
1.176411716172041
1.176411716172042
1.176411716172042
1.176411716172041
1.176411716172042
1.176411716172042
1.176411716172041
1.176411716172042
1.176411716172041
1.176411716172041
1.176411716172041
1.176411716172041
1.176411716172041
1.176411716172041
1.176411716172041
1.176411716172041
1.176411716172041
1.176411716172041
1.176411716172042
1.176411716172042
1.176411716172042
1.176411716172042
1.176411716172042
1.176411716172041
1.176411716172041
1.176411716172041
1.176411716172041
1.176411716172042
1.176411716172042
1.176411716172042
1.176411716172042
1.176411716172042
1.176411716172042
1.176411716172042
1.176411716172042
1.176411716172043
1.176411716172042
1.176411716172042
1.176411716172041
1.176411716172041
1.17641171617204
1.176411716172039
1.176411716172039
1.17641171617204
1.17641171617204
1.17641171617204
1.17641171617204
1.176411716172041
1.176411716172041
1.176411716172041
1.176411716172041
1.176411716172041
1.176411716172042
1.176411716172042
1.176411716172042
1.176411716172042
1.176411716172043
1.176411716172043
1.176411716172043
1.176411716172043
1.176411716172042
1.176411716172042
1.176411716172042
1.176411716172041
1.176411716172041
1.176411716172041
1.17641171617204
1.176411716172039
1.176411716172038
1.176411716172037
1.176411716172037
1.176411716172036
1.176411716172036
1.176411716172036
1.176411716172036
1.176411716172035
1.176411716172036
1.176411716172035
1.176411716172035
1.176411716172035
1.176411716172036
1.176411716172036
1.176411716172036
1.176411716172036
1.176411716172036
1.176411716172036
1.176411716172036
1.176411716172037
1.176411716172037
1.176411716172036
1.176411716172035
1.176411716172035
1.176411716172035
1.176411716172035
1.176411716172035
1.176411716172036
1.176411716172036
1.176411716172036
1.176411716172036
1.176411716172036
1.176411716172036
1.176411716172036
1.176411716172036
1.176411716172036
1.176411716172036
1.176411716172036
1.176411716172035
1.176411716172035
1.176411716172035
1.176411716172036
1.176411716172036
1.176411716172036
1.176411716172036
1.176411716172035
1.176411716172035
1.176411716172035
1.176411716172034
1.176411716172034
1.176411716172034
1.176411716172033
1.176411716172033
1.176411716172033
1.176411716172033
1.176411716172033
1.176411716172033
1.176411716172034
1.176411716172034
1.176411716172034
1.176411716172034
1.176411716172035
1.176411716172035
1.176411716172035
1.176411716172035
1.176411716172034
1.176411716172034
1.176411716172033
1.176411716172033
1.176411716172033
1.176411716172033
1.176411716172034
1.176411716172034
1.176411716172034
1.176411716172034
1.176411716172034
1.176411716172032
1.176411716172031
1.17641171617203
1.17641171617203
1.17641171617203
1.176411716172029
1.176411716172028
1.176411716172027
1.176411716172026
1.176411716172026
1.176411716172026
1.176411716172026
1.176411716172026
1.176411716172026
1.176411716172025
1.176411716172024
1.176411716172023
1.176411716172022
1.176411716172022
1.176411716172022
1.176411716172021
1.176411716172022
1.176411716172022
1.176411716172022
1.176411716172022
1.176411716172021
1.176411716172022
1.176411716172021
1.176411716172021
1.176411716172021
1.176411716172022
1.176411716172022
1.176411716172022
1.176411716172023
1.176411716172024
1.176411716172023
1.176411716172024
1.176411716172024
1.176411716172025
1.176411716172025
1.176411716172026
1.176411716172026
)
;

boundaryField
{
    inlet
    {
        type            calculated;
        value           uniform 1.176395950917642;
    }
    outlet
    {
        type            calculated;
        value           uniform 1.176411716172017;
    }
    frontAndBack
    {
        type            empty;
    }
}


// ************************************************************************* //
