/*--------------------------------*- C++ -*----------------------------------*\
| =========                 |                                                 |
| \\      /  F ield         | OpenFOAM: The Open Source CFD Toolbox           |
|  \\    /   O peration     | Version:  v2012                                 |
|   \\  /    A nd           | Website:  www.openfoam.com                      |
|    \\/     M anipulation  |                                                 |
\*---------------------------------------------------------------------------*/
FoamFile
{
    version     2.0;
    format      ascii;
    class       volScalarField;
    location    "0.005";
    object      T;
}
// * * * * * * * * * * * * * * * * * * * * * * * * * * * * * * * * * * * * * //

dimensions      [0 0 0 1 0 0 0];


internalField   nonuniform List<scalar> 
1000
(
299.9878127661328
299.9895852476858
299.9832747935415
299.978619823171
299.9741736011422
299.9703154263316
299.9667882570561
299.9635972554249
299.9608115658322
299.9589714370879
299.9585197726846
299.9585929297919
299.9589598385055
299.9598169514408
299.9614571729072
299.9639621666533
299.9672456799616
299.9711585276815
299.975575906633
299.9804118050869
299.9855956721046
299.9910507121822
299.9966860661222
300.002396710696
300.0080667306638
300.0135790638281
300.0188339026369
300.0237713679817
300.0283847010978
300.0326854313379
300.0365425718736
300.0394058065365
300.0406295907627
300.0407684853325
300.0407071389299
300.0404829597722
300.0398563605726
300.038627679545
300.0366201471273
300.0337532801228
300.0300607931238
300.0256722898334
300.0207602970504
300.0154865381349
300.0099767791036
300.004327049566
299.9986223298295
299.9929494624049
299.987397156037
299.9820409379826
299.9769186447859
299.9720284490108
299.9674138130594
299.9633912265767
299.9607162322398
299.9598055711606
299.9597436619237
299.9597783701828
299.9599991136474
299.9605429241202
299.9616006796002
299.9633343696666
299.965859390027
299.9692125149393
299.973341672154
299.978118002138
299.9833684138742
299.988915718414
299.9946084895263
300.0003301801753
300.0059937993078
300.0115383381585
300.0169333211019
300.0221775378068
300.0272659801882
300.0320902039439
300.0362370177698
300.0389062806978
300.0397835539859
300.0398475410604
300.0397997527978
300.0396260548178
300.0391636432319
300.0382649320875
300.0367731598092
300.0345605897172
300.0315507227247
300.027738447804
300.0231952160075
300.0180569688423
300.012499062942
300.006705361701
300.0008383782516
299.9950176824293
299.9893122691859
299.9837462519613
299.978315219718
299.9730290655775
299.9680330395063
299.9638354223504
299.9612947425006
299.9605548380114
299.9605173349992
299.9605480646563
299.9607242489226
299.9611520346361
299.9619806511022
299.963350163391
299.9653836331511
299.9681652973519
299.9717240432487
299.9760224252082
299.980957343732
299.9863755652815
299.9921003439983
299.9979605693209
300.0038161443783
300.0095768642377
300.0152091876133
300.0207191496195
300.0260960261404
300.031191269713
300.0355151936572
300.038225829077
300.0390932347651
300.0391594778225
300.0391234905846
300.0389898245706
300.0386285782836
300.0379181945235
300.0367233317214
300.0349200434916
300.0324102461383
300.0291392756318
300.0251086873628
300.0203815609647
300.0150783784603
300.0093614126098
300.0034074931651
299.9973756851558
299.9913817445385
299.9854888893333
299.9797210894321
299.9741159453184
299.9688593733414
299.9645085805562
299.9619263673098
299.9611828999081
299.9611408604515
299.9611640017225
299.9613028365059
299.9616477327738
299.9623236778551
299.9634528516901
299.9651510092165
299.9675123059645
299.9705958239628
299.9744126819475
299.9789185612794
299.9840158231717
299.9895656735142
299.9954079209199
300.0013862033349
300.0073749660838
300.0132975245152
300.01911856845
300.024793391905
300.0301483519232
300.0346793287802
300.0375421325609
300.0384943533867
300.0385791211371
300.0385530440907
300.0384529409633
300.0381680452529
300.0375944909989
300.036612467077
300.0351067623649
300.0329762648907
300.0301473856584
300.0265857150386
300.0223048780221
300.0173707220347
300.011897234604
300.0060310259444
299.9999267327978
299.9937215728847
299.9875184960275
299.9813890236292
299.9754193268146
299.9698428325801
299.9652564423395
299.9625340182008
299.961727454247
299.9616722040552
299.9616896090662
299.9618003533587
299.9620815842845
299.9626417774563
299.9635895295197
299.965032448619
299.9670654097964
299.9697599652669
299.9731530156268
299.9772381597013
299.9819628265305
299.9872320753425
299.9929189053526
299.9988819154605
300.0049888483559
300.0111365680028
300.0172508669892
300.0232463336285
300.0289170919223
300.0337416426136
300.036857570205
300.0379595845136
300.0380769472818
300.0380586544147
300.0379830060184
300.0377555667303
300.0372861231755
300.0364680001258
300.0351949144387
300.0333675355723
300.0309041654532
300.0277505859805
300.0238889949347
300.0193447874802
300.0141878869953
300.0085252540806
300.0024853534601
299.9961994844678
299.9897860955057
299.9833488825054
299.9770155165509
299.9710637402072
299.9661341445976
299.9631511312235
299.962219597389
299.9621423011292
299.9621535483494
299.9622402557665
299.9624693869873
299.9629377595042
299.9637425499994
299.9649828288062
299.9667503219949
299.9691213416677
299.9721473049324
299.9758465115041
299.9801994176061
299.9851480866672
299.9906004509954
299.9964414137531
300.0025505705516
300.0088190560882
300.0151515011693
300.0214343183571
300.0274384998365
300.0326307396507
300.0361129346324
300.0374519774729
300.037625667151
300.0376140933836
300.037559449364
300.0373790183477
300.036993560113
300.0363066596954
300.0352207268813
300.0336408570817
300.0314831200087
300.0286824927603
300.0252009653096
300.0210348323092
300.0162184638094
300.0108218169685
300.0049418074013
299.998690159378
299.992181562214
299.9855319260334
299.9788929544141
299.9725690706932
299.9672250040451
299.9638480693909
299.9626897076015
299.9625674244355
299.962574252479
299.9626410681389
299.9628271031985
299.9632191242125
299.963905437058
299.9649779203772
299.9665244868129
299.9686225444823
299.9713312274419
299.9746844159033
299.9786858294237
299.9833064040924
299.988484914238
299.9941343403522
300.0001541916341
300.0064428414004
300.0128990678937
300.0193968621433
300.0257013843537
300.0312891541849
300.0352380757005
300.0369315273745
300.0372077978216
300.0372034279169
300.0371669494534
300.0370259030942
300.0367110323657
300.0361336981553
300.0352036768897
300.0338309405656
300.0319321605151
300.0294369468895
300.0262947509453
300.0224816431886
300.0180048874871
300.0129033454561
300.0072436747376
300.0011135373152
299.9946139479631
299.9878589061424
299.981005734372
299.9743593879278
299.9685731932797
299.9646837920398
299.9631736073878
299.962966582649
299.9629679087636
299.963016765302
299.9631646109531
299.963490439635
299.9640755110137
299.9650054584835
299.9663640197172
299.9682278114221
299.9706599893752
299.9737044499918
299.9773811678066
299.9816826623849
299.9865727323584
299.9919898104951
299.9978549606116
300.004079907998
300.0105675623988
300.0171924533223
300.0237306647676
300.0296946027738
300.034174387721
300.036352824917
300.0368066554219
300.0368176447913
300.0367950804504
300.0366876339783
300.0364331962645
300.0359497997063
300.0351533008435
300.0339581479348
300.0322826777609
300.0300541050285
300.0272142890869
300.0237254993526
300.0195749590479
300.0147770253584
300.009372576564
300.0034257209877
299.9970193986391
299.9902568381598
299.9832877655701
299.9763969459233
299.9701910979019
299.9657133826319
299.9637127717866
299.9633529000542
299.9633472311787
299.9633782074349
299.9634919893778
299.963758366048
299.9642536917767
299.965058724758
299.9662534585277
299.9679128716427
299.9701018522113
299.9728705136133
299.9762499839185
299.980248592091
299.9848497180038
299.9900132486719
299.9956802930357
300.0017777666825
300.0082181646628
300.0148849589695
300.021576297473
300.0278598581353
300.0328814541429
300.035660560253
300.0364022724716
300.0364485299827
300.0364356981536
300.0363567453142
300.0361550643566
300.0357538196812
300.0350741698295
300.0340344089929
300.0325549211516
300.0305620864845
300.0279930794595
300.024800857537
300.0209583672962
300.0164613228488
300.011329440379
300.0056058688955
299.9993553820819
299.9926666095866
299.9856736107079
299.9786285034256
299.9720673668129
299.9669835044724
299.9643578884655
299.9637386763889
299.9637092380177
299.9637289749247
299.9638129627112
299.9640273986596
299.964443245309
299.965137337569
299.9661865018858
299.9676640594213
299.9696357962135
299.972155907366
299.9752630427819
299.9789768752395
299.9832959798461
299.9881977454447
299.9936402527311
299.9995649411562
300.0058968814765
300.0125336565997
300.0193000267072
300.0258263005348
300.0313486728664
300.0348007414232
300.0359627457324
300.0360845082573
300.0360774890356
300.0360246155738
300.0358699573382
300.0355429932974
300.0349683175463
300.0340675921483
300.0327631243545
300.0309812288283
300.0286563731696
300.0257355170143
300.0221816209435
300.017976396588
300.0131228528329
300.0076467387076
300.0015960910202
299.9950433487562
299.9881032007855
299.9809910478236
299.974162453843
299.9685130508479
299.9651677126976
299.9641495442234
299.9640608544861
299.9640742090312
299.9641320485201
299.9643009324586
299.964645578461
299.9652399636837
299.9661581999971
299.9674721243929
299.9692475987122
299.971541394097
299.9743977537037
299.9778448125454
299.9818922447852
299.9865309830143
299.9917338901471
299.9974560477399
300.0036341040348
300.010179319237
300.0169444433099
300.0236253016469
300.0295710393264
300.0337216783262
300.0354558023574
300.0357327712826
300.0357369535017
300.0357006131766
300.0355853971828
300.0353213878248
300.0348383679361
300.0340606026804
300.0329123998286
300.031320623708
300.029218242707
300.0265478339072
300.0232648484188
300.019340706631
300.0147656240392
300.0095504476131
300.003727593277
299.9973543358711
299.9905268819852
299.9834241822408
299.9764206479368
299.9702885163125
299.9661928102989
299.9646279453121
299.9644160918568
299.964419771342
299.9644577558379
299.9645854241488
299.9648652951121
299.965368304676
299.966166353305
299.9673300306058
299.968925386565
299.9710110121359
299.9736349055496
299.9768314309574
299.9806191206397
299.9849995580697
299.9899568868152
299.995457709764
300.0014507384828
300.0078613422117
300.0145665197719
300.0213200091354
300.0275887326594
300.0323963008931
300.0348234363889
300.0353725736413
300.0353958676993
300.035376037846
300.0352935528634
300.0350854105636
300.0346844068429
300.0340174708986
300.0330107745162
300.0315920870262
300.029693624594
300.0272550339235
300.0242264887582
300.0205717259866
300.016270785365
300.0113222702417
300.0057454223373
299.999583730968
299.9929155485171
299.9858866379359
299.9787986087886
299.9722921556949
299.9674734340148
299.9652162695839
299.96476994514
299.9647576453061
299.9647804678702
299.9648737850177
299.965097300043
299.9655184491447
299.9662074961918
299.9672339994977
299.9686640396969
299.9705575070292
299.9729652203504
299.975926224605
299.9794657639924
299.9835938915705
299.9883043648877
299.9935739983923
299.9993622499629
300.005607251876
300.0122073465033
300.0189648058031
300.0254522543651
300.0308213116854
300.0340022528677
300.0349705375074
300.035054596038
300.0350431904916
300.0349878249999
300.0348282345877
300.0345011309129
300.033935858243
300.0330601648919
300.0318023143371
300.0300939302037
300.027872542411
300.0250842555797
300.0216867677224
300.0176523641973
300.0129702389814
300.0076485792168
300.0017183192424
299.995242057401
299.9883378453505
299.9812451119256
299.9744785608983
299.9690198946437
299.9659752771925
299.9651478316093
299.9650911071782
299.9651023842367
299.9651675844963
299.9653410887767
299.9656889323037
299.9662790803454
299.9671801135427
299.9684578857043
299.9701730573662
299.9723785258044
299.9751170419494
299.9784191986123
299.9823017435889
299.9867662422715
299.9917983210634
299.9973670219028
300.0034215227772
300.009878018353
300.0165794075415
300.0231912945556
300.0290117560214
300.032954000993
300.0345024826113
300.034723075483
300.0347210135661
300.0346860527914
300.0345676498392
300.0343051484888
300.0338300961912
300.0330718481353
300.0319596041063
300.0304249324361
300.0284041406489
300.0258407478098
300.0226880973655
300.0189120282404
300.0144935014112
300.0094312756869
300.0037453591885
299.9974838071825
299.9907406635419
299.98370570953
299.9767870419119
299.9708140907996
299.9669649133605
299.9655928982729
299.9654289381604
299.9654334689774
299.9654758365522
299.9656067833493
299.9658884406572
299.966387287451
299.9671709105325
299.9683052480268
299.96985194904
299.9718658766356
299.9743929065993
299.9774680214792
299.9811134975084
299.9853373187627
299.9901322698571
299.9954752903012
300.0013247844354
300.0076109696413
300.014207386108
300.0208542462855
300.0269945969384
300.0316366135037
300.0339129592322
300.0344037857707
300.0344221740302
300.0344059386579
300.0343299201986
300.0341431761171
300.0337853957461
300.0331950277517
300.032311872886
300.0310807802902
300.0294551439086
300.027400777383
300.0249001385711
300.0219570917975
300.0186029588994
300.0149065500414
300.0109958536674
300.0071069489118
300.0036643306914
300.0012662235717
300.0002200040211
300.0000130383414
300.0000001719219
300.0000000003162
299.9999999999799
299.9999999999799
299.9999999999799
299.99999999998
299.9999999999802
299.9999999999806
299.9999999999809
299.9999999999811
299.9999999999813
299.9999999999814
299.9999999999814
299.9999999999814
299.9999999999814
299.9999999999814
299.9999999999816
299.999999999982
299.9999999999821
299.9999999999821
299.9999999999819
299.9999999999817
299.9999999999816
299.9999999999818
299.9999999999817
299.9999999999816
299.9999999999818
299.9999999999818
299.9999999999819
299.999999999982
299.9999999999821
299.9999999999822
299.9999999999824
299.9999999999824
299.9999999999824
299.9999999999824
299.9999999999824
299.9999999999824
299.9999999999825
299.9999999999825
299.9999999999824
299.9999999999822
299.9999999999822
299.9999999999823
299.9999999999822
299.9999999999821
299.999999999982
299.999999999982
299.9999999999821
299.9999999999822
299.9999999999822
299.9999999999823
299.9999999999823
299.9999999999825
299.9999999999827
299.9999999999828
299.9999999999828
299.9999999999829
299.9999999999829
299.9999999999829
299.9999999999829
299.9999999999828
299.9999999999827
299.9999999999828
299.9999999999828
299.9999999999828
299.9999999999828
299.9999999999828
299.9999999999828
299.9999999999827
299.9999999999827
299.9999999999825
299.9999999999824
299.9999999999825
299.9999999999827
299.9999999999828
299.9999999999829
299.999999999983
299.9999999999829
299.9999999999828
299.9999999999828
299.9999999999828
299.9999999999828
299.9999999999828
299.9999999999828
299.9999999999829
299.9999999999829
299.9999999999829
299.9999999999828
299.9999999999827
299.9999999999825
299.9999999999825
299.9999999999827
299.9999999999827
299.9999999999826
299.9999999999826
299.9999999999827
299.9999999999827
299.9999999999828
299.9999999999827
299.9999999999828
299.9999999999828
299.9999999999828
299.9999999999827
299.9999999999827
299.9999999999826
299.9999999999825
299.9999999999825
299.9999999999826
299.9999999999825
299.9999999999825
299.9999999999826
299.9999999999828
299.999999999983
299.999999999983
299.9999999999831
299.999999999983
299.9999999999829
299.9999999999828
299.9999999999827
299.9999999999825
299.9999999999825
299.9999999999825
299.9999999999825
299.9999999999824
299.9999999999824
299.9999999999824
299.9999999999825
299.9999999999825
299.9999999999825
299.9999999999825
299.9999999999825
299.9999999999825
299.9999999999825
299.9999999999827
299.9999999999826
299.9999999999827
299.9999999999829
299.9999999999831
299.9999999999829
299.9999999999829
299.9999999999831
299.9999999999829
299.999999999983
299.9999999999831
299.9999999999831
299.999999999983
299.9999999999828
299.9999999999827
299.9999999999825
299.9999999999825
299.9999999999825
299.9999999999827
299.9999999999828
299.9999999999829
299.9999999999829
299.9999999999829
299.9999999999829
299.9999999999829
299.9999999999828
299.9999999999828
299.9999999999827
299.9999999999825
299.9999999999824
299.9999999999824
299.9999999999824
299.9999999999824
299.9999999999825
299.9999999999826
299.9999999999825
299.9999999999825
299.9999999999825
299.9999999999825
299.9999999999825
299.9999999999824
299.9999999999824
299.9999999999824
299.9999999999824
299.9999999999823
299.9999999999823
299.9999999999823
299.9999999999822
299.9999999999821
299.999999999982
299.9999999999821
299.999999999982
299.9999999999819
299.9999999999819
299.9999999999819
299.9999999999818
299.9999999999818
299.9999999999818
299.9999999999818
299.9999999999819
299.9999999999819
299.9999999999819
299.9999999999819
299.9999999999819
299.999999999982
299.999999999982
299.999999999982
299.9999999999819
299.999999999982
299.999999999982
299.999999999982
299.9999999999819
299.999999999982
299.999999999982
299.9999999999819
299.9999999999818
299.9999999999818
299.9999999999818
299.9999999999818
299.9999999999818
299.9999999999818
299.9999999999818
299.9999999999818
299.9999999999819
299.999999999982
299.9999999999819
299.999999999982
299.999999999982
299.999999999982
299.999999999982
299.999999999982
299.999999999982
299.999999999982
299.999999999982
299.9999999999819
299.9999999999818
299.9999999999818
299.9999999999818
299.9999999999818
299.9999999999818
299.9999999999818
299.9999999999818
299.9999999999818
299.9999999999818
299.9999999999818
299.9999999999819
299.9999999999818
299.9999999999818
299.9999999999817
299.9999999999816
299.9999999999816
299.9999999999817
299.9999999999818
299.9999999999819
299.9999999999819
299.9999999999818
299.9999999999818
299.9999999999818
299.9999999999818
299.9999999999817
299.9999999999817
299.9999999999817
299.9999999999816
299.9999999999816
299.9999999999815
299.9999999999815
299.9999999999815
299.9999999999815
299.9999999999814
299.9999999999814
299.9999999999813
299.9999999999811
299.999999999981
299.999999999981
299.999999999981
299.999999999981
299.999999999981
299.999999999981
299.9999999999809
299.9999999999808
299.9999999999807
299.9999999999807
299.9999999999806
299.9999999999807
299.9999999999806
299.9999999999805
299.9999999999806
299.9999999999804
299.9999999999804
299.9999999999806
299.9999999999807
299.9999999999808
299.999999999981
299.9999999999811
299.9999999999812
299.9999999999811
299.9999999999808
299.9999999999807
299.9999999999806
299.9999999999805
299.9999999999806
299.9999999999806
299.9999999999806
299.9999999999805
299.9999999999806
299.9999999999805
)
;

boundaryField
{
    inlet
    {
        type            fixedValue;
        value           uniform 300;
    }
    outlet
    {
        type            temperatureOutletNSCBC;
        pInf            101325;
        gamma           1.4;
        etaAc           1;
        fieldInf        1;
        lInf            2.25;
        value           uniform 299.9999999999828;
    }
    frontAndBack
    {
        type            empty;
    }
}


// ************************************************************************* //
