/*--------------------------------*- C++ -*----------------------------------*\
| =========                 |                                                 |
| \\      /  F ield         | OpenFOAM: The Open Source CFD Toolbox           |
|  \\    /   O peration     | Version:  v2012                                 |
|   \\  /    A nd           | Website:  www.openfoam.com                      |
|    \\/     M anipulation  |                                                 |
\*---------------------------------------------------------------------------*/
FoamFile
{
    version     2.0;
    format      ascii;
    class       volVectorField;
    location    "0.005";
    object      U;
}
// * * * * * * * * * * * * * * * * * * * * * * * * * * * * * * * * * * * * * //

dimensions      [0 1 -1 0 0 0 0];


internalField   nonuniform List<vector> 
1000
(
(-0.002789561155808811 0 0)
(-0.03444155208537515 0 0)
(-0.04263142984580411 0 0)
(-0.05778765894288334 0 0)
(-0.07165693958621601 0 0)
(-0.08457906725092627 0 0)
(-0.09561146128681781 0 0)
(-0.1050477099540715 0 0)
(-0.1131948879032326 0 0)
(-0.1186888458214184 0 0)
(-0.1201341712340198 0 0)
(-0.1199742042674066 0 0)
(-0.119168546342806 0 0)
(-0.1166545255875315 0 0)
(-0.1118152446278879 0 0)
(-0.1044585189284988 0 0)
(-0.09486646337698883 0 0)
(-0.08347112196769874 0 0)
(-0.07063489856227963 0 0)
(-0.0566077493329871 0 0)
(-0.04158923237850742 0 0)
(-0.02579833904579244 0 0)
(-0.009503994751403936 0 0)
(0.006987236694886869 0 0)
(0.02335698321005401 0 0)
(0.03928718804401808 0 0)
(0.05448122423457952 0 0)
(0.06874106076917784 0 0)
(0.08205588212669587 0 0)
(0.09450204772209979 0 0)
(0.1056999866129383 0 0)
(0.1139896610788956 0 0)
(0.1174913006085532 0 0)
(0.1178754255716146 0 0)
(0.1177852432076833 0 0)
(0.1170848745223189 0 0)
(0.1152889860371424 0 0)
(0.1117307066044909 0 0)
(0.1059213451409473 0 0)
(0.09762697587842104 0 0)
(0.08694744311149157 0 0)
(0.07425398960581568 0 0)
(0.06004305285456366 0 0)
(0.04478721918636094 0 0)
(0.02885499382960944 0 0)
(0.01251770981114436 0 0)
(-0.003987996531673378 0 0)
(-0.02040391628329051 0 0)
(-0.03645803688969287 0 0)
(-0.05193837273344916 0 0)
(-0.06676071459296463 0 0)
(-0.08092807155019674 0 0)
(-0.09427554969581815 0 0)
(-0.1058800634211849 0 0)
(-0.113609459139611 0 0)
(-0.116281319211201 0 0)
(-0.116484915768079 0 0)
(-0.1163178673620635 0 0)
(-0.1157199576415917 0 0)
(-0.1141345773221449 0 0)
(-0.1110766035665711 0 0)
(-0.1060623837552452 0 0)
(-0.0987587459966993 0 0)
(-0.08905755255592673 0 0)
(-0.07711256457146708 0 0)
(-0.06329878509180045 0 0)
(-0.04811292374651607 0 0)
(-0.03206354268728112 0 0)
(-0.01559371933893668 0 0)
(0.0009521845037269758 0 0)
(0.01732827095733901 0 0)
(0.0333706344753323 0 0)
(0.04898593012981532 0 0)
(0.06414991461260226 0 0)
(0.07885011744415046 0 0)
(0.09280506325730278 0 0)
(0.1048249944006451 0 0)
(0.1125518415087862 0 0)
(0.1150586321289873 0 0)
(0.1152245151997316 0 0)
(0.1151400776510439 0 0)
(0.114604491899248 0 0)
(0.1132770648814519 0 0)
(0.1106762871278142 0 0)
(0.1063608709979838 0 0)
(0.0999607831723018 0 0)
(0.09125660804631217 0 0)
(0.08023097738676888 0 0)
(0.06708812919866472 0 0)
(0.05222447606031481 0 0)
(0.0361512592124242 0 0)
(0.01939633824976248 0 0)
(0.002422743474547991 0 0)
(-0.01441963552592262 0 0)
(-0.03091942527510546 0 0)
(-0.04700957325422107 0 0)
(-0.06272185738480132 0 0)
(-0.07802899734602516 0 0)
(-0.09248219874524675 0 0)
(-0.1046022168257501 0 0)
(-0.1119416487000249 0 0)
(-0.1141067894188895 0 0)
(-0.1142386611605601 0 0)
(-0.114100916242824 0 0)
(-0.1136189118935866 0 0)
(-0.112373379415006 0 0)
(-0.1099775714323836 0 0)
(-0.1060166061731254 0 0)
(-0.1001347663203349 0 0)
(-0.09208704552623539 0 0)
(-0.08179221301319207 0 0)
(-0.06936029963714947 0 0)
(-0.05508651176864198 0 0)
(-0.03941122995640387 0 0)
(-0.02284970311024569 0 0)
(-0.005902064604121028 0 0)
(0.01103109199953069 0 0)
(0.02769786170933078 0 0)
(0.04399669539841318 0 0)
(0.05992991540897834 0 0)
(0.07546922342828884 0 0)
(0.09020882946152557 0 0)
(0.1027341654320395 0 0)
(0.1105773091011984 0 0)
(0.1130644517028558 0 0)
(0.1132419388668425 0 0)
(0.1131782822622026 0 0)
(0.1127662184380964 0 0)
(0.1117291409253353 0 0)
(0.1096733406983024 0 0)
(0.106216936935684 0 0)
(0.1010007927820836 0 0)
(0.09374259293073615 0 0)
(0.08428233987465526 0 0)
(0.07262283066651287 0 0)
(0.05894895794134546 0 0)
(0.04361195217638821 0 0)
(0.02707793946981878 0 0)
(0.009853558127483336 0 0)
(-0.007597437962358504 0 0)
(-0.02493202178282023 0 0)
(-0.04197066663780817 0 0)
(-0.05865759721785681 0 0)
(-0.07488272181452567 0 0)
(-0.09008730434753405 0 0)
(-0.1026561183850161 0 0)
(-0.1101209161992185 0 0)
(-0.1122910907542502 0 0)
(-0.1124259508642426 0 0)
(-0.1123243254440901 0 0)
(-0.1119436439428093 0 0)
(-0.1109396128271325 0 0)
(-0.1089852929194355 0 0)
(-0.1057194747158001 0 0)
(-0.1008073901616145 0 0)
(-0.0939758308229529 0 0)
(-0.08505596702580423 0 0)
(-0.07401669823320889 0 0)
(-0.06098341792383042 0 0)
(-0.04623668534008475 0 0)
(-0.03018190978460174 0 0)
(-0.01328613433334266 0 0)
(0.00400333334996777 0 0)
(0.02133007854388445 0 0)
(0.03846653640903898 0 0)
(0.05529857971188514 0 0)
(0.07170235243015659 0 0)
(0.08719548673554645 0 0)
(0.1003167318137128 0 0)
(0.1085959989134785 0 0)
(0.1113312030591676 0 0)
(0.1115674150116894 0 0)
(0.1115271996292228 0 0)
(0.1112135723628141 0 0)
(0.1103972354003709 0 0)
(0.1087370757024964 0 0)
(0.1058963990389317 0 0)
(0.1015410624643992 0 0)
(0.09537976162643924 0 0)
(0.08719804291254289 0 0)
(0.07689508699266825 0 0)
(0.06451240709146353 0 0)
(0.05024253542663192 0 0)
(0.03441227588249152 0 0)
(0.01744198246918266 0 0)
(-0.0002175987042326267 0 0)
(-0.01816324477542674 0 0)
(-0.03610083054319708 0 0)
(-0.05383410455137976 0 0)
(-0.07111113556175734 0 0)
(-0.08723995081685917 0 0)
(-0.1004936073414441 0 0)
(-0.1083669153282711 0 0)
(-0.1107154154656995 0 0)
(-0.110884904889454 0 0)
(-0.1108061201327444 0 0)
(-0.110503814136255 0 0)
(-0.1096846265125842 0 0)
(-0.1080651300252571 0 0)
(-0.1053239893464889 0 0)
(-0.1011501319520634 0 0)
(-0.09526854722362339 0 0)
(-0.08747399748801397 0 0)
(-0.07766034830247488 0 0)
(-0.0658437296561051 0 0)
(-0.05217511379696323 0 0)
(-0.03693259716499426 0 0)
(-0.02048587778092607 0 0)
(-0.003239331997389486 0 0)
(0.01442897818991412 0 0)
(0.03221478074931054 0 0)
(0.04989499511586148 0 0)
(0.06722939624071597 0 0)
(0.08363715378628572 0 0)
(0.09760324421374388 0 0)
(0.1066118318576406 0 0)
(0.109784981290455 0 0)
(0.1101194396364899 0 0)
(0.1100950074857336 0 0)
(0.1098548558113051 0 0)
(0.1092042799033568 0 0)
(0.1078451720317053 0 0)
(0.1054785975200035 0 0)
(0.1017962030627362 0 0)
(0.09651155975352856 0 0)
(0.08938682506723501 0 0)
(0.08026432313321326 0 0)
(0.0690946411568386 0 0)
(0.05595264158633009 0 0)
(0.04103757461128241 0 0)
(0.02465613320342983 0 0)
(0.007183798204371245 0 0)
(-0.01099486301052661 0 0)
(-0.02954208587255605 0 0)
(-0.04816644016781432 0 0)
(-0.06649348491087584 0 0)
(-0.08370569970546728 0 0)
(-0.09795413034876718 0 0)
(-0.1065849543167786 0 0)
(-0.109293003176452 0 0)
(-0.109521950417822 0 0)
(-0.1094645967306147 0 0)
(-0.1092313150367205 0 0)
(-0.1085626782724254 0 0)
(-0.1072089739427144 0 0)
(-0.1048812614478644 0 0)
(-0.1012934559145923 0 0)
(-0.09617993651871611 0 0)
(-0.08932146913890868 0 0)
(-0.08056945755611213 0 0)
(-0.0698688531855531 0 0)
(-0.05727582937854399 0 0)
(-0.04296116918890194 0 0)
(-0.02719233230843661 0 0)
(-0.01029773081452478 0 0)
(0.007376959214444762 0 0)
(0.02551050803547865 0 0)
(0.04382147527999936 0 0)
(0.06198957543718451 0 0)
(0.07936301267450142 0 0)
(0.09438933474761861 0 0)
(0.1044549166717858 0 0)
(0.10831685550912 0 0)
(0.1088168100653916 0 0)
(0.1088089269163717 0 0)
(0.10862956362939 0 0)
(0.1081154029465164 0 0)
(0.1069989381561656 0 0)
(0.1050120711837741 0 0)
(0.1018710898217243 0 0)
(0.09730213608741364 0 0)
(0.09106123508738043 0 0)
(0.08295990266169208 0 0)
(0.07288983008229495 0 0)
(0.0608410017562851 0 0)
(0.04691040951868845 0 0)
(0.03129890680317385 0 0)
(0.01429009534435364 0 0)
(-0.003790071037572952 0 0)
(-0.02261428641570985 0 0)
(-0.04185261282444039 0 0)
(-0.06106085575590297 0 0)
(-0.07934912296782458 0 0)
(-0.0948003550613223 0 0)
(-0.1045721211308935 0 0)
(-0.1079320138892884 0 0)
(-0.1082884678867845 0 0)
(-0.108249903219968 0 0)
(-0.1080712062603165 0 0)
(-0.1075278662038302 0 0)
(-0.1063950364036653 0 0)
(-0.1044099649633952 0 0)
(-0.101307420914952 0 0)
(-0.09683311044194272 0 0)
(-0.0907644166312144 0 0)
(-0.08292998158241836 0 0)
(-0.07322995663761925 0 0)
(-0.06165391244762945 0 0)
(-0.04828880413895549 0 0)
(-0.03331174888755382 0 0)
(-0.01697017998781231 0 0)
(0.0004459995927373814 0 0)
(0.0186363891471882 0 0)
(0.03730546331382122 0 0)
(0.05609792325943536 0 0)
(0.07434081218156452 0 0)
(0.09050781206668322 0 0)
(0.1019218806641847 0 0)
(0.1068116487548241 0 0)
(0.1076102551426808 0 0)
(0.1076218427012282 0 0)
(0.1074936506952895 0 0)
(0.1070945071007252 0 0)
(0.1061817499514553 0 0)
(0.104511976536837 0 0)
(0.1018220304974456 0 0)
(0.09785201287305716 0 0)
(0.09235996532848204 0 0)
(0.08514225684305547 0 0)
(0.0760539229764652 0 0)
(0.06502586893475214 0 0)
(0.05207718430788993 0 0)
(0.03731974634840046 0 0)
(0.02094908918122142 0 0)
(0.003219980477989189 0 0)
(-0.01557940851091592 0 0)
(-0.03512215712065234 0 0)
(-0.05494778890136644 0 0)
(-0.07416869851065179 0 0)
(-0.09090184140788296 0 0)
(-0.10215683235553 0 0)
(-0.1065313793308294 0 0)
(-0.1071313143966944 0 0)
(-0.1071122084820563 0 0)
(-0.1069841154595316 0 0)
(-0.1065513797230964 0 0)
(-0.1056101278519898 0 0)
(-0.1039177976390651 0 0)
(-0.1012274916315185 0 0)
(-0.09729719024234104 0 0)
(-0.09190626712433601 0 0)
(-0.08487140243740912 0 0)
(-0.07606420138435886 0 0)
(-0.06542774879332454 0 0)
(-0.05298597144590489 0 0)
(-0.03884266985890982 0 0)
(-0.02317240046803324 0 0)
(-0.006204333345145723 0 0)
(0.01180054396964794 0 0)
(0.03056138377257908 0 0)
(0.04972383211666532 0 0)
(0.06864212363767026 0 0)
(0.08589392538610874 0 0)
(0.09884229404776643 0 0)
(0.1051373417509554 0 0)
(0.1064579881352564 0 0)
(0.1065027975079342 0 0)
(0.1064175601566464 0 0)
(0.1061166324114572 0 0)
(0.1053781618603276 0 0)
(0.1039803764444961 0 0)
(0.1016766188477998 0 0)
(0.09821997043054882 0 0)
(0.0933738019743144 0 0)
(0.08692773362356838 0 0)
(0.07871406210460928 0 0)
(0.06862345144353903 0 0)
(0.05661817885168691 0 0)
(0.04273991172152658 0 0)
(0.02710797494675259 0 0)
(0.00990766856525036 0 0)
(-0.008622879688039852 0 0)
(-0.02818533823011347 0 0)
(-0.04834406541092266 0 0)
(-0.06827449635640297 0 0)
(-0.086225130983412 0 0)
(-0.0991798777512946 0 0)
(-0.1049695582952426 0 0)
(-0.1060080331371284 0 0)
(-0.1060204585915857 0 0)
(-0.1059365350000984 0 0)
(-0.1056045738410966 0 0)
(-0.1048348921155313 0 0)
(-0.1034021160243943 0 0)
(-0.1010731043765962 0 0)
(-0.09761689661677464 0 0)
(-0.09281722257282718 0 0)
(-0.08648554879908134 0 0)
(-0.07847603252262263 0 0)
(-0.06869984328424224 0 0)
(-0.05713439378523454 0 0)
(-0.04382618527518393 0 0)
(-0.02888880283861235 0 0)
(-0.0124946644964282 0 0)
(0.005140604601047621 0 0)
(0.02376611049593727 0 0)
(0.04305166005326514 0 0)
(0.06241151221157504 0 0)
(0.0805845954765864 0 0)
(0.09510063676653141 0 0)
(0.1031378625314843 0 0)
(0.1052926665550091 0 0)
(0.1054323844190601 0 0)
(0.1053777522118765 0 0)
(0.1051603394823902 0 0)
(0.1045737900513941 0 0)
(0.103413765254045 0 0)
(0.101448005161636 0 0)
(0.0984408043437609 0 0)
(0.09416140421411581 0 0)
(0.08839719700834588 0 0)
(0.08096694397669899 0 0)
(0.07173411366255346 0 0)
(0.06061967050702733 0 0)
(0.0476117676323089 0 0)
(0.03276858670363896 0 0)
(0.01621417837276302 0 0)
(-0.001866053546657388 0 0)
(-0.02121505983971143 0 0)
(-0.0414421207294364 0 0)
(-0.06181849116895673 0 0)
(-0.0807978579379518 0 0)
(-0.09550709384787417 0 0)
(-0.1031028495192439 0 0)
(-0.1048903784482364 0 0)
(-0.1049730014580516 0 0)
(-0.104922492308473 0 0)
(-0.1046756175080158 0 0)
(-0.1040564780931475 0 0)
(-0.1028533455960316 0 0)
(-0.1008455131448742 0 0)
(-0.09781060776637102 0 0)
(-0.09353660908416565 0 0)
(-0.08783300820315855 0 0)
(-0.08054301110728504 0 0)
(-0.07155515277956243 0 0)
(-0.06081264337048037 0 0)
(-0.04831917218077351 0 0)
(-0.03413998269350142 0 0)
(-0.01839704718185162 0 0)
(-0.001260220180032245 0 0)
(0.01705467528384311 0 0)
(0.03625220433302277 0 0)
(0.05582419801107064 0 0)
(0.07469980947604644 0 0)
(0.09067141609616471 0 0)
(0.1006570212830104 0 0)
(0.1040195008943081 0 0)
(0.1043718972035759 0 0)
(0.104348109181166 0 0)
(0.1041982585995869 0 0)
(0.1037497183743515 0 0)
(0.1028041064866785 0 0)
(0.1011422279414961 0 0)
(0.0985371568844315 0 0)
(0.09476369006322412 0 0)
(0.08960960111945711 0 0)
(0.08288597841679977 0 0)
(0.07443808759544916 0 0)
(0.06415769997568375 0 0)
(0.05199374676189442 0 0)
(0.0379567550276597 0 0)
(0.02211858700694738 0 0)
(0.004614859736542422 0 0)
(-0.01434160448023232 0 0)
(-0.03441343887584539 0 0)
(-0.05498152036168245 0 0)
(-0.07473735471461128 0 0)
(-0.09108639517108047 0 0)
(-0.1007615425231384 0 0)
(-0.1036981363341911 0 0)
(-0.1039512433021014 0 0)
(-0.1039294423022 0 0)
(-0.1037500247854791 0 0)
(-0.1032655728416509 0 0)
(-0.1022677509494082 0 0)
(-0.1005481940811859 0 0)
(-0.09789213977071771 0 0)
(-0.09409182921894792 0 0)
(-0.08895574797405621 0 0)
(-0.08231986092492136 0 0)
(-0.07405767137383658 0 0)
(-0.06408768750971697 0 0)
(-0.05237972013901198 0 0)
(-0.03895993574044607 0 0)
(-0.02391027178833775 0 0)
(-0.00736143013151693 0 0)
(0.01050838482884624 0 0)
(0.02944458846927768 0 0)
(0.04901388670533385 0 0)
(0.06833173272910895 0 0)
(0.08552539811395617 0 0)
(0.09753655793057492 0 0)
(0.1025589541892541 0 0)
(0.1033596059651231 0 0)
(0.1033534206269228 0 0)
(0.1032659155555377 0 0)
(0.1029257916667489 0 0)
(0.1021637807969532 0 0)
(0.1007665836764141 0 0)
(0.09851703664397866 0 0)
(0.09519580421825266 0 0)
(0.09059184970308737 0 0)
(0.08451130538927566 0 0)
(0.07678741506246339 0 0)
(0.06729122459961492 0 0)
(0.05594100577362083 0 0)
(0.04270863609689684 0 0)
(0.02762401938147256 0 0)
(0.01078034550345438 0 0)
(-0.007654694230893867 0 0)
(-0.02740172769793128 0 0)
(-0.04794608913439875 0 0)
(-0.06820698737804283 0 0)
(-0.08594676222948454 0 0)
(-0.09779200510329283 0 0)
(-0.1023162076468556 0 0)
(-0.1029288238383144 0 0)
(-0.1029249911060343 0 0)
(-0.1028089113341564 0 0)
(-0.1024420422257375 0 0)
(-0.1016318339703032 0 0)
(-0.1001767633789563 0 0)
(-0.0978683758347932 0 0)
(-0.0945023787597378 0 0)
(-0.08988732782753676 0 0)
(-0.0838540764972629 0 0)
(-0.07626434501695628 0 0)
(-0.06701830414570306 0 0)
(-0.05606152232625983 0 0)
(-0.04339003039040966 0 0)
(-0.0290510830978213 0 0)
(-0.0131406458442138 0 0)
(0.004195028682207904 0 0)
(0.02273936487282982 0 0)
(0.04213320589825371 0 0)
(0.06166459997038275 0 0)
(0.07979650693932096 0 0)
(0.09370542664410703 0 0)
(0.1007266368048609 0 0)
(0.1023106854586903 0 0)
(0.1023754992134318 0 0)
(0.1023250555778586 0 0)
(0.102082449317636 0 0)
(0.101481547860807 0 0)
(0.100321492458446 0 0)
(0.09839250924498709 0 0)
(0.09548077151628676 0 0)
(0.09137742123207543 0 0)
(0.08588637909315848 0 0)
(0.07883303918212682 0 0)
(0.07007327632905343 0 0)
(0.05950222069079252 0 0)
(0.04706209254727298 0 0)
(0.03274874220897181 0 0)
(0.01661778782286269 0 0)
(-0.001204921168932909 0 0)
(-0.02049279495783287 0 0)
(-0.04082441793476101 0 0)
(-0.06132742941959098 0 0)
(-0.0801482934132796 0 0)
(-0.09408707790484826 0 0)
(-0.1006161980732951 0 0)
(-0.1019074155401806 0 0)
(-0.1019432490800158 0 0)
(-0.1018768239466564 0 0)
(-0.1016071739723899 0 0)
(-0.1009604482049274 0 0)
(-0.09974216842772822 0 0)
(-0.09774911930591074 0 0)
(-0.09477981237370041 0 0)
(-0.09064293518560747 0 0)
(-0.08516568539105425 0 0)
(-0.07820134831945993 0 0)
(-0.06963636097495074 0 0)
(-0.05939722717934 0 0)
(-0.04745582343344287 0 0)
(-0.03383116997929944 0 0)
(-0.01858908250197713 0 0)
(-0.001845163525698734 0 0)
(0.01621991456976639 0 0)
(0.03530901302867729 0 0)
(0.05485209083895861 0 0)
(0.07361809761800846 0 0)
(0.08915157533498538 0 0)
(0.09835126440392152 0 0)
(0.1011469277883092 0 0)
(0.1013878959113952 0 0)
(0.1013645589181954 0 0)
(0.1011976279465237 0 0)
(0.1007381908340562 0 0)
(0.09979176106575198 0 0)
(0.09815672073567513 0 0)
(0.09562379372368358 0 0)
(0.09198584735971725 0 0)
(0.08704471113271638 0 0)
(0.08061930500131968 0 0)
(0.07255427069886682 0 0)
(0.06272782297813208 0 0)
(0.05105900489011388 0 0)
(0.03751556609126232 0 0)
(0.02212217805338953 0 0)
(0.0049698356564145 0 0)
(-0.01376177410688009 0 0)
(-0.03373377695838917 0 0)
(-0.05425210752693763 0 0)
(-0.07382399731606668 0 0)
(-0.08961106931598403 0 0)
(-0.0984188404698309 0 0)
(-0.1008158276633917 0 0)
(-0.1009809711668948 0 0)
(-0.1009423407486932 0 0)
(-0.1007580058758661 0 0)
(-0.1002547240866537 0 0)
(-0.09924880205898501 0 0)
(-0.09754172271729129 0 0)
(-0.09493530469082494 0 0)
(-0.09123900814108415 0 0)
(-0.08627761258853578 0 0)
(-0.07989810351290434 0 0)
(-0.07197649300796279 0 0)
(-0.06242430229540082 0 0)
(-0.0511936160201031 0 0)
(-0.03828000370241588 0 0)
(-0.02372433901881979 0 0)
(-0.007616007303554685 0 0)
(0.009896867223634045 0 0)
(0.02857134491184046 0 0)
(0.04795449596181628 0 0)
(0.06708007296389423 0 0)
(0.08391588282354275 0 0)
(0.09531716555191923 0 0)
(0.09979477312531813 0 0)
(0.1004326964225276 0 0)
(0.1004302340934265 0 0)
(0.1003259093863814 0 0)
(0.09998465885209494 0 0)
(0.09922512603656029 0 0)
(0.09785115292250253 0 0)
(0.09565802073348015 0 0)
(0.09244101862701772 0 0)
(0.08800218517736484 0 0)
(0.08215728409319077 0 0)
(0.07474296010546815 0 0)
(0.0656242534351289 0 0)
(0.05470229278470142 0 0)
(0.0419219545094025 0 0)
(0.02727965981809862 0 0)
(0.01083327355679722 0 0)
(-0.007278331332251879 0 0)
(-0.02678325784771314 0 0)
(-0.04713249575328075 0 0)
(-0.06714546748025566 0 0)
(-0.08442300720174666 0 0)
(-0.09555746431092789 0 0)
(-0.09952639210369224 0 0)
(-0.1000007094754316 0 0)
(-0.09998727443406651 0 0)
(-0.09986502744054734 0 0)
(-0.09948604423264974 0 0)
(-0.09867138230041732 0 0)
(-0.09722845032340884 0 0)
(-0.09496158607884783 0 0)
(-0.09168020165096842 0 0)
(-0.08720624195548442 0 0)
(-0.08138079869936164 0 0)
(-0.07407077182358039 0 0)
(-0.06517528429053666 0 0)
(-0.05463058024383709 0 0)
(-0.04241322291504097 0 0)
(-0.02854305839376589 0 0)
(-0.0130872380475564 0 0)
(0.003832173912149202 0 0)
(0.02201360590413049 0 0)
(0.04109390851301925 0 0)
(0.06032166918368728 0 0)
(0.0780821091298875 0 0)
(0.09150571722420371 0 0)
(0.09808845523749324 0 0)
(0.0995114065240961 0 0)
(0.09956729843102247 0 0)
(0.09951452865049618 0 0)
(0.09929781137136502 0 0)
(0.09875684218401365 0 0)
(0.09772217347629897 0 0)
(0.0960145939205492 0 0)
(0.09346019508849916 0 0)
(0.08989942523186191 0 0)
(0.08519748006352963 0 0)
(0.07925546961002157 0 0)
(0.07202264210537435 0 0)
(0.0635101581915422 0 0)
(0.053808594501092 0 0)
(0.04311695972823015 0 0)
(0.03180543634726523 0 0)
(0.02055686697089526 0 0)
(0.01059910925037024 0 0)
(0.00366256702692918 0 0)
(0.000636364917711798 0 0)
(3.771374727707032e-05 0 0)
(4.973978672145816e-07 0 0)
(1.024514139212795e-09 0 0)
(5.156556099569384e-11 0 0)
(5.1165220775305e-11 0 0)
(5.103467505125976e-11 0 0)
(5.143501527165606e-11 0 0)
(5.17135128162707e-11 0 0)
(5.214866522973399e-11 0 0)
(5.239235058127812e-11 0 0)
(5.240105362954733e-11 0 0)
(5.226180485723861e-11 0 0)
(5.202682255396701e-11 0 0)
(5.184405854030777e-11 0 0)
(5.168740367146376e-11 0 0)
(5.163518538185013e-11 0 0)
(5.159167014049685e-11 0 0)
(5.145242136819234e-11 0 0)
(5.124354820972892e-11 0 0)
(5.104337809953472e-11 0 0)
(5.076488055491647e-11 0 0)
(5.079098969971979e-11 0 0)
(5.069525616876401e-11 0 0)
(5.07126622652995e-11 0 0)
(5.073877141010512e-11 0 0)
(5.067785007222308e-11 0 0)
(5.055600739645412e-11 0 0)
(5.036454033452771e-11 0 0)
(5.017307327260193e-11 0 0)
(4.999030925894554e-11 0 0)
(4.971181171432665e-11 0 0)
(4.95986720868299e-11 0 0)
(4.948553245932184e-11 0 0)
(4.954645379721263e-11 0 0)
(4.950293855586447e-11 0 0)
(4.973792085913558e-11 0 0)
(4.98945757279848e-11 0 0)
(4.993809096932569e-11 0 0)
(4.987716963144689e-11 0 0)
(4.963348427990274e-11 0 0)
(4.938979892836071e-11 0 0)
(4.916351967336076e-11 0 0)
(4.896334956316583e-11 0 0)
(4.885891298393713e-11 0 0)
(4.865874287374213e-11 0 0)
(4.852819714969781e-11 0 0)
(4.822359046027326e-11 0 0)
(4.796249901219765e-11 0 0)
(4.766659537103371e-11 0 0)
(4.75447526952683e-11 0 0)
(4.741420697123019e-11 0 0)
(4.732717648853695e-11 0 0)
(4.714441247487995e-11 0 0)
(4.699646065429664e-11 0 0)
(4.677888444757143e-11 0 0)
(4.666574482006705e-11 0 0)
(4.660482348218038e-11 0 0)
(4.665704177180145e-11 0 0)
(4.681369664064707e-11 0 0)
(4.679629054410852e-11 0 0)
(4.693553931641799e-11 0 0)
(4.705738199218646e-11 0 0)
(4.713570942660963e-11 0 0)
(4.713570942661679e-11 0 0)
(4.705738199218319e-11 0 0)
(4.704867894391961e-11 0 0)
(4.690943017161042e-11 0 0)
(4.682239968891709e-11 0 0)
(4.672666615795737e-11 0 0)
(4.673536920621819e-11 0 0)
(4.683110273719122e-11 0 0)
(4.684850883372166e-11 0 0)
(4.688332102680245e-11 0 0)
(4.67962905441098e-11 0 0)
(4.670926006141637e-11 0 0)
(4.665704177180355e-11 0 0)
(4.68485088337259e-11 0 0)
(4.68398057854551e-11 0 0)
(4.690072712333957e-11 0 0)
(4.687461797853871e-11 0 0)
(4.702256979910751e-11 0 0)
(4.698775760603576e-11 0 0)
(4.69616484612296e-11 0 0)
(4.701386675084644e-11 0 0)
(4.693553931642008e-11 0 0)
(4.702256979910737e-11 0 0)
(4.696164846123278e-11 0 0)
(4.69703515094949e-11 0 0)
(4.69268362681497e-11 0 0)
(4.687461797853486e-11 0 0)
(4.69790545577688e-11 0 0)
(4.691813321988091e-11 0 0)
(4.69094301716121e-11 0 0)
(4.679629054411024e-11 0 0)
(4.690072712333859e-11 0 0)
(4.689202407507745e-11 0 0)
(4.695294541295282e-11 0 0)
(4.698775760603724e-11 0 0)
(4.715311552315265e-11 0 0)
(4.742291001950078e-11 0 0)
(4.755345574354255e-11 0 0)
(4.779714109508187e-11 0 0)
(4.781454719162037e-11 0 0)
(4.811915388103894e-11 0 0)
(4.814526302585579e-11 0 0)
(4.824969960508556e-11 0 0)
(4.831932399124001e-11 0 0)
(4.816266912239434e-11 0 0)
(4.807563863970101e-11 0 0)
(4.785806243296697e-11 0 0)
(4.787546852949677e-11 0 0)
(4.782325023989115e-11 0 0)
(4.779714109508148e-11 0 0)
(4.764918927451195e-11 0 0)
(4.778843804681223e-11 0 0)
(4.791028072258541e-11 0 0)
(4.792768681911339e-11 0 0)
(4.821488741200883e-11 0 0)
(4.844116666701175e-11 0 0)
(4.865874287374636e-11 0 0)
(4.877188250124498e-11 0 0)
(4.89111312735543e-11 0 0)
(4.878928859778613e-11 0 0)
(4.872836725989056e-11 0 0)
(4.8632633728937e-11 0 0)
(4.851949410143745e-11 0 0)
(4.851949410143778e-11 0 0)
(4.848468190835802e-11 0 0)
(4.85194941014346e-11 0 0)
(4.837154228085887e-11 0 0)
(4.841505752220405e-11 0 0)
(4.838024532912637e-11 0 0)
(4.828451179815609e-11 0 0)
(4.829321484643486e-11 0 0)
(4.813655997758509e-11 0 0)
(4.813655997758582e-11 0 0)
(4.804082644662486e-11 0 0)
(4.789287462604507e-11 0 0)
(4.779714109508231e-11 0 0)
(4.781454719161113e-11 0 0)
(4.781454719162362e-11 0 0)
(4.779714109508175e-11 0 0)
(4.766659537104285e-11 0 0)
(4.758826793661835e-11 0 0)
(4.774492280546546e-11 0 0)
(4.773621975719869e-11 0 0)
(4.788417157777538e-11 0 0)
(4.801471730181736e-11 0 0)
(4.800601425353654e-11 0 0)
(4.79189837708527e-11 0 0)
(4.801471730181406e-11 0 0)
(4.804082644662544e-11 0 0)
(4.811915388104584e-11 0 0)
(4.825840265335471e-11 0 0)
(4.819748131547301e-11 0 0)
(4.82845117981572e-11 0 0)
(4.835413618431878e-11 0 0)
(4.846727581181955e-11 0 0)
(4.848468190835784e-11 0 0)
(4.85630093427812e-11 0 0)
(4.865003982547429e-11 0 0)
(4.861522763239776e-11 0 0)
(4.885020993567083e-11 0 0)
(4.89372404183623e-11 0 0)
(4.898075565969902e-11 0 0)
(4.895464651490313e-11 0 0)
(4.892853737009257e-11 0 0)
(4.909389528720992e-11 0 0)
(4.925925320432769e-11 0 0)
(4.930276844567182e-11 0 0)
(4.91025983354807e-11 0 0)
(4.9198331866434e-11 0 0)
(4.927665930086693e-11 0 0)
(4.925055015605651e-11 0 0)
(4.926795625259805e-11 0 0)
(4.929406539740307e-11 0 0)
(4.943331416971288e-11 0 0)
(4.952904770067772e-11 0 0)
(4.960737513510006e-11 0 0)
(4.937239283183013e-11 0 0)
(4.942461112143679e-11 0 0)
(4.946812636279026e-11 0 0)
(4.96421873281756e-11 0 0)
(4.971181171433201e-11 0 0)
(4.964218732817778e-11 0 0)
(4.975532695567786e-11 0 0)
(4.972921781087021e-11 0 0)
(4.979013914874757e-11 0 0)
(4.979013914875514e-11 0 0)
(4.996420011414043e-11 0 0)
(5.001641840375726e-11 0 0)
(5.003382450029688e-11 0 0)
(5.00947458381802e-11 0 0)
(5.018177632087537e-11 0 0)
(5.026880680356634e-11 0 0)
(5.011215193472204e-11 0 0)
(5.004252754855617e-11 0 0)
(5.015566717606695e-11 0 0)
(5.025140070702878e-11 0 0)
(5.029491594837596e-11 0 0)
(5.03036189966456e-11 0 0)
(5.019047936914395e-11 0 0)
(5.005993364510522e-11 0 0)
(4.99816062106739e-11 0 0)
(4.990327877625649e-11 0 0)
(5.00077153554883e-11 0 0)
(4.999030925894966e-11 0 0)
(5.005123059683056e-11 0 0)
(5.017307327260558e-11 0 0)
(5.020788546568266e-11 0 0)
(5.028621290010783e-11 0 0)
(5.013826107952333e-11 0 0)
(5.01034488864521e-11 0 0)
(5.004252754856534e-11 0 0)
(5.012955803125978e-11 0 0)
(5.019047936913921e-11 0 0)
(5.015566717606656e-11 0 0)
(5.019918241741413e-11 0 0)
(5.007733974164227e-11 0 0)
(5.019047936914006e-11 0 0)
(5.012955803125847e-11 0 0)
(5.024269765876009e-11 0 0)
(5.015566717606676e-11 0 0)
(5.017307327260067e-11 0 0)
(5.011215193472033e-11 0 0)
(5.017307327260554e-11 0 0)
(5.018177632087519e-11 0 0)
(5.025140070702934e-11 0 0)
(5.03210250931791e-11 0 0)
(5.029491594837631e-11 0 0)
(5.057341349299515e-11 0 0)
(5.074747445838018e-11 0 0)
(5.090412932722443e-11 0 0)
(5.102597200299835e-11 0 0)
(5.091283237549731e-11 0 0)
(5.07996927479964e-11 0 0)
(5.073006836183736e-11 0 0)
(5.08519110376127e-11 0 0)
(5.078228665145816e-11 0 0)
(5.074747445838063e-11 0 0)
(5.050378910683516e-11 0 0)
(5.054730434818656e-11 0 0)
(5.049508605857066e-11 0 0)
(5.056471044472568e-11 0 0)
(5.067785007222116e-11 0 0)
(5.07039592170335e-11 0 0)
(5.093023847203691e-11 0 0)
(5.087802018241981e-11 0 0)
(5.082580189279963e-11 0 0)
(5.086061408588178e-11 0 0)
(5.080839579626547e-11 0 0)
(5.066914702395646e-11 0 0)
(5.055600739645532e-11 0 0)
(5.057341349299014e-11 0 0)
(5.059952263780181e-11 0 0)
(5.06691470239573e-11 0 0)
(5.057341349299387e-11 0 0)
(5.068655312049033e-11 0 0)
(5.066914702395734e-11 0 0)
(5.09737537133823e-11 0 0)
(5.108689334088369e-11 0 0)
(5.102597200299391e-11 0 0)
(5.115651772703789e-11 0 0)
(5.129576649934744e-11 0 0)
(5.151334270608024e-11 0 0)
(5.147853051299839e-11 0 0)
(5.166999757492801e-11 0 0)
(5.166129452665861e-11 0 0)
(5.168740367146656e-11 0 0)
(5.181794939550219e-11 0 0)
(5.192238597473794e-11 0 0)
(5.202682255396927e-11 0 0)
(5.203552560223923e-11 0 0)
(5.219218047108277e-11 0 0)
(5.241845972608883e-11 0 0)
(5.257511459493696e-11 0 0)
(5.276658165686172e-11 0 0)
(5.284490909128566e-11 0 0)
(5.291453347743553e-11 0 0)
(5.304507920147996e-11 0 0)
(5.319303102205918e-11 0 0)
(5.32191401668662e-11 0 0)
(5.329746760128528e-11 0 0)
(5.329746760129081e-11 0 0)
(5.330617064955946e-11 0 0)
(5.335838893917546e-11 0 0)
(5.340190418051698e-11 0 0)
(5.358466819417848e-11 0 0)
(5.361948038725481e-11 0 0)
(5.376743220783363e-11 0 0)
(5.369780782167472e-11 0 0)
(5.38805718353342e-11 0 0)
(5.388927488360401e-11 0 0)
(5.388927488360481e-11 0 0)
(5.3819650497444e-11 0 0)
(5.386316573879584e-11 0 0)
(5.416777242822189e-11 0 0)
(5.421999071783777e-11 0 0)
(5.43679425384163e-11 0 0)
(5.441145777976244e-11 0 0)
(5.436794253841614e-11 0 0)
)
;

boundaryField
{
    inlet
    {
        type            zeroGradient;
    }
    outlet
    {
        type            velocityOutletNSCBCx;
        pInf            101325;
        gamma           1.4;
        etaAc           1;
        fieldInf        (-1 0 0);
        lInf            2.25;
        value           uniform (5.441894018109656e-11 0 0);
    }
    frontAndBack
    {
        type            empty;
    }
}


// ************************************************************************* //
