/*--------------------------------*- C++ -*----------------------------------*\
| =========                 |                                                 |
| \\      /  F ield         | OpenFOAM: The Open Source CFD Toolbox           |
|  \\    /   O peration     | Version:  v2012                                 |
|   \\  /    A nd           | Website:  www.openfoam.com                      |
|    \\/     M anipulation  |                                                 |
\*---------------------------------------------------------------------------*/
FoamFile
{
    version     2.0;
    format      ascii;
    class       volVectorField;
    location    "0.005";
    object      UMean;
}
// * * * * * * * * * * * * * * * * * * * * * * * * * * * * * * * * * * * * * //

dimensions      [0 1 -1 0 0 0 0];


internalField   nonuniform List<vector> 
1000
(
(-5.106450946552669e-05 0 0)
(2.753608662245089e-05 0 0)
(6.368083959460016e-05 0 0)
(0.0001403187143810776 0 0)
(0.0002296833968381747 0 0)
(0.0003371734053495558 0 0)
(0.0004652897212703591 0 0)
(0.000606597906381405 0 0)
(0.0007640374351084354 0 0)
(0.0009308213526581777 0 0)
(0.00110367591997014 0 0)
(0.001276380056682495 0 0)
(0.001448925592921265 0 0)
(0.001618703819337513 0 0)
(0.001784041392846443 0 0)
(0.001940399982058453 0 0)
(0.002085397720537693 0 0)
(0.002215071347616079 0 0)
(0.0023280514414519 0 0)
(0.002421403805831237 0 0)
(0.002494462289112412 0 0)
(0.002544983866774383 0 0)
(0.002572927217630052 0 0)
(0.002576869083262485 0 0)
(0.002557546285252483 0 0)
(0.002514497851777704 0 0)
(0.002449360139711078 0 0)
(0.002362548800699824 0 0)
(0.002256120006636826 0 0)
(0.002130615709892357 0 0)
(0.001988110590733571 0 0)
(0.001830489586401833 0 0)
(0.001663882536965033 0 0)
(0.001494121829490203 0 0)
(0.001324618396213404 0 0)
(0.001155459637558849 0 0)
(0.0009880705437465957 0 0)
(0.0008242563950392081 0 0)
(0.0006669258015051821 0 0)
(0.000519353295703195 0 0)
(0.000385147524400809 0 0)
(0.0002674144117924752 0 0)
(0.0001688563816124416 0 0)
(9.127384085882132e-05 0 0)
(3.605309631279501e-05 0 0)
(3.950680558147878e-06 0 0)
(-4.504804636884764e-06 0 0)
(1.071633960325718e-05 0 0)
(4.93854197769272e-05 0 0)
(0.000110824882533405 0 0)
(0.0001941718811375842 0 0)
(0.0002984676631778117 0 0)
(0.0004227550815293998 0 0)
(0.0005655364386594927 0 0)
(0.0007231879042903768 0 0)
(0.0008889523549502698 0 0)
(0.001056639228072488 0 0)
(0.001224247427549491 0 0)
(0.001391461399919405 0 0)
(0.001557029190506248 0 0)
(0.001719647954058833 0 0)
(0.001876504006729414 0 0)
(0.002025012196000783 0 0)
(0.002161395880173915 0 0)
(0.002282731988668359 0 0)
(0.002385573194896593 0 0)
(0.002467962775012194 0 0)
(0.002527792589529709 0 0)
(0.002564517829999725 0 0)
(0.00257729509230377 0 0)
(0.002566556561026334 0 0)
(0.002532246240589 0 0)
(0.002475314214740732 0 0)
(0.002395982767113611 0 0)
(0.0022952455424823 0 0)
(0.002173465979984157 0 0)
(0.00203264208648979 0 0)
(0.001876504073424585 0 0)
(0.001712557610415997 0 0)
(0.001546613336717297 0 0)
(0.00138085567569253 0 0)
(0.001215437078749372 0 0)
(0.001051294072890979 0 0)
(0.0008897962180559342 0 0)
(0.000733057881049193 0 0)
(0.0005837294457964795 0 0)
(0.000444968871907659 0 0)
(0.0003200683768074641 0 0)
(0.0002122779436171985 0 0)
(0.0001243722117646433 0 0)
(5.8566165391979e-05 0 0)
(1.625618765256717e-05 0 0)
(-1.80685922444124e-06 0 0)
(4.437992662034506e-06 0 0)
(3.472908115902609e-05 0 0)
(8.850834013090952e-05 0 0)
(0.0001652667757255778 0 0)
(0.0002644193677553682 0 0)
(0.0003852728654887253 0 0)
(0.0005258894287895948 0 0)
(0.000681556538518853 0 0)
(0.000844538029455585 0 0)
(0.001009026854450007 0 0)
(0.001173407540781475 0 0)
(0.001337495099529785 0 0)
(0.001500266372144649 0 0)
(0.001660735068289588 0 0)
(0.001816669491955477 0 0)
(0.001965943347600926 0 0)
(0.00210532249074258 0 0)
(0.002231972454619322 0 0)
(0.002342390523674067 0 0)
(0.002434007387268058 0 0)
(0.002504099735001601 0 0)
(0.002551295472688809 0 0)
(0.002574272733979629 0 0)
(0.002573047299878242 0 0)
(0.002547454229597048 0 0)
(0.002498282123386952 0 0)
(0.002425702769693165 0 0)
(0.00233053146360556 0 0)
(0.00221315399158951 0 0)
(0.002075713202433764 0 0)
(0.001922495830496997 0 0)
(0.001761405015298547 0 0)
(0.001598343531524476 0 0)
(0.001435430327691144 0 0)
(0.00127274596679896 0 0)
(0.001111083045490137 0 0)
(0.000951468099451141 0 0)
(0.0007956762833081064 0 0)
(0.000645833198822835 0 0)
(0.0005047367519067788 0 0)
(0.0003753171630666693 0 0)
(0.000260837154983601 0 0)
(0.0001642563946463345 0 0)
(8.836134860731233e-05 0 0)
(3.518737145159455e-05 0 0)
(6.240337818212053e-06 0 0)
(2.154116614033307e-06 0 0)
(2.313656093382335e-05 0 0)
(6.884756078284257e-05 0 0)
(0.0001389308346122092 0 0)
(0.0002327633464691774 0 0)
(0.0003495622311362769 0 0)
(0.0004870116293991409 0 0)
(0.0006399714890967178 0 0)
(0.000800307726985764 0 0)
(0.0009621991212304989 0 0)
(0.001123994272421112 0 0)
(0.001285577395335343 0 0)
(0.001446090989797459 0 0)
(0.001604750793292892 0 0)
(0.001759678282090891 0 0)
(0.00190909303187539 0 0)
(0.00205016855510655 0 0)
(0.002180342815393657 0 0)
(0.002296292247584602 0 0)
(0.002395336243346445 0 0)
(0.002474473654057357 0 0)
(0.002531777129815142 0 0)
(0.002565338622432601 0 0)
(0.002574510978065528 0 0)
(0.00255864326253826 0 0)
(0.002518127220541469 0 0)
(0.002452974233436581 0 0)
(0.002363951107420072 0 0)
(0.00225155085087189 0 0)
(0.002118097037737305 0 0)
(0.001968098585966033 0 0)
(0.001809695714905045 0 0)
(0.001649081952709627 0 0)
(0.001488568281352858 0 0)
(0.001328193112257161 0 0)
(0.001168634168198921 0 0)
(0.001010697391179484 0 0)
(0.0008558889605427824 0 0)
(0.0007059996727720009 0 0)
(0.0005634783225506111 0 0)
(0.0004309467140031537 0 0)
(0.0003114725270034151 0 0)
(0.0002079778766183469 0 0)
(0.000123452931820337 0 0)
(6.03150565497875e-05 0 0)
(2.067261141021152e-05 0 0)
(5.783033594013767e-06 0 0)
(1.652174448003443e-05 0 0)
(5.301812415380373e-05 0 0)
(0.0001152840511956088 0 0)
(0.0002027925151406764 0 0)
(0.0003147274239903364 0 0)
(0.0004484902319631146 0 0)
(0.0005985932246680728 0 0)
(0.0007565113310696121 0 0)
(0.0009161685736487012 0 0)
(0.001075757618924237 0 0)
(0.001235201982867744 0 0)
(0.001393757567691844 0 0)
(0.00155081100758124 0 0)
(0.001704727575240166 0 0)
(0.00185400824666147 0 0)
(0.001996138222214454 0 0)
(0.002128834802401946 0 0)
(0.002248987028626877 0 0)
(0.002353992647818485 0 0)
(0.002440762445173405 0 0)
(0.002507094280245347 0 0)
(0.002550637036763393 0 0)
(0.002570196633086028 0 0)
(0.002564549114384982 0 0)
(0.002533572054185661 0 0)
(0.002476910144553048 0 0)
(0.002395106379234493 0 0)
(0.002288612550591368 0 0)
(0.00215978786448697 0 0)
(0.00201326404754238 0 0)
(0.001857417056687089 0 0)
(0.001698953752138173 0 0)
(0.00154051133509893 0 0)
(0.001382148594336185 0 0)
(0.001224446132204229 0 0)
(0.001068044294754854 0 0)
(0.0009142403629264897 0 0)
(0.0007645536253945705 0 0)
(0.0006211504027842504 0 0)
(0.0004863672926629968 0 0)
(0.0003630512732489946 0 0)
(0.0002539938018904795 0 0)
(0.0001622133194986933 0 0)
(9.031770879463507e-05 0 0)
(4.079451491993222e-05 0 0)
(1.541173336494928e-05 0 0)
(1.563848668912153e-05 0 0)
(4.21826412454243e-05 0 0)
(9.553554112004856e-05 0 0)
(0.0001755097775370472 0 0)
(0.0002814391894009957 0 0)
(0.0004107131858225704 0 0)
(0.0005576261736747257 0 0)
(0.0007132322207196945 0 0)
(0.0008708926596233321 0 0)
(0.001028542434647693 0 0)
(0.00118609026206509 0 0)
(0.001342913529756556 0 0)
(0.001498502456143166 0 0)
(0.001651437548406265 0 0)
(0.001800421468726503 0 0)
(0.001943217050044262 0 0)
(0.002077772256036573 0 0)
(0.002201214456243581 0 0)
(0.002311059221959254 0 0)
(0.002404263146295652 0 0)
(0.002478477327779303 0 0)
(0.002531103543065254 0 0)
(0.00256051749460376 0 0)
(0.002565031709552064 0 0)
(0.002543991051021258 0 0)
(0.002496607215695838 0 0)
(0.002423048873879001 0 0)
(0.002323542612173051 0 0)
(0.002200262637973412 0 0)
(0.002057743279326917 0 0)
(0.001904534181026635 0 0)
(0.001748046939270088 0 0)
(0.001591469800511675 0 0)
(0.001434913770859741 0 0)
(0.001278898442966682 0 0)
(0.001123913222829822 0 0)
(0.0009711094263393811 0 0)
(0.000821770521683042 0 0)
(0.0006778473930888887 0 0)
(0.000541404116305333 0 0)
(0.0004150865624991991 0 0)
(0.0003015029990673842 0 0)
(0.0002036250019151416 0 0)
(0.0001241149169071143 0 0)
(6.569000036461569e-05 0 0)
(3.04752512916597e-05 0 0)
(2.042019982413728e-05 0 0)
(3.675919745605044e-05 0 0)
(8.050295452580568e-05 0 0)
(0.0001519088432848765 0 0)
(0.0002506441915080591 0 0)
(0.0003743410654373724 0 0)
(0.0005173934233320625 0 0)
(0.000670551706690944 0 0)
(0.0008263645411109756 0 0)
(0.0009822586894717238 0 0)
(0.001138081538608956 0 0)
(0.001293322398888765 0 0)
(0.001447541479238721 0 0)
(0.00159951955721517 0 0)
(0.001748098400604335 0 0)
(0.001891302436762417 0 0)
(0.002027248191367831 0 0)
(0.002153319826715027 0 0)
(0.002267137062849054 0 0)
(0.002365791696288273 0 0)
(0.002446852608194539 0 0)
(0.002507627748135119 0 0)
(0.002546161291586966 0 0)
(0.002560446609851609 0 0)
(0.00254933174899137 0 0)
(0.002511643067425434 0 0)
(0.00244708397303821 0 0)
(0.00235558084075124 0 0)
(0.002238880564642348 0 0)
(0.002101187707872814 0 0)
(0.001950934521367704 0 0)
(0.001796387915459244 0 0)
(0.001641516297551905 0 0)
(0.001486646924907569 0 0)
(0.001332186161200158 0 0)
(0.001178562222038964 0 0)
(0.001026736003771906 0 0)
(0.0008778656035945625 0 0)
(0.0007336513429183612 0 0)
(0.0005959913293500886 0 0)
(0.0004672777916506902 0 0)
(0.000349991083582254 0 0)
(0.0002469537224559501 0 0)
(0.0001608551940967979 0 0)
(9.448643811950624e-05 0 0)
(5.024001223172257e-05 0 0)
(3.039166732099595e-05 0 0)
(3.663202262711697e-05 0 0)
(7.042517090079835e-05 0 0)
(0.0001325017254490726 0 0)
(0.0002229647699592967 0 0)
(0.0003399152161787709 0 0)
(0.0004782173975061777 0 0)
(0.0006285784654237672 0 0)
(0.0007825857000735332 0 0)
(0.0009368312791191735 0 0)
(0.001091047108949971 0 0)
(0.001244790523271169 0 0)
(0.001397717073912249 0 0)
(0.001548736641770576 0 0)
(0.0016968502331953 0 0)
(0.001840255622343361 0 0)
(0.001977269185478049 0 0)
(0.002105448588449788 0 0)
(0.002222588671056608 0 0)
(0.002325868531824272 0 0)
(0.002412909086379786 0 0)
(0.002480927582169052 0 0)
(0.002527824085818848 0 0)
(0.002551291903759644 0 0)
(0.002549864268575958 0 0)
(0.00252194961512196 0 0)
(0.002466895123825005 0 0)
(0.002384185122552199 0 0)
(0.002275113422156542 0 0)
(0.002143196441678336 0 0)
(0.001996497320663568 0 0)
(0.001843949071529434 0 0)
(0.001690711265978458 0 0)
(0.001537406587035261 0 0)
(0.001384450985689314 0 0)
(0.001232115936061227 0 0)
(0.001081301395568957 0 0)
(0.0009329556512495665 0 0)
(0.0007886655582853425 0 0)
(0.0006500850900408353 0 0)
(0.0005194763360049187 0 0)
(0.0003990974914475701 0 0)
(0.0002916976320641292 0 0)
(0.0001998584185660118 0 0)
(0.0001264519194639338 0 0)
(7.396368164799396e-05 0 0)
(4.495289241910743e-05 0 0)
(4.140089711307669e-05 0 0)
(6.519897837795348e-05 0 0)
(0.0001174709073958665 0 0)
(0.0001988215796018055 0 0)
(0.0003079291109878385 0 0)
(0.000440454620191524 0 0)
(0.0005874445475725176 0 0)
(0.0007395644420073318 0 0)
(0.0008922256126742102 0 0)
(0.001044890412808773 0 0)
(0.001197196845578074 0 0)
(0.001348848986919834 0 0)
(0.001498917637752074 0 0)
(0.001646486238717328 0 0)
(0.001789960618449356 0 0)
(0.001927764110658652 0 0)
(0.002057681246463729 0 0)
(0.002177594749544488 0 0)
(0.002284866499391642 0 0)
(0.002377111739557074 0 0)
(0.002451608213725238 0 0)
(0.002506089018654928 0 0)
(0.002538139662716877 0 0)
(0.002545960950250802 0 0)
(0.002527729536312656 0 0)
(0.002482370417416237 0 0)
(0.002409051740295563 0 0)
(0.002308448520819987 0 0)
(0.00218335036594012 0 0)
(0.002040960666147064 0 0)
(0.001890698732891157 0 0)
(0.001739024405164139 0 0)
(0.001587253949666432 0 0)
(0.001435727863502134 0 0)
(0.00128469458746696 0 0)
(0.001134881687353857 0 0)
(0.0009871697243110111 0 0)
(0.0008429305175570429 0 0)
(0.0007037179210742268 0 0)
(0.0005715627227507457 0 0)
(0.0004486285828259209 0 0)
(0.0003374712280844605 0 0)
(0.0002406514299932242 0 0)
(0.0001609627727461366 0 0)
(0.0001010179782624258 0 0)
(6.346854140375249e-05 0 0)
(5.059192900785512e-05 0 0)
(6.452258184484686e-05 0 0)
(0.0001068057582219268 0 0)
(0.0001784339077700126 0 0)
(0.0002787881882396939 0 0)
(0.0004044311958876015 0 0)
(0.0005472658489225739 0 0)
(0.0006972544013586657 0 0)
(0.0008483935900907329 0 0)
(0.0009995569447157765 0 0)
(0.001150468178202479 0 0)
(0.001300858217596008 0 0)
(0.001449953667551365 0 0)
(0.001596906059201774 0 0)
(0.0017403114539202 0 0)
(0.001878685548559291 0 0)
(0.002010018640600856 0 0)
(0.002132276777152265 0 0)
(0.002242997944533174 0 0)
(0.002339817602851398 0 0)
(0.002420100619220709 0 0)
(0.00248147634699887 0 0)
(0.002521480419915556 0 0)
(0.002538069161120998 0 0)
(0.002529250064559185 0 0)
(0.002493593605797972 0 0)
(0.002429976907301909 0 0)
(0.00233848303621001 0 0)
(0.002221117998889376 0 0)
(0.00208395923481722 0 0)
(0.001936440796944243 0 0)
(0.001786379856118853 0 0)
(0.001636123713791661 0 0)
(0.001486035285955702 0 0)
(0.001336302915340911 0 0)
(0.001187550420593039 0 0)
(0.001040537419742546 0 0)
(0.0008965045825796479 0 0)
(0.0007568585189880571 0 0)
(0.0006234815007979493 0 0)
(0.0004983915388633943 0 0)
(0.0003840158883470153 0 0)
(0.0002828194516868605 0 0)
(0.0001975460783445691 0 0)
(0.0001308253796222571 0 0)
(8.539164645859364e-05 0 0)
(6.368184597103986e-05 0 0)
(6.805031414903548e-05 0 0)
(0.0001003391531958189 0 0)
(0.0001619301343756283 0 0)
(0.0002528216526712411 0 0)
(0.0003705862674385198 0 0)
(0.0005082824198313941 0 0)
(0.0006557253702064229 0 0)
(0.0008053131003052234 0 0)
(0.0009550245496801282 0 0)
(0.001104537542614828 0 0)
(0.001253687436100929 0 0)
(0.00140174988292571 0 0)
(0.001548040830237466 0 0)
(0.001691224115063157 0 0)
(0.001830004835306905 0 0)
(0.001962451955800686 0 0)
(0.002086721479515268 0 0)
(0.002200408232863677 0 0)
(0.002301294751644353 0 0)
(0.002386733407036909 0 0)
(0.002454411986898219 0 0)
(0.002501743252157345 0 0)
(0.002526625048844105 0 0)
(0.002526828930838558 0 0)
(0.002500767385679223 0 0)
(0.002446957486446034 0 0)
(0.00236508212842632 0 0)
(0.002256255316886494 0 0)
(0.00212539515648257 0 0)
(0.001981258706800848 0 0)
(0.001832949953142957 0 0)
(0.001684108962286961 0 0)
(0.001535415654639983 0 0)
(0.001386961644467575 0 0)
(0.001239282645618567 0 0)
(0.001093039536332776 0 0)
(0.0009493359997181313 0 0)
(0.0008094585950117368 0 0)
(0.0006751365727922565 0 0)
(0.0005482622399132001 0 0)
(0.0004311229839001891 0 0)
(0.0003260916400383848 0 0)
(0.0002358328522863119 0 0)
(0.0001629660201855411 0 0)
(0.0001102510115277827 0 0)
(8.02333334575056e-05 0 0)
(7.542038421487715e-05 0 0)
(9.789013180860616e-05 0 0)
(0.0001493431948481258 0 0)
(0.0002303285585769066 0 0)
(0.0003393836510172328 0 0)
(0.0004709106267288287 0 0)
(0.0006151553106606723 0 0)
(0.0007630595012331407 0 0)
(0.0009113096202772002 0 0)
(0.001059430286569722 0 0)
(0.001207278290498284 0 0)
(0.001354281276046432 0 0)
(0.001499793348065705 0 0)
(0.001642659962646894 0 0)
(0.001781641395207261 0 0)
(0.001914998991203959 0 0)
(0.00204094221948094 0 0)
(0.002157244893345806 0 0)
(0.002261711168633429 0 0)
(0.002351823658020292 0 0)
(0.002425219369243774 0 0)
(0.002479357827916355 0 0)
(0.002511991317531747 0 0)
(0.002520845473097747 0 0)
(0.002504084673029759 0 0)
(0.002460061201677488 0 0)
(0.002387990243888008 0 0)
(0.002288338632228774 0 0)
(0.002164701330963845 0 0)
(0.002024850991119835 0 0)
(0.001878544011236914 0 0)
(0.001731158389024472 0 0)
(0.001583836921683448 0 0)
(0.001436684123913871 0 0)
(0.001290116596753347 0 0)
(0.001144722808709549 0 0)
(0.001001465637825999 0 0)
(0.0008615358772381179 0 0)
(0.0007265057878246375 0 0)
(0.0005981652045482067 0 0)
(0.0004786498549273745 0 0)
(0.0003702536049457221 0 0)
(0.0002755311598372454 0 0)
(0.0001970854425737938 0 0)
(0.0001376479398120837 0 0)
(9.984631643602625e-05 0 0)
(8.626659912475331e-05 0 0)
(9.918575763224174e-05 0 0)
(0.0001405379409489907 0 0)
(0.0002113585255243738 0 0)
(0.0003110160259783566 0 0)
(0.0004353296218735292 0 0)
(0.000575510881417587 0 0)
(0.000721509425220528 0 0)
(0.000868327994818106 0 0)
(0.001015079937019493 0 0)
(0.001161628033542374 0 0)
(0.001307539941539849 0 0)
(0.001452207574063827 0 0)
(0.001594646204603381 0 0)
(0.001733670696819554 0 0)
(0.001867719043359793 0 0)
(0.00199505802364703 0 0)
(0.002113624791400679 0 0)
(0.002221261213868876 0 0)
(0.002315571751474374 0 0)
(0.002394181039465944 0 0)
(0.002454597932233747 0 0)
(0.002494488784999401 0 0)
(0.002511539847555243 0 0)
(0.002503745292810943 0 0)
(0.002469302973950979 0 0)
(0.002407075714026114 0 0)
(0.002316956131620345 0 0)
(0.002201382408776931 0 0)
(0.002066809384448398 0 0)
(0.001923040774219969 0 0)
(0.001777165951038339 0 0)
(0.001631242680534849 0 0)
(0.001485430084566237 0 0)
(0.001340043790046562 0 0)
(0.001195600940586921 0 0)
(0.001052927134431557 0 0)
(0.0009131227036948114 0 0)
(0.0007776090335551575 0 0)
(0.0006480804044212979 0 0)
(0.0005265266062591611 0 0)
(0.0004151627547290164 0 0)
(0.0003164302210107573 0 0)
(0.0002329013693606028 0 0)
(0.0001672573689969892 0 0)
(0.0001221719559318018 0 0)
(0.0001002706392516186 0 0)
(0.0001039802639548002 0 0)
(0.0001354104932584743 0 0)
(0.0001959894885545927 0 0)
(0.0002857828853558025 0 0)
(0.0004019479791684049 0 0)
(0.0005370533335544773 0 0)
(0.0006807145963954931 0 0)
(0.0008260783860235575 0 0)
(0.0009714685716678127 0 0)
(0.001116721505153687 0 0)
(0.001261495320879898 0 0)
(0.001405269171314296 0 0)
(0.00154716414833617 0 0)
(0.001686098277858269 0 0)
(0.001820627571784873 0 0)
(0.001949120485602244 0 0)
(0.002069629700095047 0 0)
(0.002180078259301334 0 0)
(0.002278160034639514 0 0)
(0.002361534375253585 0 0)
(0.002427748748799798 0 0)
(0.002474436878466736 0 0)
(0.002499255324537451 0 0)
(0.002500083232689944 0 0)
(0.002474997181034855 0 0)
(0.002422583126209964 0 0)
(0.002342266355286861 0 0)
(0.002235464403096695 0 0)
(0.00210720356131628 0 0)
(0.001966657136975029 0 0)
(0.001822399950278578 0 0)
(0.001677822470996682 0 0)
(0.001533315544983027 0 0)
(0.001389111460345489 0 0)
(0.001245642909938475 0 0)
(0.001103631077824314 0 0)
(0.0009640689380458629 0 0)
(0.0008282609413069161 0 0)
(0.0006977855921602207 0 0)
(0.0005745164802929821 0 0)
(0.0004605618460815855 0 0)
(0.0003582686707545804 0 0)
(0.0002701369040527111 0 0)
(0.000198805763617308 0 0)
(0.0001469416574156173 0 0)
(0.0001172065183954838 0 0)
(0.0001121100562098695 0 0)
(0.0001339224635096132 0 0)
(0.0001843602080019323 0 0)
(0.0002640753196219789 0 0)
(0.0003713526479583376 0 0)
(0.000500311745926247 0 0)
(0.0006409383254323606 0 0)
(0.0007847231148024834 0 0)
(0.0009287207964923243 0 0)
(0.00107263346217845 0 0)
(0.001216199139764181 0 0)
(0.001358974065982682 0 0)
(0.00150019385902148 0 0)
(0.001638870835433416 0 0)
(0.001773680089473996 0 0)
(0.00190308840691886 0 0)
(0.00202525616404727 0 0)
(0.002138192326293384 0 0)
(0.002239669887761048 0 0)
(0.002327401622804613 0 0)
(0.002398966581327976 0 0)
(0.002452001925459648 0 0)
(0.00248413480390394 0 0)
(0.002493184642138636 0 0)
(0.002477118545971011 0 0)
(0.002434340771561508 0 0)
(0.002363897464692901 0 0)
(0.002266409319070196 0 0)
(0.002145479119968824 0 0)
(0.002009097014879469 0 0)
(0.001866682481163037 0 0)
(0.001723369699080857 0 0)
(0.001580068213333514 0 0)
(0.001436954246996951 0 0)
(0.001294345460672726 0 0)
(0.001152805384383701 0 0)
(0.001013146470507535 0 0)
(0.0008764366532148094 0 0)
(0.0007439861900358351 0 0)
(0.0006173210223763915 0 0)
(0.0004981407114758089 0 0)
(0.0003882597871114556 0 0)
(0.000289530794320126 0 0)
(0.0002037459376468451 0 0)
(0.000132508580995242 0 0)
(7.704773963113495e-05 0 0)
(3.790369049377271e-05 0 0)
(1.435073532718363e-05 0 0)
(3.557363442717014e-06 0 0)
(4.468150230706262e-07 0 0)
(2.000939047434337e-08 0 0)
(2.21030045066611e-10 0 0)
(8.977909093472979e-12 0 0)
(8.70666241702487e-12 0 0)
(8.789855532613646e-12 0 0)
(8.87850122080594e-12 0 0)
(8.95711959286785e-12 0 0)
(9.033947193612394e-12 0 0)
(9.182944884832449e-12 0 0)
(9.139449708151169e-12 0 0)
(9.281033505802769e-12 0 0)
(9.329316613074449e-12 0 0)
(9.405462015223284e-12 0 0)
(9.478053463654571e-12 0 0)
(9.551750976723055e-12 0 0)
(9.631661011567419e-12 0 0)
(9.694235176197614e-12 0 0)
(9.759771386941189e-12 0 0)
(9.830785251119236e-12 0 0)
(9.901192159193099e-12 0 0)
(9.97438805564602e-12 0 0)
(1.005443603505811e-11 0 0)
(1.01170001673586e-11 0 0)
(1.017726689556075e-11 0 0)
(1.029171825050945e-11 0 0)
(1.031886323362797e-11 0 0)
(1.041895581297452e-11 0 0)
(1.048771992663421e-11 0 0)
(1.057007785055886e-11 0 0)
(1.06358598534427e-11 0 0)
(1.070919871063087e-11 0 0)
(1.07852362652083e-11 0 0)
(1.081527808427596e-11 0 0)
(1.094718318934348e-11 0 0)
(1.091887947184475e-11 0 0)
(1.1056457860826e-11 0 0)
(1.112147991453876e-11 0 0)
(1.11906428134062e-11 0 0)
(1.124090229014217e-11 0 0)
(1.130791576181525e-11 0 0)
(1.138938331624827e-11 0 0)
(1.145215060327702e-11 0 0)
(1.153345513231038e-11 0 0)
(1.15967666733665e-11 0 0)
(1.167321555356724e-11 0 0)
(1.175588949595852e-11 0 0)
(1.182612334630046e-11 0 0)
(1.188884799591746e-11 0 0)
(1.1953769726305e-11 0 0)
(1.206233210219588e-11 0 0)
(1.206956541378386e-11 0 0)
(1.21865524407216e-11 0 0)
(1.22507919725144e-11 0 0)
(1.232441675117175e-11 0 0)
(1.238533558097571e-11 0 0)
(1.244243209217107e-11 0 0)
(1.25356575400585e-11 0 0)
(1.258673465187666e-11 0 0)
(1.271360101804539e-11 0 0)
(1.267393317613529e-11 0 0)
(1.281774665964057e-11 0 0)
(1.286073269545781e-11 0 0)
(1.293988779729602e-11 0 0)
(1.300739034517122e-11 0 0)
(1.307294912865907e-11 0 0)
(1.313721875745063e-11 0 0)
(1.320571450622132e-11 0 0)
(1.327324965917459e-11 0 0)
(1.333951070592656e-11 0 0)
(1.338566946683171e-11 0 0)
(1.344876280466262e-11 0 0)
(1.35296208949065e-11 0 0)
(1.360652875431095e-11 0 0)
(1.366660988436622e-11 0 0)
(1.376653693022959e-11 0 0)
(1.377240333654216e-11 0 0)
(1.388224232671629e-11 0 0)
(1.394131269929193e-11 0 0)
(1.401943697898643e-11 0 0)
(1.408631250609303e-11 0 0)
(1.416157004683054e-11 0 0)
(1.423666707025583e-11 0 0)
(1.428526619599546e-11 0 0)
(1.441556111172783e-11 0 0)
(1.435558030499498e-11 0 0)
(1.449369793183546e-11 0 0)
(1.454368904368446e-11 0 0)
(1.463776723981531e-11 0 0)
(1.471095059585323e-11 0 0)
(1.477969464484889e-11 0 0)
(1.484739282320266e-11 0 0)
(1.489407577347184e-11 0 0)
(1.503453594990622e-11 0 0)
(1.499524933662327e-11 0 0)
(1.512995095431701e-11 0 0)
(1.518239246332895e-11 0 0)
(1.5255355108053e-11 0 0)
(1.532401889839207e-11 0 0)
(1.53890284116888e-11 0 0)
(1.550521786820837e-11 0 0)
(1.5505315683449e-11 0 0)
(1.567954719848403e-11 0 0)
(1.563095058082805e-11 0 0)
(1.577728719590377e-11 0 0)
(1.583483516205631e-11 0 0)
(1.591258824545541e-11 0 0)
(1.599678459427405e-11 0 0)
(1.604414723505798e-11 0 0)
(1.619004744368124e-11 0 0)
(1.615133518142241e-11 0 0)
(1.629491290511527e-11 0 0)
(1.634747229403287e-11 0 0)
(1.642572950212999e-11 0 0)
(1.646953818919944e-11 0 0)
(1.653950618273208e-11 0 0)
(1.661808442546452e-11 0 0)
(1.669381348581925e-11 0 0)
(1.676593341463578e-11 0 0)
(1.682135954250458e-11 0 0)
(1.695278560370398e-11 0 0)
(1.690862578500646e-11 0 0)
(1.705744289424564e-11 0 0)
(1.711159240782985e-11 0 0)
(1.719892135240547e-11 0 0)
(1.726798392795431e-11 0 0)
(1.73507958149162e-11 0 0)
(1.741437822894372e-11 0 0)
(1.747047903115844e-11 0 0)
(1.762266449596679e-11 0 0)
(1.758411776719218e-11 0 0)
(1.772541815145602e-11 0 0)
(1.777969557727589e-11 0 0)
(1.785154463311509e-11 0 0)
(1.790207498282504e-11 0 0)
(1.796436071790211e-11 0 0)
(1.80791732368145e-11 0 0)
(1.80955184142129e-11 0 0)
(1.820597690090669e-11 0 0)
(1.827014119020747e-11 0 0)
(1.834392648617919e-11 0 0)
(1.841052361606732e-11 0 0)
(1.848248804372915e-11 0 0)
(1.855823967683574e-11 0 0)
(1.860685385107288e-11 0 0)
(1.874288475279694e-11 0 0)
(1.870670816252798e-11 0 0)
(1.885843464813306e-11 0 0)
(1.891146054050015e-11 0 0)
(1.900523525857654e-11 0 0)
(1.906319956652045e-11 0 0)
(1.9127807786525e-11 0 0)
(1.919719139670574e-11 0 0)
(1.924936704890801e-11 0 0)
(1.938385297145811e-11 0 0)
(1.935278033024647e-11 0 0)
(1.94936593565505e-11 0 0)
(1.955397875450085e-11 0 0)
(1.963280028129029e-11 0 0)
(1.970666583592419e-11 0 0)
(1.976325069817275e-11 0 0)
(1.986375711122639e-11 0 0)
(1.987817608082329e-11 0 0)
(1.996901884979065e-11 0 0)
(2.001596264070007e-11 0 0)
(2.008359310080599e-11 0 0)
(2.014609202295029e-11 0 0)
(2.022705796076746e-11 0 0)
(2.030912243897287e-11 0 0)
(2.03638563359129e-11 0 0)
(2.051182069690592e-11 0 0)
(2.04795165869045e-11 0 0)
(2.062932188087137e-11 0 0)
(2.069347613784347e-11 0 0)
(2.077264127201342e-11 0 0)
(2.08468855471927e-11 0 0)
(2.091239918518661e-11 0 0)
(2.09997080651013e-11 0 0)
(2.105420620223344e-11 0 0)
(2.120068577804596e-11 0 0)
(2.117417032378063e-11 0 0)
(2.131906729917e-11 0 0)
(2.138266977786536e-11 0 0)
(2.145484237642323e-11 0 0)
(2.152420592193867e-11 0 0)
(2.159067513958521e-11 0 0)
(2.17021669565061e-11 0 0)
(2.172120079896028e-11 0 0)
(2.183416235255956e-11 0 0)
(2.189790779199037e-11 0 0)
(2.197403062139092e-11 0 0)
(2.204217022236578e-11 0 0)
(2.210478200824369e-11 0 0)
(2.217715776153025e-11 0 0)
(2.222614564014677e-11 0 0)
(2.237035289269373e-11 0 0)
(2.233893413601788e-11 0 0)
(2.250069044583482e-11 0 0)
(2.254248012603014e-11 0 0)
(2.261606728344258e-11 0 0)
(2.27044295582486e-11 0 0)
(2.27828723644939e-11 0 0)
(2.286399380346298e-11 0 0)
(2.291204867517512e-11 0 0)
(2.30492433274428e-11 0 0)
(2.301459415976819e-11 0 0)
(2.31519794263527e-11 0 0)
(2.32116642792821e-11 0 0)
(2.330020964415033e-11 0 0)
(2.337209632124042e-11 0 0)
(2.343262890624907e-11 0 0)
(2.35395208988113e-11 0 0)
(2.355928208535422e-11 0 0)
(2.365973833674942e-11 0 0)
(2.372579372068783e-11 0 0)
(2.379818703055758e-11 0 0)
(2.386751797098949e-11 0 0)
(2.394491490659508e-11 0 0)
(2.402190804082346e-11 0 0)
(2.406368518059848e-11 0 0)
(2.42039773154652e-11 0 0)
(2.416606513170911e-11 0 0)
(2.431158661978852e-11 0 0)
(2.436577375461805e-11 0 0)
(2.445045416346793e-11 0 0)
(2.452062029556886e-11 0 0)
(2.459313148534236e-11 0 0)
(2.467011960340438e-11 0 0)
(2.472628059961377e-11 0 0)
(2.486806253582598e-11 0 0)
(2.484164489680216e-11 0 0)
(2.497709392325336e-11 0 0)
(2.502856480411226e-11 0 0)
(2.511196107442861e-11 0 0)
(2.519341608844822e-11 0 0)
(2.525120232249038e-11 0 0)
(2.538216940448667e-11 0 0)
(2.534161370116612e-11 0 0)
(2.549244981728268e-11 0 0)
(2.552195239849088e-11 0 0)
(2.566112843639058e-11 0 0)
(2.562407150895924e-11 0 0)
(2.576619956064043e-11 0 0)
(2.582379267228544e-11 0 0)
(2.589849592666643e-11 0 0)
(2.596917370770982e-11 0 0)
(2.603375183071997e-11 0 0)
(2.616947674630956e-11 0 0)
(2.613622959707037e-11 0 0)
(2.628507178713822e-11 0 0)
(2.634678066311136e-11 0 0)
(2.641777195454153e-11 0 0)
(2.649472746752346e-11 0 0)
(2.657248055092324e-11 0 0)
(2.664259652135822e-11 0 0)
(2.670316171144856e-11 0 0)
(2.683796114438369e-11 0 0)
(2.680939407816197e-11 0 0)
(2.695124624070042e-11 0 0)
(2.700803676576434e-11 0 0)
(2.709138789058606e-11 0 0)
(2.716457124662408e-11 0 0)
(2.724576291191686e-11 0 0)
(2.733095246163551e-11 0 0)
(2.738954629842741e-11 0 0)
(2.752470689532461e-11 0 0)
(2.749714557041392e-11 0 0)
(2.763973510938105e-11 0 0)
(2.770211865969879e-11 0 0)
(2.778206129962273e-11 0 0)
(2.785724359786856e-11 0 0)
(2.791589010440683e-11 0 0)
(2.806623212815571e-11 0 0)
(2.803773528826079e-11 0 0)
(2.818271001422719e-11 0 0)
(2.82398742436682e-11 0 0)
(2.833408035203865e-11 0 0)
(2.840896418840095e-11 0 0)
(2.848235069916763e-11 0 0)
(2.85708007568785e-11 0 0)
(2.863314166978669e-11 0 0)
(2.877738654358084e-11 0 0)
(2.874453065530116e-11 0 0)
(2.89073729650921e-11 0 0)
(2.896477044626011e-11 0 0)
(2.905098831003692e-11 0 0)
(2.913377010000106e-11 0 0)
(2.922251360343148e-11 0 0)
(2.930312088537375e-11 0 0)
(2.935648035278821e-11 0 0)
(2.951186362351728e-11 0 0)
(2.947752295005563e-11 0 0)
(2.963210614228542e-11 0 0)
(2.970185593259419e-11 0 0)
(2.978103109909754e-11 0 0)
(2.986677744325331e-11 0 0)
(2.993825028663629e-11 0 0)
(3.010444590350079e-11 0 0)
(3.00718032022826e-11 0 0)
(3.022744982173434e-11 0 0)
(3.029840600000188e-11 0 0)
(3.038950960960815e-11 0 0)
)
;

boundaryField
{
    inlet
    {
        type            calculated;
        value           uniform (-5.106450946552669e-05 0 0);
    }
    outlet
    {
        type            calculated;
        value           uniform (3.042014502153977e-11 0 0);
    }
    frontAndBack
    {
        type            empty;
    }
}


// ************************************************************************* //
