/*--------------------------------*- C++ -*----------------------------------*\
| =========                 |                                                 |
| \\      /  F ield         | OpenFOAM: The Open Source CFD Toolbox           |
|  \\    /   O peration     | Version:  v2012                                 |
|   \\  /    A nd           | Website:  www.openfoam.com                      |
|    \\/     M anipulation  |                                                 |
\*---------------------------------------------------------------------------*/
FoamFile
{
    version     2.0;
    format      ascii;
    class       volScalarField;
    location    "0.008";
    object      T;
}
// * * * * * * * * * * * * * * * * * * * * * * * * * * * * * * * * * * * * * //

dimensions      [0 0 0 1 0 0 0];


internalField   nonuniform List<scalar> 
1000
(
299.9818512846884
299.9853982070932
299.9804048854812
299.9723291771093
299.9709724253935
299.9665522423596
299.9630303174342
299.9630687953493
299.9587635275653
299.9585223132902
299.9588647662891
299.958933982969
299.9602442333905
299.9616637244352
299.9628897798213
299.9673008691458
299.9700477668581
299.9745843482473
299.9800075380362
299.9842335623306
299.9899355905964
299.9953884068611
300.0009834567073
300.006727700162
300.012094050753
300.0176513432222
300.0225730700477
300.0271531969594
300.0314927039818
300.0349976162549
300.0394499041165
300.0406015582011
300.0405554423834
300.0403474652496
300.040379745186
300.0391863716267
300.0382509551087
300.0371551504518
300.0334316423873
300.0314099383785
300.0271155792885
300.0218535550912
300.0175500127843
300.0112616263004
300.0058127025729
300.0002170545692
299.9942910019147
299.9889933271967
299.983510170161
299.9783428477824
299.9735395712344
299.9690652626709
299.9647098662709
299.960263482672
299.959851903727
299.9599415379976
299.9599502305067
299.9603876108325
299.961408100351
299.9616408530464
299.9639247071884
299.9663079684657
299.9676868119095
299.9728219965675
299.9764444543999
299.9807135012774
299.9872917213272
299.9921581067846
299.9983904750567
300.0044217757397
300.0098609108958
300.0156046503574
300.0206335674726
300.0255900157587
300.0301287311396
300.035154259013
300.0395037676101
300.0396978867316
300.0396000359804
300.0396710025242
300.0389843166905
300.0385710906145
300.0379172950363
300.0357898565269
300.0346489544749
300.0318444649396
300.0282764744093
300.0251346964065
300.0198638074856
300.015063118237
300.0094764525244
300.0032718911344
299.9974750102756
299.9912284221488
299.9855025404813
299.9799497401096
299.9746697571185
299.9701348774889
299.9642875951342
299.9607725614172
299.9607496705658
299.9606834176445
299.9608747321664
299.9610922741329
299.9618309460301
299.9625766783849
299.9638542039601
299.9660674032631
299.9677969833331
299.9712973848157
299.974839837257
299.9787642706413
299.9841109982276
299.9890947519404
299.9949961405564
300.0010359666114
300.0070158159377
300.0131253463082
300.0188217245249
300.0243630700521
300.0292097242951
300.0351911228851
300.0388558765106
300.0389573626191
300.0388496788466
300.0388220297447
300.0385373213158
300.0378187250107
300.0375271484662
300.0357737990676
300.0342466412217
300.0327354854932
300.02880410524
300.0264719195643
300.0223820979508
300.0168259392466
300.0128262333475
300.0065357917572
300.0004893186789
299.9947915868536
299.9881174048836
299.982307917744
299.9763855858973
299.9710742188121
299.96408756636
299.961373246558
299.9613756030623
299.9612484059257
299.9615439164846
299.9617857783631
299.9621316187017
299.9632869836827
299.9639742249049
299.9658500231267
299.9680553521006
299.9699241516993
299.9740409979183
299.977299984639
299.9813677770632
299.9872292796288
299.9917743989468
299.997801663085
300.0041225386327
300.0098371617983
300.0162225159642
300.0222324863144
300.0276249914117
300.0347046904494
300.0383626150013
300.0384241791051
300.0383907793712
300.0383215382542
300.0377990192816
300.0377510443316
300.0369266839494
300.0355130311009
300.0347040069013
300.0323416603119
300.0300062284917
300.0273280597925
300.0233193617728
300.0195232166569
300.0146607639826
300.0093888751408
300.0037611035409
299.9976355436375
299.9913744216449
299.985002059431
299.9785649761122
299.9726930085324
299.9647223374913
299.9618687329228
299.9618673607796
299.9619226089254
299.9619167507411
299.9624301137565
299.9627214622396
299.9631575820712
299.964763043191
299.965613069631
299.9675220108402
299.9702343193309
299.9724948368061
299.9762162808511
299.9802036960648
299.9843772177881
299.9896909426496
299.9951397814046
300.0007836316237
300.0071593956605
300.0133579558183
300.0196148720038
300.0256725259011
300.033425381317
300.0377062464718
300.0378873367839
300.0379000589552
300.0376718070111
300.0376434173439
300.0372210017401
300.0363631619174
300.0358842791061
300.0343044581755
300.0325738012552
300.0307647342412
300.0277405648616
300.0246488577938
300.021067175636
300.0164643926863
300.0116112289422
300.0064303440666
300.0002743782499
299.9942003448431
299.9879297982787
299.9809837148246
299.9750402318746
299.9663193019924
299.9624821736249
299.9624220888186
299.9622866488423
299.962502617847
299.9627511764049
299.9629894166167
299.9637670765379
299.9645903496546
299.9658297339612
299.9676542996979
299.9693628389499
299.97221661072
299.9753900628601
299.9784345822247
299.983302162103
299.9876232869947
299.9925131942949
299.9986930095792
300.0041914128583
300.0105602216387
300.017180267316
300.0231487662949
300.0309328945272
300.0368976259749
300.0374054217077
300.0374033575789
300.0372238857674
300.0372812324662
300.0365917128318
300.0362782746193
300.0355385923596
300.0338901403282
300.0331293699678
300.0307228590366
300.0282487418672
300.025967502555
300.0218018401569
300.018230558058
300.0137206864806
300.008293264667
300.0031238087435
299.9968487621445
299.9905492718002
299.984010897463
299.9774081522374
299.9694527738765
299.9632683834154
299.9627434799143
299.9627504696656
299.9629399787417
299.9628754535157
299.9635595974674
299.9639340395264
299.9645309223083
299.9662330758533
299.9670664094269
299.9692928589424
299.9717862426717
299.9740413192886
299.9779777032549
299.9814942442659
299.9857976346198
299.9909778845654
299.9959548145395
300.0019267224237
300.0080068937811
300.0142536239686
300.0209304428232
300.0272555690413
300.0356995854673
300.0369178160249
300.0370018357681
300.0369792362616
300.0367066565425
300.036419536604
300.0361110517566
300.0349979819379
300.0343999372454
300.0329148591734
300.0309160982932
300.0293359756574
300.026023045026
300.0232217206731
300.0197276024513
300.0147588350681
300.0107175133885
300.0050892647008
299.9990763919694
299.9934140382135
299.9864668822378
299.9798543461164
299.9731720744811
299.9644209080751
299.9633983039188
299.9633269826008
299.9633346572397
299.9636683020958
299.9637896960274
299.9643077774257
299.9652488423883
299.9657909678407
299.9675142398754
299.9690548616978
299.9709528590447
299.9739720939789
299.9764934709449
299.9803870823483
299.984433545413
299.9886816003929
299.994167720568
299.9993032803814
300.005318944108
300.0116422631895
300.0179560701482
300.024253058863
300.0329951745466
300.036454943002
300.0364265912171
300.0365732078874
300.0363735364532
300.0361014007133
300.0358086438288
300.035068462524
300.0342293616914
300.0330266857541
300.0313227198922
300.029499662434
300.0269359217439
300.0239843192627
300.0206704893449
300.0166030263506
300.0121300878658
300.0071678770214
300.0016038296686
299.995606056749
299.9893685397421
299.9826199190058
299.9763589800696
299.9673390792871
299.963754791171
299.9637274529646
299.9636042224855
299.9638663096126
299.9640734057439
299.9644110382877
299.9652437222309
299.9659119237636
299.9673083005466
299.9688398762163
299.9705996939148
299.9732788713571
299.9758622816501
299.9792629978303
299.9831634145085
299.9872686293746
299.9922501034163
299.9973932626062
300.0030687548311
300.0091852563828
300.0153987226877
300.0217033520188
300.0291105414208
300.035691345972
300.0360043444805
300.035920990176
300.0360107164449
300.0356771882052
300.0355939524284
300.0347238984648
300.0340838106464
300.0332506574575
300.0312877770584
300.0299243671831
300.0275037565772
300.0247824160761
300.0217370213114
300.0178200716565
300.0139090591815
300.0087956319884
300.0037484988081
299.9981493326563
299.9916323137057
299.9855200924515
299.9789701451584
299.9711336910219
299.9645015848872
299.9641754053864
299.9642128743915
299.9642600925936
299.9644170532391
299.9648897968922
299.9651995094751
299.9661636794825
299.96731514013
299.9683432792559
299.970619385519
299.9725811772238
299.974935051907
299.978701586371
299.981758562057
299.9858422771058
299.9907467699515
299.9953359691522
300.0009433830646
300.0068241442145
300.0127275056331
300.0192569635495
300.025437315044
300.0338554364234
300.0356937733034
300.0356826058323
300.0355893633507
300.0355718761566
300.0351121351124
300.03468495994
300.0343085309
300.0328130548052
300.0319851063837
300.0302223161617
300.0278290468548
300.0258815287273
300.0223870999872
300.0190620670506
300.0152497174137
300.0103284058222
300.0056786335915
300.0000202809778
299.994049681366
299.9880022206806
299.9813079253878
299.9749354220467
299.9664120858224
299.9645419118567
299.9645508840981
299.9645806025113
299.9648200548007
299.964840755157
299.9658280041746
299.966180812683
299.9668475887902
299.9688654903966
299.9698738748149
299.9719462025725
299.9748287781386
299.9771299567151
299.9809066951865
299.9846493803657
299.9887559626361
299.9938447326338
299.9987484855426
300.0044665075871
300.0103839699051
300.0165184485438
300.0225350518642
300.0305889195267
300.0350905643833
300.035171899257
300.0351036158374
300.0351057752839
300.0347726607059
300.034413794485
300.0340458200573
300.0328278029604
300.032001600226
300.0304434045473
300.0283057813692
300.0263780343444
300.023256039614
300.0201117842871
300.016501021775
300.0119955139518
300.0074778604949
300.0021572222185
299.9964644296076
299.9905404648446
299.9840319043257
299.9780256536476
299.969515992278
299.9651615297841
299.9651501363213
299.9650724967532
299.9652095385339
299.9654430307161
299.9657426994841
299.9664484126947
299.9671720628091
299.9683679862558
299.9699674793639
299.971481424895
299.974098199584
299.9766696637466
299.9795080347163
299.9836570874245
299.9873639760829
299.9918162424637
299.997142367893
300.0021359006039
300.0080184135841
300.0140322677057
300.0199813640098
300.0265911954722
300.0340132760019
300.0348521505645
300.0348145725301
300.0347557879317
300.0347137143587
300.0340632721371
300.0339228326763
300.0330125006261
300.0316366250117
300.0309923812291
300.0286406914666
300.0265940665664
300.0244605158406
300.0207476125183
300.0177066810076
300.0135257507178
300.0088645405662
300.0042502923654
299.9984481683318
299.9928874723556
299.9867467279455
299.9802999287332
299.9736420095315
299.9660940260312
299.9655413988788
299.9655660132385
299.9655276188438
299.9658167723409
299.9660172680172
299.9665325819209
299.9673950886176
299.9681074679684
299.9697893859826
299.9713027571326
299.9732495896434
299.9761350429509
299.978766658347
299.9822669328888
299.9861891178288
299.9904136441675
299.9952068167293
300.0003242490598
300.0059061751639
300.0116505475535
300.017817684988
300.023571690095
300.0319412965211
300.0341326108374
300.0341638804589
300.0341983857238
300.0339872078351
300.0337410645033
300.0334920278736
300.0325917401547
300.0319615567639
300.0306679437527
300.0289566893434
300.0273838708206
300.0246676322732
300.0220167614493
300.0187968706259
300.0148267994585
300.0107600610289
300.005871384134
300.0007880082771
299.9951166353356
299.9891731406684
299.9829950923623
299.9769350755423
299.9684601830739
299.9659363906618
299.9659597293011
299.9659471177486
299.9660974102204
299.9662137260351
299.9669429601355
299.9674053829788
299.9680282221559
299.9698395755338
299.9708777843247
299.9729259434654
299.9754503251636
299.9778014209827
299.9813496712324
299.984822514228
299.9887980019993
299.9935135348135
299.9982925651885
300.0036214934461
300.0092920412181
300.0151963607487
300.0209125931257
300.028313138109
300.0336073940168
300.0337988602681
300.0337949081157
300.033611913907
300.0335938245123
300.0331727367609
300.0324500706842
300.0321480027485
300.0306091541621
300.0293020151393
300.0280119503747
300.0250126036477
300.023037632305
300.0198963619947
300.015830222581
300.012518228519
300.0074926788021
300.002578041985
299.9975392661129
299.9913243960176
299.985530280303
299.979656860884
299.971789509722
299.9667338706964
299.9662757703109
299.9662863997425
299.9665159100177
299.9664493084549
299.9670706040885
299.9675876693617
299.9681639319576
299.9696972620513
299.9706412521705
299.9725939310806
299.9748953107243
299.9771245793813
299.9803382818854
299.9836991104734
299.9875147623632
299.9918843876054
299.9965904879388
300.0016762214342
300.0071547759051
300.012843549364
300.0187097990402
300.0247179477588
300.0322007109982
300.0333626697428
300.0333714245482
300.033229071446
300.033185604061
300.0329392613909
300.0322019539598
300.0319442553626
300.0307431322298
300.0293031257742
300.0283228874976
300.0256179633505
300.0234841472249
300.0209267232757
300.0169207364795
300.0137228639298
300.009208045567
300.004264296806
299.9995473904108
299.9935789273543
299.9878654090894
299.9819168495379
299.9754089925931
299.9677530975824
299.9668235377023
299.9668036921161
299.9668923781146
299.9670113073147
299.9672360609396
299.9677807075823
299.9684330232861
299.969329648255
299.9706734603006
299.9722482719575
299.9742034443028
299.9766130997909
299.9794346959943
299.9825877776643
299.986340194039
299.9903741978677
299.994847921557
299.9998140503001
300.004972384518
300.0105332810439
300.0163844549485
300.0217787435831
300.029703657772
300.0328276728267
300.0328756206305
300.0329653081613
300.0327039568101
300.0325864389847
300.0322588597361
300.031473687532
300.0309548115143
300.0296129330557
300.0281754126091
300.0265782116744
300.0240079378465
300.0215761729252
300.0184002201461
300.0147007816257
300.0108198006064
300.0061752420892
300.0012837178825
299.9959001906221
299.990237921454
299.9842057233031
299.9784782989124
299.9704565716857
299.967238051341
299.9672513241988
299.9672027751417
299.9673103191366
299.9677751041355
299.9677971355014
299.9685417500137
299.9695941631682
299.9703252897124
299.9721890657315
299.9737138412065
299.9759242610278
299.9788204137559
299.9813367313591
299.9852739861708
299.9889961070532
299.9930766648058
299.9981586182186
300.0028911530117
300.0083514514704
300.014053665284
300.0194603754711
300.0261343944755
300.0321532542633
300.0324823867995
300.0324535071843
300.0324306860946
300.0322400289851
300.0318639355673
300.0316079119952
300.0305584363966
300.029719358486
300.0285885329599
300.0263911252133
300.0249035259899
300.0222511149259
300.0189939469186
300.016210696334
300.0119335683451
300.007787615543
300.0031848557261
299.9977614310483
299.9925631159799
299.9865703742074
299.9808352195822
299.9739379623682
299.9679398763407
299.9676614987662
299.9676798506391
299.9677568431272
299.9678798486544
299.9683015080552
299.968694918001
299.9695031657741
299.9705429904407
299.9717007063958
299.9735568260627
299.9754035805976
299.9778955904436
299.9808276914193
299.9838702932867
299.987818306991
299.9917277720992
299.9962489837451
300.0012282767246
300.0062328367696
300.0117826465799
300.0174448485503
300.0228467210276
300.0304563938097
300.0320529284908
300.032037080167
300.0319683888474
300.0319748938965
300.03148722874
300.0313000067233
300.030636545741
300.0294479286515
300.028898076784
300.0268613194926
300.0250406894164
300.0231993612325
300.0197952509708
300.0171321569024
300.013414591666
300.0091026256525
300.0050009224544
299.9997779859946
299.9945767616074
299.9891124932067
299.9830580969291
299.9775539252846
299.9695723299031
299.9680280336156
299.9680342333224
299.9680303389965
299.9681617260503
299.9685115759947
299.9687783119299
299.9695970693868
299.9706468944415
299.9713008267465
299.9733182108926
299.9751223904444
299.9770022467124
299.9801202958208
299.9828944726164
299.9864667671725
299.9905025630448
299.9945355769426
299.9993164855814
300.0042475256474
300.009405696815
300.015096814997
300.0203029667015
300.0272949345218
300.0316394636727
300.0318448716779
300.0318545060829
300.0317783807841
300.031323426541
300.0309893866331
300.0304550776652
300.0291944296952
300.0285992553081
300.0271406876907
300.0252828717655
300.0236640682255
300.0209479392212
300.0183930043922
300.0153663448433
300.0114601307424
300.0073316119837
300.0027065739692
299.9971097311324
299.9914330867166
299.985264793402
299.9788361583264
299.9708704839471
299.9667185974901
299.9647023189308
299.9641276738118
299.963768029745
299.9634798636357
299.963389267967
299.9635140852907
299.9636240225385
299.9637002427787
299.9645480320523
299.9653922881672
299.9666080245229
299.9692355859896
299.9713627954524
299.9744927186766
299.9788444038172
299.982698603867
299.9881292656109
299.9938404709256
299.9996065891996
300.0068448751627
300.0127136194138
300.020066721877
300.0268250728441
300.0303633362273
300.0322038943899
300.0336069750934
300.0338960096429
300.0343919482822
300.0350690343572
300.0355518695912
300.0362518393332
300.0366689886659
300.0366432884665
300.0363730048694
300.0352869829986
300.0329555205849
300.0296435348528
300.0257577136651
300.0209190438168
300.0149235829348
300.008909249465
300.0020989114108
299.9950671282974
299.9881336938818
299.9812769684004
299.9740555234732
299.9705193855198
299.9675401199551
299.9657984616629
299.9651288067349
299.9650579047899
299.9651419267327
299.9654556226925
299.9659255054251
299.9664564736097
299.9671771551862
299.9681215365602
299.969706181308
299.9718877694255
299.9742550764622
299.9779378126254
299.9820783234614
299.9865257360862
299.9921699888651
299.9979824878203
300.0038301303409
300.0102065637384
300.0172356114304
300.022320999656
300.0290125981232
300.0313699593154
300.034305838157
300.035130630818
300.0357659206844
300.0359217337328
300.0357683907411
300.0354848044416
300.0352136615008
300.0350907042908
300.0350231668846
300.0346752776547
300.0334359623401
300.0313110977868
300.0284484966095
300.0234808869904
300.0181809705384
300.012265832705
300.0051778484575
299.998364102514
299.9919191146208
299.9844060032626
299.9781733084712
299.9723561616959
299.9691506017224
299.966740080881
299.9650068924211
299.9647265275677
299.9648009618021
299.9652301888546
299.9659141073569
299.9668784022178
299.9679131821027
299.9688254364129
299.9704465118905
299.9721365368599
299.9737621074935
299.9766495178295
299.9798567993864
299.9831793413329
299.9905750488406
299.9946271215254
300.0040577808283
300.010112906651
)
;

boundaryField
{
    inlet
    {
        type            fixedValue;
        value           uniform 300;
    }
    outlet
    {
        type            inletOutlet;
        inletValue      uniform 300;
        value           uniform 300.0148015356086;
    }
    frontAndBack
    {
        type            empty;
    }
}


// ************************************************************************* //
