/*--------------------------------*- C++ -*----------------------------------*\
| =========                 |                                                 |
| \\      /  F ield         | OpenFOAM: The Open Source CFD Toolbox           |
|  \\    /   O peration     | Version:  v2012                                 |
|   \\  /    A nd           | Website:  www.openfoam.com                      |
|    \\/     M anipulation  |                                                 |
\*---------------------------------------------------------------------------*/
FoamFile
{
    version     2.0;
    format      ascii;
    class       volScalarField;
    location    "0.013";
    object      p;
}
// * * * * * * * * * * * * * * * * * * * * * * * * * * * * * * * * * * * * * //

dimensions      [1 -1 -2 0 0 0 0];


internalField   nonuniform List<scalar> 
1000
(
101308.5028696771
101278.9054370331
101267.9406751766
101273.904513059
101293.1313375804
101307.8648140215
101323.4796362113
101324.4998771658
101310.3403188485
101282.3341876163
101254.3313054405
101238.0037816477
101233.3139921841
101241.8030764205
101257.0777642807
101280.0994415367
101306.1238794857
101321.3182866083
101323.2395033983
101325.8894628185
101322.6199271867
101315.0709720174
101307.8459144415
101299.2418220394
101303.5092276025
101324.0238304592
101351.9879937313
101371.4761427533
101383.6822001498
101381.3945068013
101375.5430957385
101361.8148322771
101354.8940140414
101359.9522857427
101371.7536425588
101384.2584976872
101389.7769502893
101382.6810038509
101368.0214598875
101357.6285713858
101354.4429529898
101355.8860550298
101361.3121620385
101359.8695406383
101347.1651452719
101321.3056111153
101300.8117063971
101290.8948885156
101293.7869778388
101305.1783148487
101317.1532758279
101320.9768422527
101311.8474514984
101293.8942931838
101272.49081994
101256.0131727953
101251.0184518504
101256.2066028451
101269.5600059746
101278.0569084143
101283.2167805216
101281.4153836218
101280.8013670759
101287.2903307888
101296.9114062921
101307.1428948211
101314.4000384705
101315.8461594694
101316.2686572
101312.3760830318
101312.3023045828
101322.3128515941
101339.6130746383
101355.4587585828
101375.2069938444
101382.946131655
101386.6772592899
101379.8278287478
101366.9963706328
101357.9502299923
101359.668575989
101359.8443731723
101372.0898242585
101390.3965878762
101402.4916565054
101403.2617613593
101389.5336961559
101366.3746974623
101329.5538767871
101305.2312476079
101300.2310247204
101301.9207455865
101320.7157023341
101342.6034172735
101353.587950302
101349.4508860345
101332.1803966916
101300.2646971335
101266.8919881407
101243.4742471093
101237.6610939741
101249.3782194511
101270.4283374337
101289.2230682938
101296.0837417759
101291.2165465162
101276.3958474578
101263.302783782
101260.6426757874
101270.8871127143
101289.5692543232
101309.2315348113
101320.1635270809
101323.5536136557
101320.4503137855
101315.2038649183
101312.0821069833
101320.093502127
101336.7437015588
101359.5386974382
101370.7034174214
101375.1231973948
101370.8419281183
101364.1148155628
101356.6656341818
101360.6642919231
101381.5700632997
101397.9211907583
101409.428807384
101404.2725797653
101378.9413059085
101354.4076726173
101332.3315772188
101323.6113427392
101327.8427713549
101353.4959515783
101377.2213564838
101386.0017051124
101371.8916902252
101336.4899532897
101293.5256087592
101259.214823653
101247.1864196379
101258.4763825855
101292.8559963235
101323.6157226932
101332.8329324591
101319.2293647458
101289.0167794816
101244.4631761934
101215.2139550452
101210.982371805
101228.212143954
101261.7409683091
101316.6329212543
101342.5502446657
101345.3802421383
101343.4170824452
101314.8825681582
101270.3375226456
101250.3137115949
101260.2819822242
101259.4158543617
101286.7721216997
101356.2008978664
101408.6030018122
101440.6061032172
101459.3004733613
101454.1225073432
101400.9917320691
101323.2499109627
101277.6220769144
101246.6341407877
101241.613739692
101284.2508411687
101400.5344424931
101503.3117668066
101549.1851700995
101556.2515695357
101533.3795975968
101448.86192945
101293.3409520251
101181.5160070915
101133.162580835
101120.0403796756
101126.0301659329
101209.1280193296
101375.1289236006
101482.1679802116
101518.5099929444
101541.2513549751
101540.4774798581
101467.4390215237
101271.3373028407
101106.9985080237
101021.7487919523
100965.8527844591
100943.6015605861
100972.7904334379
101143.9450269179
101391.8839910695
101556.4439538269
101640.6960716648
101661.9243775467
101631.2356638548
101549.8565868622
101296.0462308583
101033.4269286277
100911.2742092245
100888.3869330326
100924.5676461973
100971.4403901123
101112.3738143655
101393.0227267192
101587.5727223149
101661.1596061525
101705.4703133695
101711.2792813763
101640.2505341429
101439.8932665548
101280.5399630342
101188.7632878262
101146.8946312335
101173.5734323629
101272.3303569793
101378.3202563902
101449.3269477814
101473.5254376067
101457.7131542854
101418.3157468673
101383.0496391388
101393.910803119
101444.3691262249
101497.5063247043
101527.2346370182
101499.349207291
101353.8978675615
101190.5741353357
101069.1235461475
100982.6172813855
100966.2226260807
101051.9503745839
101203.8130069691
101352.3346591192
101451.6419454745
101475.7404783783
101435.0061454895
101362.0142626954
101280.8546965639
101219.9961305345
101197.5434372856
101217.8459468357
101251.8212859562
101273.808768844
101273.9450724081
101239.3608089319
101209.9347891696
101164.2000026059
101165.5458461942
101228.8235781403
101390.6656447266
101502.8749543986
101581.5180262668
101619.70813259
101607.3172886676
101497.9121754882
101375.5080699622
101297.7494929885
101244.9067014938
101242.5666968779
101268.9204235267
101315.5390201341
101369.1935215092
101407.0644388913
101426.7959373604
101431.8990367816
101443.5481232333
101472.5744899514
101492.9650093104
101483.7814703503
101442.9319768847
101416.9053788722
101308.5645636127
101172.0930376622
101112.9990701037
101107.9772551682
101101.5451436606
101158.7033632429
101267.7735993133
101324.8119883953
101323.1077758872
101330.150507113
101295.9939131282
101247.7740420523
101222.0555811846
101239.341330468
101287.9973051852
101355.3713022061
101406.2400568551
101406.6324680544
101327.2759108736
101193.5579714601
101066.3248864467
100995.6417960541
101026.2851603118
101162.1635788524
101400.0801659258
101624.6988016236
101745.0720662387
101745.26822319
101653.6368679315
101457.3368530285
101253.0892359643
101151.19721098
101168.0478249232
101254.0527516476
101371.3529205459
101472.6123680369
101492.1171443174
101447.7398688747
101361.1067613116
101286.3931680427
101264.3109038451
101322.5764328585
101447.055575638
101563.1216094002
101633.1069454134
101615.8188485
101490.5752360804
101260.9825359261
101042.2212984696
100916.747292658
100895.4075902224
100981.2124659446
101176.2283166973
101376.5201888176
101490.484874096
101491.9967368469
101414.9398967291
101296.6934139506
101183.1844546062
101153.4010433879
101204.5276727892
101290.022133774
101361.1039202664
101363.0783904979
101319.9749189428
101192.4908339264
101084.324167541
101054.7045980121
101118.1267871148
101184.6844356136
101400.2156399631
101601.5568942009
101674.1866916593
101620.0542495973
101590.6907930877
101441.1278133218
101288.0246047835
101230.9220591388
101291.4148391945
101305.8994642777
101385.5894359357
101418.6354453072
101387.0957736905
101317.6075499237
101303.3097000708
101278.7373551601
101343.2777738322
101439.3202410796
101560.7676369369
101639.16883334
101635.944422903
101532.6812886688
101397.4261791616
101153.9098858189
100969.9534258019
100917.473370621
101003.2187296881
101103.1766758092
101297.1664669607
101434.6647934751
101454.3815881327
101360.9751803693
101277.0423311292
101150.6829653259
101092.2834646729
101127.3677796689
101246.7588354413
101348.9703721479
101464.7713404251
101487.6510106537
101415.5160560257
101294.3019271143
101086.9439955812
100954.1406266052
100929.0967841488
101007.3927302966
101156.1149090457
101481.9973938929
101755.148843547
101849.7571426102
101794.2222482125
101685.5174122852
101408.2353697355
101181.934373107
101123.215272353
101183.4499771293
101233.7403679856
101365.681421502
101453.538562573
101438.1590113315
101379.4814800429
101305.1155156304
101273.4797153137
101323.1611063508
101419.9133947745
101556.9616853628
101655.5352771645
101667.02359083
101574.6411215642
101413.2786946936
101144.7222050568
100866.7636376789
100760.9127014418
100813.910116077
100949.7096273743
101161.193236584
101466.5631683359
101613.7288830201
101611.6918181982
101477.8031356559
101339.4376252713
101123.3749195211
101029.019723148
101042.1823675251
101137.3803938487
101269.0341637769
101357.907323181
101373.9915271161
101283.3233284642
101132.6997688118
100981.6110099489
100922.5017967394
100994.9384080694
101258.2900793539
101648.6480457083
101913.5454376521
102019.9602115755
101960.731785075
101733.3505127161
101312.2356217627
100960.482047054
100823.3270199566
100895.4713577433
101078.4964183681
101408.1852245689
101678.8700264232
101757.4663488775
101659.6034254569
101449.5708141842
101258.1747805111
101114.8492587025
101129.1774303812
101264.1071223249
101442.5051075494
101605.3702248074
101638.4016708039
101515.2142172005
101246.4618924288
100902.9869172851
100679.3372845202
100647.1282333476
100796.6051217992
101094.7166776026
101526.1942945798
101758.3772309308
101772.1071857355
101612.0033885503
101389.6974549743
101052.8031666921
100890.1721561445
100892.4160334761
101024.9823388684
101196.4581912667
101306.3436329788
101311.6116825615
101185.7040563856
101065.1870658602
100983.8323520347
101047.377163443
101217.9130313991
101579.6699658505
101834.8567476117
101884.6666740187
101805.8843854711
101672.9984893621
101367.459575719
101104.1152020591
101031.9756053431
101068.1333464399
101122.4952393121
101276.8171793962
101434.2684454223
101448.9019629657
101404.5643784969
101347.8844384307
101308.2669126073
101327.5919029961
101401.6764752863
101427.0600656406
101482.4740236587
101464.0018773491
101365.7805127992
101332.869666077
101156.9336472573
100955.3310434927
100854.3081916788
100890.3218464348
100876.3243849859
101029.1920500263
101268.4400121041
101416.0614342882
101427.9111638763
101476.428418651
101406.215675018
101281.1761783806
101180.6813597306
101156.9251560357
101082.6497592561
101094.1926343489
101074.8066458451
101020.7733530733
101003.6786495097
100976.3319736632
101012.1397383933
101170.0236975093
101385.9404193539
101588.4727504288
101797.1862972308
101867.4754974332
101761.6175416806
101529.9127263658
101258.6739255634
100933.0456488907
100806.4157373564
100889.1483866653
101093.7675896191
101345.4388662718
101634.6544751215
101746.5182972362
101656.2769543676
101423.9705873783
101208.652842388
101037.7602519721
101038.3493122911
101191.7221423767
101350.1369711021
101552.7049965893
101617.3352732764
101513.7570613621
101278.7870870301
100989.1835640914
100719.1906836191
100643.9444576842
100771.0397030716
100985.7226247478
101317.9396135096
101591.0329748162
101653.1293172483
101494.3092188807
101257.0489452633
100952.875407825
100768.6218335973
100786.5743223402
100976.5790260638
101236.8485713036
101458.9815114236
101554.7976304693
101463.4540260779
101241.3640965846
101004.0364715404
100855.8066634911
100903.9145166833
100980.1227811351
101240.3113028286
101518.4562514317
101636.9713202065
101704.582775868
101662.932120775
101525.8712471602
101308.9850737457
101189.5220223512
101074.6488527219
101077.1200322801
101135.4824362472
101231.5634793753
101264.8790393789
101322.9597498045
101286.5677975164
101277.5934186359
101318.2439110644
101428.4416090004
101429.1974610655
101519.4508027688
101488.2365551646
101360.5430492502
101199.0257419449
101067.5379721663
100873.6996140476
100770.8297141228
100818.6396263562
100859.9779146802
100984.3406825858
101195.4796550147
101357.4667392376
101366.0242271164
101437.3990571756
101374.5408404771
101262.4912928511
101138.6701145301
101061.4779516058
100987.0875609002
100986.505408745
101001.0483225931
101019.3662869419
101073.0054849902
101084.3663589569
101114.8862299394
101191.8118461048
101189.6200969315
101330.8915326769
101482.6372838345
101560.2202121959
101525.2818560273
101568.8118801613
101486.8572459537
101316.3315253423
101150.0707018637
101071.8308663364
100979.0170461882
101015.138210508
101145.5226542819
101303.5867693456
101432.5075941397
101488.4638830051
101469.1663828706
101422.9724041802
101399.5438339976
101309.680733314
101327.7010119928
101327.7621671614
101268.8629084293
101128.8454565795
101064.9119142157
100859.7515622441
100672.0031480595
100617.7064280742
100760.2223554953
100973.5914023775
101312.4138988246
101614.8150683615
101710.5796996787
101576.9361051123
101290.3132326784
100985.7183708115
100673.758174174
100560.536113522
100662.893480682
100917.5380225802
101220.6904865609
101531.5115747946
101677.2770047961
101587.0568087607
101347.1121024479
101064.9415486944
100792.7947403274
100663.4565923884
100725.6749246759
101056.1657117398
101415.2296610152
101760.1272332584
101949.3422326429
101975.192632693
101715.9678864415
101341.9061089821
100920.4930913157
100627.4969141393
100518.0257725509
100684.3105721565
101039.6800972189
101428.972044627
101720.8860692271
101840.7483726643
101777.2872801086
101599.1860800868
101271.2063122012
101051.8224323353
100858.3369317439
100812.0969296492
100867.1447563092
100975.5548396219
101053.7052573623
101082.579973892
101052.8743417496
100996.6045649222
100933.6245520944
100947.5824520247
101059.6963329089
101191.7179621061
101315.0343718262
101379.7765471296
101346.1432509295
101138.6111163261
100961.0006572818
100798.5894958619
100793.6579622507
100952.6283058508
101168.7066608675
101333.8717298256
101330.7423115946
101167.7970288265
100946.6775294546
100812.8190680094
100864.7737968902
101143.344561138
101465.9775277493
101779.4409301734
101910.505919065
101809.2477541982
101449.3117700191
100993.9051897942
100597.1952569643
100432.7698000902
100550.2791042447
100920.2581871461
101367.8993606132
101763.550730203
101999.5100321541
101952.9110342093
101669.8087452061
101247.7331747114
100859.4823004933
100589.8893258012
100616.9854881308
100805.8105457434
101090.3951041274
101267.3767050378
101329.3491569501
101220.6177531773
101056.1782731117
100795.8755463237
100669.3845663101
100683.1047712185
100947.9566377924
101223.0117493192
101509.1348526873
101612.9734561704
101527.5457910946
101215.3779823806
100873.5342221219
100559.4622452481
100417.9049566639
100472.6019390674
100683.5458546472
101028.147246259
101312.5416744358
101566.1195395838
101636.0793610907
101562.0787009479
101396.1043826026
101292.2190085786
101188.2494240333
101101.6379176622
101075.7169755092
101060.9101611996
101106.5052331222
101045.6525648361
101010.3258334043
101028.6524673169
101131.0941529571
101216.4056898536
101343.2981327298
101510.1009076058
101628.6915977455
101625.2443239177
101500.418592522
101344.8273269681
101089.6513946778
100896.2486194314
100734.2438131836
100686.1833328049
100729.3933444753
100852.2236303403
100962.8933475408
101025.0631934443
101072.483592738
101091.8132894138
101105.7855972455
101085.0550461507
101099.5449102475
101057.7084097295
101006.2620164307
100957.511565528
100980.0958849286
100940.5245727574
100981.6428854158
101065.1102921698
101163.0952234984
101133.0842074858
101162.9222823594
101060.9155562658
100899.0759616967
100774.3974867014
100670.2638070258
100681.4886750799
100913.5455287407
101365.1582152187
101624.6332669954
101886.3844435866
101930.2790344473
101717.0644909754
101217.1053125619
100848.1351290582
100511.4595658326
100409.4139117773
100542.6658622761
100890.1512358846
101255.9439959165
101583.6535651505
101738.6433548598
101717.4639762734
101563.3375224522
101357.5490347169
101163.3927234252
101024.6145156799
100892.0133881438
100834.5449830303
100761.3320199071
100675.9679516992
100643.881335708
100595.129196507
100731.5040888324
101080.9158930826
101354.4985503669
101510.0318469709
101501.6332488732
101271.6657392081
100861.8533425954
100534.5840190248
100415.3062110006
100485.1118537697
100742.0919271704
101100.7367505724
101377.3765458933
101472.4447856358
101387.7027775133
101189.5195171875
100947.1722330109
100751.8709049149
100677.2627328782
100768.3511939491
101015.7329881983
101235.2110909874
101475.2610098518
101549.4558926244
101433.6973056855
101187.560647536
100989.8668163728
100821.3081906163
100742.0725571499
100833.3068274233
101058.824692842
101267.6373213746
101351.7182969086
101465.0562798753
101443.6283480001
101303.3774739826
101136.5042972216
101072.196205896
100980.4673391964
100947.3544744031
100954.7449689126
100925.2628171612
100925.2475872377
100906.8871255742
100867.7914376378
100884.6919042445
100838.2779446304
100886.9434362333
100972.4746795434
101054.9760399808
101017.8163027978
101026.1175867738
100928.5601535649
100833.4403559803
100767.9626750927
100842.4172383452
100865.3382454838
100999.0717041377
101129.7980554528
101199.6243601679
101123.2938146003
101075.2349228676
100918.4818314901
100774.271307179
100705.9407145887
100710.6796074772
100753.2235537077
100984.5019525822
101358.1869073331
101521.601392446
101698.7281303285
101683.0386028558
101440.2854123817
100990.4985408123
100737.8763934165
100533.8904596921
100494.1906281264
100629.3841640271
100948.6809012193
101230.361632826
101473.9941816473
101586.7529843066
101533.4085534645
101355.5200042004
101174.3801325494
101006.3023697807
100886.8952817401
100822.3238087615
100722.4386221787
100684.9551240378
100651.1411157592
100624.4245433077
100667.9044580398
100664.8729792493
100765.9966524684
100963.9168085533
101113.3971715558
101123.5886373557
101202.1038076758
101126.4863674017
100915.4191938104
100737.3890506905
100707.829954835
100619.0018350155
100647.4259819589
100755.6342679008
100851.9840970018
100880.4418193541
100920.6242003495
100923.4963539834
100915.1810492129
100914.5941080194
100997.4976342921
101068.4938533612
101201.4462899068
101294.9489375383
101283.5660380048
101270.6069103035
101132.9178925656
100890.318488167
100746.2565008255
100749.346355011
100719.0206216852
100822.5553494757
101046.1262834451
101217.291209268
101236.3404703126
101289.2228736779
101223.9695700908
101088.0532886664
100986.1051991303
100951.8470391371
100926.2103111736
100936.8411782414
100943.9369434853
100940.1747585296
100878.5589157461
100761.9612061557
100681.4464979638
100659.5439447089
100643.8986934551
100761.0902021413
100955.1619821365
101076.1611402926
101102.1013607094
101122.0300024651
101015.4518615912
100844.1697294152
100733.8234768647
100722.9075063803
100688.4398722061
100751.7993730691
100869.5981871087
100962.2324298583
100984.6114980232
100994.2945784894
100953.7936821622
100922.4739083609
)
;

boundaryField
{
    inlet
    {
        type            uniformFixedValue;
        uniformValue    sine;
        uniformValueCoeffs
        {
            frequency       constant 3000;
            scale           constant 50;
            level           constant 101325;
        }
        value           uniform 101325;
    }
    outlet
    {
        type            waveTransmissive;
        gamma           1.4;
        fieldInf        101325;
        lInf            2.25;
        value           uniform 100925.7943399047;
    }
    frontAndBack
    {
        type            empty;
    }
}


// ************************************************************************* //
