/*--------------------------------*- C++ -*----------------------------------*\
| =========                 |                                                 |
| \\      /  F ield         | OpenFOAM: The Open Source CFD Toolbox           |
|  \\    /   O peration     | Version:  v2012                                 |
|   \\  /    A nd           | Website:  www.openfoam.com                      |
|    \\/     M anipulation  |                                                 |
\*---------------------------------------------------------------------------*/
FoamFile
{
    version     2.0;
    format      ascii;
    class       volScalarField;
    location    "0.013";
    object      pMean;
}
// * * * * * * * * * * * * * * * * * * * * * * * * * * * * * * * * * * * * * //

dimensions      [1 -1 -2 0 0 0 0];


internalField   nonuniform List<scalar> 
1000
(
101325.0181315719
101325.0267429701
101325.0461342077
101325.0489860103
101325.0725856572
101325.0693853087
101325.04458205
101325.0595773024
101325.1012020057
101325.1122412823
101325.1519177366
101325.1855994976
101325.2183339584
101325.2480000509
101325.3157703553
101325.350108566
101325.3412433766
101325.3495123412
101325.4129629452
101325.3646087708
101325.3822469798
101325.3851794359
101325.4466148155
101325.4110896252
101325.4132229364
101325.4150839426
101325.4088018387
101325.3712684948
101325.3521042855
101325.3202333063
101325.3235776492
101325.3100721932
101325.2942012002
101325.2320032229
101325.2071205942
101325.2042859764
101325.165638815
101325.1054314297
101325.1227278053
101325.0883310921
101325.078379952
101325.0428580622
101325.0406870752
101325.0077344309
101325.0062834487
101324.9947267136
101325.0110096453
101324.9823238462
101325.0484053547
101324.9920484702
101325.0396439075
101325.0333993444
101325.1076140484
101325.0564985283
101325.1348247714
101325.1131667068
101325.1583799222
101325.151684616
101325.2493439218
101325.2443315783
101325.2832803352
101325.3266252787
101325.3743734329
101325.3641462756
101325.3503811647
101325.3838761167
101325.4019207994
101325.3972461536
101325.4206826577
101325.4515281901
101325.4425903926
101325.4101590208
101325.4085681722
101325.4020065338
101325.3716260271
101325.3439052344
101325.3475845634
101325.3503215459
101325.322531606
101325.2480086695
101325.228032042
101325.1999723399
101325.1354813881
101325.0776838129
101325.0824298476
101325.1040864544
101325.0526120319
101325.0533902193
101325.0712798184
101325.0170037333
101325.0178799615
101324.9916523719
101324.9872262606
101324.9509673373
101325.0045113816
101324.9967788758
101325.0188892122
101325.058084402
101325.0393671555
101325.0500996208
101325.0707982957
101325.1454453615
101325.1361855264
101325.1901129651
101325.1962324424
101325.2761449739
101325.2576581079
101325.3034037516
101325.2935488472
101325.3225287907
101325.3440319627
101325.4251917494
101325.4412398154
101325.3885912288
101325.4284549448
101325.4511802302
101325.4041879678
101325.3461122172
101325.4223885491
101325.4398700845
101325.3785101065
101325.3595803118
101325.3824644286
101325.3457905876
101325.253545205
101325.2128835845
101325.245926294
101325.2024102385
101325.1631908123
101325.1530003521
101325.152833293
101325.0938381408
101325.0454823296
101325.0305299367
101325.0187005924
101324.9688030914
101324.986555247
101324.99399677
101324.999443649
101324.989013938
101324.9897520321
101324.9972394947
101324.9633844102
101325.0097391875
101325.0327609911
101325.0156121037
101325.0717322911
101325.154904624
101325.140447677
101325.1656910781
101325.1798227233
101325.2582542635
101325.2110104726
101325.2128206958
101325.2534747652
101325.3458940995
101325.3728261545
101325.4163582889
101325.4593602333
101325.5009256277
101325.457391569
101325.4211380955
101325.3866954537
101325.3190337991
101325.3428589952
101325.3645898219
101325.3980326265
101325.4185226247
101325.5093559953
101325.4410428655
101325.3964083717
101325.3127339727
101325.2037900259
101325.1313863212
101325.0482674193
101324.9981593493
101325.0194512737
101325.0963029697
101325.1560679431
101325.1560363232
101325.2080172117
101325.2096558027
101325.149526833
101324.9631956855
101324.8732787246
101324.8206481076
101324.7199760397
101324.6747596119
101324.8130236773
101324.9931279402
101325.1582445892
101325.2734740096
101325.4201294421
101325.4850568781
101325.3773827957
101325.2792098532
101325.1355773482
101325.0633998958
101324.9118539454
101324.9420122019
101324.9621856576
101325.1469508961
101325.2676735477
101325.4843369582
101325.6503017149
101325.7809969492
101325.8724514748
101325.8535788451
101325.6942063822
101325.4419114291
101325.2587357117
101325.0211589511
101324.782370923
101324.6672738761
101324.7398725991
101324.8821062704
101325.0610243075
101325.1757236812
101325.322975388
101325.3157264907
101325.2442250736
101325.0722233856
101324.9925766558
101324.8601012198
101324.8370687538
101324.8029762317
101324.7432645494
101324.7704143772
101324.7407696378
101324.7465782263
101324.7799491373
101324.8728464042
101324.9789736686
101325.0822179141
101325.2081251119
101325.2860335787
101325.3332963362
101325.3255447957
101325.1855854249
101325.0992470114
101325.0797269178
101325.0513168056
101325.1065922311
101325.1365973231
101325.2478823059
101325.3080508337
101325.3303065547
101325.371292076
101325.2818397759
101325.3691635648
101325.4119275847
101325.4863170979
101325.5514252661
101325.5965125797
101325.5593215452
101325.4425407681
101325.3252320306
101325.0987824435
101324.9797539682
101324.8534038992
101324.8910625328
101324.9705710227
101325.0980108863
101325.2845752281
101325.3296784454
101325.3677425507
101325.2139512499
101325.1484921571
101324.9904666654
101324.8790414012
101324.8146317174
101324.8089744038
101324.8650032406
101324.8764946901
101324.8485427114
101324.8050019225
101324.7984482775
101324.8072866627
101324.8749433572
101324.9803165442
101325.1297422861
101325.2720259937
101325.4272118893
101325.394206652
101325.3402281606
101325.2668520006
101325.1434994541
101324.9966238486
101324.9474893744
101325.1105740643
101325.1785701631
101325.3393649114
101325.3873602384
101325.4953652652
101325.5163118625
101325.5457731868
101325.5383488618
101325.5706008083
101325.5762317229
101325.5522201084
101325.5237325111
101325.4421763453
101325.3445082883
101325.2551799224
101325.1732064278
101325.0693612242
101325.038877812
101325.0966707287
101325.2019746127
101325.207873777
101325.322558782
101325.2907412521
101325.2561537043
101325.187485758
101325.1468745598
101325.0779561182
101324.9847271857
101324.9440073618
101324.8832155844
101324.8561854129
101324.7909588783
101324.827802801
101324.8128762339
101324.9195584042
101324.9021642825
101325.073740989
101325.1530959343
101325.3394323336
101325.4365755526
101325.3550926861
101325.3456990231
101325.2589768748
101325.2562398737
101325.0796945719
101325.1880542583
101325.1739221453
101325.2655676449
101325.3353476345
101325.3533693252
101325.454136818
101325.4868278384
101325.5329920785
101325.5051395834
101325.6113518197
101325.5878632564
101325.6161097983
101325.6210426456
101325.6355858887
101325.561037221
101325.3720047314
101325.2360668697
101325.034057204
101324.8975079501
101324.8848164909
101324.9821396453
101325.161701834
101325.2849830786
101325.4773777708
101325.5417950509
101325.3955559795
101325.2712051886
101325.0858047102
101324.9121892996
101324.8059222358
101324.7616812167
101324.8299496203
101324.8921457537
101324.9496752952
101324.9150641715
101324.9071997634
101324.8960503606
101325.0054572647
101325.0260658947
101325.208364602
101325.3557599101
101325.4878525864
101325.50661252
101325.4240608924
101325.2982511631
101325.1413009501
101325.0279273601
101324.937361258
101325.0435549699
101325.1579214852
101325.3460966791
101325.465764698
101325.5748247379
101325.5519653523
101325.5810097697
101325.5247761986
101325.4864686334
101325.503184946
101325.5379159428
101325.5116794236
101325.5473047771
101325.4225572251
101325.2671763706
101325.1060945927
101324.9775821908
101324.8932069735
101324.9266356245
101325.0182562923
101325.1800331076
101325.3287507256
101325.4266315379
101325.3729931133
101325.2461048539
101325.0381207228
101324.8695209491
101324.6896297381
101324.6085046798
101324.7144721128
101324.7082758969
101324.9029807902
101324.8482752859
101324.851052436
101324.7878135236
101324.777236527
101324.777236954
101324.8395712989
101325.0313923395
101325.2018701423
101325.4037293689
101325.3889926399
101325.3365746655
101325.1468874593
101325.0154700863
101324.7531255975
101324.6899714095
101324.7687994708
101324.9140344102
101325.1538574071
101325.3192985439
101325.4900557933
101325.588145717
101325.5132537005
101325.5611653774
101325.4328360842
101325.3096628234
101325.2761026853
101325.1035997415
101324.9241336522
101324.8137910608
101324.7013907647
101324.5932485369
101324.5397073116
101324.6000706589
101324.7687244011
101324.9746009774
101325.1247492487
101325.1816872765
101325.3042139787
101325.163959573
101324.923465507
101324.7188847736
101324.5232080261
101324.3625700957
101324.2780788508
101324.2460132455
101324.2208760895
101324.4034008389
101324.4123082691
101324.5912204268
101324.4919085048
101324.6235154831
101324.646202445
101324.7483988092
101324.7819091262
101324.7854575223
101324.8987592135
101324.73109877
101324.6451857919
101324.4180205493
101324.3388634011
101324.3386109377
101324.2562855228
101324.2747090067
101324.5960296207
101324.7635112065
101324.9250649782
101325.1102492581
101325.0245053089
101325.0095801149
101324.9277273177
101324.8196794381
101324.6390259888
101324.3234238134
101324.3402669286
101324.2278059527
101323.9922402281
101323.9466322214
101323.8112394498
101323.818754449
101323.9788434762
101324.162312203
101324.3549739423
101324.657483818
101324.807756619
101324.665062894
101324.340234887
101324.0127671581
101323.6367101859
101323.3817667409
101323.2707572945
101323.3094987118
101323.5530063781
101323.8110065237
101323.930904801
101323.8600801138
101323.648382239
101323.6139577109
101323.5041462439
101323.5364169479
101323.7018695912
101323.8576459473
101324.1407314446
101324.0738615415
101323.8092801028
101323.6007862852
101323.1208940333
101323.0326414738
101322.8991464663
101323.0892640005
101323.4615208875
101323.7785377272
101324.211130652
101324.2098411109
101323.9772246725
101323.7671960452
101323.3421169901
101323.2137104961
101323.029171515
101322.9772200018
101323.1650295818
101323.1918561607
101323.2536556847
101323.049729723
101322.9551355179
101322.7275254002
101322.5614307013
101322.5854644079
101322.603227756
101322.822773663
101323.0853806236
101323.1543721507
101322.9390922146
101322.7591098885
101322.3512789109
101322.1183568921
101321.7992008512
101321.7039704665
101321.7765030789
101321.8121564321
101322.2118438214
101322.210984744
101322.1537294431
101322.1282298898
101321.9893438353
101321.9254568156
101321.8703093082
101321.9224412326
101322.0846593698
101322.1503380489
101322.2395797188
101321.9919188732
101321.8778917777
101321.6875281234
101321.4455495714
101321.349983847
101321.4278564487
101321.5812188606
101321.8722412753
101321.9641317082
101322.1233796152
101321.9822005677
101321.9456853966
101321.830169034
101321.5997737104
101321.3828579354
101321.2163119938
101321.1906049666
101321.0293786525
101320.9622487344
101320.6873843882
101320.6564110744
101320.4516994573
101320.4693534441
101320.6717686602
101320.898288226
101321.1435716501
101321.2648291028
101321.0490783014
101320.5433102686
101320.2478730478
101319.7424130284
101319.4599498808
101319.3960611894
101319.6077028817
101320.0078283316
101320.2336835457
101320.3286459834
101320.1741040944
101320.0032103666
101319.6698723654
101319.4737824265
101319.3580620398
101319.4275625947
101319.786260707
101319.9662243344
101320.1078044019
101319.9604972831
101319.7065775082
101319.3831327014
101319.0672449598
101318.8968338689
101318.8906431671
101319.1789599159
101319.6006543339
101319.6901046828
101319.6733155032
101319.619498785
101319.2452512548
101319.0961957461
101318.881943322
101318.7624163829
101318.8773502843
101318.9090439772
101318.9951460024
101318.7032318999
101318.5696049162
101317.9867642294
101317.8589081225
101317.6542919774
101317.6447274885
101317.9294578465
101318.234683962
101318.521293733
101318.4923111038
101318.1519978308
101317.5974221278
101317.4277992523
101316.9116637751
101316.7290295321
101316.9120241255
101316.9527103133
101317.3091631633
101317.411636117
101317.2605175542
101316.8445230639
101316.6036644892
101316.4763854266
101316.3393381291
101316.4860903422
101316.6691585686
101317.1980175174
101317.2340374985
101317.2574876094
101317.090815639
101316.7760090239
101316.4638452122
101316.1275393384
101315.7960053907
101315.8170664642
101316.1031937565
101316.1884043068
101316.4683243876
101316.50082326
101316.5645343584
101316.495860915
101316.3944156774
101316.1631765762
101315.9167943492
101315.7431341924
101315.6483668046
101315.4101130836
101315.0126038921
101314.8848131773
101314.5876498909
101314.6285227866
101314.5904479423
101314.7684851319
101314.9630396152
101315.2495710516
101315.2431941781
101315.074090465
101314.6991709744
101314.145264588
101313.8620358604
101313.3992275942
101313.2442839831
101313.6242694203
101313.568039159
101314.0897707228
101314.129567485
101313.8396428215
101313.6290858929
101313.269977557
101312.999977281
101312.8776589879
101313.0561728055
101313.215027747
101313.6286043618
101313.6859971259
101313.6737942254
101313.2168594866
101312.9845511794
101312.4341185165
101312.1935050168
101312.0561071745
101312.2022158679
101312.6181403175
101312.6504569466
101312.8551800159
101312.6786707893
101312.5183470967
101312.4381697288
101312.1874081378
101311.9670026349
101311.8767292093
101311.7237227253
101311.5977611575
101311.299330804
101311.082866465
101310.9791161251
101310.7718574208
101310.8282749919
101310.7608075669
101310.9032963645
101310.9060826176
101310.7804982512
101310.5132908335
101310.3319489427
101309.9655152023
101309.7733967278
101309.6236787188
101309.6725063805
101309.5289593832
101309.8731358934
101309.6888644863
101309.702317064
101309.2416028459
101308.9110670831
101308.6135234056
101308.6431720148
101308.6275986583
101308.8248639697
101309.1497181008
101309.1858477848
101309.3835798208
101309.099068103
101308.7094920531
101308.207773097
101307.9383134908
101307.7049226439
101307.7442110512
101307.9270497115
101307.9716601385
101308.2643820566
101308.1476008138
101307.9410445541
101307.8407681102
101307.3689078485
101307.322502269
101307.2933050394
101307.3146407004
101307.4542857643
101307.4387020737
101307.4689938222
101307.1299888325
101306.6638653715
101305.9596852444
101305.5522936131
101305.2025781552
101304.99314719
101305.1866644253
101305.5434602826
101305.9158917756
101306.1988064225
101306.3197393246
101305.8779770577
101305.7477544724
101304.8978273802
101304.4740270475
101303.9318322254
101303.777796364
101303.8094256781
101303.7404675678
101303.8781912852
101303.7955041189
101303.7912016098
101303.6979462386
101303.7062611554
101303.7760864825
101304.0114592161
101303.9022818302
101304.1670291366
101303.9118364488
101303.5474635641
101303.0862733945
101302.5685087723
101302.2182533155
101302.0897582076
101302.1797100761
101302.5102551921
101302.8027794895
101303.0089028206
101302.9710879384
101302.651634045
101302.3848328483
101301.7686808814
101301.4417098729
101301.1858607651
101301.0906444232
101301.2478089811
101301.2936561168
101301.3330636192
101301.1974230413
101300.8256771
101300.3778470946
101300.1673938388
101299.8037031953
101299.5925891026
101299.4835629433
101299.692877607
101299.7050879387
101299.7549580979
101299.4382082448
101299.4067238952
101298.9587605556
101298.6682078392
101298.348244972
101298.1579841784
101298.1586736915
101297.9607491029
101297.9350002289
101297.7166672228
101297.6349795511
101297.5521372746
101297.5540472987
101297.5887741038
101297.722562954
101297.6223937732
101297.7224760728
101297.5456502755
101297.1092943654
101296.9297997712
101296.5644066632
101296.3584525228
101296.2014342415
101295.9475738627
101295.9748727553
101296.0731538563
101296.0944492828
101295.9842646815
101295.9180039264
101295.857107226
101295.7562101909
101295.5491913591
101295.349024356
101295.0982946533
101294.8740652919
101294.6029590089
101294.1581052804
101293.9260836835
101293.3613607187
101293.3255348679
101293.0887121908
101293.1120904226
101293.3832889349
101293.3757263899
101293.5932921001
101293.5121415951
101293.075769589
101292.5256317246
101292.2231304062
101291.6263881495
101291.2880156044
101291.2399000346
101291.0808603846
101291.286622558
101291.2324919599
101291.0852840569
101290.9326368248
101290.644497485
101290.5157438237
101290.5337718106
101290.5434702781
101290.6531863059
101290.780004063
101290.5390488585
101290.367878758
101289.7617938201
101289.3785751636
101288.9248692154
101288.7451914959
101288.722177648
101288.7891097022
101289.158549457
101289.1697045321
101289.2328426965
101288.9158368204
101288.54552028
101288.0961699626
101287.679714575
101287.3866373404
101287.1182684658
101287.2589708129
101287.1797952669
101287.2770333924
101286.9981737701
101286.896079602
101286.1100600878
101286.0135876066
101285.5889272488
101285.3616651739
101285.3834504186
101285.2746321011
101285.4643331012
101285.3272323284
101285.1016931943
101284.8699874781
101284.4284089454
101284.0167910961
101283.6292671529
101283.4347639474
101283.2287019196
101283.151752523
101283.1167579215
101282.8999760208
101282.7813238666
101282.4831352803
101282.3821910097
101282.222621621
101282.2696269443
101282.1717242455
101282.3179866514
101282.127155538
101281.8977646642
101281.4345215489
101280.9331991661
101280.5687399647
101280.2137325532
101280.0035039573
101280.1035088264
101280.2457719527
101280.2677030773
101280.2686123167
101280.031164716
101279.6997466701
101279.3546559792
101278.9558592181
101278.5644121229
101278.3224892413
101278.2266770914
101278.1263031642
101278.0077646773
101277.7127003232
101277.2983452542
101276.8597825569
101276.4175425175
101276.0699674007
101275.8768585618
101275.8195147839
101275.8440001054
101275.9495871013
101275.7514658733
101275.5537830497
101275.1178362414
101274.7617023516
101274.324178393
101273.9489702423
101273.7421093013
101273.565377992
101273.5968909073
101273.3428104054
101273.1166722688
101272.9317805363
101272.6762751886
101272.5244680242
101272.3775012024
101272.4052291642
101272.440368422
101272.4579039403
101272.2353293447
101271.9846299352
101271.6707892906
101271.161623379
101270.8693784468
101270.5394997582
101270.3698069714
101270.4620414219
101270.3737847236
101270.3586313156
101270.2558393189
101270.0632760209
101269.7735331472
101269.4534005132
101269.1311230017
101268.8416216219
101268.4480159188
)
;

boundaryField
{
    inlet
    {
        type            calculated;
        value           uniform 101325.0000029648;
    }
    outlet
    {
        type            calculated;
        value           uniform 101268.5903225269;
    }
    frontAndBack
    {
        type            empty;
    }
}


// ************************************************************************* //
