/*--------------------------------*- C++ -*----------------------------------*\
| =========                 |                                                 |
| \\      /  F ield         | OpenFOAM: The Open Source CFD Toolbox           |
|  \\    /   O peration     | Version:  v2012                                 |
|   \\  /    A nd           | Website:  www.openfoam.com                      |
|    \\/     M anipulation  |                                                 |
\*---------------------------------------------------------------------------*/
FoamFile
{
    version     2.0;
    format      ascii;
    class       volScalarField;
    location    "0.013";
    object      T;
}
// * * * * * * * * * * * * * * * * * * * * * * * * * * * * * * * * * * * * * //

dimensions      [0 0 0 1 0 0 0];


internalField   nonuniform List<scalar> 
1000
(
299.9896539864821
299.9607412532568
299.9479992099439
299.9528561419528
299.9702546486334
299.9844023316
299.9983378071813
299.9991569972786
299.9870033662592
299.9631910395354
299.9395611016856
299.9258581430216
299.9219572650418
299.9291876970652
299.9421705915655
299.9617017197625
299.9837699737645
299.9966557746249
299.9983053817019
300.0005789102
299.9978380248196
299.9914705933335
299.9853766323946
299.9781076477886
299.9817287023708
299.9991014876489
300.0227741547095
300.0392710726243
300.049601496688
300.0476690370874
300.0427225522045
300.0311117382848
300.02525798685
300.029538414841
300.0395232508513
300.0501020893862
300.0547702561311
300.0487682456384
300.0363675038751
300.0275751621816
300.0248799792121
300.0261009168656
300.030691541758
300.0294710145574
300.0187222315392
299.9968406682312
299.979496185518
299.9711023655567
299.9735502042051
299.9831916122453
299.9933261323205
299.9965619305595
299.9888359946809
299.9736410310912
299.9555232263967
299.9415732153328
299.9373442678072
299.9417368873373
299.953041603204
299.9602343237258
299.9646021751218
299.9630772645648
299.9625574595277
299.9680502189318
299.9761936669093
299.984853284173
299.9909950270494
299.9922186828136
299.9925762598796
299.9892819412282
299.989219551995
299.9976914165995
300.0123309250599
300.0257381011265
300.0424448260297
300.0489914739986
300.0521476904481
300.0463540180004
300.0354993875695
300.0278461912093
300.0292999202274
300.0294486449387
300.0398082763303
300.0552937510766
300.0655236626443
300.0661749505619
300.0545636936565
300.0349731831099
300.0038192302392
299.9832352535738
299.9790029719808
299.9804330743094
299.9963394841806
300.0148603212864
300.0241542547226
300.0206541711713
300.006041145473
299.9790311728971
299.9507816185276
299.9309550274875
299.92603270077
299.9359537625757
299.9537749148361
299.9696846866766
299.9754918577528
299.9713720259083
299.9588261002945
299.9477418622873
299.9454898236827
299.9541625448932
299.969976586498
299.9866185116966
299.995870406015
299.9987392336452
299.9961128271715
299.991672550403
299.9890306051367
299.9958104847571
300.0098994527673
300.0291860022791
300.0386314279104
300.0423702931653
300.0387482942062
300.0330567213661
300.0267543925401
300.0301372948679
300.0478220005299
300.0616521142173
300.0713847383186
300.0670237904546
300.0455971163984
300.0248415216941
300.0061623471314
299.9987833371806
300.0023638590392
300.0240691587892
300.044140356411
300.0515676386136
300.0396320822198
300.0096797006221
299.9733189033278
299.9442741294322
299.9340900952884
299.9436491157323
299.9727524199846
299.9987849363118
300.0065845513167
299.9950729572021
299.9695024214906
299.9317839451134
299.9070155745865
299.9034317116074
299.9180233859444
299.9464138762957
299.9928756217518
300.0148067603484
300.0172015372896
300.0155411466469
299.9913957673903
299.9536915520464
299.9367383511901
299.9451782309352
299.944445407301
299.9676062375754
300.0263588907136
300.0706847894959
300.0977486716639
300.1135557643749
300.1091790341982
300.0642527396315
299.9984780103069
299.9598590587169
299.9336254738678
299.929374948535
299.9654758448822
300.0638661477147
300.1507570024963
300.1895221111986
300.1954927039975
300.1761689459132
300.1047381658423
299.9731670598597
299.8784725102466
299.8375050701369
299.8263854781918
299.8314634664309
299.9018723694628
300.0423730816681
300.1328753118556
300.1635892197169
300.1828083168181
300.1821569885623
300.1204405645509
299.9545284267843
299.8153129646107
299.7430386645066
299.6956300220743
299.6767524733824
299.7015225250003
299.8466415949233
300.0565205526592
300.1956221687117
300.2667797978577
300.284699203661
300.2587883026225
300.1900660401218
299.9754349555872
299.7529161052115
299.6492791032353
299.6298431800521
299.6605490916742
299.7003193209035
299.8198495570327
300.0574518611322
300.2218627538743
300.2839988587992
300.3214057599395
300.3263124823707
300.2663681642324
300.0970548878114
299.9622301503971
299.8845182442113
299.8490483506022
299.8716512241539
299.9552816517921
300.044973911361
300.1050270929971
300.125484037325
300.1121174668897
300.0788077185783
300.0489848215408
300.0581762672304
300.1008476725473
300.1457704532105
300.1708992562461
300.1473408023358
300.0243372028938
299.8860665378132
299.7831501968751
299.7098004871419
299.6958925787787
299.7685991069563
299.8972826952584
300.0230090933459
300.1070092699217
300.1273832636675
300.092944906987
300.0312085471394
299.9625300880694
299.9110072008173
299.8919905647386
299.9091835024247
299.937953570355
299.9565708989036
299.9566854513851
299.9273989671
299.902474581361
299.8637370282626
299.8648839706005
299.918496941034
300.0554424328375
300.1503076198533
300.2167595980775
300.2490228541143
300.2385633165852
300.146126634884
300.0426122134501
299.9768119649866
299.9320816326401
299.9301020346953
299.9524132381534
299.9918651401163
300.0372641377815
300.0693030836553
300.0859906958848
300.0903052820744
300.1001553445628
300.1246929930627
300.1419267927934
300.1341630595262
300.0996279177942
300.077621381526
299.9859706432164
299.8704102265766
299.8203309576261
299.8160727402015
299.810625608027
299.8590701625497
299.9514447747873
299.999717018989
299.9982705707865
300.0042289958921
299.9753225356508
299.9345005741621
299.9127239844273
299.9273634015919
299.9685561713587
300.0255736919773
300.0686111119462
300.0689479581342
300.0018126798219
299.8886003308174
299.7807774634971
299.7208399118367
299.7468323752983
299.8620053557242
300.0633923944717
300.2532095456157
300.3548214456207
300.3549867210966
300.2776541802765
300.1118118777362
299.9390007058746
299.8527045666286
299.866981036459
299.9398225316349
300.0390965631254
300.124722666879
300.141206303409
300.1036915400837
300.0304233832654
299.9672040725076
299.9485141500127
299.9978338353573
300.1031257840592
300.2012176886464
300.2603304323773
300.2457331257029
300.1399181678231
299.9456848901486
299.7603195262308
299.6538861940268
299.6357741570467
299.7085872258532
299.8739019714591
300.0434485043933
300.1398189822661
300.1410927693477
300.0759434701453
299.9758981312476
299.879780720605
299.8545469628444
299.8978571113619
299.9702433924843
300.030395062246
300.0320658843042
299.9955972469562
299.8876613207355
299.796002621313
299.7708899381648
299.8246536832733
299.8810533944784
300.0634822272145
300.2336369679482
300.2949506655635
300.2492450304181
300.2244501753827
300.098057358758
299.9685254014539
299.9201680513652
299.9713825486655
299.9836448924813
300.05107433503
300.079023452282
300.0523437571682
299.9935492142852
299.9814539361917
299.9606638043168
300.0152900453722
300.0965244256439
300.1991710878409
300.2653892171772
300.2626781902031
300.1754677059502
300.0611215409526
299.8549636180734
299.6989912288331
299.6544560196738
299.7272113802158
299.8119606396941
299.9762600355395
300.0925739225909
300.1092391016159
300.0302458874394
299.9592116302483
299.8521964932473
299.8027073288381
299.8324468165527
299.9335832040493
300.0200917571834
300.1180248587957
300.1373674609521
300.0763832887781
299.9738352672336
299.7981876049801
299.685561093695
299.664309431582
299.7307368712252
299.856824586534
300.1326128561321
300.3632530390576
300.4430346454058
300.3961995227599
300.3044882485402
300.0702153822611
299.8786529893327
299.8288844487932
299.8799140923719
299.9225147072406
300.0341922103939
300.1084878243947
300.0954684357338
300.0458390510383
299.9829253367311
299.9561546250486
299.9982096081699
300.0800567160815
300.1958965993218
300.2791462208417
300.2888483461886
300.2108401866646
300.0744523658518
299.8471314344771
299.611352769095
299.5214352486491
299.566443500527
299.6817175583829
299.8610577342035
300.1194579643782
300.243800688287
300.2420784275421
300.1289666391516
300.0119553833284
299.8289731561897
299.7489841274096
299.7601470241687
299.8408400329105
299.9523404790763
300.0275559874826
300.0411641780481
299.9644370197391
299.8368667652182
299.7087760226682
299.6586310471509
299.7201062938396
299.9433057242177
300.2733143775498
300.4967394650678
300.5863724415569
300.5364823167504
300.3447920509113
299.9889181117334
299.6908235583786
299.5743907532878
299.6356315085618
299.7908789310523
300.0700400464449
300.2987360522558
300.3650593920861
300.2824775226311
300.105029994546
299.9431055071353
299.8217015020807
299.8338462415821
299.9481267782472
300.0990562614585
300.2366917010825
300.2645892793442
300.1605339522109
299.9331921738849
299.6420033254217
299.4520328832307
299.4246391735959
299.5516797992517
299.8046423483731
300.1697468625154
300.3657899486798
300.3773760330309
300.2422689508257
300.0544141132368
299.7690693142492
299.6310820216497
299.6329749572408
299.7454514584299
299.8907686878875
299.9838002169389
299.9882608020033
299.8816647559124
299.7795343772252
299.7105381067343
299.7644288074614
299.9089514640922
300.214907648231
300.430251978077
300.4722170906223
300.4057834321972
300.2936881530828
300.0354806086218
299.8124511552275
299.7512554116981
299.7818955834933
299.8280083561722
299.9587474953147
300.0919491134544
300.1042849240201
300.0667725343293
300.0188397604896
299.985314587916
300.0016642402317
300.0643290177345
300.0858108174817
300.1326768855417
300.1170601815256
300.0339823647265
300.0061212117766
299.8571624041655
299.6862376019151
299.6004555090435
299.6310117770387
299.619156089253
299.7489101252916
299.9516350700894
300.076437707854
300.0864109558123
300.1274862467533
300.0681818634283
299.9624065214313
299.8772079948515
299.8570131390388
299.794106321318
299.8039339405279
299.7874974158177
299.741664276725
299.7271483740841
299.7039834167621
299.734394953204
299.8682324715243
300.0510040515792
300.2222172186457
300.3983726462808
300.4576392095462
300.3683710329838
300.1727288917436
299.9433358647805
299.6672879536064
299.5597549012716
299.6299917475166
299.80355921979
300.0167426002885
300.2611826014947
300.3555945665449
300.2794323971618
300.0831434677575
299.9009377796254
299.7561020072874
299.7565960096373
299.8865815982538
300.0206641369983
300.1919194030405
300.2465202195648
300.1590478421862
299.9603402638143
299.7149683283771
299.4857000633426
299.4217110859668
299.5297310683415
299.7119668871372
299.9934658847696
300.2243433249797
300.2767673305053
300.1425923611473
299.9418490062934
299.6840596762859
299.5276471620751
299.5429240968646
299.7042284407682
299.924794049775
300.1127280132689
300.1936959380359
300.1165070044328
299.9286100132636
299.7274936393884
299.60168380586
299.6425020487624
299.7071680179998
299.9276952669115
300.1629389919271
300.2630142088714
300.3200916911604
300.2849700282464
300.1692219744063
299.9857373788136
299.8845156447314
299.7871581203367
299.7893290267387
299.838831995149
299.9202221798486
299.9483692354549
299.9975052429252
299.9667714852803
299.959200950807
299.993616870934
300.0868149156931
300.087428368702
300.1637062045039
300.1373231030449
300.0293433161887
299.8926122345572
299.7812094377055
299.6167769945463
299.5294133049209
299.5700180782533
299.6051170488817
299.7106910858585
299.8896758195936
300.0267155676873
300.0338931857396
300.094279032487
300.041168358501
299.9463738725818
299.8414279619883
299.775950991525
299.7128803442255
299.7123925377654
299.7247182595543
299.7402138815422
299.7857152340255
299.7953842342083
299.8212517192563
299.8863979207118
299.8845158837674
300.0041287838141
300.1324701757997
300.1979816345881
300.1684207077772
300.2052435968634
300.1360563445925
299.991858473902
299.8509452100392
299.7845611361199
299.7058871917898
299.7365634676526
299.8470968638387
299.9808369305329
300.0898602892418
300.1372304167775
300.1209446928976
300.081884440179
300.0620142005781
299.9859866476538
300.0012712556106
300.0013493191619
299.9515252207404
299.8329431223509
299.7787481210704
299.6046709937907
299.4451453247431
299.3989581755577
299.5200929180582
299.7012132872844
299.9883257249951
300.2439559934317
300.3247922868018
300.2119744437646
299.9696178658209
299.7115367389486
299.4465770893309
299.3502813040656
299.437372632509
299.6536750705774
299.9106650857312
300.1736143026508
300.2967505854934
300.2205913928803
300.0177240285213
299.7786916067639
299.5477488400753
299.4378676202287
299.4907769014488
299.7712205354411
300.0751932433886
300.3665524953963
300.5261783121268
300.5479700825117
300.3293697793954
300.0131996135522
299.6560923701508
299.4072783108116
299.314155568288
299.4556018206349
299.7571760526741
300.0867535669352
300.3334386122998
300.4346062490137
300.3811005684199
300.2306518767238
299.9532833672676
299.7675222893936
299.6034689728823
299.5642023762414
299.6109058897515
299.7029237593292
299.7692438686853
299.7937023788741
299.7684511355105
299.7206627780938
299.6672578764922
299.6791368663699
299.7742398622983
299.8860448420685
299.9904364780562
300.0452561004143
300.0168072303157
299.8410149101182
299.690409384153
299.552554974485
299.5483585712394
299.6833149501177
299.8665287825027
300.0063938302193
300.0037407292226
299.8657395050041
299.6782409115488
299.5646118397123
299.6087552544559
299.844987139567
300.1180044659087
300.3827180000278
300.4932368538829
300.4079095116919
300.1039241787922
299.7182292878688
299.3812916261824
299.2413729854452
299.3414257808838
299.6557085071493
300.0349358742765
300.3692757452828
300.5682611364044
300.5290286952318
300.2901442819239
299.9332524676013
299.6041643406238
299.3751545121132
299.3982055219085
299.5585903044943
299.800028585842
299.9500051791663
300.0024649990228
299.9103946999471
299.770992027647
299.5501306643234
299.442735164822
299.4544123084269
299.6792304352543
299.9123100021479
300.1543918660516
300.2421677661725
300.1700186635559
299.9058439909837
299.6159255424611
299.3490492124744
299.2286088899384
299.275193612607
299.4545395130775
299.7470783875628
299.9881091199282
300.2026828562009
300.2617761787286
300.1992282701318
300.0588946628512
299.9710761087174
299.8831201880132
299.8097293791892
299.7877082630632
299.77507808752
299.8137394590159
299.7621810033928
299.732239690403
299.7477953966435
299.8346326047982
299.9068754058254
300.0143052765864
300.1553574448258
300.2555196779935
300.2526178309745
300.1471821168046
300.0156105597412
299.7994752068013
299.6353931876603
299.4978134850643
299.4569887828199
299.4937227418679
299.5980474663003
299.6920134892588
299.74479092209
299.7850133905312
299.8013933685997
299.8132044331293
299.7956629727721
299.8079737279405
299.7724941912822
299.7288399794843
299.6874385129299
299.7066360843205
299.6731061811023
299.7079993609397
299.7787773905709
299.8617899357938
299.8363804723371
299.8617007344461
299.7752643876645
299.6379679603794
299.5320752489343
299.4435889727169
299.4531644793835
299.6503012689317
300.0330510812401
300.2523351256735
300.4731163485968
300.5100966179245
300.3303276291983
299.9077974541212
299.5948443542902
299.3085634738268
299.2216370843799
299.3351115173432
299.6304962367449
299.9405790891964
300.2176860572782
300.3485196254215
300.3306530485629
300.2005319235038
300.0265614774065
299.8621831088954
299.7445420023926
299.6320424813578
299.5832666113898
299.5210870422379
299.4485343307925
299.4212624795937
299.3798165605454
299.4958113019803
299.7924604995774
300.024132625372
300.1556347282436
300.1485367891292
299.9539960814101
299.6065991087265
299.3284248296027
299.226875761711
299.2863328845748
299.5049066951532
299.8092867296315
300.0435435078788
300.1239296801973
300.0522638280372
299.8844908591248
299.6790361909708
299.5132138020672
299.449785474148
299.5271868332738
299.7371779454851
299.9231741545148
300.126252363404
300.1889333645104
300.0911014510292
299.8828241295849
299.7152258633871
299.5721770190584
299.5048806519264
299.5823898898815
299.7737379345902
299.9506305107483
300.0218072013394
300.1176620006133
300.0995476362532
299.9809150242712
299.8396090981383
299.785112827661
299.7073154233627
299.679196738372
299.6854339827151
299.6604323016583
299.6604493191401
299.6448593990966
299.6116360905995
299.6259801980219
299.5865999396756
299.6279437391934
299.7005265776217
299.7704622035067
299.7389474830853
299.7460147298003
299.6632771548759
299.5825216388036
299.5268788143647
299.5901182347719
299.6096098345789
299.7231436499396
299.8339711878849
299.893112338649
299.828430291297
299.7877146192362
299.6547938610354
299.5323208757835
299.4742224534365
299.478247826754
299.514434897299
299.7108365103579
300.0274778300264
300.1656345361706
300.3151941835624
300.3019573558087
300.0968916086438
299.7160271340535
299.5015163539624
299.3280175438363
299.2942108471053
299.4092621814083
299.6805618767279
299.919308506955
300.1254265635769
300.2206958942477
300.1756472667799
300.0252677856133
299.8719152891981
299.7294364865097
299.6280851571677
299.5732282233119
299.488371975569
299.4565439109104
299.4278075789055
299.4050839673993
299.4420523343084
299.4394995499222
299.525488118898
299.6935240421596
299.820257210782
299.828891279375
299.8954172184895
299.8313833504578
299.652393387163
299.5011995094921
299.4760797789771
299.4005655709827
299.4247551189118
299.5167411695278
299.5985848153583
299.622750136942
299.6568695897715
299.6593030646789
299.6522317728567
299.6516981001281
299.7220328313871
299.7822700706526
299.8949498495506
299.9741124105076
299.9644739927136
299.9535316279645
299.8369635755815
299.6312129408317
299.5088347717939
299.5114556565975
299.4856985709487
299.5736816064871
299.7634007685351
299.9084270013454
299.9245555383611
299.9693327152528
299.9141018583006
299.7989573532135
299.7125152060952
299.6834604136084
299.6617068195472
299.6707255999258
299.6767364886119
299.6735416672477
299.6212495543863
299.522204897346
299.453735415051
299.4350752883275
299.4217209700703
299.5212871938228
299.6859948154251
299.7884889554567
299.8103434753942
299.8270575726556
299.7365370420582
299.5910146325209
299.4971032343407
299.4877331688917
299.458487370474
299.5127996871658
299.6135764989518
299.6927351782583
299.7122071274755
299.7250185124098
299.6936048506512
299.6580907888458
)
;

boundaryField
{
    inlet
    {
        type            fixedValue;
        value           uniform 300;
    }
    outlet
    {
        type            inletOutlet;
        inletValue      uniform 300;
        value           uniform 299.6559145869786;
    }
    frontAndBack
    {
        type            empty;
    }
}


// ************************************************************************* //
