/*--------------------------------*- C++ -*----------------------------------*\
| =========                 |                                                 |
| \\      /  F ield         | OpenFOAM: The Open Source CFD Toolbox           |
|  \\    /   O peration     | Version:  v2012                                 |
|   \\  /    A nd           | Website:  www.openfoam.com                      |
|    \\/     M anipulation  |                                                 |
\*---------------------------------------------------------------------------*/
FoamFile
{
    version     2.0;
    format      ascii;
    class       volVectorField;
    location    "0.013";
    object      UMean;
}
// * * * * * * * * * * * * * * * * * * * * * * * * * * * * * * * * * * * * * //

dimensions      [0 1 -1 0 0 0 0];


internalField   nonuniform List<vector> 
1000
(
(-0.0001170768778277047 0 0)
(-9.342041603825663e-05 0 0)
(3.21961946040366e-05 0 0)
(8.240111481310892e-05 0 0)
(0.0001411617098743108 0 0)
(0.0001514647725380146 0 0)
(0.0002094662393242437 0 0)
(0.0002082597628721458 0 0)
(0.0001788237002546289 0 0)
(0.0002247922708101412 0 0)
(0.0003165918255013172 0 0)
(0.0004024911605111836 0 0)
(0.0005544515071552895 0 0)
(0.0006824958359028598 0 0)
(0.0007342890915224838 0 0)
(0.0007923754424986395 0 0)
(0.0009763998293086267 0 0)
(0.0008914950011198163 0 0)
(0.0008963827376499247 0 0)
(0.0008599753333850913 0 0)
(0.001010619165572101 0 0)
(0.000892450067582494 0 0)
(0.0009126750974219013 0 0)
(0.0009489955210639792 0 0)
(0.001057366033218163 0 0)
(0.001019144423055351 0 0)
(0.0009663181542978861 0 0)
(0.0009525755661454352 0 0)
(0.0008998816326407291 0 0)
(0.0008063910362161083 0 0)
(0.0007594120954787351 0 0)
(0.0006363232214275802 0 0)
(0.0006193364733073406 0 0)
(0.0006313372906924371 0 0)
(0.0005752914095299924 0 0)
(0.0004162635726022993 0 0)
(0.0003871096717062587 0 0)
(0.000341433425869657 0 0)
(0.0002522134609108219 0 0)
(0.000145533157059545 0 0)
(0.0001833990416205193 0 0)
(9.757374054410184e-05 0 0)
(7.579543699314659e-05 0 0)
(6.062244923351803e-06 0 0)
(-1.108709026921595e-07 0 0)
(-9.685162670788857e-05 0 0)
(3.057479563259865e-05 0 0)
(-2.815763136766223e-05 0 0)
(6.540317429439498e-05 0 0)
(3.989968362300661e-05 0 0)
(0.0001878605045713925 0 0)
(3.858348462621205e-05 0 0)
(0.0001304552402204697 0 0)
(0.0001299441640854794 0 0)
(0.0002547109044574447 0 0)
(0.0002100332557803577 0 0)
(0.0004568727753290793 0 0)
(0.0004393229189604772 0 0)
(0.0005435856879342784 0 0)
(0.0005904492200695331 0 0)
(0.0007692314180454743 0 0)
(0.0007425603005423859 0 0)
(0.000745335726028898 0 0)
(0.0008867258832543165 0 0)
(0.0009506213271686157 0 0)
(0.0009399783493556259 0 0)
(0.0009286971852754407 0 0)
(0.001012326223857511 0 0)
(0.001002254299820812 0 0)
(0.0009744651893171696 0 0)
(0.001021759175168757 0 0)
(0.001072499758882159 0 0)
(0.00104267311849979 0 0)
(0.0009452779893902129 0 0)
(0.0009542877549466448 0 0)
(0.0008940938723448271 0 0)
(0.0007808731120655295 0 0)
(0.0006772128281522714 0 0)
(0.0006398542982164522 0 0)
(0.0006391157047463962 0 0)
(0.0005904231923723948 0 0)
(0.0004452748423776485 0 0)
(0.0004656739542345154 0 0)
(0.0004429714455367864 0 0)
(0.0002516969231414629 0 0)
(0.0001216566619580424 0 0)
(0.000105768220344579 0 0)
(1.386518456161098e-05 0 0)
(-6.892928369603718e-05 0 0)
(-1.362370168744143e-05 0 0)
(5.618200526902527e-05 0 0)
(-1.795841969324754e-05 0 0)
(9.44891599840917e-05 0 0)
(4.501514356587773e-05 0 0)
(1.454744511471649e-06 0 0)
(-2.55271439018632e-05 0 0)
(-3.366887276629698e-05 0 0)
(-6.748534270972716e-05 0 0)
(-4.884399944110387e-06 0 0)
(0.0001973529603768231 0 0)
(0.0001855735143789476 0 0)
(0.0003166218631882785 0 0)
(0.0003570502575019225 0 0)
(0.0005548514348760678 0 0)
(0.0005019131056293706 0 0)
(0.0005687375047459831 0 0)
(0.0005591647457406271 0 0)
(0.0007185341249265506 0 0)
(0.0007342683295344148 0 0)
(0.0009165110960674766 0 0)
(0.0009218162625291729 0 0)
(0.0008750596405298986 0 0)
(0.0009556633288090308 0 0)
(0.001053174998181498 0 0)
(0.001025809372783646 0 0)
(0.0008668332135584227 0 0)
(0.001041345501253431 0 0)
(0.001127840365244413 0 0)
(0.0009667469772658176 0 0)
(0.0008824078824375758 0 0)
(0.0009903720716715847 0 0)
(0.0009445899255098484 0 0)
(0.0007457264220926475 0 0)
(0.0006874650418312227 0 0)
(0.0007545655977019322 0 0)
(0.0006782365818044567 0 0)
(0.0005412526878355494 0 0)
(0.0004637583984618493 0 0)
(0.0004589412814195948 0 0)
(0.0002909542230974251 0 0)
(0.0001482120590598287 0 0)
(0.0001416315889107575 0 0)
(0.0001719048106423088 0 0)
(8.029903122349534e-05 0 0)
(9.28694269943959e-05 0 0)
(0.0001129821635980109 0 0)
(4.545656735604794e-05 0 0)
(-9.564293853797275e-05 0 0)
(-0.0001297736847787605 0 0)
(-0.0001462889948622916 0 0)
(-0.0001914570836302223 0 0)
(-8.991781754458482e-05 0 0)
(2.468733507520165e-05 0 0)
(6.948231529861912e-05 0 0)
(0.0001040475258903751 0 0)
(0.0002345080534981521 0 0)
(0.0001807807477005472 0 0)
(9.811905887286317e-05 0 0)
(0.000145517057569495 0 0)
(0.0003954379066129126 0 0)
(0.0003552205712377654 0 0)
(0.0004939161904578799 0 0)
(0.0006694020095111274 0 0)
(0.0009185587313691163 0 0)
(0.0008373979600867874 0 0)
(0.0008077477955192898 0 0)
(0.000766707802161921 0 0)
(0.0008582050970769077 0 0)
(0.0007938113638290255 0 0)
(0.0008271312420621488 0 0)
(0.0009464520557405931 0 0)
(0.001060306935059577 0 0)
(0.001111031249444729 0 0)
(0.001242901818885313 0 0)
(0.001198902171480086 0 0)
(0.001062802811166291 0 0)
(0.001048839166866232 0 0)
(0.0007668491507479857 0 0)
(0.0006659890552828772 0 0)
(0.0004819632424813561 0 0)
(0.000524128209401539 0 0)
(0.0005230922499941038 0 0)
(0.0006037097123927188 0 0)
(0.0006953678092997736 0 0)
(0.0007780073335674283 0 0)
(0.0008168576036523556 0 0)
(0.0005919449996830968 0 0)
(0.0002457429684404045 0 0)
(-5.572930094998268e-05 0 0)
(-0.0002601942329704996 0 0)
(-0.0004808269496798996 0 0)
(-0.0006483304678908896 0 0)
(-0.0005008408494629056 0 0)
(-0.0001521986606004911 0 0)
(0.0001059746478184626 0 0)
(0.0002373167144897917 0 0)
(0.0004713092360706311 0 0)
(0.0006589794988413147 0 0)
(0.00043094860482629 0 0)
(3.581620371682754e-05 0 0)
(-0.0001650521216451552 0 0)
(-0.0003956897807881861 0 0)
(-0.0006438447857084024 0 0)
(-0.0007634738328742718 0 0)
(-0.0005043978584521076 0 0)
(-8.434710977088972e-05 0 0)
(0.0003087184287915019 0 0)
(0.0007853460958334975 0 0)
(0.001306905775943365 0 0)
(0.001692599628448555 0 0)
(0.001702984830382318 0 0)
(0.001472535163604006 0 0)
(0.001156641553569935 0 0)
(0.0006705525655964085 0 0)
(0.0002588496191848972 0 0)
(-0.0001980125827815451 0 0)
(-0.0001604856881869418 0 0)
(-3.638059356160986e-06 0 0)
(0.0005286050660701167 0 0)
(0.001076443504632881 0 0)
(0.00181854125226912 0 0)
(0.00214177751206501 0 0)
(0.002587905573657674 0 0)
(0.002643821681341517 0 0)
(0.002485282464016397 0 0)
(0.00193159138763976 0 0)
(0.001409525732313754 0 0)
(0.001041809798939441 0 0)
(0.0005065733596661215 0 0)
(0.0001973086177329703 0 0)
(0.000134896122202078 0 0)
(0.0003749004253620324 0 0)
(0.0005605069675340877 0 0)
(0.0007990142651061218 0 0)
(0.0008411223642397627 0 0)
(0.000881115299712003 0 0)
(0.0007178018207835904 0 0)
(0.0006061686301762557 0 0)
(0.0003282369441019295 0 0)
(0.0002879069552765357 0 0)
(-1.498401076611672e-05 0 0)
(5.74528146764982e-05 0 0)
(-0.000189831998418744 0 0)
(-0.000354038788897804 0 0)
(-0.0005689787839861248 0 0)
(-0.000854975294424148 0 0)
(-0.0009092014516150362 0 0)
(-0.0009857232337817021 0 0)
(-0.0005259432169347826 0 0)
(-0.0001948767048177157 0 0)
(0.0001551609276050936 0 0)
(0.0007434831640827133 0 0)
(0.0009390293840523513 0 0)
(0.001087126925467548 0 0)
(0.0008606213548134252 0 0)
(0.0006738824511499003 0 0)
(0.0005218520972498644 0 0)
(0.0004624132161082735 0 0)
(0.00049426809384072 0 0)
(0.0005153916224606346 0 0)
(0.0007575577379088298 0 0)
(0.0008073743688837826 0 0)
(0.001005517290468511 0 0)
(0.001075164772568953 0 0)
(0.001063009224518304 0 0)
(0.001377501582201077 0 0)
(0.001360703620286592 0 0)
(0.001670516213982515 0 0)
(0.001817349406213309 0 0)
(0.001968654595105141 0 0)
(0.001928892896565618 0 0)
(0.001767129596523276 0 0)
(0.001603407039499852 0 0)
(0.001023239543915207 0 0)
(0.000784603035957004 0 0)
(0.0004426973986982332 0 0)
(0.0003496267936602433 0 0)
(0.0002737343942584801 0 0)
(0.0004339952657927238 0 0)
(0.0004789168818476607 0 0)
(0.0005681287571276745 0 0)
(0.0005861784304383141 0 0)
(0.0005976130822675729 0 0)
(0.0005423659477088311 0 0)
(0.0002993132214670675 0 0)
(0.000295195271085649 0 0)
(0.00014284909859821 0 0)
(-0.0001794438930910916 0 0)
(-0.0003688008133598164 0 0)
(-0.000571447660614347 0 0)
(-0.0008192648730281387 0 0)
(-0.0008924190186893317 0 0)
(-0.001014883623025136 0 0)
(-0.000716516075221996 0 0)
(-0.0005164946927209455 0 0)
(-0.0002892145934647711 0 0)
(5.440062548638275e-05 0 0)
(0.0002851217620372649 0 0)
(0.0005719971298771322 0 0)
(0.0004556268556761126 0 0)
(0.0004176270824076172 0 0)
(0.0004210822989590791 0 0)
(0.0005105009434444827 0 0)
(0.0005102831227475726 0 0)
(0.0007690272489184005 0 0)
(0.0008141807405028489 0 0)
(0.0009528978309020956 0 0)
(0.0008967741046530768 0 0)
(0.0007927113270550502 0 0)
(0.0007882044589621837 0 0)
(0.0007191159413923507 0 0)
(0.0008181666602601438 0 0)
(0.0009558299489385307 0 0)
(0.001460452475484376 0 0)
(0.001943917872722816 0 0)
(0.002211565635646009 0 0)
(0.002271158736920824 0 0)
(0.00188679086269417 0 0)
(0.001643549328835486 0 0)
(0.0008667446956646397 0 0)
(0.0004391517213323741 0 0)
(0.0001093390637023455 0 0)
(8.634635254287249e-05 0 0)
(0.0002662317699108094 0 0)
(0.0005632992840141327 0 0)
(0.0006431534798961256 0 0)
(0.0005909420051669206 0 0)
(0.0006584049031182523 0 0)
(0.0003159155050603133 0 0)
(9.705422546250172e-05 0 0)
(-2.138087027678756e-05 0 0)
(1.235663676694897e-05 0 0)
(9.317214362784305e-05 0 0)
(6.584257673067347e-05 0 0)
(7.33431390169006e-05 0 0)
(-0.0004327572912316469 0 0)
(-0.0005388682349470134 0 0)
(-0.0009279412448726485 0 0)
(-0.001399354726048271 0 0)
(-0.00134212403685211 0 0)
(-0.001294749510053918 0 0)
(-0.0004231349760889399 0 0)
(-0.0002557826965953071 0 0)
(0.0004947531461291404 0 0)
(0.000751356169094384 0 0)
(0.0008477279983176254 0 0)
(0.0005939494997217984 0 0)
(0.0005254099092599737 0 0)
(0.0002901163143146916 0 0)
(0.0001010422120724248 0 0)
(0.0004664379147643859 0 0)
(0.0004749999924407942 0 0)
(0.0008166819865747917 0 0)
(0.000805717637541404 0 0)
(0.0008686517043749905 0 0)
(0.0008635682007776615 0 0)
(0.0007688034843408616 0 0)
(0.0009545252598217271 0 0)
(0.001122669184433755 0 0)
(0.001536459914787523 0 0)
(0.001935759870695878 0 0)
(0.002113412357119661 0 0)
(0.002178844186663603 0 0)
(0.001769781688103611 0 0)
(0.001488185476513034 0 0)
(0.0009372315568535052 0 0)
(0.0005840475216733293 0 0)
(0.0003568345140136007 0 0)
(0.000249839631697769 0 0)
(0.0005682773369062185 0 0)
(0.000478047419835063 0 0)
(0.0005347935842582064 0 0)
(0.000552613594466719 0 0)
(0.0004792767384208128 0 0)
(0.0002976305406245864 0 0)
(0.0001656874935544163 0 0)
(0.0002467448411179323 0 0)
(0.0003037866674766174 0 0)
(0.0003485562286730486 0 0)
(0.0003003001895839955 0 0)
(-0.0001089708840206501 0 0)
(-0.0003915600148153024 0 0)
(-0.000805160578552415 0 0)
(-0.001289085105615994 0 0)
(-0.001378190477589227 0 0)
(-0.001377130515762373 0 0)
(-0.0008473409573934611 0 0)
(-0.0003675610279753607 0 0)
(9.111923116241743e-05 0 0)
(0.0005085530414896511 0 0)
(0.0007171234213068156 0 0)
(0.0004271529666637309 0 0)
(0.0005200807544371973 0 0)
(0.0002295357611842117 0 0)
(0.0001372939151149797 0 0)
(0.0003942820512799103 0 0)
(0.0007814960653859993 0 0)
(0.001022258025275188 0 0)
(0.001271087888673592 0 0)
(0.001326636890907457 0 0)
(0.001069331962316677 0 0)
(0.001004266902630347 0 0)
(0.000744584641760857 0 0)
(0.000694551574440068 0 0)
(0.0008824203210892655 0 0)
(0.001378362382298331 0 0)
(0.001909521743321825 0 0)
(0.002347368703394339 0 0)
(0.00275321321700179 0 0)
(0.002653717751147396 0 0)
(0.002195023252343449 0 0)
(0.001652919236976045 0 0)
(0.0009791112010425365 0 0)
(0.0003680082496073156 0 0)
(-9.317199834393643e-05 0 0)
(0.0003472812291407523 0 0)
(0.0003085010539498092 0 0)
(0.0007112986156815706 0 0)
(0.0008032434675233902 0 0)
(0.0008129417057996046 0 0)
(0.0007705004549164841 0 0)
(0.0005189999502185015 0 0)
(0.0004177360736637322 0 0)
(0.0002558610882206268 0 0)
(0.0004981510100229997 0 0)
(0.0004637649901885468 0 0)
(0.0003970239343223606 0 0)
(0.0001421256506722125 0 0)
(-0.0002775908672928967 0 0)
(-0.0006849557573079609 0 0)
(-0.001103759879743516 0 0)
(-0.001371114785456236 0 0)
(-0.001352975985005839 0 0)
(-0.0007304348329312892 0 0)
(-0.0003637312081327729 0 0)
(0.0008977697985253965 0 0)
(0.001299009803827771 0 0)
(0.001649423495882187 0 0)
(0.001623087872791288 0 0)
(0.00126050497107055 0 0)
(0.0008522128151397505 0 0)
(0.0004427554606225814 0 0)
(0.0004929996903044048 0 0)
(0.0006210975921380335 0 0)
(0.001049198574288818 0 0)
(0.001315514988639143 0 0)
(0.001697530473806061 0 0)
(0.001963264501310155 0 0)
(0.001856850063325664 0 0)
(0.001779568837043291 0 0)
(0.001855280474783444 0 0)
(0.001978397065583342 0 0)
(0.00229444238437223 0 0)
(0.003053935281176433 0 0)
(0.0033503181764035 0 0)
(0.003649020284533049 0 0)
(0.003434205844622953 0 0)
(0.002534293696879352 0 0)
(0.002099210931748505 0 0)
(0.001008869776003965 0 0)
(0.0002107688302435279 0 0)
(6.525079124524386e-05 0 0)
(0.0004177906729125487 0 0)
(0.0009396180881372199 0 0)
(0.001569784954015849 0 0)
(0.002122074424368083 0 0)
(0.00217965807580625 0 0)
(0.001969758193296779 0 0)
(0.001294918390596256 0 0)
(0.000720293695991856 0 0)
(0.0002543752867907685 0 0)
(0.0004841356049652273 0 0)
(0.0006566210206137303 0 0)
(0.0009278969861116543 0 0)
(0.001014149331166062 0 0)
(0.0009598544230830448 0 0)
(0.0009157611210927386 0 0)
(0.0003437939622021641 0 0)
(7.181097350194547e-05 0 0)
(-0.000282650036687551 0 0)
(0.0001714219332214843 0 0)
(0.001108224724427653 0 0)
(0.002028041316602636 0 0)
(0.002753349914674843 0 0)
(0.003365569293510804 0 0)
(0.003174948434015109 0 0)
(0.002718640407501476 0 0)
(0.002128886056774006 0 0)
(0.001796741879252107 0 0)
(0.001262751398141795 0 0)
(0.001611445735864526 0 0)
(0.002343250082178784 0 0)
(0.002577046501607778 0 0)
(0.003443087196918251 0 0)
(0.003385476376589073 0 0)
(0.003677563633207951 0 0)
(0.003651899310554904 0 0)
(0.003725528804218114 0 0)
(0.003914696218365423 0 0)
(0.004420087836790001 0 0)
(0.004957746315441032 0 0)
(0.005215283001147543 0 0)
(0.004772062565363679 0 0)
(0.00451873149393789 0 0)
(0.003537637468585722 0 0)
(0.002921387128639445 0 0)
(0.002363831233142444 0 0)
(0.002296725267559676 0 0)
(0.002329256705968625 0 0)
(0.002629598830133036 0 0)
(0.003179159197639245 0 0)
(0.003406058994318454 0 0)
(0.003634613693008849 0 0)
(0.003526891795872473 0 0)
(0.003323907993862334 0 0)
(0.003066076307240364 0 0)
(0.003061095249550102 0 0)
(0.003176709427459727 0 0)
(0.003052866676994506 0 0)
(0.003179279724013985 0 0)
(0.002876458749404505 0 0)
(0.002635139562366641 0 0)
(0.002634475826831667 0 0)
(0.002365755310047141 0 0)
(0.002368696070004016 0 0)
(0.002371647368536481 0 0)
(0.002855158561979315 0 0)
(0.003399538775711116 0 0)
(0.004245184077604614 0 0)
(0.004885710974782092 0 0)
(0.005115101321015604 0 0)
(0.005441059289795156 0 0)
(0.005251844613561592 0 0)
(0.005138349770862027 0 0)
(0.004894748837807214 0 0)
(0.00507240834573058 0 0)
(0.004810722250223138 0 0)
(0.005099331865869481 0 0)
(0.005370538449847117 0 0)
(0.005530653557805368 0 0)
(0.005824800781011721 0 0)
(0.006219597357690229 0 0)
(0.006643960027901553 0 0)
(0.006801305122683858 0 0)
(0.007490204778189563 0 0)
(0.007844011283743835 0 0)
(0.008185608559850824 0 0)
(0.008311012061901523 0 0)
(0.008094969349516779 0 0)
(0.007442905473922116 0 0)
(0.006730809840623542 0 0)
(0.006205060722623649 0 0)
(0.005619165319327107 0 0)
(0.005539861747095312 0 0)
(0.006133859014374706 0 0)
(0.006353221576871845 0 0)
(0.007225418654001608 0 0)
(0.007694885006199556 0 0)
(0.007961537867119516 0 0)
(0.00764446799442415 0 0)
(0.007171640996563442 0 0)
(0.006559451274872096 0 0)
(0.00609665848179617 0 0)
(0.006087743454531225 0 0)
(0.006733622021010806 0 0)
(0.006959123902079187 0 0)
(0.007281393663478718 0 0)
(0.00720897033129732 0 0)
(0.007013538576199017 0 0)
(0.006915292241042494 0 0)
(0.006395491167592061 0 0)
(0.006313414124250793 0 0)
(0.00662008200664479 0 0)
(0.007054797305032779 0 0)
(0.008231249735608613 0 0)
(0.009018379767798389 0 0)
(0.009714933127569823 0 0)
(0.009972590615639305 0 0)
(0.009257626020891929 0 0)
(0.009305105055159553 0 0)
(0.008771332763585675 0 0)
(0.008587752335678486 0 0)
(0.009166104933884308 0 0)
(0.009878167810358414 0 0)
(0.0103630530139254 0 0)
(0.01119553414044267 0 0)
(0.01129162297750911 0 0)
(0.01152667082707463 0 0)
(0.01111267765837842 0 0)
(0.01097158447267927 0 0)
(0.01067972015683645 0 0)
(0.01115866653090305 0 0)
(0.01161404235673387 0 0)
(0.01230176033293358 0 0)
(0.01270184929534399 0 0)
(0.01329898268863786 0 0)
(0.01257511060359036 0 0)
(0.0126735195951354 0 0)
(0.01212262066894387 0 0)
(0.01158730881817445 0 0)
(0.01137352566581936 0 0)
(0.01091808423532041 0 0)
(0.01157885491276952 0 0)
(0.01153101551010345 0 0)
(0.01209552721770901 0 0)
(0.01209350832798129 0 0)
(0.01262719014074826 0 0)
(0.01228085111365361 0 0)
(0.01236105685446072 0 0)
(0.01242493852239693 0 0)
(0.012604668306256 0 0)
(0.01271938519739646 0 0)
(0.01264915098547395 0 0)
(0.01260946265013958 0 0)
(0.01207040429502464 0 0)
(0.01215809030266801 0 0)
(0.01170347190865165 0 0)
(0.01168012541887693 0 0)
(0.0123106342327141 0 0)
(0.01231065273668489 0 0)
(0.01355235639289552 0 0)
(0.01420564070547189 0 0)
(0.01488956192696065 0 0)
(0.01525892227352023 0 0)
(0.01541493967314874 0 0)
(0.01580612651556655 0 0)
(0.01534140989426228 0 0)
(0.01537124299007822 0 0)
(0.01528088817412257 0 0)
(0.0156904160945649 0 0)
(0.01540624788387386 0 0)
(0.01593798948285592 0 0)
(0.01620915646675491 0 0)
(0.01676011425269553 0 0)
(0.01728814457910123 0 0)
(0.01766209049396572 0 0)
(0.01795617874373009 0 0)
(0.01824449216833511 0 0)
(0.01866533172830017 0 0)
(0.01900431686530651 0 0)
(0.01917143403342937 0 0)
(0.01926492007383979 0 0)
(0.01871625706825554 0 0)
(0.018907002098716 0 0)
(0.01836716796997024 0 0)
(0.01811196431614633 0 0)
(0.01802923355967736 0 0)
(0.01744419109547223 0 0)
(0.01811035374367821 0 0)
(0.01837276684757801 0 0)
(0.01837773506822282 0 0)
(0.01919265981159003 0 0)
(0.01953472542921615 0 0)
(0.01937907390190644 0 0)
(0.01942286208494259 0 0)
(0.01900753333859332 0 0)
(0.01905898619736077 0 0)
(0.01896549180121359 0 0)
(0.01902666510650895 0 0)
(0.01872444445916471 0 0)
(0.01869046016186835 0 0)
(0.01853082414648112 0 0)
(0.01873205240555765 0 0)
(0.01879425208422754 0 0)
(0.0189693022684919 0 0)
(0.01964140919317274 0 0)
(0.02050320372813594 0 0)
(0.02125381417157383 0 0)
(0.02257461395961501 0 0)
(0.02289824208277365 0 0)
(0.02322101319613821 0 0)
(0.02280904116174143 0 0)
(0.02261284238668056 0 0)
(0.02156418882658434 0 0)
(0.02201345053611481 0 0)
(0.02198321080194771 0 0)
(0.02291236878785231 0 0)
(0.02377586174499626 0 0)
(0.02481681221309432 0 0)
(0.02560589952784814 0 0)
(0.02572858981352295 0 0)
(0.02587273869661418 0 0)
(0.02532203831989547 0 0)
(0.02502425251453485 0 0)
(0.02468268485682727 0 0)
(0.02489682803212145 0 0)
(0.0254877424817347 0 0)
(0.02625847563153547 0 0)
(0.02723730004844915 0 0)
(0.02756138583339611 0 0)
(0.02766144302561691 0 0)
(0.02748005533284819 0 0)
(0.0268144802861791 0 0)
(0.02599150859163232 0 0)
(0.02506260713496845 0 0)
(0.02516399463007789 0 0)
(0.0253155688031603 0 0)
(0.02604618748094474 0 0)
(0.02693063181673249 0 0)
(0.02807168405851526 0 0)
(0.02848940488434293 0 0)
(0.02864318158442281 0 0)
(0.02819992180725784 0 0)
(0.02769496455747161 0 0)
(0.02717411943575067 0 0)
(0.02662394385829834 0 0)
(0.02627517825998287 0 0)
(0.02699985149153752 0 0)
(0.0268099566748505 0 0)
(0.02776195184102298 0 0)
(0.02852013798269274 0 0)
(0.0285636823830219 0 0)
(0.02970052568447751 0 0)
(0.02938391035737395 0 0)
(0.03050918369652347 0 0)
(0.03073509624146298 0 0)
(0.03105791362912599 0 0)
(0.03133687687375494 0 0)
(0.03213048557619926 0 0)
(0.03215930418065557 0 0)
(0.03199495855655091 0 0)
(0.03250155454645033 0 0)
(0.03219630520416444 0 0)
(0.03253450699550368 0 0)
(0.03283668091266907 0 0)
(0.03326156808319314 0 0)
(0.0340227838500369 0 0)
(0.03477161655654756 0 0)
(0.03506302787420208 0 0)
(0.03513101793777925 0 0)
(0.03517592851219336 0 0)
(0.03504531408247469 0 0)
(0.03587162496706983 0 0)
(0.03610732422168139 0 0)
(0.03681504644318214 0 0)
(0.03733856406434836 0 0)
(0.0370962067621665 0 0)
(0.03696520809318993 0 0)
(0.03616859327693519 0 0)
(0.03539948523483536 0 0)
(0.03505027163631744 0 0)
(0.03522971256659871 0 0)
(0.03586444983819465 0 0)
(0.03674631903077704 0 0)
(0.03817932288610434 0 0)
(0.03909172140574076 0 0)
(0.03907213032024417 0 0)
(0.03894814735646557 0 0)
(0.03815390892902829 0 0)
(0.03713024628328562 0 0)
(0.03665818874452427 0 0)
(0.03642873713287383 0 0)
(0.03663535199188837 0 0)
(0.03756536289622561 0 0)
(0.03841939289527364 0 0)
(0.03932690331902421 0 0)
(0.03977229701762609 0 0)
(0.04001766678534277 0 0)
(0.04009487160151954 0 0)
(0.04022446162261219 0 0)
(0.04049580184140184 0 0)
(0.04101343729476752 0 0)
(0.04170006909608874 0 0)
(0.04297048703378437 0 0)
(0.04304010489319884 0 0)
(0.04368698513965861 0 0)
(0.0434235941065147 0 0)
(0.04329031087158888 0 0)
(0.04287757689652925 0 0)
(0.04293921623362499 0 0)
(0.04335896275938202 0 0)
(0.04417065424384961 0 0)
(0.04521560035060168 0 0)
(0.04623042662131502 0 0)
(0.04737863757137638 0 0)
(0.04798939829008295 0 0)
(0.0482787498264999 0 0)
(0.04819704304226487 0 0)
(0.04754575478675382 0 0)
(0.04770113898427981 0 0)
(0.04738328402488082 0 0)
(0.04713731370999395 0 0)
(0.04732857288552964 0 0)
(0.04748283931507014 0 0)
(0.04779921094130667 0 0)
(0.04791451785913244 0 0)
(0.04840046512022582 0 0)
(0.04857485864307871 0 0)
(0.04948325983660766 0 0)
(0.049632557866984 0 0)
(0.05015570661441583 0 0)
(0.05036298345297138 0 0)
(0.05065923586736405 0 0)
(0.0500862542272023 0 0)
(0.04983796910188985 0 0)
(0.0493260879450594 0 0)
(0.04895124267137319 0 0)
(0.04903318908879089 0 0)
(0.04892789973805794 0 0)
(0.04936541431950101 0 0)
(0.05023821673907206 0 0)
(0.05089936405827932 0 0)
(0.05195660484354696 0 0)
(0.05248099842404154 0 0)
(0.05310629641558144 0 0)
(0.05352516341346133 0 0)
(0.05392187184271274 0 0)
(0.05449951783414281 0 0)
(0.05471042681321972 0 0)
(0.05511022014029265 0 0)
(0.05516495469965015 0 0)
(0.05557300893882238 0 0)
(0.05596653375282967 0 0)
(0.05614414738995376 0 0)
(0.05679459412740523 0 0)
(0.05754711080511313 0 0)
(0.05769384425214018 0 0)
(0.05853457849255668 0 0)
(0.05871855242543807 0 0)
(0.05893818351523033 0 0)
(0.05914553724951578 0 0)
(0.0594904525363026 0 0)
(0.05961824765476174 0 0)
(0.06044970575779816 0 0)
(0.06123202130044972 0 0)
(0.06224065978180635 0 0)
(0.06294210743656108 0 0)
(0.06337163635258281 0 0)
(0.06289675540689067 0 0)
(0.0626730440677403 0 0)
(0.06131327175169575 0 0)
(0.06095650318850809 0 0)
(0.06054953863877703 0 0)
(0.06095581817751653 0 0)
(0.06181983578838175 0 0)
(0.06317275640377042 0 0)
(0.06424411451210374 0 0)
(0.06521387242179322 0 0)
(0.06564395757649935 0 0)
(0.06518544163554561 0 0)
(0.06509637703192084 0 0)
(0.06426687049351577 0 0)
(0.06385327909083602 0 0)
(0.06380830554758543 0 0)
(0.06362332918036057 0 0)
(0.06411657928998937 0 0)
(0.06450560448342708 0 0)
(0.0651968084501143 0 0)
(0.06584718884352675 0 0)
(0.06671603912213853 0 0)
(0.06768781455998897 0 0)
(0.06864188670531507 0 0)
(0.06966352512321813 0 0)
(0.06994995139684335 0 0)
(0.07024132452876328 0 0)
(0.06999645557887346 0 0)
(0.06991548096753786 0 0)
(0.06968247941883308 0 0)
(0.07002326680724058 0 0)
(0.07093233311273653 0 0)
(0.07211149735300679 0 0)
(0.07331824021612238 0 0)
(0.07427280176704901 0 0)
(0.07457514969713658 0 0)
(0.0748913215676162 0 0)
(0.07477648921298645 0 0)
(0.07483674331873875 0 0)
(0.07463007285486808 0 0)
(0.07487186152786332 0 0)
(0.0756599098377968 0 0)
(0.07656801857240447 0 0)
(0.07726063196705869 0 0)
(0.07806231674702226 0 0)
(0.07831759452304944 0 0)
(0.07814475281591282 0 0)
(0.07796950550103678 0 0)
(0.07766607759989964 0 0)
(0.0774888924734129 0 0)
(0.07802681714174284 0 0)
(0.07834947552924204 0 0)
(0.07951607238757005 0 0)
(0.07988587383746353 0 0)
(0.08069580677871165 0 0)
(0.08085400289535277 0 0)
(0.08103178366897774 0 0)
(0.0806813523842491 0 0)
(0.08041510723397882 0 0)
(0.08053161513781761 0 0)
(0.08050904077475236 0 0)
(0.08075351233699865 0 0)
(0.08150421694433412 0 0)
(0.08144631405726654 0 0)
(0.08235122024958795 0 0)
(0.08282158711060783 0 0)
(0.08327060573864312 0 0)
(0.08393388153845957 0 0)
(0.08434395729673899 0 0)
(0.08502845989468581 0 0)
(0.08573024417643557 0 0)
(0.08624067040961704 0 0)
(0.0870889113305927 0 0)
(0.08727909353370382 0 0)
(0.08791320708646688 0 0)
(0.0880271689854871 0 0)
(0.08872664401924278 0 0)
(0.08902180171238036 0 0)
(0.08986814955982554 0 0)
(0.09062289975906153 0 0)
(0.09117812073561854 0 0)
(0.09180286824771043 0 0)
(0.09221671002100255 0 0)
(0.09242283992966896 0 0)
(0.09263458713196532 0 0)
(0.09300112400029766 0 0)
(0.09327630566403564 0 0)
(0.0938994187458775 0 0)
(0.09457480029629736 0 0)
(0.09564436575969258 0 0)
(0.09651306236352807 0 0)
(0.09690191978527113 0 0)
(0.0975079668998512 0 0)
(0.09707910632012802 0 0)
(0.09689974314927213 0 0)
(0.09625965213946973 0 0)
(0.09570547823038791 0 0)
(0.09586520945391391 0 0)
(0.09652657604031387 0 0)
(0.09774016254539541 0 0)
(0.09849581408364858 0 0)
(0.09974399187887265 0 0)
(0.1005915130117235 0 0)
(0.100867702261137 0 0)
(0.1008284375638285 0 0)
(0.1004186014332719 0 0)
(0.1002516290318588 0 0)
(0.1000588584549315 0 0)
(0.1000849230933303 0 0)
(0.1003515382992747 0 0)
(0.1008507054792937 0 0)
(0.1015588513629909 0 0)
(0.1023819839844282 0 0)
(0.1032325079014233 0 0)
(0.1038755856397544 0 0)
(0.1049664593293045 0 0)
(0.1057092752583721 0 0)
(0.1068491162908559 0 0)
(0.1075812596763952 0 0)
(0.1082473412806708 0 0)
(0.1086522759363578 0 0)
(0.1089763914803684 0 0)
(0.1092318112079016 0 0)
(0.1092844724402887 0 0)
(0.1097840098908631 0 0)
(0.1103204056125651 0 0)
(0.111233440524779 0 0)
(0.1118970150458934 0 0)
(0.1132634577530151 0 0)
(0.1139787580767461 0 0)
(0.1147643283967224 0 0)
(0.1153999712409319 0 0)
(0.1158678987619563 0 0)
(0.116448101394673 0 0)
(0.1169375751076986 0 0)
(0.1176131068987724 0 0)
(0.1180616783722519 0 0)
(0.118231216893176 0 0)
(0.1187130926665398 0 0)
(0.1188763199426542 0 0)
(0.1189412058705328 0 0)
(0.1190350714236627 0 0)
(0.1188623119297233 0 0)
(0.1195220781373498 0 0)
(0.120153137962086 0 0)
(0.1209662096531498 0 0)
(0.1217397870024657 0 0)
(0.1224856733288126 0 0)
(0.1230603408145311 0 0)
(0.1234430365179366 0 0)
(0.1234327160884914 0 0)
(0.1236080183329429 0 0)
(0.1235977839377826 0 0)
(0.1239605785955339 0 0)
(0.1241578254179377 0 0)
(0.1247614045834466 0 0)
(0.125101374849135 0 0)
(0.1258431339592887 0 0)
(0.1263327604610267 0 0)
(0.12680583904492 0 0)
(0.1274739003609954 0 0)
(0.1279280583530827 0 0)
(0.1287789562349692 0 0)
(0.1296984340853964 0 0)
(0.1307621157736133 0 0)
(0.1314093891969059 0 0)
(0.1322326634350478 0 0)
(0.1326243463374631 0 0)
(0.1329575006907751 0 0)
(0.1333138507598395 0 0)
(0.1335111938354383 0 0)
(0.1340132145256537 0 0)
(0.1348063400277326 0 0)
(0.135488790411433 0 0)
(0.1365361267815892 0 0)
(0.1371760631885487 0 0)
(0.1380788516534724 0 0)
(0.138583941945354 0 0)
(0.1391734730144627 0 0)
(0.1393360505960951 0 0)
(0.1402065350003746 0 0)
(0.1408118098483956 0 0)
)
;

boundaryField
{
    inlet
    {
        type            calculated;
        value           uniform (-0.0001170768778277047 0 0);
    }
    outlet
    {
        type            calculated;
        value           uniform (0.1408118098483956 0 0);
    }
    frontAndBack
    {
        type            empty;
    }
}


// ************************************************************************* //
