/*--------------------------------*- C++ -*----------------------------------*\
| =========                 |                                                 |
| \\      /  F ield         | OpenFOAM: The Open Source CFD Toolbox           |
|  \\    /   O peration     | Version:  v2012                                 |
|   \\  /    A nd           | Website:  www.openfoam.com                      |
|    \\/     M anipulation  |                                                 |
\*---------------------------------------------------------------------------*/
FoamFile
{
    version     2.0;
    format      ascii;
    class       volScalarField;
    location    "0.019";
    object      p;
}
// * * * * * * * * * * * * * * * * * * * * * * * * * * * * * * * * * * * * * //

dimensions      [1 -1 -2 0 0 0 0];


internalField   nonuniform List<scalar> 
1000
(
104471.4060322529
106963.4249273159
107624.9811555279
105610.5437237911
102302.5392004878
99924.8878114379
98523.67921725108
99001.50836344714
100631.5711944852
103409.0319118386
105116.9076750595
106908.6087102817
109201.9388496581
110732.4487270073
110410.919640862
108843.0320073577
105657.6840009653
101466.248723432
98111.68977808757
95846.33482416277
94350.43169531887
92860.96659657873
91376.67854188239
90109.06418110318
89435.50255978675
90494.89949904484
94636.43932782125
100831.2897522952
108114.1789615794
112602.8042770258
112257.2556525993
106736.4845933907
98929.6937843441
91222.55792779176
88091.23375240527
89562.78390447135
93793.77815428533
98433.07925664393
102527.6320556303
104291.6483493299
105498.0317247368
106027.7456042404
106142.2757369125
105867.5500876245
105256.7152031928
104264.1957810901
103806.4037931793
103271.2395534972
102338.6275684092
100565.1986841182
98231.37208242806
95933.19080140967
95154.72186597757
97339.52002300406
100983.6082139059
104375.0009154766
106302.2491546388
107500.329993711
108325.5603801687
108198.129799008
106839.5934368612
102855.9072574854
97660.21607968427
92704.89177000223
90085.85978924931
91087.46451872167
95522.41378994747
101282.1497765482
104933.4833164949
106349.5364883101
106015.6738965685
104945.7859819749
104395.1919191169
104705.8056314233
105730.6173455587
105474.3356140257
104213.8895652686
99141.35292801031
92825.1960552521
89547.02267363066
88273.28916316137
90372.65710350742
95154.20546171737
102561.0920996172
108537.6304870819
111979.5551195154
112506.4687571724
111187.7855145547
108449.6203723692
105256.2812306369
102001.5965955081
100447.907446152
99797.29543359717
100249.180232761
100805.1261275995
100932.7916974443
98962.35313125336
95587.53195625903
91354.54486818772
89618.23505012835
91160.66980429794
94540.16028674392
99286.46212205185
103482.1833679337
106610.1956263272
107802.400668642
107319.6818769837
104416.0970275817
99954.51784220425
95172.38454219804
93489.97426059468
95346.35187241297
99125.00890601879
103547.684108341
105692.9994307308
106129.9555543489
104848.3791216238
102868.515837537
100124.0878560768
99224.21559147502
100732.076879477
104051.0641204954
107198.7825619394
108780.6109453059
108013.0348226698
103956.5264927517
97845.77121171445
92233.91166044623
89219.28925372755
90229.64699202702
93977.02638963646
99537.12591953034
104616.7984858486
107771.6060848783
108361.4505521187
107886.3313916325
107049.3089025556
106873.7525728474
105505.88707672
103811.4908496197
100086.7160139514
96093.02107241401
94619.50853786479
94351.90776625018
94117.41350406007
94785.20273576376
96551.79983893046
99127.55458090777
104406.867622761
108022.147931204
110243.175913201
110720.4445398509
109936.0333248387
107323.5895955753
102986.4151299522
97901.54256686203
94195.04715179543
92112.07843488167
92623.30825332065
95072.43753489283
98898.05555174564
102187.5620683805
104041.3803196871
103685.2605463239
101819.5407912617
100258.8510816012
100868.4056376008
103573.6405912418
105909.3772128272
106423.3825335924
104394.6804289832
100037.0980121477
95139.87831398392
91619.46291146222
91336.78198924515
94469.28693634782
100209.0454942827
105839.7996092402
109687.435408408
111016.4760956504
111497.3258421061
110821.1591424145
108944.1154196915
105639.4872631882
100855.1706141711
96208.35422487705
94032.85520989986
94038.01926837844
96335.99055973257
98505.94716716146
99930.01449741345
98663.53991496454
95568.05437967512
93381.52070502919
93883.64931659958
97533.76185804629
102243.2400944752
107327.8650000752
110192.6552800105
110699.3122277651
109390.3007130593
106935.0925599971
103133.7802249316
98640.29459623594
96945.78575119496
96023.02234497217
95853.76067433119
96149.14149045979
96646.59335732067
97850.11330804483
99070.92779163437
103571.0537161297
108077.6614714829
108477.6928728176
105864.4614471142
104034.5754811243
101674.2852781072
99245.50552384646
96086.81875252958
93243.7796056869
92381.101105689
94789.5377179659
99369.3002032755
103297.4010120782
106158.3145762534
106946.2453233328
107450.2817727432
107951.7622380495
108556.1128914586
109255.8301264191
109348.1416675924
108483.2702194376
104902.8609993558
98972.89429665329
92119.34079044603
88408.92001651072
89408.27078479057
94083.51322876917
99122.63941229587
102462.6454128907
103278.8171701017
102498.5236789965
100663.2690185334
99034.52889796547
98328.95338488853
99447.68814876169
99698.52073374884
101893.116727532
102089.7491072999
99731.03166040979
97119.27270612275
96633.47523029734
96724.40340102182
98212.59330404495
100118.4163568764
101946.006002227
102782.7293886236
102787.9778744344
101597.812329339
101200.889664891
101806.3937544951
103781.8647174224
105065.9821209703
106201.7510900423
105028.429466845
101535.2766341786
97106.80230162246
93197.06081670603
91073.20953833363
91787.77097016977
94635.83774396731
100205.5086402398
105664.4898866957
109294.860008498
110749.9987726998
111294.2852493305
110563.3877852232
109051.5967826679
105128.7526727391
100325.291115224
95488.19518409298
93291.36556568222
93930.32727041777
95586.05097083963
97031.51646165845
96280.14435717868
94866.71395895421
93776.65786364126
95005.1746487429
99450.02462542286
105014.0053999063
109601.2023747009
112210.45440561
113062.5624969651
112629.2838723934
110234.5568382224
106869.6424410053
101431.1793961604
98110.12494995659
95519.62397542443
94573.11386627721
94662.04044510514
95894.50275812738
97950.76018208334
102189.8099544739
106723.5690193625
107399.6893592901
104975.8586416395
104076.7291170317
103584.4992877521
103622.7550755486
103341.0861234783
100797.7184715728
96482.9516978553
92152.67371891263
88950.9436643502
88774.21751850506
91732.01649394508
97592.17635736248
104291.6447261053
108444.6023326362
110576.5102529082
111413.4983442392
111641.7715892285
109865.9364232388
105895.027524551
98000.06105194034
91702.85292191363
88286.86896771526
87539.55303354538
89570.39413464021
93555.28325081473
99664.14377601707
105268.9033747105
107670.2543605907
107581.246377604
105778.3447832459
103513.7888937451
101526.7665851325
100000.2521151959
99460.81550677787
97456.60302536655
97381.91156971497
98112.79850457821
99655.22887241717
100949.1244030978
102790.4461097722
103573.22203343
104567.6967872551
104898.373545576
104129.4471268141
101217.8258872949
96705.48290298058
92905.16267267212
91542.62517888511
94525.48182998796
100969.7590379323
105709.196491436
105562.1028398275
102013.792079688
98710.23998983059
95914.22027706633
94912.86250730051
94622.11193742718
94428.81124930915
94360.79721186338
95274.59516523662
97990.3511346391
103469.7977926983
110264.2961549411
112819.2137100357
110092.3283081616
103180.0104899948
97492.34999764497
96035.4369472032
96792.38961200071
98317.84846310635
100027.5741654972
100675.5925498734
100035.5463275847
98673.59945040841
97318.48521286045
96238.49129894441
96483.15561037142
99460.30087720846
103660.2247455666
107534.6509411827
107998.3062667693
104757.3504534459
99779.86506199589
94549.90766100679
92249.35059034091
92451.55305289435
94842.01419491546
97869.78632367417
99830.39746703937
100097.9405440203
98857.47546026137
98740.75367210891
100321.0932739888
103719.4538240172
105573.9513193913
107193.0325943135
106707.6314801851
103900.4376824169
99869.4118748636
96090.20016029647
93008.69519155056
91474.37231319195
91095.89842962925
91565.76155075732
93679.56798247286
96909.22508180527
103541.8569287923
108785.3146966079
112543.1282400143
112831.6978427401
110297.8886035287
105413.1020752473
97614.35338220921
91162.9908479115
87691.09351018853
87245.60405842736
89561.10429613295
94190.47498420737
101103.4774115812
106774.8157930064
108267.9943859016
106668.8823322761
103570.198622535
100658.7645064227
98894.78591074512
97841.00110574639
97472.9242502706
97454.27164816698
98476.8005219795
98994.34074289973
98781.65211287345
99956.73965549238
99790.31953368135
99785.43211510489
99221.47561718024
98634.73234494876
99108.31223936456
100962.5819989466
103317.1169702766
107407.6923732348
108004.6894155318
104352.8428551282
101658.6943473197
99666.39418033521
96412.00092012635
93452.97448391991
90873.04258240732
89293.77437185055
89738.52149764904
92279.75695198723
98522.37792216189
104245.1841922947
107485.4809574712
108893.6157875936
108666.6478866897
108298.3982588086
107550.3272202722
105280.3412810835
100260.7794942072
94678.93707310087
89869.91732531336
89204.72803192327
93325.52964853635
99897.1969982358
104483.0564340135
104518.8693338488
102077.1569370209
99425.89225748603
97745.80105564353
97251.52697280265
96943.68976798588
96456.06754692373
95983.41152473577
96159.65265339754
97925.99816190345
101207.9670416005
104704.10452075
103904.71424772
100000.1989559149
98675.84733081963
97504.48213812969
98330.42437398125
99625.00089125223
100737.8949903531
101157.4940702745
100911.9338280561
100094.3801955698
97775.52954535568
95058.45679938022
92672.26366246463
92772.15554661005
94405.57779770509
96441.24991670225
97570.43348885434
98016.36362922084
97739.11979894988
97217.37072307291
96581.81200792987
95961.38308301423
95559.31324888133
95855.54145311966
97180.24529649249
99150.46551422578
100727.5247426132
101186.059509104
101947.4444681218
100874.1852062586
98723.88624947608
97834.57018016063
98543.27239576385
98803.59948179945
98111.90093602278
96296.06348899784
94208.75101424538
92638.72802278277
92910.97721418478
95168.13311139737
98417.12704831727
101579.7887144381
103431.9464446371
103211.228971872
101007.2797724458
98308.34194028411
94660.45230827339
93645.41261553444
94823.52772845079
97038.93859368916
97739.01312784683
98146.65987147232
98538.04804614921
99197.80908100661
101348.8545995936
102961.7180762851
107797.4299528622
109411.0655050613
105029.4351053748
98632.77988806892
96407.36821142872
94652.06590098316
93531.68329880205
92413.22233627086
91543.21865179726
91101.17859077241
91653.20473604427
93460.22644943403
98808.83050435896
104027.6043500888
106657.3210940766
107981.847195581
108242.4725263015
107718.8595360784
105890.8742759308
101717.580681612
95524.17984110136
90010.62224244188
87319.75196818131
87878.2305126241
91404.50921353963
97823.09874871977
102645.301046151
103114.9203723563
101383.699306047
99520.75573380277
98726.40372676184
98684.24658011395
98874.09247169692
98953.37538187772
98655.0856143892
97512.02917670496
95608.81531406123
93621.52998998226
93116.83269478493
94570.1149392801
96698.97802172416
97855.13745536676
98520.59701857813
98623.21862530296
98549.25102458101
99324.35178424438
99014.52499976719
100114.2301294108
99767.12243224942
96479.10655001274
91833.38825874816
89821.05649019995
87959.35129136547
88633.11252583891
91052.31067084138
95361.34157937331
99721.06234731089
102643.2929110394
103536.1891315858
102969.6424408939
101147.8208755913
99165.07885943634
98184.03385067625
98896.92348967089
99107.38618292693
101291.9702374814
101015.9204882872
97991.10735595235
96030.82733739461
95068.55218134107
94556.04692495838
94044.04532837264
93736.16233250246
93688.44879879511
93360.25344698914
94872.11616356968
99005.44551474373
101914.4880456076
103998.7392082436
103980.2981465923
102198.2991710573
98280.32102601987
93611.11890392989
88887.54219471784
87614.55563233921
89405.48694900762
92940.06637706979
95708.20327586775
97017.48634567112
97449.06313138983
98016.76105628314
99630.82359015186
102317.340129138
104765.5902285266
102382.8528547402
96677.28060868675
94618.09054179769
92126.09213231361
91188.56831881024
91105.26857919975
91854.06886633087
93949.59373356096
96613.90427290458
102674.5182348687
106446.8964913334
109080.3306092995
108836.5856395215
106559.6215438672
102439.7316854071
96374.85308891264
89627.92238869971
85486.10830928858
83934.05408112211
86785.38823534043
91836.33072855354
98816.67666575
103394.1566168995
105341.3213281224
105019.4867490354
104667.3234567721
103903.7706909497
101753.3837539783
97555.99862880043
92576.24287256628
87475.94610492775
87036.41340715194
90127.21939983012
94474.94959386588
97653.26537382579
98562.65844695429
98313.27510820025
97902.38417045253
99491.50741349041
101432.3351331923
105007.7485536556
105796.8058701062
101287.5303048256
94255.6011874518
90876.98807145518
89129.09564483284
89999.29105987921
92701.03356097793
96592.20399591433
100736.2144497995
104580.242983889
107119.6100012097
107162.1136228566
104315.8012950208
99408.80188489854
93191.01469926565
88699.17447655533
89180.80496671468
92227.4367543882
96636.00721291367
99620.75367584657
101218.1335873627
101588.1789279391
101131.0581102034
101382.7938725787
100279.9151760162
101091.6689649675
99704.5369872343
97458.79806496759
96824.21364272879
96636.44151581956
97012.74477774245
97974.51179273411
98650.03059082587
98829.18867762895
99672.0422919719
99255.81716847842
99898.04773845956
98922.67812641329
97458.34709405953
97265.76996708199
97552.69855843874
98051.41753419669
99089.43958006887
99733.65127354895
99947.04482124391
98070.48096934937
95517.12751369558
92954.92055782607
92453.74210400833
93691.81248078051
96867.4630116724
98807.44458476309
100709.2380199888
101811.9363526345
102393.3257916731
100951.509183938
98319.61711131298
93705.97112486117
90478.55904359554
89965.97838471948
90545.62844720375
93272.24881782968
98516.19162090038
103210.9834661918
106364.8281668918
106922.1414017565
103447.953182418
98049.585946946
94394.55124109544
91821.12052559377
91247.67842055252
92357.25504697964
95442.97869660219
98152.01446287741
102611.5887706285
104208.6473621942
101876.7404641687
97573.18403827629
94545.20076735629
92488.85529868444
92082.43543888535
93056.38266109041
96087.87288829219
98427.03052127511
102332.7547601
102978.7830201064
99521.21613283077
95394.49006274351
92673.66863506979
91330.27733085134
91140.20062453188
91794.91374127242
93916.92450840776
97023.10693170188
101188.4354987413
103141.7780683667
101463.8351065537
96502.12916456767
91580.99515880595
88714.66711410279
88288.59287522572
90440.49924381035
94190.05261505398
98627.90674592696
102449.1812933861
104966.790002686
105046.7741296391
103040.0552148052
98743.16862209453
93503.53097903192
88595.80059654744
87658.57772169783
90538.07693925331
95406.37772956704
100948.5825073508
104138.3151780048
105559.3650432685
105246.0852467858
102614.0997150761
98060.15913885986
92520.08022215498
88762.34846738681
88415.55982225463
91676.26091438725
97010.25149914893
102404.5605815367
105819.8044246805
106299.8431883219
103749.7689882096
99365.04774317764
94166.35404343613
90198.39955723297
88649.71964370983
89564.79141096624
92435.46311239681
95824.05986221629
97456.62985793545
98197.54377173276
97590.55152307946
97055.60910170063
97082.82914224357
96569.80284527339
96910.32208850746
96227.52005874628
94635.93329749833
93346.64222219796
93130.44673722802
92458.74832158227
92581.21255907731
93696.62805689673
96425.92800914128
99623.35482909434
103610.5701654298
105328.2059437258
102581.1537477488
96452.66984986779
92879.96740925056
90179.95023190514
89283.5701946031
90029.12007438665
92552.4623465433
97129.0832495463
101760.6593557036
105959.6537231471
106602.9746678972
102109.846431646
95859.24770980045
92453.5063849819
90578.06912277374
90581.14233554711
91296.85837059905
92835.82888123517
95860.82599064425
98924.32561009513
102576.3635532045
102412.1053939948
98399.40997906776
95480.14310475654
93498.98771921714
93264.05292234808
94134.72475089399
95264.0408512592
96137.62864356901
95026.91053463124
94247.04292151242
92614.01847505962
91647.92582836756
91750.18209540598
93149.68363988417
93548.79019417717
94280.87417824763
95409.69985151036
97093.21399237579
99837.06014846377
101506.931983736
103229.5784998117
101193.3315792515
95017.02494727299
90590.92559708764
88441.22180630516
87803.31711993676
88797.27127282058
91545.87101157982
95874.45800137366
100338.5751925359
103799.9663457017
104994.7974590301
103267.3226748947
99376.74544767723
92832.81498793396
87529.44426064832
85900.65167899197
87585.43907285435
91701.85757215231
96634.72827940762
100867.5706351192
104142.3594060203
104525.8337889757
102436.074408635
98614.49375269999
92822.32041324934
88085.65730569139
87149.21176989132
89081.01912311121
93035.11744475087
97881.10730332587
102091.6672084045
103666.0740135288
102001.5436024705
98459.65295816901
92686.91242468143
88755.60489325186
87534.2728030077
88538.36303060115
91189.35147124159
94837.77807486735
98032.64358393375
99989.94835443243
99889.44384342928
97970.77620044936
94945.35501251463
90203.91270476833
87117.37471579433
87206.29127158326
88654.22349938343
90619.6308945113
92377.13361342541
93575.43089277242
94022.64773166883
93961.62582644184
94187.86209697663
95575.57858836
98178.93600884677
100869.747899332
102843.2854210359
102749.1751738001
99391.72443080222
94188.52688898527
91524.45022602631
90068.77380097767
90319.06761872323
91543.02200503404
92701.23143263544
94614.34862091851
95684.34460696754
95048.24065382607
93905.3335683272
93941.24823911769
93887.89664588468
94560.83628516643
94976.11302894233
94329.20749322718
92302.03292734461
89531.60423226534
87476.27999040257
87686.78398089421
89062.05677012498
91086.68188333936
92443.29618688193
93675.20393767947
95162.13667395363
97057.63748120845
98700.13042499196
99388.55521825963
99679.29369638421
98671.08792833787
94258.32525400029
90103.01647603276
89403.15476643638
89099.00821278534
89682.45288219022
91160.39728273022
93552.10080059733
96884.21408120186
99982.34284636201
100931.4751168592
101519.3248360484
100280.2195686276
95646.28963864665
90724.75331444606
89428.97911962817
89004.41644635831
89808.70070616314
92128.06610119641
96180.74085051571
99771.55570309129
100986.6262466332
100679.5162936243
99151.401441119
95831.8525120577
91981.02965715154
91139.96317601751
91707.61293997748
92838.32151745427
94905.72442710047
96930.63269779809
97320.82254005034
96884.38948542085
95969.78950568986
93889.15428436373
92638.90836368015
92594.89196299102
92659.54650346254
93421.26423829605
94308.21520964024
)
;

boundaryField
{
    inlet
    {
        type            uniformFixedValue;
        uniformValue    sine;
        uniformValueCoeffs
        {
            frequency       constant 3000;
            scale           constant 50;
            level           constant 101325;
        }
        value           uniform 101325;
    }
    outlet
    {
        type            waveTransmissive;
        gamma           1.4;
        fieldInf        101325;
        lInf            2.25;
        value           uniform 94375.0017789031;
    }
    frontAndBack
    {
        type            empty;
    }
}


// ************************************************************************* //
