/*--------------------------------*- C++ -*----------------------------------*\
| =========                 |                                                 |
| \\      /  F ield         | OpenFOAM: The Open Source CFD Toolbox           |
|  \\    /   O peration     | Version:  v2012                                 |
|   \\  /    A nd           | Website:  www.openfoam.com                      |
|    \\/     M anipulation  |                                                 |
\*---------------------------------------------------------------------------*/
FoamFile
{
    version     2.0;
    format      ascii;
    class       volScalarField;
    location    "0.019";
    object      pMean;
}
// * * * * * * * * * * * * * * * * * * * * * * * * * * * * * * * * * * * * * //

dimensions      [1 -1 -2 0 0 0 0];


internalField   nonuniform List<scalar> 
1000
(
101333.047100886
101338.644275954
101346.3649123244
101338.1367704358
101326.250395621
101327.4493381172
101322.4579568437
101321.8916074556
101321.7828133732
101328.1969579684
101335.0967069945
101342.411867316
101339.0219463272
101328.5633443446
101328.0781641462
101326.2624909891
101327.2802616724
101324.1388305267
101325.7598311698
101330.654332433
101333.2417069403
101328.8994903401
101324.1494534043
101322.0730275481
101329.9261703016
101333.708569526
101327.3761787373
101316.8629856777
101318.6989283881
101319.8456063791
101319.4841808258
101309.6305859317
101308.3890188196
101311.0759130029
101318.9148502965
101321.8172890317
101314.6022583194
101317.3826286213
101321.3447829762
101327.63102418
101327.4346629228
101324.7311339962
101325.1809760528
101327.8336734741
101325.3523941264
101319.4815858668
101316.9234888158
101316.817466086
101327.5132635014
101328.6020050564
101320.6896664892
101313.2772774419
101317.0172997703
101316.9742849239
101315.0759988028
101317.5657797434
101328.4348412736
101337.162890798
101338.7653146664
101327.3883482361
101323.5653422453
101321.4287100014
101326.498704166
101326.7494275143
101321.2985669504
101320.4487946918
101323.9617816385
101324.9085556447
101322.0237812342
101319.3786633692
101319.3161196057
101327.2900189815
101332.0459741679
101324.5291001065
101315.437322432
101316.4995402348
101316.9569089197
101312.4280895531
101307.2425531776
101308.6385873841
101312.4858449357
101319.680241508
101316.6809219645
101307.2629620296
101310.5170588509
101313.4325017538
101318.1540889761
101316.7709121412
101314.0748062734
101318.5886746584
101321.1394085982
101318.0079592359
101312.2378073988
101311.1287917779
101311.8583264097
101322.1624567934
101317.2871256856
101308.3348417115
101301.061127799
101303.7178584833
101301.9554341221
101300.3689670978
101300.9980953264
101311.651628109
101316.9899618944
101312.9270577869
101298.1677024294
101297.8623379417
101295.6353583125
101301.6263104502
101302.9522634836
101300.7726284099
101303.9970870967
101305.3480568459
101307.0985362158
101300.6185240924
101297.0895983978
101295.3647225159
101303.3341623904
101303.1337659525
101295.9953405944
101292.3102152904
101297.3172112679
101300.2251399639
101298.6185432352
101295.6958288692
101299.0353266141
101304.807252761
101306.7394109316
101301.7856156693
101296.5226312672
101297.5827775418
101303.6032207211
101308.0128489474
101306.7158402253
101306.3871937984
101306.8109219847
101303.6307052957
101295.4770448336
101285.3718095954
101285.5161222351
101291.3956072041
101301.4640861259
101298.0282432179
101292.4952085617
101292.3442340548
101294.009877769
101291.8970647131
101290.263979906
101289.3834604636
101302.3020481718
101306.6462984461
101301.2466529693
101287.3771091873
101289.2000362029
101292.246176147
101300.7065941629
101299.9719469063
101296.519993069
101293.2803050836
101292.7217208866
101291.4404439567
101285.3993741313
101280.5825287359
101281.2046557652
101290.3552036141
101289.7935078147
101283.4202007928
101280.7815652737
101285.2693194101
101283.3658529257
101283.3063830609
101284.68645901
101285.5385453999
101294.7123148331
101294.0119724588
101286.9204913234
101285.8423821913
101288.6781521577
101297.1167902645
101300.5835867845
101297.7000032031
101290.805503483
101292.4638377427
101289.4848141857
101284.5353523254
101281.567540691
101280.2505824775
101287.4371659236
101290.9574307664
101287.8434789063
101278.5404081837
101277.7621758377
101273.9964632973
101277.6524863191
101277.8235252805
101281.9617447309
101290.4567664058
101291.3649022068
101285.3917327507
101279.5290158061
101280.1205484406
101281.4108451802
101288.1360128519
101293.7671656054
101291.0327971588
101288.852411723
101287.9677609725
101282.5316396707
101277.2293925161
101268.924725652
101273.3609096147
101279.9292125047
101279.7299591777
101273.0583396668
101273.9540486562
101274.1490442905
101273.0130966368
101273.9908055945
101273.6072192168
101273.8744615164
101280.8601741951
101282.6826646555
101280.2410150411
101279.4445673535
101285.8333441432
101290.4661362023
101296.6989152689
101295.3822436083
101289.1056103128
101289.314455357
101283.0034844632
101275.8381490278
101269.182229223
101276.0777298962
101283.178905534
101284.0254741651
101276.1862185831
101274.1232927904
101276.3933221193
101279.8168052133
101283.8065020015
101280.9045076878
101280.8725379219
101281.1383973977
101279.1630347875
101269.6010968424
101263.2722628471
101262.2785636764
101265.76887875
101273.5597605501
101273.8311822469
101269.9929293366
101271.9414434846
101272.337545932
101263.8964998316
101263.8285248537
101258.9574848279
101266.9928931586
101263.3437304128
101258.2110897342
101252.6378786875
101256.896111984
101259.6354320955
101262.6182194713
101263.9108070145
101261.8530285213
101268.4346158499
101271.7732475682
101270.4516179792
101261.8820629079
101263.4125541512
101262.5106111048
101272.9148576073
101275.7677244496
101274.3896833867
101267.2793584308
101266.5583811236
101260.2273954933
101259.2487701907
101254.539440644
101262.5712929046
101263.8486055609
101264.0968650284
101255.5470134168
101254.1782465421
101253.6027885034
101255.8142796305
101257.9075852983
101254.7850645669
101260.6426937438
101264.1926558957
101269.0632390997
101263.4724099025
101263.3006978365
101256.1275791401
101266.4686029547
101272.6916352053
101271.2743916104
101265.6973697563
101267.1304005638
101262.195126667
101262.2891628877
101256.3714217083
101259.0787415918
101259.1919178555
101262.9324924589
101259.9153394286
101260.5577511159
101262.7002029531
101264.1264838124
101265.2690047798
101263.4377272957
101261.0328686052
101266.854607888
101269.9143525445
101266.8249532596
101262.7348703928
101253.436708533
101260.3660158877
101267.5203377511
101271.0563638501
101267.7952718399
101267.2001090459
101261.657329103
101257.6082767692
101253.6336986002
101258.8538680998
101264.3565812745
101271.198289975
101266.3576631152
101261.2224528196
101255.1664423923
101256.505519709
101260.8350145564
101263.2586533782
101263.1063675337
101262.7045792399
101265.637736148
101259.5922444543
101252.7875328858
101241.7290189585
101240.3756775558
101244.6589603308
101248.6251512537
101248.600171284
101251.4961325398
101249.9576246547
101253.4359107519
101246.3874630849
101249.0242092593
101245.8663580779
101250.6160487552
101245.8126561547
101238.2400531774
101231.7079971809
101232.4878400189
101237.6280860076
101241.1075888403
101241.0159964684
101242.8310304494
101248.3763685153
101250.4104286955
101249.8416851525
101246.9856914874
101243.1606802697
101243.4128707199
101244.4283364784
101237.9561875386
101237.0125683098
101232.6988714003
101233.8446039295
101231.5937230984
101236.9057385545
101238.8157727273
101248.4891901247
101254.4495202462
101253.9872309958
101251.1550020657
101248.3207171914
101247.0334938783
101244.5369416945
101240.1539327984
101233.4547451282
101233.2315446647
101228.5006872297
101229.5884943865
101226.9730656251
101223.3359921181
101220.4738857069
101220.6146292145
101223.6284077725
101223.383653881
101218.7525131463
101223.6787700811
101218.3005743086
101213.0995302288
101205.8955409253
101206.7963327054
101209.1107281804
101213.0559203366
101214.7003072711
101215.9429851753
101209.3914907688
101216.4078505247
101216.0854778665
101222.7622746382
101222.9141153068
101226.4466513296
101224.7016979124
101223.4373122642
101215.9314286722
101211.1815174877
101215.0089137917
101215.9415776082
101217.2347824261
101214.052414742
101214.1342745849
101210.0239745635
101208.740545265
101208.166722068
101207.4408081189
101209.5253324987
101210.5697420559
101212.3107484993
101207.4261257561
101200.551230899
101203.2949966824
101206.4244643797
101207.1331319266
101208.6578633106
101204.5837003792
101204.0702281112
101196.1297515858
101192.665136345
101185.4650593239
101190.9114370128
101190.8997971954
101195.8351189346
101197.2059131198
101203.1704452908
101204.5714975538
101201.3020127594
101192.8427968335
101185.1017287125
101180.0449558202
101180.4337392451
101187.8611229068
101186.5652044956
101181.3427232165
101181.1112490381
101182.165987741
101183.837181082
101194.7832199614
101190.6194233968
101190.6725855727
101183.5529598247
101182.1667356499
101176.2996682134
101187.3662106309
101190.8824987392
101191.5785749311
101187.5280513323
101184.0278419179
101177.315926538
101181.5141658987
101173.7328353901
101164.9635431052
101164.7488827156
101170.2448007485
101174.0991629803
101174.916919149
101168.1646050736
101170.390148963
101168.5816861432
101180.4944539943
101187.0023599932
101179.1111164051
101177.0360086749
101176.2147409309
101164.0828357843
101164.1485437193
101165.9482678596
101160.4863934182
101155.5544932169
101154.0058597062
101158.8914861306
101163.5450552144
101173.5253601087
101170.0301046619
101166.9007157796
101157.0557110105
101156.7254898823
101153.0502317238
101155.6422212734
101148.2456570931
101140.1531589877
101137.0607640844
101142.6678343398
101150.1507078627
101155.2468923324
101162.9280115457
101156.4095190076
101144.5466791429
101144.4055656095
101146.766813327
101144.1301986121
101148.3026234003
101140.845476901
101127.9850867999
101122.1550481815
101119.4290921659
101118.6369244227
101123.0792376038
101119.902609385
101120.4289386321
101118.4890518144
101121.3833382121
101121.9218918335
101125.3797825809
101123.3491329321
101123.6497653706
101117.6960298692
101117.1889173476
101113.5827126355
101114.1145969341
101111.1997685974
101113.2363837458
101107.992134918
101106.5714789824
101103.042506773
101099.9494851508
101096.9047886053
101103.524818385
101105.6105317406
101109.0796213963
101111.9246064194
101104.7245958236
101092.779016898
101091.0018270791
101086.528215034
101085.5210754275
101092.3923948559
101089.2335893315
101097.3144065679
101095.0671771787
101094.3369877349
101095.9432353303
101097.3386056569
101098.9298292085
101096.6142191478
101091.5029080286
101082.3322517172
101086.8403088437
101088.9023389767
101087.9379869183
101083.515742761
101083.4615869392
101086.4937637526
101088.1576450294
101078.8043287609
101068.6880848663
101060.050927822
101069.1836347878
101078.5456082883
101075.8855843413
101068.5432912843
101060.1922740705
101063.3820361189
101065.2818590717
101076.6110053982
101081.0691820068
101077.4788453949
101061.5738673742
101058.3334901431
101051.2518045761
101055.4470893301
101056.8653073151
101052.9763323298
101045.4582514889
101046.623010586
101047.1008327877
101050.0416183714
101052.5913044356
101050.1848979519
101044.2069988488
101037.7728794308
101030.4974315421
101025.1941359241
101026.9356902468
101028.3990499623
101028.1156907564
101029.8507787524
101031.1532645541
101027.0028423212
101027.292526222
101027.8656716264
101030.1965260156
101029.2274346753
101032.1328269829
101032.9648105902
101027.3221162704
101022.2462639898
101012.2677807022
101007.0564575424
101007.9218866018
101008.2194374778
101011.7858245286
101007.2714288935
101004.1736013573
101007.0382348903
101008.2349338619
101012.1572462646
101015.2519194525
101002.371480624
100993.5151054967
100991.4609691327
100995.0464058735
101002.9076443375
101003.0396088757
100997.4025277532
100986.1030909907
100985.8685457855
100985.7952496355
100990.2308812359
100990.9632931619
100984.3168448438
100986.0750688805
100985.8906792987
100986.7101419753
100984.1365711706
100977.0106707134
100973.3723641215
100970.4523015838
100973.6631224562
100972.5091650205
100972.7771267241
100973.5738619984
100977.4985763834
100979.1712612142
100980.6151485938
100973.2215663035
100964.6252502415
100963.4169056567
100962.5200364346
100968.4031898906
100968.6257849596
100963.097799513
100954.7574726123
100953.7827188796
100957.4834723538
100958.6034816283
100957.3245167295
100953.2575940658
100951.1973938344
100952.9494693471
100954.7320192123
100951.3418211157
100952.4774115087
100950.1931356151
100951.8848232089
100946.9818984532
100941.2479670927
100929.6567886719
100928.7014081646
100936.0231752229
100940.1698765751
100938.1652260718
100929.0669242753
100926.7159437879
100932.504908011
100937.6949780084
100933.3148756182
100918.3794511481
100911.6240204955
100910.208948384
100914.0627166112
100922.3996144667
100915.8975396012
100912.4501638491
100907.9979630415
100915.1162943583
100919.0306452621
100913.0111204544
100905.9641382923
100902.3994372111
100904.5036627725
100906.4920215923
100901.5960220575
100892.9358676591
100891.4940348551
100892.6052758953
100894.9328910017
100899.1915215636
100894.624408314
100895.7681610704
100894.4674786025
100891.9655627584
100886.5104561698
100878.9315971128
100875.9428380687
100875.5110727069
100876.1237508561
100878.3153196199
100880.3366031993
100885.5841855086
100881.4418388758
100881.8323546689
100874.087341064
100874.7904174769
100865.352623446
100862.5016414233
100857.825976584
100856.3630874651
100861.576504803
100867.0887369016
100867.041935645
100865.7795814319
100858.9949702483
100854.8677102534
100854.2459177803
100851.0654929927
100844.730456001
100838.9802175213
100839.0517510041
100846.6065141622
100846.582910274
100843.6011563637
100840.2280228587
100837.5003656543
100838.6218554855
100834.8994354197
100826.6744314232
100822.9532060432
100821.8481885897
100827.6493668079
100827.4241264657
100822.4649467078
100814.6531803085
100814.0220571873
100815.3122273742
100821.3972112405
100815.157953646
100813.360063649
100810.9718671905
100813.9223310279
100814.0559023753
100809.9077598196
100800.3515233461
100797.8396022961
100797.5998844518
100797.0115438064
100796.934129063
100796.1328394781
100796.1267169297
100795.1915175583
100791.7599101352
100789.0646470376
100782.1403396899
100780.4961184499
100778.2514788478
100776.621240088
100775.5790920903
100780.3278633717
100778.6268164848
100779.2110588419
100776.0302654295
100767.3898057036
100770.3254727303
100767.586324343
100766.7038149525
100762.7037425834
100757.6602231833
100758.9180522349
100758.7202234152
100760.7844999573
100758.083924244
100758.6629177845
100755.0187068965
100756.9625847705
100756.1229417302
100752.408616284
100749.767593073
100748.8698457389
100741.9427684001
100740.3671535077
100733.239974667
100736.477721538
100739.4622455712
100739.4847056653
100737.3228264788
100734.7386960481
100731.933969019
100729.4849999975
100728.0306847018
100723.128983426
100718.4343546475
100718.0586748916
100719.211404526
100713.2747314608
100715.6627684874
100712.2928026517
100712.1284007914
100714.0647968745
100702.5870094116
100702.0995112557
100700.2735010601
100699.545360841
100703.3227062194
100693.1821149742
100689.4985665815
100695.8947372037
100696.6231937143
100697.0894422355
100691.6055035775
100685.0998002526
100683.395676796
100683.4881552179
100684.4152439711
100680.9843745222
100678.6775150389
100678.2709892346
100683.298126621
100686.1521828217
100681.7967103838
100674.8731813323
100671.1826977238
100670.0569251521
100670.0870290885
100667.4912646081
100661.0932416287
100667.2974637569
100667.899096792
100669.1713337864
100666.2825540393
100659.6649327893
100656.0207534396
100655.819357541
100655.2018362135
100649.7960192669
100646.1346430806
100647.2326376785
100648.5013415803
100650.509583246
100648.8108802393
100646.1930226726
100643.5604425081
100636.89916836
100631.4229336971
100628.97417578
100624.5177899699
100629.5221553776
100627.79221132
100627.4911366236
100629.5998007281
100625.0137365719
100625.1905181796
100624.6113543011
100615.96542592
100610.1620725355
100607.0325999608
100607.331823224
100610.1052608508
100610.62728177
100609.2759049804
100610.926213651
100610.1567072604
100604.9657900284
100599.957127273
100594.6277252041
100592.7707747367
100590.9175300354
100589.3937282628
100583.3380834861
100584.6602258426
100583.447187119
100585.7219544862
100585.3431974873
100579.4268001293
100571.0295166548
100569.4133363087
100572.6893667886
100569.1884524655
100562.7162432542
100554.3591016484
100549.8065564878
100553.9615902618
100553.5105879228
100552.5016228353
100547.6449463027
100542.0340435855
100545.3170158746
100543.5585284572
100539.7346368427
100529.2336865762
100524.8005628773
100522.6848077357
100525.5741985818
100524.297231581
100516.2795009448
100512.1672464765
100513.1503288253
100515.2637428701
100513.7449779384
100503.2813751591
100499.8063227276
100498.1931378702
100500.7165595769
100503.0838970494
100496.8634705341
100494.8519304928
100490.6396618125
100490.9746777179
100489.6475002264
100483.3376616001
100479.9045246263
100471.91374401
100475.245720565
100473.8227494192
100475.2524374547
100473.633877631
100469.2278250439
100472.9904992266
100469.7532180603
100468.9119579038
100461.7610711723
100455.5533613333
100450.2791044856
100449.6075235688
100444.4429291146
100438.4533587987
100433.6475153943
100430.7918490199
100432.124561959
100429.4896687397
100425.8987684491
100420.6560232784
100417.0675450357
100414.4448998627
100412.7406324243
100410.0831093616
100407.6544730996
100407.3153346834
100409.3739262005
100406.852662061
100405.9101439244
100399.8028340714
100393.7372871575
100391.707998403
100389.2653489733
100393.1260923854
100391.0281943339
100388.0612452948
100386.1271995099
100386.6527361804
100387.3584637515
100384.4915317319
100378.9894485903
100368.7786166606
100365.4882875635
100361.4907976771
100358.8106184645
100357.6569460382
100354.630493681
100354.1073567229
100354.5542891637
100355.5668502206
100350.1118171006
100345.0749831543
100340.9490428642
100336.3858706708
100334.9979609711
100326.9400636727
100319.2429732892
100318.308356783
100317.6910632971
100319.4267147299
100318.1817718814
100310.787558196
100307.615491968
100304.2092327196
100302.0875926785
100297.7508943476
100291.3683466926
100284.1455025387
100283.6479513828
100280.6819844202
100278.5930628996
100275.9760536553
100270.9656416002
100270.0466419998
100268.7483325753
100264.6643324361
100256.3335140243
100252.1464181479
100251.5024604301
100252.4987380345
100253.8091909478
100242.813664768
100236.8574643265
)
;

boundaryField
{
    inlet
    {
        type            calculated;
        value           uniform 101324.9999577081;
    }
    outlet
    {
        type            calculated;
        value           uniform 100238.9708659691;
    }
    frontAndBack
    {
        type            empty;
    }
}


// ************************************************************************* //
