/*--------------------------------*- C++ -*----------------------------------*\
| =========                 |                                                 |
| \\      /  F ield         | OpenFOAM: The Open Source CFD Toolbox           |
|  \\    /   O peration     | Version:  v2012                                 |
|   \\  /    A nd           | Website:  www.openfoam.com                      |
|    \\/     M anipulation  |                                                 |
\*---------------------------------------------------------------------------*/
FoamFile
{
    version     2.0;
    format      ascii;
    class       volScalarField;
    location    "0.002";
    object      p;
}
// * * * * * * * * * * * * * * * * * * * * * * * * * * * * * * * * * * * * * //

dimensions      [1 -1 -2 0 0 0 0];


internalField   nonuniform List<scalar> 
1000
(
101310.9362211471
101313.5682363011
101306.8336319426
101301.544990599
101295.7182002411
101290.4773615336
101285.9477233624
101282.0653641663
101278.7450137407
101276.5349835453
101275.9585925655
101275.9717506723
101276.3401748826
101277.350386972
101279.3256630231
101282.3292044599
101286.247192747
101290.9007159674
101296.1430375238
101301.8735269254
101308.0087637606
101314.4576984938
101321.1137543311
101327.8546841592
101334.5455800455
101341.0503478443
101347.253685984
101353.0865031827
101358.5394557849
101363.622447871
101368.1791530499
101371.5639396634
101373.0168531297
101373.185749699
101373.1118261277
101372.849560658
101372.1073744596
101370.6540604048
101368.2803923162
101364.891183639
101360.5260080587
101355.3381173712
101349.5317912576
101343.2985712677
101336.7873298161
101330.1116016165
101323.3716473265
101316.669675479
101310.1100260161
101303.7817021298
101297.7294404133
101291.9511497225
101286.4983255471
101281.7453042179
101278.5847827748
101277.5086207395
101277.4353416549
101277.4760932999
101277.7373672504
101278.3799223819
101279.6295722072
101281.6774641882
101284.6598951469
101288.6203960148
101293.4977292666
101299.1400445218
101305.3431592221
101311.8978680023
101318.6252430759
101325.3874380061
101332.0813952029
101338.6346959901
101345.0111040124
101351.2091159595
101357.2227579234
101362.9239129191
101367.8249701533
101370.9813307665
101372.0201674912
101372.0962725383
101372.0395079664
101371.8342120468
101371.2874250111
101370.2248636129
101368.4611220876
101365.8452356707
101362.2869095858
101357.7803210126
101352.4101469816
101346.3372300909
101339.7689104736
101332.9224868958
101325.9899487435
101319.1124860324
101312.3714782501
101305.7952632038
101299.3785768783
101293.1331468133
101287.2304697338
101282.2707872264
101279.2685577369
101278.3941356194
101278.3497535198
101278.3860999575
101278.5941015084
101279.0994312928
101280.0782690821
101281.6959955604
101284.0978998622
101287.3835445926
101291.5872319221
101296.6649389083
101302.4950534186
101308.8967042835
101315.6612080486
101322.5864454585
101329.506780644
101336.315407023
101342.972502438
101349.4851470764
101355.8406673646
101361.8633658126
101366.9742181642
101370.1780782976
101371.203428341
101371.2817911069
101371.2391869622
101371.0812358717
101370.6542561355
101369.8145837284
101368.402135584
101366.2703528969
101363.3033512676
101359.4366826325
101354.672395033
101349.0852168397
101342.817643527
101336.0615031769
101329.0258003352
101321.8985063341
101314.8163275919
101307.8538109711
101301.0391720082
101294.4168985272
101288.2067421407
101283.0666483199
101280.0152484608
101279.1360714231
101279.0863108901
101279.1136727312
101279.2777303468
101279.6851913165
101280.4835719242
101281.8171942504
101283.822903418
101286.6120684439
101290.2545816997
101294.7636333759
101300.0869396102
101306.1092613311
101312.6667345722
101319.5701878197
101326.6349594899
101333.7127287579
101340.7127277998
101347.5928936002
101354.3002087094
101360.6297167155
101365.9858820759
101369.3703705393
101370.4959680519
101370.5960750487
101370.565442483
101370.4470378006
101370.1102276898
101369.4320324496
101368.2709569959
101366.4909368731
101363.9725122198
101360.628662664
101356.4186816281
101351.3587438386
101345.526862051
101339.0579746535
101332.1255078549
101324.9122740225
101317.5804213709
101310.2515276963
101303.0099316789
101295.9572074588
101289.3689463733
101283.9502200136
101280.7333068956
101279.7798414061
101279.7144244597
101279.7349385664
101279.8656500876
101280.1976470198
101280.8591389582
101281.9784882003
101283.682867066
101286.0843501323
101289.2674432421
101293.2757627091
101298.1018499617
101303.6837630269
101309.9095019035
101316.6291168842
101323.6755431712
101330.8924633197
101338.1580011352
101345.3845371948
101352.4712004624
101359.1745454452
101364.8777499458
101368.5610273391
101369.8636699509
101370.0024394887
101369.9807918865
101369.891449356
101369.6227120885
101369.0679422601
101368.1009323315
101366.5959821243
101364.4356919567
101361.5235964776
101357.7957608141
101353.2312790654
101347.860251658
101341.7653819338
101335.073172854
101327.9355633604
101320.5077961764
101312.9298642595
101305.324338654
101297.8421478419
101290.811288993
101284.9876671039
101281.4626670175
101280.3613577759
101280.2699112945
101280.2832343869
101280.3856209127
101280.656358143
101281.2096450515
101282.1601926377
101283.6250248601
101285.7125832045
101288.5131330882
101292.0875423436
101296.45753556
101301.6000714655
101307.4467613359
101313.8890670842
101320.7914629904
101328.0122309886
101335.4232547196
101342.9122507881
101350.3446100971
101357.4465062096
101363.5793453278
101367.6740345296
101369.2323994331
101369.4296788194
101369.4158381306
101369.3488835335
101369.1310672584
101368.6666520834
101367.841190285
101366.5397395652
101364.6524296981
101362.08568092
101358.7748064549
101354.6987361817
101349.897697911
101344.49908383
101338.767122699
101333.2008634247
101328.6344493766
101325.9576550378
101325.1068392068
101325.0033311484
101325.0000190166
101325.0000000141
101325.0000000004
101325.0000000004
101325.0000000004
101325.0000000004
101325.0000000005
101325.0000000005
101325.0000000006
101325.0000000006
101325.0000000007
101325.0000000007
101325.0000000007
101325.0000000006
101325.0000000007
101325.0000000007
101325.0000000007
101325.0000000007
101325.0000000007
101325.0000000007
101325.0000000006
101325.0000000006
101325.0000000006
101325.0000000007
101325.0000000006
101325.0000000006
101325.0000000006
101325.0000000006
101325.0000000005
101325.0000000005
101325.0000000005
101325.0000000005
101325.0000000005
101325.0000000005
101325.0000000005
101325.0000000004
101325.0000000004
101325.0000000003
101325.0000000003
101325.0000000003
101325.0000000003
101325.0000000004
101325.0000000004
101325.0000000004
101325.0000000003
101325.0000000003
101325.0000000003
101325.0000000004
101325.0000000004
101325.0000000004
101325.0000000004
101325.0000000004
101325.0000000004
101325.0000000004
101325.0000000004
101325.0000000005
101325.0000000005
101325.0000000004
101325.0000000004
101325.0000000005
101325.0000000004
101325.0000000003
101325.0000000003
101325.0000000003
101325.0000000003
101325.0000000003
101325.0000000002
101325.0000000002
101325.0000000002
101325.0000000002
101325.0000000003
101325.0000000003
101325.0000000003
101325.0000000003
101325.0000000004
101325.0000000004
101325.0000000004
101325.0000000004
101325.0000000005
101325.0000000005
101325.0000000005
101325.0000000006
101325.0000000006
101325.0000000006
101325.0000000006
101325.0000000007
101325.0000000006
101325.0000000006
101325.0000000006
101325.0000000006
101325.0000000006
101325.0000000006
101325.0000000006
101325.0000000006
101325.0000000005
101325.0000000005
101325.0000000004
101325.0000000005
101325.0000000004
101325.0000000005
101325.0000000004
101325.0000000004
101325.0000000004
101325.0000000004
101325.0000000005
101325.0000000005
101325.0000000004
101325.0000000005
101325.0000000005
101325.0000000005
101325.0000000005
101325.0000000005
101325.0000000005
101325.0000000004
101325.0000000004
101325.0000000004
101325.0000000004
101325.0000000003
101325.0000000004
101325.0000000004
101325.0000000003
101325.0000000003
101325.0000000002
101325.0000000002
101325.0000000002
101325.0000000002
101325.0000000002
101325.0000000002
101325.0000000003
101325.0000000003
101325.0000000003
101325.0000000004
101325.0000000003
101325.0000000003
101325.0000000003
101325.0000000002
101325.0000000002
101325.0000000002
101325.0000000002
101325.0000000002
101325.0000000002
101325.0000000002
101325.0000000002
101325.0000000002
101325.0000000002
101325.0000000002
101325.0000000003
101325.0000000003
101325.0000000003
101325.0000000002
101325.0000000003
101325.0000000003
101325.0000000003
101325.0000000003
101325.0000000003
101325.0000000004
101325.0000000003
101325.0000000003
101325.0000000003
101325.0000000003
101325.0000000003
101325.0000000003
101325.0000000003
101325.0000000003
101325.0000000003
101325.0000000003
101325.0000000004
101325.0000000003
101325.0000000004
101325.0000000003
101325.0000000003
101325.0000000003
101325.0000000003
101325.0000000003
101325.0000000002
101325.0000000002
101325.0000000002
101325.0000000003
101325.0000000003
101325.0000000003
101325.0000000003
101325.0000000003
101325.0000000003
101325.0000000004
101325.0000000004
101325.0000000005
101325.0000000005
101325.0000000005
101325.0000000005
101325.0000000005
101325.0000000005
101325.0000000005
101325.0000000005
101325.0000000005
101325.0000000005
101325.0000000005
101325.0000000005
101325.0000000005
101325.0000000005
101325.0000000005
101325.0000000005
101325.0000000005
101325.0000000004
101325.0000000004
101325.0000000004
101325.0000000004
101325.0000000005
101325.0000000005
101325.0000000004
101325.0000000004
101325.0000000005
101325.0000000005
101325.0000000006
101325.0000000006
101325.0000000006
101325.0000000006
101325.0000000006
101325.0000000006
101325.0000000006
101325.0000000006
101325.0000000006
101325.0000000007
101325.0000000007
101325.0000000007
101325.0000000007
101325.0000000006
101325.0000000006
101325.0000000006
101325.0000000006
101325.0000000006
101325.0000000006
101325.0000000005
101325.0000000006
101325.0000000005
101325.0000000005
101325.0000000005
101325.0000000004
101325.0000000004
101325.0000000003
101325.0000000002
101325.0000000002
101325.0000000003
101325.0000000003
101325.0000000003
101325.0000000003
101325.0000000004
101325.0000000003
101325.0000000003
101325.0000000004
101325.0000000004
101325.0000000004
101325.0000000004
101325.0000000004
101325.0000000004
101325.0000000003
101325.0000000003
101325.0000000004
101325.0000000004
101325.0000000004
101325.0000000005
101325.0000000005
101325.0000000004
101325.0000000004
101325.0000000005
101325.0000000005
101325.0000000005
101325.0000000005
101325.0000000004
101325.0000000005
101325.0000000004
101325.0000000004
101325.0000000003
101325.0000000003
101325.0000000003
101325.0000000003
101325.0000000004
101325.0000000004
101325.0000000004
101325.0000000004
101325.0000000005
101325.0000000005
101325.0000000005
101325.0000000005
101325.0000000005
101325.0000000005
101325.0000000005
101325.0000000005
101325.0000000005
101325.0000000005
101325.0000000005
101325.0000000005
101325.0000000005
101325.0000000005
101325.0000000005
101325.0000000005
101325.0000000005
101325.0000000005
101325.0000000006
101325.0000000005
101325.0000000005
101325.0000000005
101325.0000000005
101325.0000000005
101325.0000000005
101325.0000000005
101325.0000000004
101325.0000000004
101325.0000000005
101325.0000000005
101325.0000000005
101325.0000000005
101325.0000000005
101325.0000000005
101325.0000000005
101325.0000000005
101325.0000000005
101325.0000000005
101325.0000000005
101325.0000000005
101325.0000000005
101325.0000000005
101325.0000000006
101325.0000000005
101325.0000000006
101325.0000000006
101325.0000000006
101325.0000000006
101325.0000000006
101325.0000000006
101325.0000000006
101325.0000000006
101325.0000000006
101325.0000000007
101325.0000000006
101325.0000000007
101325.0000000006
101325.0000000006
101325.0000000006
101325.0000000006
101325.0000000007
101325.0000000007
101325.0000000007
101325.0000000007
101325.0000000007
101325.0000000007
101325.0000000007
101325.0000000007
101325.0000000007
101325.0000000007
101325.0000000006
101325.0000000006
101325.0000000006
101325.0000000005
101325.0000000006
101325.0000000005
101325.0000000005
101325.0000000005
101325.0000000004
101325.0000000005
101325.0000000005
101325.0000000005
101325.0000000005
101325.0000000005
101325.0000000006
101325.0000000006
101325.0000000006
101325.0000000005
101325.0000000005
101325.0000000006
101325.0000000006
101325.0000000006
101325.0000000006
101325.0000000006
101325.0000000006
101325.0000000006
101325.0000000006
101325.0000000007
101325.0000000006
101325.0000000006
101325.0000000006
101325.0000000006
101325.0000000005
101325.0000000005
101325.0000000005
101325.0000000005
101325.0000000005
101325.0000000005
101325.0000000005
101325.0000000005
101325.0000000006
101325.0000000006
101325.0000000005
101325.0000000005
101325.0000000005
101325.0000000005
101325.0000000005
101325.0000000005
101325.0000000005
101325.0000000004
101325.0000000004
101325.0000000004
101325.0000000004
101325.0000000005
101325.0000000005
101325.0000000006
101325.0000000006
101325.0000000006
101325.0000000006
101325.0000000006
101325.0000000006
101325.0000000007
101325.0000000007
101325.0000000006
101325.0000000007
101325.0000000007
101325.0000000006
101325.0000000006
101325.0000000006
101325.0000000005
101325.0000000005
101325.0000000005
101325.0000000005
101325.0000000005
101325.0000000005
101325.0000000005
101325.0000000005
101325.0000000006
101325.0000000005
101325.0000000005
101325.0000000005
101325.0000000005
101325.0000000005
101325.0000000005
101325.0000000005
101325.0000000005
101325.0000000004
101325.0000000004
101325.0000000005
101325.0000000005
101325.0000000005
101325.0000000005
101325.0000000005
101325.0000000005
101325.0000000005
101325.0000000006
101325.0000000006
101325.0000000006
101325.0000000007
101325.0000000007
101325.0000000007
101325.0000000008
101325.0000000007
101325.0000000007
101325.0000000007
101325.0000000007
101325.0000000006
101325.0000000006
101325.0000000006
101325.0000000006
101325.0000000006
101325.0000000006
101325.0000000005
101325.0000000005
101325.0000000005
101325.0000000005
101325.0000000005
101325.0000000005
101325.0000000005
101325.0000000005
101325.0000000005
101325.0000000004
101325.0000000005
101325.0000000005
101325.0000000005
101325.0000000005
101325.0000000006
101325.0000000006
101325.0000000005
101325.0000000005
101325.0000000005
101325.0000000005
101325.0000000006
101325.0000000006
101325.0000000006
101325.0000000005
101325.0000000005
101325.0000000005
101325.0000000005
101325.0000000005
101325.0000000005
101325.0000000005
101325.0000000005
101325.0000000005
101325.0000000004
101325.0000000005
101325.0000000005
101325.0000000005
101325.0000000006
101325.0000000006
101325.0000000006
101325.0000000006
101325.0000000006
101325.0000000006
101325.0000000006
101325.0000000006
101325.0000000006
101325.0000000005
101325.0000000006
101325.0000000005
101325.0000000006
101325.0000000005
101325.0000000005
101325.0000000005
101325.0000000005
101325.0000000005
101325.0000000005
101325.0000000005
101325.0000000005
101325.0000000005
101325.0000000005
101325.0000000004
101325.0000000005
101325.0000000004
101325.0000000005
101325.0000000004
101325.0000000004
101325.0000000004
101325.0000000004
101325.0000000005
101325.0000000006
101325.0000000006
101325.0000000006
101325.0000000006
101325.0000000006
101325.0000000006
101325.0000000006
101325.0000000007
101325.0000000007
101325.0000000006
101325.0000000006
101325.0000000006
101325.0000000006
101325.0000000006
101325.0000000005
101325.0000000005
101325.0000000005
101325.0000000005
101325.0000000004
101325.0000000005
101325.0000000004
101325.0000000005
101325.0000000004
101325.0000000005
101325.0000000004
101325.0000000004
101325.0000000004
101325.0000000005
101325.0000000005
101325.0000000005
101325.0000000005
101325.0000000006
101325.0000000006
101325.0000000006
101325.0000000006
101325.0000000006
101325.0000000006
101325.0000000006
101325.0000000007
101325.0000000006
101325.0000000007
101325.0000000007
101325.0000000006
101325.0000000007
101325.0000000007
101325.0000000007
101325.0000000008
101325.0000000007
101325.0000000009
101325.0000000008
101325.0000000008
101325.0000000007
101325.0000000007
101325.0000000007
101325.0000000007
101325.0000000007
101325.0000000007
101325.0000000006
101325.0000000006
101325.0000000007
101325.0000000007
101325.0000000008
101325.0000000008
101325.0000000008
101325.0000000008
101325.0000000008
101325.0000000009
101325.0000000008
101325.0000000008
101325.0000000008
101325.0000000008
101325.0000000009
101325.0000000009
101325.0000000009
101325.0000000009
101325.0000000009
101325.0000000008
101325.0000000008
101325.0000000008
101325.0000000008
101325.0000000008
101325.0000000008
101325.0000000008
101325.0000000008
101325.0000000008
101325.0000000007
101325.0000000008
101325.0000000008
101325.0000000008
101325.0000000009
101325.0000000008
101325.0000000008
101325.0000000009
101325.0000000008
101325.0000000008
101325.0000000008
101325.0000000007
101325.0000000007
101325.0000000007
101325.0000000008
101325.0000000007
101325.0000000007
101325.0000000007
101325.0000000007
101325.0000000007
101325.0000000007
101325.0000000007
101325.0000000007
101325.0000000007
101325.0000000007
101325.0000000007
101325.0000000007
101325.0000000007
101325.0000000007
101325.0000000007
101325.0000000007
101325.0000000007
101325.0000000007
101325.0000000007
101325.0000000007
101325.0000000007
101325.0000000007
101325.0000000007
101325.0000000007
101325.0000000007
101325.0000000007
101325.0000000007
101325.0000000007
101325.0000000007
101325.0000000007
101325.0000000007
101325.0000000007
101325.0000000007
101325.0000000007
101325.0000000007
101325.0000000007
101325.0000000006
101325.0000000006
101325.0000000006
101325.0000000006
101325.0000000006
101325.0000000006
101325.0000000007
101325.0000000007
101325.0000000006
101325.0000000006
101325.0000000006
101325.0000000006
101325.0000000005
101325.0000000005
101325.0000000006
101325.0000000006
101325.0000000006
101325.0000000006
101325.0000000005
101325.0000000004
101325.0000000005
101325.0000000006
101325.0000000006
101325.0000000005
101325.0000000006
101325.0000000005
101325.0000000006
101325.0000000005
101325.0000000005
101325.0000000006
101325.0000000006
101325.0000000005
101325.0000000006
101325.0000000005
101325.0000000006
101325.0000000005
101325.0000000005
101325.0000000006
101325.0000000005
101325.0000000006
101325.0000000006
101325.0000000006
101325.0000000006
101325.0000000006
101325.0000000006
101325.0000000007
101325.0000000007
101325.0000000006
101325.0000000006
101325.0000000006
101325.0000000006
101325.0000000005
101325.0000000005
)
;

boundaryField
{
    inlet
    {
        type            uniformFixedValue;
        uniformValue    sine;
        uniformValueCoeffs
        {
            frequency       constant 3000;
            scale           constant 50;
            level           constant 101325;
        }
        value           uniform 101323.6440830864;
    }
    outlet
    {
        type            waveTransmissive;
        gamma           1.4;
        fieldInf        101325;
        lInf            2.25;
        value           uniform 101325.0000000005;
    }
    frontAndBack
    {
        type            empty;
    }
}


// ************************************************************************* //
