/*--------------------------------*- C++ -*----------------------------------*\
| =========                 |                                                 |
| \\      /  F ield         | OpenFOAM: The Open Source CFD Toolbox           |
|  \\    /   O peration     | Version:  v2012                                 |
|   \\  /    A nd           | Website:  www.openfoam.com                      |
|    \\/     M anipulation  |                                                 |
\*---------------------------------------------------------------------------*/
FoamFile
{
    version     2.0;
    format      ascii;
    class       volScalarField;
    location    "0.002";
    object      rho;
}
// * * * * * * * * * * * * * * * * * * * * * * * * * * * * * * * * * * * * * //

dimensions      [1 -3 0 0 0 0 0];


internalField   nonuniform List<scalar> 
1000
(
1.176294140596084
1.176317713078621
1.176264259394017
1.176221224359202
1.176171214671274
1.176125773428943
1.176087356765089
1.176055177532762
1.176027903627388
1.176009739021068
1.176004999698148
1.176005080531967
1.176008083869263
1.176016473088962
1.176032933348358
1.176057912860203
1.176090428181692
1.176129008118087
1.176172458864705
1.176219959206279
1.176270821222587
1.176324289317827
1.176379478281953
1.176435373376266
1.176490855129372
1.176544794060957
1.176596232919521
1.176644597815548
1.176689810762455
1.176731953922887
1.176769731917667
1.176797793107142
1.176809837602506
1.176811236983031
1.176810623663491
1.176808449513353
1.176802296943825
1.176790248328211
1.176770568849562
1.176742469293672
1.176706277584794
1.176663264105735
1.176615122355503
1.176563440279692
1.176509452098774
1.176454099083744
1.176398212494107
1.17634263980098
1.176288246217927
1.176235769851377
1.176185581783842
1.176137664798295
1.17609244605788
1.176053030032652
1.176026820074151
1.176017895498641
1.176017287796744
1.176017625750098
1.176019792491981
1.176025121186457
1.176035484476522
1.176052467476781
1.176077200359005
1.176110043917668
1.176150490060802
1.176197279256682
1.176248718050467
1.176303071427719
1.176358855552374
1.176414927338556
1.176470432246236
1.176524769843945
1.176577639745941
1.176629029567431
1.176678889857236
1.176726158480881
1.176766792852276
1.176792961769826
1.176801574563656
1.176802205533343
1.176801734908847
1.17680003284282
1.176795499544364
1.176786690049136
1.176772067145438
1.176750379109636
1.176720877150822
1.176683512755855
1.176638987702008
1.176588635270795
1.176534174330429
1.176477406427507
1.176419923376902
1.176362895886875
1.176306998797116
1.17625246715888
1.17619925739729
1.176147466838713
1.176098517746257
1.176057388005757
1.176032490804153
1.176025239268669
1.176024871209182
1.176025172627979
1.176026897577312
1.176031088256821
1.176039205703146
1.176052621368844
1.176072540041103
1.176099787236761
1.17613464720819
1.176176754622011
1.176225100709056
1.176278185330938
1.176334277806925
1.176391702004614
1.176449084430491
1.176505539487825
1.176560737046537
1.176614735882586
1.176667430986017
1.17671736572177
1.176759739611119
1.176786302405996
1.176794803405354
1.17679545309586
1.17679509987277
1.176793790330953
1.176790250323749
1.176783288749103
1.176771578356128
1.176753903982013
1.176729304723787
1.176697246063968
1.176657744739049
1.176611420045337
1.176559453156032
1.176503434337564
1.176445096379077
1.17638599779165
1.176327272115007
1.176269537535195
1.176213028087365
1.176158112764843
1.176106614007421
1.176063988258605
1.176038683349106
1.176031392397177
1.176030979735745
1.176031206645549
1.176032567166845
1.176035946218214
1.176042567134058
1.176053626740206
1.176070259822277
1.176093389844547
1.176123596249713
1.176160988200274
1.176205131859706
1.176255071323989
1.176309447509808
1.176366691559184
1.176425272119658
1.176483959282792
1.176542000439699
1.176599046870316
1.176654659057242
1.17670713778504
1.176751545695547
1.1767796061283
1.176788938282224
1.176789768251758
1.176789514282228
1.176788532610069
1.1767857401772
1.176780117373515
1.176770491066081
1.176755733117893
1.176734853014047
1.176707129134288
1.176672223780842
1.17663027080668
1.176581916744823
1.176528280127768
1.176470798666582
1.176410987994094
1.176350192509574
1.176289420302361
1.176229370744451
1.176170886193024
1.176116252149616
1.1760713158898
1.176044638459456
1.176036731454221
1.1760361889561
1.176036359077865
1.176037443059895
1.176040196287878
1.176045681988418
1.176054964640624
1.176069098829547
1.176089013896542
1.176115410507253
1.176148650180662
1.17618867083416
1.176234958544192
1.176286584284296
1.176342304378611
1.17640073330759
1.176460574765472
1.176520818120669
1.176580736861243
1.176639494663908
1.17669507317866
1.17674235855859
1.176772896301348
1.176783696331298
1.176784846847619
1.176784667370804
1.176783926646768
1.176781698590632
1.176777099081062
1.176769081736659
1.176756604361294
1.176738693542696
1.176714549385053
1.176683641643613
1.176645796769583
1.176601264067934
1.176550728968295
1.17649524007847
1.176436056966756
1.176374466680163
1.176311629911703
1.176248562983118
1.176186517459673
1.176128213390264
1.176079919595072
1.176050687315372
1.176041554272984
1.176040795915433
1.176040906402883
1.176041755486726
1.176044000689371
1.176048589049173
1.176056471840333
1.176068619498635
1.176085931255002
1.176109155565483
1.17613879704565
1.176175035653484
1.176217680076712
1.176266162937097
1.176319583932468
1.176376819016963
1.176436692868319
1.176498143030993
1.176560238413356
1.176621862894276
1.17668074618194
1.176731593888199
1.176765542716621
1.176778462933808
1.176780098549439
1.176779983798692
1.176779428688942
1.176777622808099
1.176773772410301
1.176766928615678
1.176756138427509
1.17674049087376
1.176719210006066
1.17669175937831
1.176657964121402
1.176618157557354
1.176573395705175
1.176525869208968
1.176479715899506
1.176441852399536
1.176419656912121
1.176412602069249
1.176411743793669
1.176411716329874
1.176411716172308
1.176411716172194
1.176411716172194
1.176411716172194
1.176411716172195
1.176411716172195
1.176411716172195
1.176411716172195
1.176411716172196
1.176411716172196
1.176411716172197
1.176411716172197
1.176411716172197
1.176411716172197
1.176411716172197
1.176411716172197
1.176411716172197
1.176411716172197
1.176411716172197
1.176411716172197
1.176411716172197
1.176411716172197
1.176411716172197
1.176411716172196
1.176411716172196
1.176411716172196
1.176411716172195
1.176411716172196
1.176411716172196
1.176411716172196
1.176411716172196
1.176411716172196
1.176411716172196
1.176411716172195
1.176411716172195
1.176411716172195
1.176411716172194
1.176411716172194
1.176411716172194
1.176411716172194
1.176411716172194
1.176411716172194
1.176411716172195
1.176411716172194
1.176411716172194
1.176411716172194
1.176411716172195
1.176411716172195
1.176411716172196
1.176411716172196
1.176411716172196
1.176411716172196
1.176411716172195
1.176411716172195
1.176411716172196
1.176411716172195
1.176411716172195
1.176411716172194
1.176411716172194
1.176411716172195
1.176411716172194
1.176411716172195
1.176411716172195
1.176411716172195
1.176411716172195
1.176411716172194
1.176411716172194
1.176411716172194
1.176411716172194
1.176411716172194
1.176411716172194
1.176411716172194
1.176411716172194
1.176411716172195
1.176411716172195
1.176411716172195
1.176411716172195
1.176411716172195
1.176411716172196
1.176411716172197
1.176411716172197
1.176411716172197
1.176411716172197
1.176411716172197
1.176411716172197
1.176411716172197
1.176411716172197
1.176411716172197
1.176411716172197
1.176411716172197
1.176411716172197
1.176411716172197
1.176411716172197
1.176411716172196
1.176411716172196
1.176411716172195
1.176411716172196
1.176411716172195
1.176411716172196
1.176411716172195
1.176411716172194
1.176411716172195
1.176411716172195
1.176411716172195
1.176411716172195
1.176411716172195
1.176411716172195
1.176411716172195
1.176411716172194
1.176411716172194
1.176411716172194
1.176411716172194
1.176411716172194
1.176411716172194
1.176411716172194
1.176411716172194
1.176411716172194
1.176411716172195
1.176411716172194
1.176411716172194
1.176411716172194
1.176411716172194
1.176411716172193
1.176411716172193
1.176411716172193
1.176411716172193
1.176411716172193
1.176411716172194
1.176411716172194
1.176411716172195
1.176411716172195
1.176411716172195
1.176411716172194
1.176411716172194
1.176411716172194
1.176411716172193
1.176411716172193
1.176411716172193
1.176411716172193
1.176411716172192
1.176411716172193
1.176411716172193
1.176411716172193
1.176411716172193
1.176411716172193
1.176411716172194
1.176411716172194
1.176411716172194
1.176411716172194
1.176411716172194
1.176411716172194
1.176411716172194
1.176411716172194
1.176411716172194
1.176411716172194
1.176411716172194
1.176411716172194
1.176411716172193
1.176411716172194
1.176411716172194
1.176411716172194
1.176411716172194
1.176411716172194
1.176411716172194
1.176411716172194
1.176411716172194
1.176411716172194
1.176411716172194
1.176411716172194
1.176411716172194
1.176411716172193
1.176411716172193
1.176411716172193
1.176411716172193
1.176411716172193
1.176411716172193
1.176411716172193
1.176411716172193
1.176411716172194
1.176411716172194
1.176411716172194
1.176411716172194
1.176411716172195
1.176411716172195
1.176411716172195
1.176411716172195
1.176411716172195
1.176411716172195
1.176411716172194
1.176411716172195
1.176411716172195
1.176411716172195
1.176411716172195
1.176411716172195
1.176411716172195
1.176411716172195
1.176411716172195
1.176411716172195
1.176411716172195
1.176411716172194
1.176411716172194
1.176411716172193
1.176411716172193
1.176411716172193
1.176411716172193
1.176411716172194
1.176411716172194
1.176411716172194
1.176411716172195
1.176411716172195
1.176411716172195
1.176411716172195
1.176411716172195
1.176411716172195
1.176411716172195
1.176411716172195
1.176411716172195
1.176411716172195
1.176411716172195
1.176411716172195
1.176411716172196
1.176411716172196
1.176411716172196
1.176411716172196
1.176411716172196
1.176411716172195
1.176411716172195
1.176411716172195
1.176411716172195
1.176411716172195
1.176411716172195
1.176411716172195
1.176411716172194
1.176411716172194
1.176411716172194
1.176411716172193
1.176411716172193
1.176411716172193
1.176411716172193
1.176411716172192
1.176411716172192
1.176411716172192
1.176411716172193
1.176411716172193
1.176411716172193
1.176411716172193
1.176411716172193
1.176411716172194
1.176411716172194
1.176411716172194
1.176411716172194
1.176411716172194
1.176411716172194
1.176411716172193
1.176411716172194
1.176411716172194
1.176411716172194
1.176411716172195
1.176411716172195
1.176411716172196
1.176411716172196
1.176411716172196
1.176411716172196
1.176411716172196
1.176411716172195
1.176411716172196
1.176411716172196
1.176411716172196
1.176411716172196
1.176411716172196
1.176411716172195
1.176411716172195
1.176411716172195
1.176411716172195
1.176411716172196
1.176411716172195
1.176411716172195
1.176411716172195
1.176411716172195
1.176411716172196
1.176411716172196
1.176411716172196
1.176411716172196
1.176411716172196
1.176411716172196
1.176411716172196
1.176411716172196
1.176411716172196
1.176411716172196
1.176411716172196
1.176411716172196
1.176411716172197
1.176411716172197
1.176411716172197
1.176411716172196
1.176411716172196
1.176411716172197
1.176411716172196
1.176411716172196
1.176411716172196
1.176411716172196
1.176411716172196
1.176411716172196
1.176411716172196
1.176411716172196
1.176411716172196
1.176411716172196
1.176411716172196
1.176411716172196
1.176411716172196
1.176411716172196
1.176411716172196
1.176411716172196
1.176411716172196
1.176411716172196
1.176411716172196
1.176411716172196
1.176411716172196
1.176411716172196
1.176411716172196
1.176411716172196
1.176411716172196
1.176411716172196
1.176411716172197
1.176411716172197
1.176411716172197
1.176411716172197
1.176411716172196
1.176411716172196
1.176411716172195
1.176411716172196
1.176411716172196
1.176411716172196
1.176411716172196
1.176411716172197
1.176411716172197
1.176411716172197
1.176411716172197
1.176411716172197
1.176411716172198
1.176411716172198
1.176411716172198
1.176411716172198
1.176411716172198
1.176411716172198
1.176411716172198
1.176411716172198
1.176411716172197
1.176411716172197
1.176411716172197
1.176411716172197
1.176411716172197
1.176411716172197
1.176411716172197
1.176411716172196
1.176411716172196
1.176411716172196
1.176411716172196
1.176411716172196
1.176411716172195
1.176411716172196
1.176411716172196
1.176411716172196
1.176411716172197
1.176411716172197
1.176411716172196
1.176411716172196
1.176411716172197
1.176411716172197
1.176411716172197
1.176411716172197
1.176411716172197
1.176411716172197
1.176411716172197
1.176411716172197
1.176411716172197
1.176411716172197
1.176411716172197
1.176411716172197
1.176411716172197
1.176411716172196
1.176411716172196
1.176411716172197
1.176411716172196
1.176411716172196
1.176411716172196
1.176411716172196
1.176411716172197
1.176411716172197
1.176411716172197
1.176411716172196
1.176411716172196
1.176411716172197
1.176411716172196
1.176411716172196
1.176411716172196
1.176411716172196
1.176411716172196
1.176411716172195
1.176411716172195
1.176411716172195
1.176411716172196
1.176411716172197
1.176411716172197
1.176411716172197
1.176411716172197
1.176411716172197
1.176411716172197
1.176411716172197
1.176411716172197
1.176411716172198
1.176411716172197
1.176411716172198
1.176411716172198
1.176411716172197
1.176411716172197
1.176411716172196
1.176411716172196
1.176411716172197
1.176411716172196
1.176411716172196
1.176411716172196
1.176411716172195
1.176411716172195
1.176411716172195
1.176411716172195
1.176411716172195
1.176411716172195
1.176411716172195
1.176411716172195
1.176411716172195
1.176411716172195
1.176411716172195
1.176411716172196
1.176411716172195
1.176411716172195
1.176411716172195
1.176411716172195
1.176411716172195
1.176411716172195
1.176411716172195
1.176411716172195
1.176411716172195
1.176411716172195
1.176411716172195
1.176411716172195
1.176411716172196
1.176411716172196
1.176411716172197
1.176411716172198
1.176411716172198
1.176411716172198
1.176411716172197
1.176411716172197
1.176411716172196
1.176411716172196
1.176411716172196
1.176411716172196
1.176411716172196
1.176411716172196
1.176411716172196
1.176411716172196
1.176411716172195
1.176411716172196
1.176411716172196
1.176411716172196
1.176411716172196
1.176411716172196
1.176411716172195
1.176411716172195
1.176411716172194
1.176411716172195
1.176411716172195
1.176411716172195
1.176411716172195
1.176411716172195
1.176411716172195
1.176411716172196
1.176411716172196
1.176411716172196
1.176411716172197
1.176411716172197
1.176411716172197
1.176411716172196
1.176411716172196
1.176411716172196
1.176411716172195
1.176411716172196
1.176411716172195
1.176411716172196
1.176411716172195
1.176411716172195
1.176411716172195
1.176411716172195
1.176411716172195
1.176411716172196
1.176411716172197
1.176411716172197
1.176411716172197
1.176411716172197
1.176411716172197
1.176411716172197
1.176411716172197
1.176411716172197
1.176411716172197
1.176411716172196
1.176411716172196
1.176411716172196
1.176411716172196
1.176411716172196
1.176411716172196
1.176411716172196
1.176411716172196
1.176411716172195
1.176411716172195
1.176411716172195
1.176411716172195
1.176411716172195
1.176411716172195
1.176411716172194
1.176411716172194
1.176411716172194
1.176411716172194
1.176411716172194
1.176411716172194
1.176411716172195
1.176411716172195
1.176411716172195
1.176411716172196
1.176411716172196
1.176411716172197
1.176411716172197
1.176411716172196
1.176411716172196
1.176411716172196
1.176411716172197
1.176411716172197
1.176411716172196
1.176411716172196
1.176411716172196
1.176411716172196
1.176411716172195
1.176411716172196
1.176411716172195
1.176411716172196
1.176411716172195
1.176411716172195
1.176411716172196
1.176411716172196
1.176411716172196
1.176411716172196
1.176411716172196
1.176411716172195
1.176411716172195
1.176411716172195
1.176411716172196
1.176411716172196
1.176411716172196
1.176411716172197
1.176411716172197
1.176411716172196
1.176411716172195
1.176411716172195
1.176411716172195
1.176411716172195
1.176411716172196
1.176411716172197
1.176411716172197
1.176411716172197
1.176411716172197
1.176411716172196
1.176411716172197
1.176411716172197
1.176411716172197
1.176411716172198
1.176411716172198
1.176411716172199
1.176411716172198
1.176411716172198
1.176411716172197
1.176411716172197
1.176411716172197
1.176411716172197
1.176411716172197
1.176411716172197
1.176411716172197
1.176411716172197
1.176411716172198
1.176411716172198
1.176411716172198
1.176411716172198
1.176411716172198
1.176411716172197
1.176411716172197
1.176411716172197
1.176411716172197
1.176411716172197
1.176411716172197
1.176411716172197
1.176411716172197
1.176411716172197
1.176411716172198
1.176411716172198
1.176411716172198
1.176411716172198
1.176411716172198
1.176411716172197
1.176411716172198
1.176411716172198
1.176411716172198
1.176411716172198
1.176411716172197
1.176411716172197
1.176411716172197
1.176411716172198
1.176411716172198
1.176411716172198
1.176411716172199
1.176411716172198
1.176411716172198
1.176411716172198
1.176411716172198
1.176411716172197
1.176411716172197
1.176411716172197
1.176411716172197
1.176411716172197
1.176411716172197
1.176411716172196
1.176411716172196
1.176411716172196
1.176411716172196
1.176411716172196
1.176411716172196
1.176411716172197
1.176411716172197
1.176411716172197
1.176411716172197
1.176411716172196
1.176411716172197
1.176411716172197
1.176411716172197
1.176411716172196
1.176411716172196
1.176411716172197
1.176411716172197
1.176411716172197
1.176411716172197
1.176411716172197
1.176411716172197
1.176411716172197
1.176411716172197
1.176411716172197
1.176411716172196
1.176411716172196
1.176411716172196
1.176411716172196
1.176411716172196
1.176411716172196
1.176411716172196
1.176411716172196
1.176411716172196
1.176411716172196
1.176411716172196
1.176411716172197
1.176411716172197
1.176411716172197
1.176411716172197
1.176411716172197
1.176411716172197
1.176411716172197
1.176411716172197
1.176411716172196
1.176411716172196
1.176411716172196
1.176411716172196
1.176411716172195
1.176411716172195
1.176411716172195
1.176411716172195
1.176411716172195
1.176411716172195
1.176411716172195
1.176411716172194
1.176411716172195
1.176411716172196
1.176411716172196
1.176411716172195
1.176411716172196
1.176411716172196
1.176411716172196
1.176411716172196
1.176411716172196
1.176411716172197
1.176411716172197
1.176411716172197
1.176411716172197
1.176411716172196
1.176411716172196
1.176411716172196
1.176411716172196
1.176411716172195
1.176411716172195
1.176411716172195
1.176411716172195
1.176411716172195
1.176411716172196
1.176411716172196
1.176411716172196
1.176411716172197
1.176411716172197
1.176411716172196
1.176411716172195
1.176411716172195
1.176411716172194
1.176411716172194
1.176411716172195
)
;

boundaryField
{
    inlet
    {
        type            calculated;
        value           uniform 1.176395973595895;
    }
    outlet
    {
        type            calculated;
        value           uniform 1.176411716172198;
    }
    frontAndBack
    {
        type            empty;
    }
}


// ************************************************************************* //
