/*--------------------------------*- C++ -*----------------------------------*\
| =========                 |                                                 |
| \\      /  F ield         | OpenFOAM: The Open Source CFD Toolbox           |
|  \\    /   O peration     | Version:  v2012                                 |
|   \\  /    A nd           | Website:  www.openfoam.com                      |
|    \\/     M anipulation  |                                                 |
\*---------------------------------------------------------------------------*/
FoamFile
{
    version     2.0;
    format      ascii;
    class       volScalarField;
    location    "0.002";
    object      T;
}
// * * * * * * * * * * * * * * * * * * * * * * * * * * * * * * * * * * * * * //

dimensions      [0 0 0 1 0 0 0];


internalField   nonuniform List<scalar> 
1000
(
299.9883424955041
299.9901243785994
299.9838148975172
299.9791295802455
299.9746290966528
299.9706983409328
299.9670819105652
299.9637913558811
299.9609139783072
299.9590015370686
299.9585032264397
299.9585215801048
299.9588467274965
299.9596989546607
299.9613508118983
299.9638750922252
299.9671854342636
299.9711270925486
299.9755698750145
299.9804251195492
299.9856211488996
299.9910809727761
299.9967147045627
300.0024191250677
300.0080802775657
300.0135832887493
300.0188309626056
300.0237651749824
300.0283782300822
300.0326785686129
300.0365338302647
300.0393976315439
300.0406270544102
300.0407701614524
300.0407077375069
300.0404858159282
300.0398577774434
300.0386282036706
300.0366200958077
300.0337528552826
300.0300598859353
300.0256707595225
300.0207582250779
300.0154842765702
300.009974832936
300.0043259365441
299.9986224170016
299.992950768971
299.9873993061584
299.9820433759161
299.9769208691491
299.9720300439756
299.9674145149526
299.9633911838749
299.9607157903616
299.9598047999626
299.9597427676388
299.9597772645819
299.9599984375412
299.9605423702176
299.9616002103699
299.9633337490442
299.9658583287126
299.9692107463514
299.973339099988
299.9781147854579
299.9833649156635
299.9889123755657
299.9946057024461
300.0003282254511
300.0059927337891
300.0115379583261
300.0169332554428
300.0221773733357
300.0272652772156
300.0320885977708
300.036234856934
300.0389050348239
300.039783842823
300.0398482243178
300.039800204601
300.0396265341095
300.0391639761257
300.0382650899213
300.0367730170069
300.0345600204082
300.0315496697869
300.0277369789058
300.0231935142837
300.0180552833242
300.0124976501149
300.0067044321819
300.0008380625625
299.9950180154573
299.9893131698622
299.9837475257986
299.9783166470128
299.9730304776442
299.968034200492
299.9638359489191
299.9612945580384
299.9605543477664
299.9605167777571
299.9605475457784
299.9607236218413
299.9611513885698
299.9619799799701
299.9633493812996
299.9653825581597
299.9681637524783
299.9717219468186
299.9760198110135
299.980954337103
299.9863723700579
299.9920972379606
299.9979578539964
300.003814036147
300.0095754089341
300.0152082913183
300.0207186915627
300.0260959033805
300.0311913006739
300.0355150728252
300.0382254485514
300.0390928519886
300.039159143516
300.0391231023499
300.0389894823536
300.0386282742084
300.0379179408241
300.0367230496239
300.0349195990713
300.032409522826
300.0291382516411
300.0251074561123
300.0203802868523
300.0150772312508
300.0093605321627
300.0034069926564
299.9973756490804
299.9913821838698
299.9854896944492
299.9797220764104
299.9741170022186
299.968860502732
299.9645095637143
299.961926563544
299.9611823319365
299.9611402091353
299.9611633713394
299.9613022475543
299.9616471657953
299.9623229968795
299.9634519027222
299.9651497072073
299.9675106559993
299.9705938698006
299.9744104573668
299.9789160966594
299.9840131779866
299.9895629468373
299.9954052511052
300.0013837831433
300.0073730162995
300.0132961466448
300.0191175942234
300.0247925172177
300.0301475373632
300.0346788791368
300.0375420793663
300.038494293006
300.0385789795835
300.03855306573
300.0384528999051
300.0381679705814
300.037594239385
300.0366120006668
300.0351061356118
300.032975561214
300.0301466230628
300.0265848321274
300.0223038083049
300.0173694822979
300.0118959519403
300.0060298955997
299.9999259582368
299.9937213263859
299.9875188785527
299.9813899962486
299.9754206631126
299.9698441748485
299.9652574140944
299.9625343225107
299.961727208834
299.9616718329322
299.9616891983423
299.9617998463193
299.9620808826955
299.9626408354542
299.9635883582442
299.9650310908279
299.9670638827361
299.9697582337656
299.9731510172668
299.9772358611661
299.9819602695927
299.9872293788298
299.9929162172442
299.9988793483852
300.0049864555701
300.0111343906447
300.0172490112608
300.0232449778728
300.028916344525
300.0337413264857
300.0368573163207
300.0379593089509
300.0380767029054
300.0380583898313
300.0379828091235
300.037755466122
300.0372861473853
300.0364680813425
300.0351949202057
300.0333673294335
300.0309036724039
300.0277498185739
300.0238880257996
300.0193436937389
300.0141867231473
300.0085240788154
300.0024842627124
299.996198594031
299.9897855112335
299.9833487320096
299.9770159971895
299.9710649511192
299.9661355032187
299.9631516365718
299.962219376376
299.9621419664863
299.9621532444967
299.9622399147875
299.962469093778
299.9629374495963
299.9637420811658
299.9649820403172
299.9667491058981
299.9691196599845
299.9721451872369
299.975844025948
299.9801966123927
299.985144995489
299.9905972458262
299.9964386049853
300.0025490921778
300.0088202578987
300.0151570707899
300.0214456294142
300.0274542716519
300.0326427850757
300.036106848849
300.037425180791
300.0375920724877
300.0375803636312
300.0375237219896
300.0373394557155
300.0369465729919
300.0362482513843
300.0351472458935
300.0335505954387
300.0313791105097
300.0285780327602
300.0251294915957
300.0210674674182
300.0164996867799
300.0116496695944
300.0069396694115
300.0030755666216
300.0008104006299
300.0000904111744
300.0000028189345
300.000000016093
300.0000000000123
300.0000000000007
300.0000000000007
300.0000000000007
300.0000000000007
300.0000000000009
300.0000000000009
300.0000000000009
300.000000000001
300.000000000001
300.0000000000009
300.0000000000009
300.0000000000008
300.0000000000009
300.000000000001
300.0000000000011
300.0000000000011
300.000000000001
300.0000000000009
300.0000000000008
300.0000000000007
300.0000000000007
300.0000000000009
300.0000000000009
300.0000000000009
300.0000000000009
300.0000000000009
300.0000000000008
300.0000000000006
300.0000000000006
300.0000000000005
300.0000000000005
300.0000000000006
300.0000000000006
300.0000000000006
300.0000000000006
300.0000000000005
300.0000000000005
300.0000000000006
300.0000000000007
300.0000000000007
300.0000000000006
300.0000000000006
300.0000000000006
300.0000000000005
300.0000000000005
300.0000000000005
300.0000000000004
300.0000000000004
300.0000000000003
300.0000000000003
300.0000000000004
300.0000000000005
300.0000000000005
300.0000000000006
300.0000000000006
300.0000000000007
300.0000000000008
300.0000000000009
300.0000000000007
300.0000000000005
300.0000000000004
300.0000000000004
300.0000000000003
300.0000000000003
300.0000000000002
300.0000000000002
300.0000000000001
300.0000000000002
300.0000000000004
300.0000000000005
300.0000000000005
300.0000000000006
300.0000000000007
300.0000000000006
300.0000000000005
300.0000000000005
300.0000000000006
300.0000000000006
300.0000000000006
300.0000000000006
300.0000000000006
300.0000000000006
300.0000000000007
300.0000000000007
300.0000000000007
300.0000000000007
300.0000000000007
300.0000000000007
300.0000000000006
300.0000000000006
300.0000000000006
300.0000000000005
300.0000000000005
300.0000000000005
300.0000000000005
300.0000000000005
300.0000000000005
300.0000000000006
300.0000000000006
300.0000000000007
300.0000000000007
300.0000000000006
300.0000000000007
300.0000000000007
300.0000000000007
300.0000000000009
300.0000000000008
300.0000000000009
300.000000000001
300.000000000001
300.0000000000009
300.0000000000009
300.0000000000007
300.0000000000007
300.0000000000007
300.0000000000005
300.0000000000006
300.0000000000007
300.0000000000007
300.0000000000006
300.0000000000004
300.0000000000003
300.0000000000003
300.0000000000003
300.0000000000004
300.0000000000004
300.0000000000004
300.0000000000005
300.0000000000005
300.0000000000005
300.0000000000004
300.0000000000003
300.0000000000004
300.0000000000004
300.0000000000005
300.0000000000005
300.0000000000005
300.0000000000006
300.0000000000006
300.0000000000006
300.0000000000005
300.0000000000004
300.0000000000005
300.0000000000005
300.0000000000005
300.0000000000005
300.0000000000005
300.0000000000003
300.0000000000004
300.0000000000005
300.0000000000005
300.0000000000005
300.0000000000006
300.0000000000007
300.0000000000006
300.0000000000006
300.0000000000006
300.0000000000007
300.0000000000006
300.0000000000006
300.0000000000006
300.0000000000006
300.0000000000006
300.0000000000006
300.0000000000006
300.0000000000006
300.0000000000007
300.0000000000007
300.0000000000006
300.0000000000007
300.0000000000008
300.0000000000008
300.0000000000007
300.0000000000007
300.0000000000007
300.0000000000007
300.0000000000006
300.0000000000006
300.0000000000006
300.0000000000006
300.0000000000006
300.0000000000006
300.0000000000006
300.0000000000006
300.0000000000007
300.0000000000008
300.0000000000009
300.000000000001
300.000000000001
300.0000000000009
300.0000000000009
300.0000000000009
300.0000000000008
300.0000000000009
300.0000000000009
300.0000000000009
300.0000000000009
300.0000000000009
300.000000000001
300.0000000000011
300.000000000001
300.000000000001
300.000000000001
300.000000000001
300.000000000001
300.0000000000009
300.0000000000008
300.0000000000007
300.0000000000009
300.000000000001
300.0000000000011
300.0000000000011
300.0000000000011
300.0000000000011
300.0000000000012
300.0000000000013
300.0000000000013
300.0000000000012
300.0000000000011
300.0000000000012
300.0000000000013
300.0000000000012
300.0000000000011
300.000000000001
300.000000000001
300.000000000001
300.0000000000009
300.000000000001
300.0000000000011
300.0000000000011
300.0000000000011
300.0000000000011
300.0000000000011
300.000000000001
300.000000000001
300.0000000000009
300.0000000000007
300.0000000000007
300.0000000000008
300.0000000000009
300.0000000000009
300.0000000000009
300.0000000000009
300.0000000000009
300.0000000000009
300.0000000000008
300.0000000000008
300.0000000000007
300.0000000000008
300.0000000000008
300.0000000000007
300.0000000000008
300.0000000000007
300.0000000000007
300.0000000000008
300.0000000000007
300.0000000000006
300.0000000000006
300.0000000000005
300.0000000000003
300.0000000000004
300.0000000000005
300.0000000000005
300.0000000000006
300.0000000000005
300.0000000000004
300.0000000000005
300.0000000000003
300.0000000000003
300.0000000000003
300.0000000000002
300.0000000000002
300.0000000000003
300.0000000000003
300.0000000000004
300.0000000000005
300.0000000000005
300.0000000000006
300.0000000000005
300.0000000000006
300.0000000000005
300.0000000000006
300.0000000000006
300.0000000000006
300.0000000000006
300.0000000000007
300.0000000000006
300.0000000000007
300.0000000000006
300.0000000000006
300.0000000000005
300.0000000000004
300.0000000000005
300.0000000000005
300.0000000000005
300.0000000000005
300.0000000000004
300.0000000000004
300.0000000000005
300.0000000000006
300.0000000000006
300.0000000000005
300.0000000000006
300.0000000000005
300.0000000000004
300.0000000000005
300.0000000000005
300.0000000000006
300.0000000000006
300.0000000000006
300.0000000000006
300.0000000000006
300.0000000000007
300.0000000000006
300.0000000000007
300.0000000000007
300.0000000000007
300.0000000000006
300.0000000000007
300.0000000000007
300.0000000000007
300.0000000000008
300.0000000000007
300.0000000000006
300.0000000000007
300.0000000000007
300.0000000000008
300.0000000000009
300.0000000000011
300.0000000000011
300.0000000000011
300.000000000001
300.000000000001
300.0000000000008
300.0000000000007
300.0000000000006
300.0000000000007
300.0000000000007
300.0000000000006
300.0000000000006
300.0000000000006
300.0000000000007
300.0000000000007
300.0000000000007
300.0000000000008
300.0000000000008
300.0000000000008
300.0000000000007
300.0000000000006
300.0000000000005
300.0000000000005
300.0000000000005
300.0000000000006
300.0000000000007
300.0000000000006
300.0000000000005
300.0000000000005
300.0000000000005
300.0000000000006
300.0000000000006
300.0000000000006
300.0000000000007
300.0000000000008
300.0000000000007
300.0000000000006
300.0000000000006
300.0000000000006
300.0000000000005
300.0000000000005
300.0000000000006
300.0000000000006
300.0000000000006
300.0000000000007
300.0000000000007
300.0000000000009
300.0000000000007
300.0000000000006
300.0000000000006
300.0000000000006
300.0000000000006
300.0000000000005
300.0000000000005
300.0000000000005
300.0000000000005
300.0000000000006
300.0000000000005
300.0000000000006
300.0000000000007
300.0000000000007
300.0000000000006
300.0000000000006
300.0000000000006
300.0000000000006
300.0000000000006
300.0000000000007
300.0000000000006
300.0000000000005
300.0000000000005
300.0000000000005
300.0000000000005
300.0000000000006
300.0000000000006
300.0000000000006
300.0000000000007
300.0000000000007
300.0000000000007
300.0000000000007
300.0000000000007
300.0000000000007
300.0000000000007
300.0000000000006
300.0000000000006
300.0000000000006
300.0000000000005
300.0000000000006
300.0000000000007
300.0000000000007
300.0000000000006
300.0000000000005
300.0000000000006
300.0000000000007
300.0000000000009
300.0000000000009
300.0000000000009
300.0000000000009
300.0000000000009
300.0000000000009
300.0000000000009
300.0000000000009
300.0000000000009
300.0000000000009
300.0000000000007
300.0000000000006
300.0000000000004
300.0000000000004
300.0000000000006
300.0000000000007
300.000000000001
300.0000000000009
300.0000000000009
300.0000000000008
300.0000000000008
300.0000000000009
300.0000000000009
300.000000000001
300.0000000000011
300.0000000000011
300.000000000001
300.0000000000009
300.0000000000007
300.0000000000007
300.0000000000009
300.000000000001
300.000000000001
300.0000000000009
300.0000000000007
300.0000000000008
300.0000000000009
300.0000000000008
300.0000000000008
300.0000000000007
300.0000000000007
300.0000000000008
300.0000000000007
300.0000000000005
300.0000000000005
300.0000000000005
300.0000000000006
300.0000000000008
300.0000000000009
300.0000000000009
300.0000000000008
300.0000000000009
300.0000000000009
300.0000000000009
300.0000000000008
300.0000000000007
300.0000000000006
300.0000000000006
300.0000000000006
300.0000000000005
300.0000000000006
300.0000000000006
300.0000000000006
300.0000000000006
300.0000000000006
300.0000000000006
300.0000000000006
300.0000000000007
300.0000000000007
300.0000000000007
300.0000000000007
300.0000000000006
300.0000000000006
300.0000000000006
300.0000000000006
300.0000000000006
300.0000000000007
300.0000000000007
300.0000000000006
300.0000000000006
300.0000000000006
300.0000000000005
300.0000000000006
300.0000000000006
300.0000000000007
300.0000000000008
300.0000000000009
300.0000000000007
300.0000000000006
300.0000000000006
300.0000000000006
300.0000000000006
300.0000000000007
300.0000000000008
300.0000000000007
300.0000000000007
300.0000000000008
300.0000000000008
300.0000000000009
300.0000000000009
300.0000000000009
300.0000000000007
300.0000000000007
300.0000000000007
300.0000000000007
300.0000000000008
300.0000000000007
300.0000000000007
300.0000000000007
300.0000000000007
300.0000000000007
300.0000000000007
300.0000000000007
300.0000000000009
300.0000000000009
300.0000000000009
300.0000000000009
300.0000000000009
300.0000000000009
300.0000000000009
300.0000000000008
300.0000000000008
300.0000000000007
300.0000000000006
300.0000000000005
300.0000000000005
300.0000000000005
300.0000000000006
300.0000000000005
300.0000000000005
300.0000000000005
300.0000000000004
300.0000000000004
300.0000000000005
300.0000000000005
300.0000000000005
300.0000000000005
300.0000000000006
300.0000000000009
300.000000000001
300.0000000000011
300.0000000000013
300.0000000000012
300.000000000001
300.0000000000009
300.0000000000008
300.0000000000009
300.0000000000009
300.0000000000008
300.0000000000009
300.0000000000009
300.0000000000009
300.0000000000009
300.0000000000007
300.0000000000009
300.000000000001
300.0000000000009
300.0000000000009
300.000000000001
300.000000000001
300.000000000001
300.0000000000009
300.0000000000009
300.0000000000007
300.0000000000007
300.0000000000007
300.0000000000008
300.0000000000008
300.0000000000009
300.000000000001
300.0000000000012
300.0000000000013
300.0000000000014
300.0000000000014
300.0000000000013
300.0000000000014
300.0000000000013
300.0000000000014
300.0000000000014
300.0000000000012
300.0000000000012
300.0000000000011
300.0000000000011
300.0000000000011
300.0000000000011
300.0000000000012
300.0000000000011
300.000000000001
300.0000000000009
300.000000000001
300.000000000001
300.0000000000009
300.000000000001
300.000000000001
300.000000000001
300.000000000001
300.000000000001
300.0000000000011
300.0000000000012
300.0000000000011
300.0000000000011
300.0000000000011
300.0000000000011
300.000000000001
300.0000000000011
300.0000000000012
300.0000000000011
300.0000000000011
300.0000000000011
300.0000000000011
300.000000000001
300.0000000000011
300.0000000000011
300.000000000001
300.0000000000011
300.000000000001
300.000000000001
300.0000000000011
300.0000000000011
300.000000000001
300.000000000001
300.000000000001
300.0000000000011
300.0000000000011
300.0000000000011
300.000000000001
300.000000000001
300.000000000001
300.0000000000009
300.000000000001
300.0000000000011
300.000000000001
300.000000000001
300.000000000001
300.000000000001
300.000000000001
300.000000000001
300.000000000001
300.000000000001
300.0000000000011
300.0000000000011
300.000000000001
300.0000000000008
300.0000000000006
300.0000000000006
300.0000000000006
300.0000000000006
300.0000000000007
300.0000000000008
300.0000000000009
300.0000000000009
300.0000000000009
300.0000000000008
300.0000000000009
300.0000000000009
300.0000000000009
300.0000000000009
300.0000000000009
300.0000000000009
300.0000000000009
300.0000000000009
300.0000000000008
300.0000000000008
300.0000000000009
300.0000000000009
300.0000000000008
300.0000000000009
300.0000000000007
300.0000000000007
300.0000000000006
300.0000000000005
300.0000000000006
300.0000000000006
300.0000000000006
300.0000000000007
300.0000000000006
300.0000000000007
300.0000000000006
300.0000000000007
300.0000000000009
300.000000000001
300.000000000001
300.0000000000009
300.0000000000009
300.0000000000009
300.0000000000009
300.0000000000008
300.0000000000009
300.0000000000009
300.000000000001
300.0000000000011
300.0000000000013
300.0000000000013
300.0000000000011
300.0000000000009
)
;

boundaryField
{
    inlet
    {
        type            fixedValue;
        value           uniform 300;
    }
    outlet
    {
        type            inletOutlet;
        inletValue      uniform 300;
        value           uniform 300;
    }
    frontAndBack
    {
        type            empty;
    }
}


// ************************************************************************* //
