/*--------------------------------*- C++ -*----------------------------------*\
| =========                 |                                                 |
| \\      /  F ield         | OpenFOAM: The Open Source CFD Toolbox           |
|  \\    /   O peration     | Version:  v2012                                 |
|   \\  /    A nd           | Website:  www.openfoam.com                      |
|    \\/     M anipulation  |                                                 |
\*---------------------------------------------------------------------------*/
FoamFile
{
    version     2.0;
    format      ascii;
    class       volVectorField;
    location    "0.002";
    object      U;
}
// * * * * * * * * * * * * * * * * * * * * * * * * * * * * * * * * * * * * * //

dimensions      [0 1 -1 0 0 0 0];


internalField   nonuniform List<vector> 
1000
(
(-0.002800003623223041 0 0)
(-0.03444804602002132 0 0)
(-0.04263713334501536 0 0)
(-0.05777484543896336 0 0)
(-0.07163062660634649 0 0)
(-0.08455778795943233 0 0)
(-0.09560736067197516 0 0)
(-0.105065107796562 0 0)
(-0.1132218343290272 0 0)
(-0.1186970430249864 0 0)
(-0.1201217122733838 0 0)
(-0.1199556709510762 0 0)
(-0.1191604794057564 0 0)
(-0.1166512649717398 0 0)
(-0.1118209248789974 0 0)
(-0.1044673087522463 0 0)
(-0.09487367284195108 0 0)
(-0.08347668486394187 0 0)
(-0.07064118205102679 0 0)
(-0.05661552852159264 0 0)
(-0.04159661207876129 0 0)
(-0.02580306223030703 0 0)
(-0.009506273853133431 0 0)
(0.006985121856552388 0 0)
(0.02335406713624732 0 0)
(0.03928533543507077 0 0)
(0.05448251244962804 0 0)
(0.06874531237619717 0 0)
(0.08206175154015777 0 0)
(0.09450771460102698 0 0)
(0.1057014009431564 0 0)
(0.1139858744977924 0 0)
(0.1174881468683491 0 0)
(0.1178737751143628 0 0)
(0.1177900500441106 0 0)
(0.117083651983448 0 0)
(0.115287912289985 0 0)
(0.1117286630508394 0 0)
(0.1059197053291527 0 0)
(0.09762614957428808 0 0)
(0.08694689991350144 0 0)
(0.07425271037862644 0 0)
(0.06004048475858396 0 0)
(0.0447838840769822 0 0)
(0.02885226682917603 0 0)
(0.01251698006723179 0 0)
(-0.003985982188932655 0 0)
(-0.0203990665370278 0 0)
(-0.03645077679805348 0 0)
(-0.0519298797601696 0 0)
(-0.06675293057661676 0 0)
(-0.08092262674629763 0 0)
(-0.0942723948060971 0 0)
(-0.1058779171715852 0 0)
(-0.1136082391897649 0 0)
(-0.1162821355051996 0 0)
(-0.1164867158282761 0 0)
(-0.1163183187582077 0 0)
(-0.1157205377457301 0 0)
(-0.1141344480574836 0 0)
(-0.1110763118198415 0 0)
(-0.106062553176175 0 0)
(-0.09876020718311353 0 0)
(-0.08906100247390553 0 0)
(-0.07711828474657084 0 0)
(-0.06330640003396749 0 0)
(-0.04812138840366067 0 0)
(-0.03207148801115609 0 0)
(-0.01559997934813688 0 0)
(0.0009482503861219435 0 0)
(0.01732678228477676 0 0)
(0.0333712251759893 0 0)
(0.04898764092946197 0 0)
(0.06415125195326894 0 0)
(0.07884956929481796 0 0)
(0.09280195767249395 0 0)
(0.1048207661078322 0 0)
(0.1125503023694237 0 0)
(0.1150609920212149 0 0)
(0.1152277275145211 0 0)
(0.1151436499650125 0 0)
(0.1146075087880274 0 0)
(0.113279808340775 0 0)
(0.1106784557246695 0 0)
(0.1063622023448452 0 0)
(0.09996092545991218 0 0)
(0.0912553532684101 0 0)
(0.08022848549138228 0 0)
(0.06708496228620783 0 0)
(0.05222139143727965 0 0)
(0.03614896332878599 0 0)
(0.01939540108031877 0 0)
(0.002423597089132696 0 0)
(-0.01441683370529634 0 0)
(-0.03091499369848611 0 0)
(-0.04700417402137602 0 0)
(-0.06271601086024522 0 0)
(-0.07802301673056466 0 0)
(-0.09247690288481877 0 0)
(-0.1045989827802117 0 0)
(-0.1119405961130753 0 0)
(-0.1141063880441423 0 0)
(-0.1142381682456488 0 0)
(-0.1141008210198245 0 0)
(-0.1136188574459715 0 0)
(-0.1123734472438326 0 0)
(-0.109977691082883 0 0)
(-0.1060170555622452 0 0)
(-0.1001360653927086 0 0)
(-0.09208969103032738 0 0)
(-0.0817964449119581 0 0)
(-0.0693660426129132 0 0)
(-0.05509340088417166 0 0)
(-0.03941864272971908 0 0)
(-0.02285683314267447 0 0)
(-0.005908086443359226 0 0)
(0.01102679033655444 0 0)
(0.02769547806369747 0 0)
(0.04399599248888763 0 0)
(0.05993045333077893 0 0)
(0.0754706340233586 0 0)
(0.09021070789198431 0 0)
(0.102735745001209 0 0)
(0.1105781454179284 0 0)
(0.1130651308692906 0 0)
(0.1132426787921068 0 0)
(0.1131791574154262 0 0)
(0.1127670327168914 0 0)
(0.111730119320548 0 0)
(0.1096744606629211 0 0)
(0.1062179844630902 0 0)
(0.1010013668803778 0 0)
(0.09374235590312423 0 0)
(0.08428124104577775 0 0)
(0.0726211427402956 0 0)
(0.05894714149788136 0 0)
(0.04361049292587814 0 0)
(0.0270772613630814 0 0)
(0.009854001110498247 0 0)
(-0.007595652560043822 0 0)
(-0.02492888820107939 0 0)
(-0.04196648190059128 0 0)
(-0.05865285376611084 0 0)
(-0.07487775515922256 0 0)
(-0.0900821527181201 0 0)
(-0.1026514014070369 0 0)
(-0.110118455024384 0 0)
(-0.1122908473705839 0 0)
(-0.1124259350329168 0 0)
(-0.1123242834599429 0 0)
(-0.1119434102167331 0 0)
(-0.110939350986753 0 0)
(-0.1089853784026364 0 0)
(-0.1057203197942687 0 0)
(-0.1008092355367786 0 0)
(-0.09397869688404525 0 0)
(-0.08505972766109397 0 0)
(-0.07402120995891701 0 0)
(-0.06098859506607068 0 0)
(-0.0462424249310765 0 0)
(-0.03018792978829036 0 0)
(-0.01329193185010053 0 0)
(0.003998340805219167 0 0)
(0.02132637933691368 0 0)
(0.03846435449361549 0 0)
(0.05529764571237648 0 0)
(0.07170194620979543 0 0)
(0.08719520101265975 0 0)
(0.1003171506422664 0 0)
(0.1085975345257825 0 0)
(0.1113331251375701 0 0)
(0.1115693486930252 0 0)
(0.111528842593737 0 0)
(0.1112155288851512 0 0)
(0.1103989514662767 0 0)
(0.1087383152306131 0 0)
(0.1058970111852598 0 0)
(0.1015412137397747 0 0)
(0.09537969697870151 0 0)
(0.08719781054242692 0 0)
(0.0768945039020648 0 0)
(0.06451128620659521 0 0)
(0.05024093245619479 0 0)
(0.03441055221969722 0 0)
(0.01744069336200156 0 0)
(-0.0002178570804317041 0 0)
(-0.01816196039000639 0 0)
(-0.03609772045122014 0 0)
(-0.05382930217247198 0 0)
(-0.07110528602956238 0 0)
(-0.08723405725333622 0 0)
(-0.1004887656619503 0 0)
(-0.1083640281667212 0 0)
(-0.1107141340086655 0 0)
(-0.1108839767447434 0 0)
(-0.1108052606149519 0 0)
(-0.1105032762965151 0 0)
(-0.1096846257004618 0 0)
(-0.1080658260553224 0 0)
(-0.105325349798018 0 0)
(-0.1011520280317222 0 0)
(-0.09527092285949099 0 0)
(-0.08747696280839762 0 0)
(-0.07766409305929838 0 0)
(-0.06584833889227788 0 0)
(-0.05218045107309149 0 0)
(-0.03693833215243734 0 0)
(-0.0204916079940022 0 0)
(-0.003244718207036619 0 0)
(0.01442413028739092 0 0)
(0.03221058082873739 0 0)
(0.04989168902373901 0 0)
(0.06722749767884112 0 0)
(0.08363706457682325 0 0)
(0.09760447390196643 0 0)
(0.1066132083120923 0 0)
(0.1097862193688618 0 0)
(0.1101207486747054 0 0)
(0.1100964274036946 0 0)
(0.1098563532292775 0 0)
(0.1092060912258914 0 0)
(0.107847333313547 0 0)
(0.1054809428953764 0 0)
(0.1017983372535012 0 0)
(0.09651307146868952 0 0)
(0.08938750987447894 0 0)
(0.08026423339941571 0 0)
(0.06909396562085095 0 0)
(0.0559515824147641 0 0)
(0.04103632196292601 0 0)
(0.02465489398881074 0 0)
(0.007182815601984719 0 0)
(-0.01099531528813018 0 0)
(-0.02954168659342128 0 0)
(-0.04816473847905072 0 0)
(-0.06648988101141856 0 0)
(-0.0836999989881707 0 0)
(-0.09794811214274016 0 0)
(-0.1065814257033052 0 0)
(-0.1092914354388328 0 0)
(-0.1095206050791766 0 0)
(-0.1094634449770636 0 0)
(-0.1092300588691472 0 0)
(-0.1085613849899688 0 0)
(-0.1072076955946839 0 0)
(-0.1048804004704965 0 0)
(-0.1012935418989833 0 0)
(-0.09618131360550849 0 0)
(-0.0893241516037166 0 0)
(-0.08057331213450961 0 0)
(-0.06987381747905763 0 0)
(-0.05728184526189116 0 0)
(-0.04296795251898505 0 0)
(-0.02719924195577503 0 0)
(-0.0103035418843482 0 0)
(0.007374693305836408 0 0)
(0.02551601515704324 0 0)
(0.04384008148711475 0 0)
(0.06202486457808732 0 0)
(0.07941054962018385 0 0)
(0.09442584578497719 0 0)
(0.1044396498335105 0 0)
(0.1082421757501582 0 0)
(0.1087224932586119 0 0)
(0.1087123018130051 0 0)
(0.1085292697318389 0 0)
(0.1080029627364329 0 0)
(0.1068651289561512 0 0)
(0.1048455996311194 0 0)
(0.1016610749982221 0 0)
(0.09704300581547794 0 0)
(0.09076228885115008 0 0)
(0.08266052973312429 0 0)
(0.07268601260323586 0 0)
(0.06093698903228955 0 0)
(0.04772501275647397 0 0)
(0.03369657033714873 0 0)
(0.02007300505871586 0 0)
(0.008896100674150861 0 0)
(0.002344092598596493 0 0)
(0.0002615156450975242 0 0)
(8.15381915395636e-06 0 0)
(4.654661313133952e-08 0 0)
(3.303268893717372e-11 0 0)
(-5.127410279645576e-13 0 0)
(-5.561936574530444e-13 0 0)
(-4.519073466806383e-13 0 0)
(-4.345262948851868e-13 0 0)
(-2.694063028288652e-13 0 0)
(-2.520252510334197e-13 0 0)
(-1.477389402609826e-13 0 0)
(4.959288881135215e-28 0 0)
(-1.230173798336124e-27 0 0)
(1.651199920563599e-13 0 0)
(3.476210359081387e-14 0 0)
(-1.738105179540771e-14 0 0)
(-1.911915697495227e-13 0 0)
(-2.172631474425991e-13 0 0)
(-1.390484143632774e-13 0 0)
(-9.559578487474261e-14 0 0)
(-5.21431553862072e-14 0 0)
(-3.476210359079679e-14 0 0)
(2.607157769314427e-14 0 0)
(8.690525897726221e-15 0 0)
(-4.345262948850468e-14 0 0)
(1.556193975949658e-26 0 0)
(-3.476210359079235e-14 0 0)
(-1.738105179539503e-14 0 0)
(-1.390484143632537e-13 0 0)
(-1.477389402609609e-13 0 0)
(-2.346441992380179e-13 0 0)
(-9.559578487472911e-14 0 0)
(-8.690525897704405e-14 0 0)
(-4.345262948850096e-14 0 0)
(6.083368128394418e-14 0 0)
(2.694063028288542e-13 0 0)
(2.346441992380453e-13 0 0)
(1.825010438518096e-13 0 0)
(5.214315538625701e-14 0 0)
(-6.083368128390997e-14 0 0)
(-1.216673625678675e-13 0 0)
(-3.476210359081631e-14 0 0)
(8.690525897704407e-14 0 0)
(8.69052589770153e-14 0 0)
(8.690525897704159e-14 0 0)
(1.477389402609487e-13 0 0)
(9.559578487474371e-14 0 0)
(1.129768366701285e-13 0 0)
(-6.952420718167558e-14 0 0)
(-1.042863107724869e-13 0 0)
(8.690525897671674e-15 0 0)
(1.738105179540695e-13 0 0)
(2.867873546242354e-13 0 0)
(2.172631474425757e-13 0 0)
(2.694063028288251e-13 0 0)
(4.17145243089789e-13 0 0)
(4.43216820782918e-13 0 0)
(3.997641912943898e-13 0 0)
(2.867873546242549e-13 0 0)
(1.738105179540697e-13 0 0)
(5.214315538622213e-14 0 0)
(1.738105179540631e-13 0 0)
(1.911915697495104e-13 0 0)
(2.607157769311471e-13 0 0)
(3.128589323173747e-13 0 0)
(3.128589323173575e-13 0 0)
(1.998820956472243e-13 0 0)
(4.345262948855236e-14 0 0)
(-6.083368128390695e-14 0 0)
(-2.346441992380076e-13 0 0)
(-3.041684064196601e-13 0 0)
(-2.52025251033428e-13 0 0)
(-1.825010438518038e-13 0 0)
(-3.30239984112751e-13 0 0)
(-2.607157769311547e-13 0 0)
(-2.346441992380308e-13 0 0)
(-2.346441992380016e-13 0 0)
(-2.433347251357329e-13 0 0)
(-1.477389402609785e-13 0 0)
(-4.345262948853435e-14 0 0)
(-8.690525897704053e-14 0 0)
(-7.821473307932414e-14 0 0)
(-1.390484143632708e-13 0 0)
(-1.477389402609793e-13 0 0)
(-7.821473307934397e-14 0 0)
(-9.559578487474911e-14 0 0)
(-9.559578487475147e-14 0 0)
(-1.564294661586905e-13 0 0)
(-2.25953673340315e-13 0 0)
(-8.690525897704235e-14 0 0)
(-8.690525897696796e-15 0 0)
(8.690525897720184e-15 0 0)
(1.216673625678729e-13 0 0)
(1.390484143632991e-13 0 0)
(1.564294661587168e-13 0 0)
(1.390484143633055e-13 0 0)
(-8.690525897677589e-15 0 0)
(2.607157769313386e-14 0 0)
(-1.911915697494777e-13 0 0)
(-1.390484143632702e-13 0 0)
(-1.129768366701535e-13 0 0)
(-1.651199920563728e-13 0 0)
(-1.6511999205639e-13 0 0)
(-2.346441992380116e-13 0 0)
(-1.216673625678599e-13 0 0)
(-1.303578884655677e-13 0 0)
(-1.390484143632729e-13 0 0)
(-6.95242071816407e-14 0 0)
(-8.690525897708241e-15 0 0)
(-6.083368128393455e-14 0 0)
(-6.952420718163309e-14 0 0)
(-2.607157769310929e-14 0 0)
(8.690525897709398e-15 0 0)
(-4.345262948852066e-14 0 0)
(-1.477389402609837e-13 0 0)
(-1.303578884655701e-13 0 0)
(-6.083368128391761e-14 0 0)
(8.690525897684735e-15 0 0)
(3.476210359080234e-14 0 0)
(3.128589323173448e-13 0 0)
(5.735747092484863e-13 0 0)
(7.473852272024895e-13 0 0)
(9.646483746451583e-13 0 0)
(1.034172581826847e-12 0 0)
(1.138458892599151e-12 0 0)
(9.646483746451842e-13 0 0)
(9.298862710543742e-13 0 0)
(7.908378566910312e-13 0 0)
(8.864336415657337e-13 0 0)
(9.733389005428253e-13 0 0)
(9.47267322849684e-13 0 0)
(1.016791530031349e-12 0 0)
(8.95124167463392e-13 0 0)
(9.385767969521129e-13 0 0)
(1.025482055928981e-12 0 0)
(1.008101004133657e-12 0 0)
(9.472673228497387e-13 0 0)
(7.90837856691099e-13 0 0)
(6.257178646346614e-13 0 0)
(5.214315538622429e-13 0 0)
(4.866694502714152e-13 0 0)
(3.997641912944099e-13 0 0)
(2.95477880521927e-13 0 0)
(1.303578884655435e-13 0 0)
(5.214315538620595e-14 0 0)
(1.738105179538271e-14 0 0)
(6.083368128389985e-14 0 0)
(1.477389402609619e-13 0 0)
(8.690525897694728e-15 0 0)
(1.738105179539297e-14 0 0)
(8.69052589770305e-14 0 0)
(6.952420718162828e-14 0 0)
(8.690525897703393e-14 0 0)
(3.476210359081262e-14 0 0)
(-4.345262948852801e-14 0 0)
(-6.952420718164149e-14 0 0)
(-1.042863107724631e-13 0 0)
(-1.477389402609884e-13 0 0)
(2.607157769311515e-14 0 0)
(-1.042863107724416e-13 0 0)
(-1.564294661586637e-13 0 0)
(-1.738105179540757e-13 0 0)
(-1.129768366701552e-13 0 0)
(-1.477389402609862e-13 0 0)
(-2.172631474426036e-13 0 0)
(-1.651199920564057e-13 0 0)
(-1.042863107724601e-13 0 0)
(-5.21431553862355e-14 0 0)
(4.345262948852627e-14 0 0)
(-8.690525897705742e-15 0 0)
(-3.476210359081852e-14 0 0)
(6.952420718163215e-14 0 0)
(1.216673625678516e-13 0 0)
(1.82501043851796e-13 0 0)
(2.520252510334067e-13 0 0)
(2.433347251357084e-13 0 0)
(3.476210359081677e-13 0 0)
(2.346441992380311e-13 0 0)
(1.998820956471808e-13 0 0)
(1.129768366701265e-13 0 0)
(1.825010438517333e-13 0 0)
(2.954778805219342e-13 0 0)
(3.302399841127112e-13 0 0)
(1.911915697494578e-13 0 0)
(7.821473307931046e-14 0 0)
(8.690525897700483e-14 0 0)
(6.952420718160663e-14 0 0)
(1.042863107724143e-13 0 0)
(7.821473307931352e-14 0 0)
(6.083368128390963e-14 0 0)
(4.345262948850292e-14 0 0)
(6.952420718162907e-14 0 0)
(7.821473307934657e-14 0 0)
(1.216673625678646e-13 0 0)
(2.603144241498326e-27 0 0)
(-1.303578884655628e-13 0 0)
(-2.259536733403024e-13 0 0)
(-2.085726215448888e-13 0 0)
(-2.259536733402804e-13 0 0)
(-2.86787354624235e-13 0 0)
(-2.694063028288104e-13 0 0)
(-2.085726215448596e-13 0 0)
(-3.476210359081558e-13 0 0)
(-3.736926136012674e-13 0 0)
(-3.823831394989701e-13 0 0)
(-4.519073466806114e-13 0 0)
(-4.953599761691035e-13 0 0)
(-5.214315538622622e-13 0 0)
(-4.866694502714377e-13 0 0)
(-4.171452430897663e-13 0 0)
(-4.25835768987509e-13 0 0)
(-3.823831394989875e-13 0 0)
(-3.128589323173643e-13 0 0)
(-4.432168207829319e-13 0 0)
(-3.041684064196406e-13 0 0)
(-1.911915697495037e-13 0 0)
(-1.998820956472125e-13 0 0)
(-1.56429466158679e-13 0 0)
(-8.690525897721855e-15 0 0)
(1.21667362567863e-13 0 0)
(1.216673625678718e-13 0 0)
(1.1297683667017e-13 0 0)
(3.476210359082899e-14 0 0)
(6.083368128394175e-14 0 0)
(-1.73810517953903e-14 0 0)
(-1.738105179540637e-13 0 0)
(-2.346441992380136e-13 0 0)
(-4.17145243089799e-13 0 0)
(-4.866694502714271e-13 0 0)
(-3.736926136012714e-13 0 0)
(-4.432168207828605e-13 0 0)
(-5.909557610438777e-13 0 0)
(-6.257178646346757e-13 0 0)
(-5.301220797598762e-13 0 0)
(-4.345262948851688e-13 0 0)
(-4.605978725782592e-13 0 0)
(-4.258357689874196e-13 0 0)
(-4.519073466805418e-13 0 0)
(-5.214315538621264e-13 0 0)
(-7.300041754070974e-13 0 0)
(-8.603620638726704e-13 0 0)
(-1.14714941849683e-12 0 0)
(-1.355722040041853e-12 0 0)
(-1.390484143632676e-12 0 0)
(-1.32095993645103e-12 0 0)
(-1.147149418496954e-12 0 0)
(-1.138458892599148e-12 0 0)
(-1.025482055929095e-12 0 0)
(-9.038146933612078e-13 0 0)
(-8.342904861795024e-13 0 0)
(-8.429810120772756e-13 0 0)
(-8.777431156680961e-13 0 0)
(-9.820294264405553e-13 0 0)
(-9.820294264405493e-13 0 0)
(-9.99410478235873e-13 0 0)
(-9.820294264405422e-13 0 0)
(-9.907199523382492e-13 0 0)
(-1.034172581826689e-12 0 0)
(-1.016791530031372e-12 0 0)
(-9.29886271054318e-13 0 0)
(-8.603620638727225e-13 0 0)
(-7.647662789979413e-13 0 0)
(-6.604799682254154e-13 0 0)
(-6.170273387369966e-13 0 0)
(-6.778610200209153e-13 0 0)
(-6.344083905323249e-13 0 0)
(-5.909557610438478e-13 0 0)
(-6.257178646346938e-13 0 0)
(-5.388126056576148e-13 0 0)
(-5.996462869415607e-13 0 0)
(-6.60479968225421e-13 0 0)
(-6.517894423278098e-13 0 0)
(-6.865515459185837e-13 0 0)
(-6.604799682254368e-13 0 0)
(-7.213136495094062e-13 0 0)
(-7.21313649509446e-13 0 0)
(-6.604799682254962e-13 0 0)
(-6.344083905324163e-13 0 0)
(-6.517894423277434e-13 0 0)
(-6.170273387369894e-13 0 0)
(-6.865515459186236e-13 0 0)
(-5.909557610438409e-13 0 0)
(-5.561936574531279e-13 0 0)
(-6.257178646346506e-13 0 0)
(-6.865515459186279e-13 0 0)
(-7.126231236117402e-13 0 0)
(-5.561936574530045e-13 0 0)
(-5.735747092484785e-13 0 0)
(-6.257178646346771e-13 0 0)
(-4.953599761691405e-13 0 0)
(-4.084547171920754e-13 0 0)
(-3.215494582150299e-13 0 0)
(-3.302399841127375e-13 0 0)
(-1.91191569749486e-13 0 0)
(-2.867873546242074e-13 0 0)
(-3.21549458215067e-13 0 0)
(-3.823831394989839e-13 0 0)
(-2.694063028288384e-13 0 0)
(-1.303578884655562e-13 0 0)
(-4.345262948849783e-14 0 0)
(-8.690525897686164e-15 0 0)
(-1.738105179540022e-14 0 0)
(6.083368128394733e-14 0 0)
(-8.690525897686861e-15 0 0)
(-7.821473307932248e-14 0 0)
(-2.346441992380038e-13 0 0)
(-2.78096828726542e-13 0 0)
(-2.259536733402867e-13 0 0)
(-3.476210359081773e-13 0 0)
(-3.389305100104719e-13 0 0)
(-2.346441992380007e-13 0 0)
(-2.172631474426082e-13 0 0)
(-1.998820956472006e-13 0 0)
(-1.390484143632554e-13 0 0)
(-1.911915697494856e-13 0 0)
(-1.651199920563476e-13 0 0)
(-2.259536733403008e-13 0 0)
(-3.563115618058613e-13 0 0)
(-2.259536733402852e-13 0 0)
(-2.085726215449062e-13 0 0)
(-6.083368128392466e-14 0 0)
(-3.476210359081554e-14 0 0)
(-5.214315538623092e-14 0 0)
(-5.214315538623407e-14 0 0)
(8.690525897691506e-15 0 0)
(8.69052589770363e-14 0 0)
(-1.591989621375995e-27 0 0)
(-6.952420718164994e-14 0 0)
(-3.476210359082172e-14 0 0)
(-4.345262948853404e-14 0 0)
(1.129768366701488e-13 0 0)
(1.47738940260959e-13 0 0)
(6.95242071816142e-14 0 0)
(-3.476210359083711e-14 0 0)
(7.821473307931137e-14 0 0)
(1.129768366701432e-13 0 0)
(9.559578487472384e-14 0 0)
(6.083368128391677e-14 0 0)
(2.60715776930963e-14 0 0)
(6.083368128390775e-14 0 0)
(1.564294661586619e-13 0 0)
(1.825010438517664e-13 0 0)
(-1.941841401200553e-26 0 0)
(2.520252510333906e-13 0 0)
(4.25835768987495e-13 0 0)
(4.866694502714361e-13 0 0)
(3.910736653966574e-13 0 0)
(3.476210359081177e-13 0 0)
(4.692883984760048e-13 0 0)
(4.866694502714474e-13 0 0)
(5.04050502066797e-13 0 0)
(5.561936574530591e-13 0 0)
(5.90955761043918e-13 0 0)
(6.083368128392968e-13 0 0)
(5.909557610439133e-13 0 0)
(5.735747092484412e-13 0 0)
(5.127410279645466e-13 0 0)
(3.736926136012781e-13 0 0)
(2.694063028287997e-13 0 0)
(2.520252510333989e-13 0 0)
(3.041684064196419e-13 0 0)
(3.736926136012699e-13 0 0)
(3.650020877035701e-13 0 0)
(3.997641912943384e-13 0 0)
(4.432168207828942e-13 0 0)
(3.302399841127349e-13 0 0)
(3.736926136012059e-13 0 0)
(2.520252510334096e-13 0 0)
(3.823831394989628e-13 0 0)
(4.692883984760337e-13 0 0)
(5.56193657453083e-13 0 0)
(5.56193657452985e-13 0 0)
(3.563115618058712e-13 0 0)
(2.172631474425967e-13 0 0)
(1.738105179540724e-13 0 0)
(1.390484143632657e-13 0 0)
(1.216673625678545e-13 0 0)
(1.651199920563757e-13 0 0)
(1.129768366701465e-13 0 0)
(1.390484143632718e-13 0 0)
(1.477389402609871e-13 0 0)
(1.216673625678761e-13 0 0)
(2.520252510334157e-13 0 0)
(1.998820956472159e-13 0 0)
(2.607157769311293e-13 0 0)
(1.651199920563801e-13 0 0)
(1.042863107724367e-13 0 0)
(1.303578884655372e-13 0 0)
(1.216673625678511e-13 0 0)
(1.564294661586568e-13 0 0)
(1.651199920563456e-13 0 0)
(2.78096828726502e-13 0 0)
(1.651199920563713e-13 0 0)
(3.389305100104457e-13 0 0)
(3.476210359081669e-13 0 0)
(4.258357689874711e-13 0 0)
(4.605978725783083e-13 0 0)
(5.040505020668487e-13 0 0)
(5.909557610438435e-13 0 0)
(6.952420718163318e-13 0 0)
(6.344083905323923e-13 0 0)
(6.604799682254901e-13 0 0)
(6.430989164301039e-13 0 0)
(5.648841833506964e-13 0 0)
(5.127410279645218e-13 0 0)
(4.953599761690845e-13 0 0)
(3.302399841126899e-13 0 0)
(3.650020877035883e-13 0 0)
(2.867873546241858e-13 0 0)
(2.346441992379868e-13 0 0)
(2.085726215448819e-13 0 0)
(2.867873546242094e-13 0 0)
(2.52025251033419e-13 0 0)
(2.259536733403045e-13 0 0)
(2.780968287265369e-13 0 0)
(1.738105179540775e-13 0 0)
(3.476210359080552e-14 0 0)
(-8.690525897705279e-14 0 0)
(-8.690525897705373e-15 0 0)
(3.476210359081834e-14 0 0)
(1.129768366701608e-13 0 0)
(1.911915697495048e-13 0 0)
(1.911915697495075e-13 0 0)
(1.911915697495043e-13 0 0)
(8.690525897702619e-14 0 0)
(-8.690525897705338e-14 0 0)
(-1.651199920563819e-13 0 0)
(-1.911915697494917e-13 0 0)
(-3.389305100104741e-13 0 0)
(-2.867873546242333e-13 0 0)
(-2.172631474425871e-13 0 0)
(-1.738105179540558e-13 0 0)
(-1.651199920563476e-13 0 0)
(-2.607157769311082e-13 0 0)
(-3.650020877035775e-13 0 0)
(-4.692883984759667e-13 0 0)
(-5.909557610438678e-13 0 0)
(-6.257178646346982e-13 0 0)
(-6.257178646346974e-13 0 0)
(-5.909557610438912e-13 0 0)
(-4.692883984759857e-13 0 0)
(-3.910736653966995e-13 0 0)
(-3.736926136012673e-13 0 0)
(-2.172631474425788e-13 0 0)
(-2.780968287265263e-13 0 0)
(-3.302399841127679e-13 0 0)
(-4.258357689875194e-13 0 0)
(-4.692883984760298e-13 0 0)
(-4.432168207829063e-13 0 0)
(-3.128589323173431e-13 0 0)
(-1.129768366701517e-13 0 0)
(-8.69052589770267e-14 0 0)
(-2.60715776931038e-14 0 0)
(-2.085726215448792e-13 0 0)
(-1.216673625678374e-13 0 0)
(-1.129768366701369e-13 0 0)
(3.476210359084472e-14 0 0)
(2.867896939744631e-26 0 0)
(4.345262948854666e-14 0 0)
(-1.390484143632512e-13 0 0)
(-2.259536733402922e-13 0 0)
(-1.911915697494596e-13 0 0)
(-1.12976836670118e-13 0 0)
(-1.998820956471786e-13 0 0)
(-3.302399841127251e-13 0 0)
(-4.432168207828992e-13 0 0)
(-4.779789243737554e-13 0 0)
(-3.823831394989327e-13 0 0)
(-3.128589323173277e-13 0 0)
(-4.432168207829148e-13 0 0)
(-4.258357689875062e-13 0 0)
(-3.476210359081619e-13 0 0)
(-3.302399841127082e-13 0 0)
(-1.998820956471825e-13 0 0)
(-1.129768366701381e-13 0 0)
(-2.346441992379923e-13 0 0)
(-2.780968287265422e-13 0 0)
(-1.998820956472065e-13 0 0)
(-1.911915697494915e-13 0 0)
(-1.303578884655735e-13 0 0)
(-5.214315538623354e-14 0 0)
(1.390484143632551e-13 0 0)
(1.390484143632736e-13 0 0)
(2.433347251357063e-13 0 0)
(2.259536733403201e-13 0 0)
(1.825010438518009e-13 0 0)
(1.91191569749513e-13 0 0)
(2.607157769311555e-13 0 0)
(2.867873546242183e-13 0 0)
(1.477389402609991e-13 0 0)
(7.215089932515077e-27 0 0)
(-1.129768366701457e-13 0 0)
(-1.303578884655543e-13 0 0)
(-6.083368128392141e-14 0 0)
(-1.651199920563854e-13 0 0)
(-2.433347251357331e-13 0 0)
(-2.259536733403223e-13 0 0)
(-1.73810517954094e-13 0 0)
(-1.998820956472287e-13 0 0)
(-1.216673625678474e-13 0 0)
(-5.214315538622234e-14 0 0)
(-1.129768366701506e-13 0 0)
(-7.821473307933097e-14 0 0)
(-2.346441992380021e-13 0 0)
(-1.911915697494628e-13 0 0)
(-1.303578884655714e-13 0 0)
(-1.73810517954063e-13 0 0)
(-2.433347251356984e-13 0 0)
(-3.128589323173432e-13 0 0)
(-2.694063028288284e-13 0 0)
(-3.041684064196178e-13 0 0)
(-2.867873546242219e-13 0 0)
(-5.12741027964537e-13 0 0)
(-5.301220797599152e-13 0 0)
(-5.301220797600021e-13 0 0)
(-4.51907346680553e-13 0 0)
(-4.779789243737277e-13 0 0)
(-5.475031315553528e-13 0 0)
(-4.084547171920623e-13 0 0)
(-4.258357689874909e-13 0 0)
(-3.302399841127478e-13 0 0)
(-3.302399841127406e-13 0 0)
(-3.128589323172858e-13 0 0)
(-4.432168207829165e-13 0 0)
(-3.910736653966805e-13 0 0)
(-1.911915697494743e-13 0 0)
(-1.477389402609688e-13 0 0)
(-1.129768366701564e-13 0 0)
(-1.390484143632724e-13 0 0)
(2.607157769310337e-14 0 0)
(-1.60163804332392e-27 0 0)
(7.82147330793361e-14 0 0)
(2.259536733403579e-13 0 0)
(1.651199920563704e-13 0 0)
(7.821473307934506e-14 0 0)
(8.690525897702856e-15 0 0)
(7.821473307934104e-14 0 0)
(-4.345262948851704e-14 0 0)
(-5.422413134626839e-27 0 0)
(-2.607157769311174e-14 0 0)
(1.042863107724593e-13 0 0)
(6.083368128393316e-14 0 0)
(5.214315538622678e-14 0 0)
(9.559578487475433e-14 0 0)
(4.345262948853552e-14 0 0)
(2.607157769313125e-14 0 0)
(7.821473307935933e-14 0 0)
(1.738105179541015e-13 0 0)
(3.476210359083257e-14 0 0)
(4.345262948852442e-14 0 0)
(-8.69052589770128e-15 0 0)
(-5.214315538622518e-14 0 0)
(-4.345262948852679e-14 0 0)
(-2.607157769311016e-14 0 0)
(6.952420718163326e-14 0 0)
(-2.607157769311899e-14 0 0)
(1.738105179540312e-14 0 0)
(8.690525897689553e-15 0 0)
(-2.607157769312952e-14 0 0)
(1.042863107724393e-13 0 0)
(5.214315538619869e-14 0 0)
(1.042863107724319e-13 0 0)
(-5.214315538624983e-14 0 0)
(-3.476210359082732e-14 0 0)
(-2.172631474426333e-13 0 0)
(-1.390484143632794e-13 0 0)
(-1.825010438518043e-13 0 0)
(-2.346441992379714e-13 0 0)
(-3.650020877035875e-13 0 0)
(-2.17263147442588e-13 0 0)
(-3.041684064196559e-13 0 0)
(-3.823831394989624e-13 0 0)
(-3.041684064196298e-13 0 0)
(-6.604799682255403e-13 0 0)
(-6.170273387369012e-13 0 0)
(-5.648841833507747e-13 0 0)
(-6.344083905324187e-13 0 0)
(-6.691704941232285e-13 0 0)
(-5.909557610438692e-13 0 0)
(-4.86669450271405e-13 0 0)
(-5.822652351461525e-13 0 0)
(-5.735747092484697e-13 0 0)
(-6.257178646346728e-13 0 0)
(-7.386947013046932e-13 0 0)
(-6.952420718163419e-13 0 0)
(-5.561936574530167e-13 0 0)
(-4.258357689874691e-13 0 0)
(-3.563115618058285e-13 0 0)
(-3.910736653966526e-13 0 0)
(-7.300041754071719e-13 0 0)
(-7.213136495093393e-13 0 0)
(-7.5607575310027e-13 0 0)
(-7.386947013048475e-13 0 0)
(-7.908378566910979e-13 0 0)
(-7.734568048956515e-13 0 0)
(-6.517894423277782e-13 0 0)
(-8.51671537975041e-13 0 0)
(-6.60479968225498e-13 0 0)
(-8.082189084865063e-13 0 0)
(-7.213136495093186e-13 0 0)
(-7.995283825887849e-13 0 0)
(-8.864336415658066e-13 0 0)
(-9.038146933612144e-13 0 0)
(-9.125052192589045e-13 0 0)
(-8.777431156681152e-13 0 0)
(-8.603620638727035e-13 0 0)
(-7.473852272024067e-13 0 0)
(-8.864336415658177e-13 0 0)
(-8.864336415657915e-13 0 0)
(-8.951241674635082e-13 0 0)
(-9.038146933612182e-13 0 0)
(-8.603620638726679e-13 0 0)
(-9.472673228497029e-13 0 0)
(-1.008101004133639e-12 0 0)
(-1.251435729269416e-12 0 0)
(-1.138458892599015e-12 0 0)
(-1.016791530031369e-12 0 0)
(-9.47267322849751e-13 0 0)
(-9.907199523382346e-13 0 0)
(-1.121077840803789e-12 0 0)
(-1.121077840803841e-12 0 0)
(-1.138458892599251e-12 0 0)
(-1.138458892599114e-12 0 0)
(-1.173220996190066e-12 0 0)
(-1.060244159519895e-12 0 0)
(-1.051553633622178e-12 0 0)
(-1.034172581826661e-12 0 0)
(-1.086315737212989e-12 0 0)
(-1.190602047985444e-12 0 0)
(-1.199292573883164e-12 0 0)
(-1.260126255166908e-12 0 0)
(-1.320959936451036e-12 0 0)
(-1.390484143632598e-12 0 0)
(-1.303578884655621e-12 0 0)
(-1.268816781064623e-12 0 0)
(-1.364412565939561e-12 0 0)
(-1.286197832860222e-12 0 0)
(-1.216673625678524e-12 0 0)
(-1.268816781064744e-12 0 0)
(-1.373103091837188e-12 0 0)
(-1.242745203371699e-12 0 0)
(-1.355722040041857e-12 0 0)
(-1.347031514144009e-12 0 0)
(-1.260126255167094e-12 0 0)
(-1.294888358757913e-12 0 0)
(-1.303578884655616e-12 0 0)
(-1.373103091837252e-12 0 0)
(-1.338340988246292e-12 0 0)
(-1.433936773121179e-12 0 0)
(-1.373103091837256e-12 0 0)
(-1.30357888465554e-12 0 0)
(-1.425246247223394e-12 0 0)
(-1.460008350814215e-12 0 0)
(-1.468698876711987e-12 0 0)
(-1.512151506200509e-12 0 0)
(-1.572985187484281e-12 0 0)
(-1.50346098030281e-12 0 0)
(-1.546913609791332e-12 0 0)
(-1.503460980302815e-12 0 0)
(-1.599056765177404e-12 0 0)
(-1.520842032098224e-12 0 0)
(-1.477389402609703e-12 0 0)
(-1.442627299018888e-12 0 0)
(-1.460008350814148e-12 0 0)
(-1.529532557995856e-12 0 0)
(-1.416555721325775e-12 0 0)
(-1.529532557995854e-12 0 0)
(-1.399174669530216e-12 0 0)
(-1.355722040041846e-12 0 0)
(-1.390484143632675e-12 0 0)
(-1.364412565939558e-12 0 0)
(-1.294888358757929e-12 0 0)
(-1.338340988246382e-12 0 0)
(-1.425246247223415e-12 0 0)
(-1.294888358757915e-12 0 0)
(-1.442627299018813e-12 0 0)
(-1.451317824916443e-12 0 0)
(-1.451317824916574e-12 0 0)
(-1.42524624722339e-12 0 0)
(-1.381793617734977e-12 0 0)
(-1.390484143632527e-12 0 0)
(-1.477389402609733e-12 0 0)
(-1.486079928507444e-12 0 0)
(-1.364412565939585e-12 0 0)
(-1.338340988246319e-12 0 0)
(-1.155839944394672e-12 0 0)
(-1.095006263110736e-12 0 0)
(-1.12976836670157e-12 0 0)
(-1.077625211315273e-12 0 0)
(-1.112387314906076e-12 0 0)
(-1.068934685417625e-12 0 0)
(-1.207983099780916e-12 0 0)
(-1.138458892599214e-12 0 0)
(-1.147149418496913e-12 0 0)
(-1.068934685417635e-12 0 0)
(-9.733389005428825e-13 0 0)
(-8.690525897704259e-13 0 0)
(-8.255999602818196e-13 0 0)
(-9.559578487474731e-13 0 0)
(-8.6905258977042e-13 0 0)
(-9.907199523382292e-13 0 0)
(-9.211957451565569e-13 0 0)
(-9.385767969520563e-13 0 0)
(-1.016791530031422e-12 0 0)
(-1.025482055929047e-12 0 0)
(-9.820294264404386e-13 0 0)
(-1.060244159519934e-12 0 0)
(-1.147149418496997e-12 0 0)
(-1.068934685417656e-12 0 0)
(-1.190602047985445e-12 0 0)
(-1.086315737212988e-12 0 0)
(-1.138458892599286e-12 0 0)
(-1.042863107724525e-12 0 0)
(-9.298862710542775e-13 0 0)
(-9.820294264405204e-13 0 0)
(-9.298862710543768e-13 0 0)
(-1.068934685417577e-12 0 0)
(-9.6464837464513e-13 0 0)
(-9.211957451566694e-13 0 0)
(-8.6036206387269e-13 0 0)
)
;

boundaryField
{
    inlet
    {
        type            zeroGradient;
    }
    outlet
    {
        type            pressureInletOutletVelocity;
        value           uniform (-8.6036206387269e-13 0 0);
    }
    frontAndBack
    {
        type            empty;
    }
}


// ************************************************************************* //
