/*--------------------------------*- C++ -*----------------------------------*\
| =========                 |                                                 |
| \\      /  F ield         | OpenFOAM: The Open Source CFD Toolbox           |
|  \\    /   O peration     | Version:  v2012                                 |
|   \\  /    A nd           | Website:  www.openfoam.com                      |
|    \\/     M anipulation  |                                                 |
\*---------------------------------------------------------------------------*/
FoamFile
{
    version     2.0;
    format      ascii;
    class       volVectorField;
    location    "0.002";
    object      UMean;
}
// * * * * * * * * * * * * * * * * * * * * * * * * * * * * * * * * * * * * * //

dimensions      [0 1 -1 0 0 0 0];


internalField   nonuniform List<vector> 
1000
(
(-0.0001091893802135962 0 0)
(0.0001021237206913777 0 0)
(0.0001777051037308114 0 0)
(0.0003659296569454268 0 0)
(0.0005855080050919492 0 0)
(0.0008598714680105178 0 0)
(0.001180125371474564 0 0)
(0.001536802896155777 0 0)
(0.00192843433967807 0 0)
(0.002344697766777824 0 0)
(0.002776080544589698 0 0)
(0.003207736147066507 0 0)
(0.00363928470498298 0 0)
(0.004063394860473002 0 0)
(0.004476952615581202 0 0)
(0.004867551295614714 0 0)
(0.005230266785670602 0 0)
(0.005554298935349609 0 0)
(0.005836917828338672 0 0)
(0.006070140640534321 0 0)
(0.006252936188481706 0 0)
(0.006379098960885716 0 0)
(0.006449102437313745 0 0)
(0.006458827403786778 0 0)
(0.006410623287733986 0 0)
(0.006302881203319439 0 0)
(0.006140154806473775 0 0)
(0.005922998332612173 0 0)
(0.005656976060404566 0 0)
(0.005343098129126297 0 0)
(0.004986902327487289 0 0)
(0.004592782339331868 0 0)
(0.00417634094468716 0 0)
(0.00375185591217938 0 0)
(0.003328159985067705 0 0)
(0.002905247235149677 0 0)
(0.002486790857647954 0 0)
(0.002077225578711872 0 0)
(0.001683922957695904 0 0)
(0.001315000578914729 0 0)
(0.0009795077082473478 0 0)
(0.0006851975259829861 0 0)
(0.000438799972741731 0 0)
(0.000244851265634422 0 0)
(0.000106809820311543 0 0)
(2.657824040421804e-05 0 0)
(5.452256353621105e-06 0 0)
(4.35048705325258e-05 0 0)
(0.0001401665970566476 0 0)
(0.0002937216705395475 0 0)
(0.0005020814388695676 0 0)
(0.0007627725462751482 0 0)
(0.001073509978175295 0 0)
(0.001430451219444833 0 0)
(0.001824599309981139 0 0)
(0.002239008428759411 0 0)
(0.002658224575797128 0 0)
(0.003077241590061579 0 0)
(0.003495280499318592 0 0)
(0.003909188889058378 0 0)
(0.0043157449712385 0 0)
(0.004707883816035472 0 0)
(0.00507916564730316 0 0)
(0.005420130859039825 0 0)
(0.005723467293559338 0 0)
(0.005980591714451639 0 0)
(0.006186574104084211 0 0)
(0.006336182811834233 0 0)
(0.006427992808335265 0 0)
(0.00645995245160111 0 0)
(0.006433116644259309 0 0)
(0.006347345531001474 0 0)
(0.00620498703123226 0 0)
(0.0060066548350144 0 0)
(0.005754789340075246 0 0)
(0.005450347852246666 0 0)
(0.005098283369580787 0 0)
(0.004707954130361056 0 0)
(0.004298076843017616 0 0)
(0.00388320671311518 0 0)
(0.003468800824988142 0 0)
(0.003055253132079219 0 0)
(0.002644867607593856 0 0)
(0.00224112662191047 0 0)
(0.001849258732681219 0 0)
(0.001475950027512294 0 0)
(0.001129039299038927 0 0)
(0.0008168123705493866 0 0)
(0.0005473381062664848 0 0)
(0.0003276073040762591 0 0)
(0.0001630927783800804 0 0)
(5.734907663305873e-05 0 0)
(1.217897138221197e-05 0 0)
(2.780558173575434e-05 0 0)
(0.0001035126057430121 0 0)
(0.0002379744592442294 0 0)
(0.0004298307681147444 0 0)
(0.0006777310696442518 0 0)
(0.0009798203483075132 0 0)
(0.00133139096330853 0 0)
(0.001720513425936455 0 0)
(0.002128004247804815 0 0)
(0.002539182209760244 0 0)
(0.002950174156192768 0 0)
(0.003360346471154058 0 0)
(0.003767301425169729 0 0)
(0.004168438331603507 0 0)
(0.004558299271039167 0 0)
(0.004931456590306365 0 0)
(0.005279932612853814 0 0)
(0.005596533817675177 0 0)
(0.005872622607030631 0 0)
(0.006101644047646132 0 0)
(0.006276927478342127 0 0)
(0.006394897497251735 0 0)
(0.006452396286459034 0 0)
(0.006449303184419612 0 0)
(0.006385367938678966 0 0)
(0.006262387573388273 0 0)
(0.00608096825619295 0 0)
(0.005842986870043592 0 0)
(0.005549556349625599 0 0)
(0.005205909057555179 0 0)
(0.004822886202368272 0 0)
(0.00442012363046132 0 0)
(0.00401250134527183 0 0)
(0.003605179533409645 0 0)
(0.003198510741287279 0 0)
(0.002794305502961949 0 0)
(0.002395318322093447 0 0)
(0.002005785246476059 0 0)
(0.001631237119546514 0 0)
(0.001278440454322518 0 0)
(0.0009549509237461288 0 0)
(0.0006687048032518583 0 0)
(0.0004273089256768955 0 0)
(0.0002375371146957445 0 0)
(0.0001046569318171354 0 0)
(3.225631361250301e-05 0 0)
(2.208655382422959e-05 0 0)
(7.450110856258584e-05 0 0)
(0.0001888220730579003 0 0)
(0.000363977057647937 0 0)
(0.0005986059284467455 0 0)
(0.0008905394704086123 0 0)
(0.001234214189474099 0 0)
(0.00161654516781531 0 0)
(0.002017447801919917 0 0)
(0.002422110786685932 0 0)
(0.002826662642272585 0 0)
(0.003230555493616509 0 0)
(0.003631897409765565 0 0)
(0.004028488202211295 0 0)
(0.004415861263400507 0 0)
(0.004789346462133359 0 0)
(0.005142091760540569 0 0)
(0.00546748246518053 0 0)
(0.00575741605096869 0 0)
(0.006004983150704152 0 0)
(0.006202893310710618 0 0)
(0.006346117512280007 0 0)
(0.006430096000659926 0 0)
(0.006452987841287042 0 0)
(0.006413387868148834 0 0)
(0.006312036367066831 0 0)
(0.006149213063763981 0 0)
(0.005926587359002031 0 0)
(0.005645643146566535 0 0)
(0.005311943342836774 0 0)
(0.004936999014454024 0 0)
(0.004540924154334684 0 0)
(0.004139445895041124 0 0)
(0.003738098558959756 0 0)
(0.003337215923983459 0 0)
(0.002938255312812861 0 0)
(0.002543470654758521 0 0)
(0.0021563884672987 0 0)
(0.001781729288007187 0 0)
(0.00142536794546209 0 0)
(0.001094108592492057 0 0)
(0.0007953671668593682 0 0)
(0.0005367073218785019 0 0)
(0.0003253414545116969 0 0)
(0.000167581935759099 0 0)
(6.842148269648486e-05 0 0)
(3.128479386933237e-05 0 0)
(5.806535357185256e-05 0 0)
(0.0001493877757433972 0 0)
(0.000304970632606837 0 0)
(0.0005238143782313454 0 0)
(0.0008035602244945543 0 0)
(0.001138038015253677 0 0)
(0.001513203265648271 0 0)
(0.001908075569362813 0 0)
(0.002307135009531688 0 0)
(0.002706186201650812 0 0)
(0.003104717475454402 0 0)
(0.003501184231553566 0 0)
(0.003893741480522283 0 0)
(0.004278610634389052 0 0)
(0.004651743947412725 0 0)
(0.005007151273763267 0 0)
(0.005338828179715823 0 0)
(0.005639294289831429 0 0)
(0.005901745004341419 0 0)
(0.006118760670393673 0 0)
(0.006284527479751165 0 0)
(0.006393478764837659 0 0)
(0.006442313141608519 0 0)
(0.006428286573042051 0 0)
(0.006350776067450822 0 0)
(0.006209207905871238 0 0)
(0.006004626385007454 0 0)
(0.005738465866181755 0 0)
(0.005416323005801119 0 0)
(0.005050079886282389 0 0)
(0.004660384242632212 0 0)
(0.004264292640735759 0 0)
(0.003868113736672124 0 0)
(0.003472270331588093 0 0)
(0.003077941347146512 0 0)
(0.002686998360962865 0 0)
(0.002302412981362229 0 0)
(0.001928260793456252 0 0)
(0.001569680500180818 0 0)
(0.001232796819552364 0 0)
(0.0009244375483447333 0 0)
(0.0006518792136792594 0 0)
(0.000422361119519288 0 0)
(0.0002427155370331595 0 0)
(0.0001188411206108108 0 0)
(5.54815330672637e-05 0 0)
(5.598002566142487e-05 0 0)
(0.0001224328218496682 0 0)
(0.0002557399500993412 0 0)
(0.0004557612059302463 0 0)
(0.0007204945441695442 0 0)
(0.001043747148470286 0 0)
(0.001410933591016558 0 0)
(0.001800023879942387 0 0)
(0.002194088673474207 0 0)
(0.002588291126742145 0 0)
(0.002982073429527046 0 0)
(0.003374210639253469 0 0)
(0.00376309268381513 0 0)
(0.004145510632846511 0 0)
(0.004517880876805863 0 0)
(0.004874955576975229 0 0)
(0.005211259507620618 0 0)
(0.005519960294120438 0 0)
(0.005794496664587167 0 0)
(0.006027608238719025 0 0)
(0.006213073000416347 0 0)
(0.006344744048036506 0 0)
(0.006418207044249467 0 0)
(0.006429587795257843 0 0)
(0.006376886008460446 0 0)
(0.006258466666878145 0 0)
(0.00607438181918167 0 0)
(0.005825545363594476 0 0)
(0.005517077150943944 0 0)
(0.00516078942250422 0 0)
(0.004777822556609707 0 0)
(0.004387000905946914 0 0)
(0.003995813210566711 0 0)
(0.003604859910269805 0 0)
(0.003215119667124199 0 0)
(0.00282817413116773 0 0)
(0.00244661290296165 0 0)
(0.002074013304657201 0 0)
(0.001714953604012226 0 0)
(0.001374922790615079 0 0)
(0.001060133777710892 0 0)
(0.0007772181850650908 0 0)
(0.0005327840310430665 0 0)
(0.0003327969945562686 0 0)
(0.000181668515159639 0 0)
(8.075373442760484e-05 0 0)
(2.587753540450625e-05 0 0)
(4.879563901170329e-06 0 0)
(3.99742355131734e-07 0 0)
(9.68403578781944e-09 0 0)
(4.587098401481321e-11 0 0)
(-2.710943905930356e-14 0 0)
(-5.079893735169166e-14 0 0)
(-4.15144546480224e-14 0 0)
(-2.006948786448369e-14 0 0)
(-1.59493032842046e-14 0 0)
(5.983333297913884e-15 0 0)
(1.737479961849756e-14 0 0)
(3.452452086843243e-14 0 0)
(1.15771559746608e-13 0 0)
(2.150123637568987e-14 0 0)
(1.270567390598065e-13 0 0)
(3.773188762060912e-14 0 0)
(1.113762793825102e-13 0 0)
(4.068916729659273e-14 0 0)
(8.140334330078515e-14 0 0)
(2.599029939334994e-14 0 0)
(-1.366725871394246e-14 0 0)
(-5.37061996124257e-14 0 0)
(-7.190628658235437e-14 0 0)
(-8.215360452937305e-14 0 0)
(-8.347906603318443e-14 0 0)
(-9.76965163147629e-14 0 0)
(-1.172908387344624e-13 0 0)
(-1.264502779000482e-13 0 0)
(-1.197041790197317e-13 0 0)
(-1.35297108220365e-13 0 0)
(-8.991255606825323e-14 0 0)
(-2.059467072448763e-13 0 0)
(-1.521842380402792e-13 0 0)
(-1.537972996817494e-13 0 0)
(-1.357972823727412e-13 0 0)
(-1.41311702402809e-13 0 0)
(-1.305266972419816e-13 0 0)
(-1.294825836988742e-13 0 0)
(-1.182099087394759e-13 0 0)
(-1.189789264987875e-13 0 0)
(-1.455131652828324e-13 0 0)
(-1.512151506200575e-13 0 0)
(-1.494520367328734e-13 0 0)
(-1.448566867078504e-13 0 0)
(-1.466072962411802e-13 0 0)
(-1.80944251802487e-13 0 0)
(-1.302578536350749e-13 0 0)
(-2.25628560141264e-13 0 0)
(-1.881280030661081e-13 0 0)
(-2.061280203751214e-13 0 0)
(-1.674145409804405e-13 0 0)
(-1.368413959158631e-13 0 0)
(-1.278882785881484e-13 0 0)
(-1.184412392849708e-13 0 0)
(-8.337903120271709e-14 0 0)
(-6.143389026679534e-14 0 0)
(-3.98138625299146e-14 0 0)
(-3.876349680987507e-15 0 0)
(-3.113584098600431e-15 0 0)
(1.31295715001337e-14 0 0)
(6.19715774806051e-14 0 0)
(7.353185257762709e-14 0 0)
(1.122078189108518e-13 0 0)
(-2.07384707932961e-14 0 0)
(3.426818161533982e-14 0 0)
(4.257732472185123e-14 0 0)
(6.062735944606746e-14 0 0)
(3.66377566622701e-14 0 0)
(3.802573993514302e-14 0 0)
(4.208340274636563e-14 0 0)
(2.860370933956823e-14 0 0)
(2.225774978117289e-14 0 0)
(2.430221162904629e-14 0 0)
(1.086378258982002e-13 0 0)
(1.689963417373228e-14 0 0)
(8.59424237336975e-14 0 0)
(5.342485165171498e-14 0 0)
(2.598404721644754e-14 0 0)
(3.458079046057632e-14 0 0)
(5.0254997960971e-14 0 0)
(6.149015985893835e-14 0 0)
(4.21709332230356e-14 0 0)
(8.537972781226203e-14 0 0)
(4.992363258501753e-14 0 0)
(9.417028854044552e-14 0 0)
(9.765275107642976e-14 0 0)
(9.448914956258696e-14 0 0)
(1.090192086893961e-13 0 0)
(1.311456627555667e-13 0 0)
(1.357285084267941e-13 0 0)
(1.012039875583581e-13 0 0)
(8.395423147796584e-14 0 0)
(7.960271635220583e-14 0 0)
(7.101847746187782e-14 0 0)
(7.937138580672825e-14 0 0)
(7.149989508356094e-14 0 0)
(6.441617865039339e-14 0 0)
(5.678227064959967e-14 0 0)
(1.46188400388562e-13 0 0)
(6.342208252252225e-14 0 0)
(1.268066519836203e-13 0 0)
(1.080438690922294e-13 0 0)
(1.151650985868319e-13 0 0)
(8.978126035325297e-14 0 0)
(5.291217314551259e-14 0 0)
(4.90483278183323e-14 0 0)
(2.115736664591488e-14 0 0)
(2.749082185050191e-14 0 0)
(-2.284545441023144e-14 0 0)
(3.23550154824527e-14 0 0)
(5.308098192191283e-15 0 0)
(2.728450001264329e-14 0 0)
(4.223970716897715e-14 0 0)
(5.120532885046267e-15 0 0)
(6.264681258628213e-15 0 0)
(-2.268289781069953e-14 0 0)
(-3.235501548245857e-14 0 0)
(-1.346281252915389e-13 0 0)
(-1.131518976234845e-13 0 0)
(-1.348594558370313e-13 0 0)
(-9.458293221617033e-14 0 0)
(-2.918516179171903e-14 0 0)
(-9.365761003427029e-15 0 0)
(1.044113543105471e-14 0 0)
(-5.308098192194686e-14 0 0)
(-1.781870417872781e-15 0 0)
(-1.528657253229471e-14 0 0)
(5.140539851145921e-14 0 0)
(-2.750957838123389e-15 0 0)
(-5.664472275770752e-15 0 0)
(-1.969435725019229e-14 0 0)
(-3.519975597416229e-15 0 0)
(-2.410214196809323e-14 0 0)
(-5.196184225597654e-14 0 0)
(-2.890381383099719e-14 0 0)
(-8.921856443181613e-14 0 0)
(-5.551307873791912e-14 0 0)
(-5.897678474319289e-14 0 0)
(-6.361590000657705e-14 0 0)
(-4.015773225967764e-14 0 0)
(-2.76346219193175e-14 0 0)
(-2.255160209569388e-14 0 0)
(-6.042103760820918e-14 0 0)
(-1.708719948087603e-14 0 0)
(-3.007922308909621e-14 0 0)
(-3.958253198442929e-14 0 0)
(-2.302676754046115e-14 0 0)
(1.128517931320463e-14 0 0)
(7.1962556174507e-15 0 0)
(2.946025757552604e-14 0 0)
(3.26426156200816e-14 0 0)
(8.496708413652235e-15 0 0)
(1.877528724518204e-14 0 0)
(1.618688600658518e-14 0 0)
(-3.032305798839522e-15 0 0)
(-2.1651288621404e-14 0 0)
(-6.118380319059831e-14 0 0)
(1.556792049300487e-14 0 0)
(-1.231303719635982e-13 0 0)
(-5.25182860005133e-14 0 0)
(-1.163092469604213e-13 0 0)
(-5.860165412890499e-14 0 0)
(-1.423433115921026e-13 0 0)
(-1.234554851626345e-13 0 0)
(-1.429310162211639e-13 0 0)
(-1.290449313155442e-13 0 0)
(-1.511213679664948e-13 0 0)
(-1.458007654204747e-13 0 0)
(-1.277757394038746e-13 0 0)
(-1.449317128306964e-13 0 0)
(-1.655576444397242e-13 0 0)
(-1.698028725580927e-13 0 0)
(-1.632505911618384e-13 0 0)
(-1.560418311905695e-13 0 0)
(-1.631005389161332e-13 0 0)
(-1.271942869517176e-13 0 0)
(-1.868087937392018e-13 0 0)
(-1.05574259214842e-13 0 0)
(-1.906476303587723e-13 0 0)
(-1.751734925193319e-13 0 0)
(-2.135368500073174e-13 0 0)
(-1.991568431262345e-13 0 0)
(-1.95649371882645e-13 0 0)
(-1.902662475675728e-13 0 0)
(-1.660390620613863e-13 0 0)
(-1.700967248726123e-13 0 0)
(-1.554166135000976e-13 0 0)
(-1.300577839741276e-13 0 0)
(-1.313957498317615e-13 0 0)
(-1.047802327479405e-13 0 0)
(-1.050115632934115e-13 0 0)
(-6.385973490585971e-14 0 0)
(-6.512267464063675e-14 0 0)
(-5.691356636460095e-14 0 0)
(-3.135466717768379e-14 0 0)
(-1.19666665958309e-14 0 0)
(-2.502746415000749e-14 0 0)
(-4.337760336566059e-14 0 0)
(-1.626816430634846e-14 0 0)
(-6.877394595107806e-17 0 0)
(1.021605706248199e-14 0 0)
(1.663079056683167e-14 0 0)
(1.749984315659774e-14 0 0)
(1.608059899920321e-14 0 0)
(-8.452943175322629e-15 0 0)
(-2.333937638570319e-14 0 0)
(-2.11323579383026e-14 0 0)
(-1.539285953967648e-14 0 0)
(-1.834388703875444e-14 0 0)
(-3.475585141391417e-14 0 0)
(-2.07197142625852e-14 0 0)
(-2.282044570263009e-15 0 0)
(2.867248328551782e-14 0 0)
(3.882601857894892e-14 0 0)
(3.271138956603105e-14 0 0)
(3.678155673106688e-14 0 0)
(2.907887478433035e-14 0 0)
(2.922267485313937e-14 0 0)
(3.742553095226234e-14 0 0)
(1.056617896914754e-14 0 0)
(-2.637168218454219e-14 0 0)
(-4.742276182308122e-14 0 0)
(-6.577915321564179e-14 0 0)
(-7.089343392377813e-14 0 0)
(-7.220013889689631e-14 0 0)
(-8.461696222987531e-14 0 0)
(-9.03189475670686e-14 0 0)
(-8.563606706536613e-14 0 0)
(-8.806191170443582e-14 0 0)
(-9.92032909488307e-14 0 0)
(-8.503585808250254e-14 0 0)
(-7.432587904453173e-14 0 0)
(-7.631407130027229e-14 0 0)
(-9.412027112520575e-14 0 0)
(-9.866560373500374e-14 0 0)
(-9.185698308566062e-14 0 0)
(-9.806539475214553e-14 0 0)
(-1.230303371330993e-13 0 0)
(-1.684711588773566e-13 0 0)
(-1.696215594278291e-13 0 0)
(-1.581925800458298e-13 0 0)
(-1.602995636627548e-13 0 0)
(-1.493019844871612e-13 0 0)
(-1.360973868641878e-13 0 0)
(-1.191039700368805e-13 0 0)
(-1.33221385487969e-13 0 0)
(-1.326149243282023e-13 0 0)
(-1.218736844057067e-13 0 0)
(-9.076285212731876e-14 0 0)
(-8.896222517872462e-14 0 0)
(-8.791185945870568e-14 0 0)
(-6.557908355468602e-14 0 0)
(-6.389724796728777e-14 0 0)
(-6.027723753939619e-14 0 0)
(-7.137485154545773e-14 0 0)
(-8.874339898704484e-14 0 0)
(-8.88434338175282e-14 0 0)
(-9.338251425042718e-14 0 0)
(-6.414733504346744e-14 0 0)
(-4.404658629446409e-14 0 0)
(-5.49253741088592e-14 0 0)
(-5.615705295910942e-14 0 0)
(-5.593197459053937e-14 0 0)
(-5.712614037935668e-14 0 0)
(-4.532203038306076e-14 0 0)
(-5.0867711297635e-14 0 0)
(-4.307124669731756e-14 0 0)
(-2.023204446399954e-14 0 0)
(-2.839113532479751e-14 0 0)
(-6.254052557893617e-14 0 0)
(-8.886219034824067e-14 0 0)
(-7.780208940360305e-14 0 0)
(-8.501084937487483e-14 0 0)
(-1.061369551362684e-13 0 0)
(-8.676145890821997e-14 0 0)
(-9.278230526756668e-14 0 0)
(-5.820776698389853e-14 0 0)
(-3.524352121248177e-14 0 0)
(-3.951375803847697e-14 0 0)
(-2.677182150644633e-14 0 0)
(-4.237100288398284e-14 0 0)
(-4.300872492827527e-14 0 0)
(-3.692535679987966e-14 0 0)
(-1.906288738280627e-14 0 0)
(-8.820571177323741e-14 0 0)
(-4.401532540995299e-14 0 0)
(-3.699413074583311e-14 0 0)
(-2.2264001958068e-14 0 0)
(9.959717809393799e-15 0 0)
(2.917890961481603e-14 0 0)
(7.358812216979908e-15 0 0)
(-1.411116327418215e-14 0 0)
(-8.665517190081766e-15 0 0)
(-8.527344080487735e-14 0 0)
(-6.802368472447585e-14 0 0)
(-7.029322494091676e-14 0 0)
(-6.185278611941482e-14 0 0)
(-8.277882221985584e-14 0 0)
(-1.00760082998131e-13 0 0)
(-6.562910096992878e-14 0 0)
(-1.124704103408495e-13 0 0)
(-9.769651631476994e-14 0 0)
(-9.60021763735658e-14 0 0)
(-1.024919360007547e-13 0 0)
(-1.127079930632427e-13 0 0)
(-1.336652900482113e-13 0 0)
(-1.636319739530252e-13 0 0)
(-1.734291351628922e-13 0 0)
(-1.115513403358436e-13 0 0)
(-1.064870770429463e-13 0 0)
(-4.330257724279953e-14 0 0)
(-4.763533583784002e-14 0 0)
(-2.806602212575032e-14 0 0)
(-2.227650631188651e-14 0 0)
(-3.623136516345062e-14 0 0)
(-1.111011835987169e-14 0 0)
(2.988540560504082e-15 0 0)
(2.704066511335953e-14 0 0)
(-2.561516877906281e-14 0 0)
(-8.202856099130398e-15 0 0)
(-3.720045258371779e-15 0 0)
(5.289341661480328e-14 0 0)
(7.851483757076365e-14 0 0)
(9.573333276665037e-14 0 0)
(1.428309813906605e-13 0 0)
(8.197229139913189e-14 0 0)
(1.026669969540948e-13 0 0)
(8.272255262770194e-14 0 0)
(8.184099568413111e-14 0 0)
(6.082117693011018e-14 0 0)
(5.825153222222616e-14 0 0)
(6.615428382992265e-14 0 0)
(6.88114590144695e-14 0 0)
(1.105509920310719e-13 0 0)
(5.37437126738491e-14 0 0)
(1.084377562372348e-13 0 0)
(1.040237193424444e-13 0 0)
(7.521368816501435e-14 0 0)
(5.776386242365478e-14 0 0)
(4.551584786710323e-14 0 0)
(2.547762088714587e-14 0 0)
(5.333106899807904e-15 0 0)
(6.988683344210551e-14 0 0)
(-2.782218722646549e-14 0 0)
(4.999865870786436e-14 0 0)
(3.267387650460037e-14 0 0)
(4.455926480067332e-14 0 0)
(2.969158812099915e-14 0 0)
(3.197988486816459e-14 0 0)
(2.814730042551077e-14 0 0)
(1.546788566252974e-14 0 0)
(1.488643321038009e-14 0 0)
(7.940264669129682e-16 0 0)
(-2.138244501446733e-15 0 0)
(-1.387983272868094e-15 0 0)
(-2.669679538359687e-15 0 0)
(1.332964116108195e-14 0 0)
(2.139494936830515e-14 0 0)
(4.49218910611524e-14 0 0)
(-2.366448958475445e-14 0 0)
(-9.497056718424011e-15 0 0)
(-3.901358388609516e-14 0 0)
(-1.736854744159361e-14 0 0)
(-3.595001720271078e-15 0 0)
(1.776243458660247e-14 0 0)
(3.758808755179847e-14 0 0)
(4.797920556761302e-14 0 0)
(1.05524241799591e-13 0 0)
(2.160127120616746e-14 0 0)
(9.431408860925699e-14 0 0)
(1.026607447771992e-13 0 0)
(1.224363803271536e-13 0 0)
(1.099507830482011e-13 0 0)
(1.175846910490117e-13 0 0)
(1.473513052928741e-13 0 0)
(1.204106750099862e-13 0 0)
(1.129580801394472e-13 0 0)
(1.218361713442911e-13 0 0)
(1.196354050737951e-13 0 0)
(1.070560251412846e-13 0 0)
(7.556381007169383e-14 0 0)
(6.365966524491572e-14 0 0)
(5.720741867913726e-14 0 0)
(6.482257014920447e-14 0 0)
(5.414385199579943e-15 0 0)
(3.253632861270411e-14 0 0)
(4.011396702134795e-14 0 0)
(5.943319365724816e-14 0 0)
(4.542206521353549e-14 0 0)
(2.155750596783364e-14 0 0)
(1.797500860136987e-14 0 0)
(2.837863097099352e-14 0 0)
(9.794035121405047e-14 0 0)
(-7.740195008169371e-15 0 0)
(6.957422459687127e-14 0 0)
(4.442796908567476e-14 0 0)
(5.643214874293078e-14 0 0)
(5.616955731292977e-14 0 0)
(4.098301961111353e-14 0 0)
(1.866274806089431e-14 0 0)
(3.359294650961184e-14 0 0)
(4.777913590665342e-14 0 0)
(4.659122229473474e-14 0 0)
(4.355266431899706e-14 0 0)
(5.677601847269338e-14 0 0)
(6.884897207591527e-14 0 0)
(6.2671821293942e-14 0 0)
(4.368396003399561e-14 0 0)
(1.587427716134987e-14 0 0)
(-6.683577111255127e-15 0 0)
(-2.2320271550216e-14 0 0)
(-3.408686848509764e-14 0 0)
(-3.661274795464123e-14 0 0)
(-4.357767302662143e-14 0 0)
(-2.844115274004252e-14 0 0)
(-4.720393563144764e-15 0 0)
(-9.397021887952296e-15 0 0)
(-9.759648148433464e-15 0 0)
(7.021194664110299e-15 0 0)
(4.549709133639093e-14 0 0)
(-8.890595558665518e-15 0 0)
(2.714069994382984e-14 0 0)
(1.65620166208704e-14 0 0)
(3.791320075084205e-14 0 0)
(5.205562490955149e-14 0 0)
(4.667875277139587e-14 0 0)
(2.92914487990911e-14 0 0)
(-1.787497377089656e-14 0 0)
(2.427720292141968e-14 0 0)
(-7.527620993407585e-14 0 0)
(5.93956805955866e-16 0 0)
(1.087253563748815e-14 0 0)
(5.373746049695764e-14 0 0)
(6.150266421273822e-14 0 0)
(2.952903152147538e-14 0 0)
(-1.800626948593957e-15 0 0)
(-5.184930307169104e-14 0 0)
(-6.195282094989159e-14 0 0)
(-6.167772516608056e-14 0 0)
(-2.780968287265249e-14 0 0)
(-3.026053621933308e-15 0 0)
(4.489063017662151e-15 0 0)
(-1.373603265989338e-14 0 0)
(-5.797643643841993e-14 0 0)
(-3.635640870153998e-14 0 0)
(-4.787917073712897e-14 0 0)
(-1.861273064565539e-14 0 0)
(1.277944959346327e-14 0 0)
(3.593751284892687e-14 0 0)
(3.695036550751013e-14 0 0)
(4.272112479066131e-14 0 0)
(9.290734880575544e-15 0 0)
(-3.167352819982154e-14 0 0)
(3.864470544872082e-14 0 0)
(-6.854261540756797e-14 0 0)
(-1.357972823726764e-14 0 0)
(-1.097257046795697e-14 0 0)
(-1.065996162271798e-14 0 0)
(-2.889756165408819e-14 0 0)
(-4.907958870285434e-14 0 0)
(-4.942971060952792e-14 0 0)
(-5.04175545604892e-14 0 0)
(-5.190557266383631e-14 0 0)
(-6.516018770206313e-14 0 0)
(-8.14658650698415e-14 0 0)
(-7.253775644974997e-14 0 0)
(-3.775064415132113e-14 0 0)
(-3.173604996888367e-14 0 0)
(-6.585417933849381e-14 0 0)
(-3.133591064697032e-14 0 0)
(-8.971873858421194e-14 0 0)
(-4.371522091852057e-14 0 0)
(-6.790489336328149e-14 0 0)
(-5.383749532742461e-14 0 0)
(-9.255722689900133e-14 0 0)
(-1.010414309588418e-13 0 0)
(-4.319003805851311e-14 0 0)
(-7.345682645476784e-14 0 0)
(-1.941926146637818e-14 0 0)
(-1.118326882965658e-13 0 0)
(-1.727476478802254e-14 0 0)
(-2.520877728024153e-14 0 0)
(-5.295593838384512e-14 0 0)
(-4.250229859898682e-14 0 0)
(-1.466760701870679e-14 0 0)
(2.68843606910701e-16 0 0)
(1.330463245346851e-14 0 0)
(2.257035862641698e-14 0 0)
(1.334214551489746e-14 0 0)
(1.239181462536184e-14 0 0)
(3.692535679989281e-14 0 0)
(5.761381017794525e-14 0 0)
(4.992363258501595e-14 0 0)
(3.350541603295007e-14 0 0)
(4.140816764064469e-14 0 0)
(-3.414313807723794e-14 0 0)
(-2.130116671473369e-14 0 0)
(-3.913237524728788e-14 0 0)
(-5.46940435633896e-14 0 0)
(-3.740677442155617e-14 0 0)
(-2.200766270497057e-14 0 0)
(-3.665651319297393e-14 0 0)
(-4.946722367095518e-14 0 0)
(-9.540821956755521e-15 0 0)
(-1.258875819786089e-13 0 0)
(-5.324353852146426e-14 0 0)
(-7.443216605192591e-14 0 0)
(-5.874545419771449e-14 0 0)
(-4.826055352832669e-14 0 0)
(-3.766936585155773e-14 0 0)
(-4.404658629448182e-14 0 0)
(-8.351032691771718e-14 0 0)
(-3.860719238728115e-14 0 0)
(-1.652762964790005e-13 0 0)
(-1.023668924626638e-13 0 0)
(-1.117826708813457e-13 0 0)
(-9.984726517001582e-14 0 0)
(-9.228838329209741e-14 0 0)
(-6.496011804111611e-14 0 0)
(-3.666276536988251e-14 0 0)
(-1.168719428818648e-13 0 0)
(-5.95832459029861e-15 0 0)
(-7.704557599813523e-14 0 0)
(9.772152502238717e-15 0 0)
(1.881280030661531e-14 0 0)
(3.721920911441473e-14 0 0)
(4.143317634826602e-14 0 0)
(1.82313478544663e-14 0 0)
(9.54207239214151e-14 0 0)
(1.806879125494115e-14 0 0)
(9.977849122405706e-14 0 0)
(6.235921244871517e-14 0 0)
(7.258777386500206e-14 0 0)
(7.707058470577423e-14 0 0)
(7.473852272025765e-14 0 0)
(5.687605330318413e-14 0 0)
(3.642518264750085e-14 0 0)
(7.321299155552839e-15 0 0)
(3.601253897185594e-15 0 0)
(7.123105147665775e-14 0 0)
(-4.395905581780549e-14 0 0)
(-1.207295360320787e-14 0 0)
(-3.33866246717554e-14 0 0)
(-2.378328094594183e-14 0 0)
(-2.250158468045755e-14 0 0)
(-1.119139665963292e-14 0 0)
(-2.431471598285505e-14 0 0)
(-4.790417944475152e-14 0 0)
(-1.466135484181011e-14 0 0)
(-1.187100828918808e-13 0 0)
(-3.308652018032765e-14 0 0)
(-3.084198867149431e-14 0 0)
(-4.392779493328448e-14 0 0)
(-7.671421062218527e-14 0 0)
(-1.284197136250662e-13 0 0)
(-1.053054156079403e-13 0 0)
(-1.465510266490608e-13 0 0)
(-9.163815689399435e-14 0 0)
(-6.04585506696423e-14 0 0)
(-3.945748844633628e-14 0 0)
(-7.512615768836126e-14 0 0)
(-9.647734181832867e-14 0 0)
(-7.174998215975463e-14 0 0)
(-6.077741169178863e-14 0 0)
(1.611185988372564e-14 0 0)
(-9.449540173950343e-14 0 0)
(-1.98194007882933e-14 0 0)
(-5.366243437410011e-14 0 0)
(-6.638561437539654e-14 0 0)
(-5.520046989268127e-14 0 0)
(-5.101776354335409e-14 0 0)
(-5.400630410386393e-14 0 0)
(-8.455444046082491e-14 0 0)
(-3.684407850012148e-14 0 0)
(-1.513151854505337e-13 0 0)
(-6.546029219348807e-14 0 0)
(-6.17527512889381e-14 0 0)
(-2.905386607671429e-14 0 0)
(9.684622025570791e-15 0 0)
(1.608059899920811e-14 0 0)
(3.747554836751322e-14 0 0)
(-1.526156382466763e-14 0 0)
(2.60090559241071e-15 0 0)
(-1.138521414367786e-14 0 0)
(-4.795419685992823e-15 0 0)
(-2.447727258237863e-14 0 0)
(-4.112681967992073e-14 0 0)
(-5.186805960240783e-14 0 0)
(-7.950893369863129e-14 0 0)
(-4.434043860900249e-14 0 0)
(-1.677834194178375e-13 0 0)
(-1.190977178599571e-13 0 0)
(-1.271005042981471e-13 0 0)
(-1.368539002696681e-13 0 0)
(-1.274381218510087e-13 0 0)
(-1.270567390598094e-13 0 0)
(-1.485454710816846e-13 0 0)
(-2.010074874900707e-13 0 0)
(-1.758737363326708e-13 0 0)
(-3.062316247982451e-13 0 0)
(-2.483927362516784e-13 0 0)
(-2.674806323421454e-13 0 0)
(-2.569207055498907e-13 0 0)
(-2.816793260929883e-13 0 0)
(-3.284206006334391e-13 0 0)
(-3.202365010650345e-13 0 0)
(-3.735425613555577e-13 0 0)
(-3.405685803594629e-13 0 0)
(-3.317905239851486e-13 0 0)
(-3.220496323674256e-13 0 0)
(-2.945963235783492e-13 0 0)
(-3.007797265372272e-13 0 0)
(-3.185171524161983e-13 0 0)
(-3.525665078398658e-13 0 0)
(-3.079822343315697e-13 0 0)
(-4.048222024103926e-13 0 0)
(-3.31159054117698e-13 0 0)
(-3.82026765415404e-13 0 0)
(-3.962567200507832e-13 0 0)
(-4.167451037678777e-13 0 0)
(-4.538580258749014e-13 0 0)
(-4.60254002848549e-13 0 0)
(-4.911710176429082e-13 0 0)
(-4.476246055007566e-13 0 0)
(-5.267584085851633e-13 0 0)
(-4.39740610423832e-13 0 0)
(-4.212841842007899e-13 0 0)
(-3.92174048531896e-13 0 0)
(-3.674154279888302e-13 0 0)
(-3.473209314167288e-13 0 0)
(-3.039933454663112e-13 0 0)
(-4.094300567891864e-13 0 0)
(-4.180268000333807e-13 0 0)
(-4.626548387799832e-13 0 0)
(-5.086083390304568e-13 0 0)
(-5.56475005413701e-13 0 0)
(-5.660658447857761e-13 0 0)
(-5.494288020420482e-13 0 0)
(-6.267619781777761e-13 0 0)
(-5.757004493960752e-13 0 0)
(-6.954296371234425e-13 0 0)
(-6.381034270831496e-13 0 0)
(-6.249676034061122e-13 0 0)
(-6.112378229230597e-13 0 0)
(-5.944444757567622e-13 0 0)
(-5.799519296913819e-13 0 0)
(-5.438143471815037e-13 0 0)
(-5.112342533304673e-13 0 0)
(-4.38859053480191e-13 0 0)
(-5.16867464721714e-13 0 0)
(-4.692508854145899e-13 0 0)
(-5.428202510536149e-13 0 0)
(-5.491912193196205e-13 0 0)
(-5.541867086665823e-13 0 0)
(-6.001026958556215e-13 0 0)
(-5.219879976067625e-13 0 0)
(-6.166459559457273e-13 0 0)
(-5.44658391063653e-13 0 0)
(-5.635712262007429e-13 0 0)
(-4.933780360902918e-13 0 0)
(-6.022034272955887e-13 0 0)
(-5.330293420206822e-13 0 0)
(-5.227820240736794e-13 0 0)
(-5.294906098925634e-13 0 0)
(-5.587820586915976e-13 0 0)
(-5.799456775144565e-13 0 0)
(-5.567250924899727e-13 0 0)
(-7.056832072473479e-13 0 0)
(-6.858763108128297e-13 0 0)
(-7.017818488587667e-13 0 0)
(-6.977429425782507e-13 0 0)
(-6.828627615447706e-13 0 0)
(-6.813809956183257e-13 0 0)
(-6.617929253754788e-13 0 0)
(-7.057207203087765e-13 0 0)
(-6.730155829196847e-13 0 0)
(-8.227364632594427e-13 0 0)
(-7.984342516303497e-13 0 0)
(-8.247184033383091e-13 0 0)
(-8.645385180450854e-13 0 0)
(-8.91672965812061e-13 0 0)
(-8.679397022812669e-13 0 0)
(-8.516402770904774e-13 0 0)
(-8.355721824450819e-13 0 0)
(-7.639472438234253e-13 0 0)
(-8.602682812190475e-13 0 0)
(-7.870615418405569e-13 0 0)
(-7.677985847967967e-13 0 0)
(-7.199069097058532e-13 0 0)
(-6.65944370840284e-13 0 0)
(-6.963737158360646e-13 0 0)
(-6.533087213156734e-13 0 0)
(-7.171934649291621e-13 0 0)
(-6.285000833573028e-13 0 0)
(-6.508266070844361e-13 0 0)
(-6.701958511356013e-13 0 0)
(-6.457873524991736e-13 0 0)
(-6.39985332331498e-13 0 0)
(-6.180276870417034e-13 0 0)
(-6.43599090582488e-13 0 0)
(-6.003715394625498e-13 0 0)
(-7.518117684511362e-13 0 0)
(-6.970614552955644e-13 0 0)
(-7.326300897071846e-13 0 0)
(-7.559069443238292e-13 0 0)
(-7.706683339960811e-13 0 0)
(-8.000285567410606e-13 0 0)
(-8.528719559407459e-13 0 0)
(-8.707094166501968e-13 0 0)
(-7.380694836143724e-13 0 0)
(-8.175346520746267e-13 0 0)
(-7.746634750382713e-13 0 0)
(-7.882494554524871e-13 0 0)
(-7.829038441988743e-13 0 0)
(-8.07437386373311e-13 0 0)
(-8.508024853852071e-13 0 0)
(-7.872303506170032e-13 0 0)
(-8.839077620962475e-13 0 0)
(-8.453005697089741e-13 0 0)
(-8.404613847846748e-13 0 0)
(-8.726100784292393e-13 0 0)
)
;

boundaryField
{
    inlet
    {
        type            calculated;
        value           uniform (-0.0001091893802135962 0 0);
    }
    outlet
    {
        type            calculated;
        value           uniform (-8.726100784292393e-13 0 0);
    }
    frontAndBack
    {
        type            empty;
    }
}


// ************************************************************************* //
