/*--------------------------------*- C++ -*----------------------------------*\
| =========                 |                                                 |
| \\      /  F ield         | OpenFOAM: The Open Source CFD Toolbox           |
|  \\    /   O peration     | Version:  v2012                                 |
|   \\  /    A nd           | Website:  www.openfoam.com                      |
|    \\/     M anipulation  |                                                 |
\*---------------------------------------------------------------------------*/
FoamFile
{
    version     2.0;
    format      ascii;
    class       volVectorField;
    location    "0.001";
    object      U;
}
// * * * * * * * * * * * * * * * * * * * * * * * * * * * * * * * * * * * * * //

dimensions      [0 1 -1 0 0 0 0];


internalField   nonuniform List<vector> 
100
(
(1.33404e-13 0 0)
(1.58464e-13 0 0)
(-1.0787e-13 0 0)
(-2.07732e-13 0 0)
(-1.67505e-14 0 0)
(1.39837e-13 0 0)
(1.78586e-13 0 0)
(-1.17077e-13 0 0)
(-1.50991e-13 0 0)
(3.81529e-14 0 0)
(-3.50603e-14 0 0)
(-1.14219e-13 0 0)
(-2.10315e-14 0 0)
(1.62058e-15 0 0)
(9.68172e-14 0 0)
(9.86886e-15 0 0)
(-8.9841e-14 0 0)
(-1.19014e-14 0 0)
(-1.35088e-14 0 0)
(1.01574e-13 0 0)
(-7.47563e-16 0 0)
(-9.17517e-14 0 0)
(3.56586e-15 0 0)
(-1.89337e-15 0 0)
(1.46244e-13 0 0)
(1.50475e-13 0 0)
(-8.98733e-14 0 0)
(-1.39565e-13 0 0)
(1.10178e-13 0 0)
(4.82745e-13 0 0)
(5.26721e-13 0 0)
(1.9348e-13 0 0)
(-1.41631e-13 0 0)
(-4.06344e-13 0 0)
(2.53382e-14 0 0)
(3.84605e-13 0 0)
(1.38031e-13 0 0)
(-1.37978e-13 0 0)
(-4.27303e-13 0 0)
(-1.82751e-13 0 0)
(9.52206e-12 0 0)
(1.64517e-07 0 0)
(0.00030814 0 0)
(0.0604256 0 0)
(1.85557 0 0)
(14.4649 0 0)
(47.2765 0 0)
(96.6244 0 0)
(151.052 0 0)
(217.876 0 0)
(284.105 0 0)
(303.876 0 0)
(295.776 0 0)
(298.984 0 0)
(276.305 0 0)
(185.74 0 0)
(43.1061 0 0)
(1.23176 0 0)
(0.00291562 0 0)
(4.1685e-07 0 0)
(1.20129e-11 0 0)
(-1.03191e-13 0 0)
(-6.05464e-14 0 0)
(4.62397e-14 0 0)
(1.82544e-13 0 0)
(-6.36212e-14 0 0)
(-1.2834e-13 0 0)
(-3.68227e-14 0 0)
(7.58872e-14 0 0)
(2.78126e-13 0 0)
(1.61737e-13 0 0)
(2.04701e-13 0 0)
(-2.1289e-13 0 0)
(-7.89766e-13 0 0)
(4.36724e-14 0 0)
(6.45708e-13 0 0)
(4.87751e-13 0 0)
(-1.56926e-13 0 0)
(-9.77573e-13 0 0)
(6.98358e-15 0 0)
(6.44151e-13 0 0)
(5.01644e-13 0 0)
(-1.69145e-13 0 0)
(-9.81878e-13 0 0)
(5.6776e-15 0 0)
(6.44532e-13 0 0)
(4.96883e-13 0 0)
(-1.70057e-13 0 0)
(-9.1288e-13 0 0)
(9.81211e-14 0 0)
(4.687e-13 0 0)
(-2.66495e-13 0 0)
(-6.48343e-13 0 0)
(3.50345e-13 0 0)
(8.49006e-13 0 0)
(8.43758e-15 0 0)
(-5.28386e-13 0 0)
(-6.81335e-13 0 0)
(4.13266e-13 0 0)
(1.16039e-12 0 0)
)
;

boundaryField
{
    sides
    {
        type            zeroGradient;
    }
    empty
    {
        type            empty;
    }
}


// ************************************************************************* //
