/*--------------------------------*- C++ -*----------------------------------*\
| =========                 |                                                 |
| \\      /  F ield         | OpenFOAM: The Open Source CFD Toolbox           |
|  \\    /   O peration     | Version:  v2012                                 |
|   \\  /    A nd           | Website:  www.openfoam.com                      |
|    \\/     M anipulation  |                                                 |
\*---------------------------------------------------------------------------*/
FoamFile
{
    version     2.0;
    format      ascii;
    class       volScalarField;
    location    "0.006";
    object      p;
}
// * * * * * * * * * * * * * * * * * * * * * * * * * * * * * * * * * * * * * //

dimensions      [1 -1 -2 0 0 0 0];


internalField   nonuniform List<scalar> 
1000
(
101311.5886613269
101314.2300362001
101307.4563905561
101302.1361946932
101296.2390564787
101290.9137728275
101286.3146257697
101282.3778317129
101278.9607224849
101276.5804222508
101275.8764290049
101275.8698050412
101276.1815277154
101277.0898746472
101278.9481393347
101281.8510529796
101285.6961498655
101290.2984802477
101295.5020470644
101301.2021053217
101307.3165199626
101313.7581340146
101320.4239546075
101327.1926955686
101333.9268314577
101340.4845411928
101346.7439034943
101352.6355703502
101358.1679057297
101363.3856404471
101368.14216292
101371.703104849
101373.2158703689
101373.3962191281
101373.3326126663
101373.1181025436
101372.4660691236
101371.1415108371
101368.9054690619
101365.6279458462
101361.3262562648
101356.1546970263
101350.3347271056
101344.0752079984
101337.5324509926
101330.8185838985
101324.0301010693
101317.2687949983
101310.643247091
101304.2437894577
101298.0980431932
101292.1627720268
101286.4604643983
101281.4429070041
101278.1924189395
101277.164005173
101277.0986774956
101277.1263295121
101277.3527849451
101277.9120186771
101279.0372969309
101280.9382241895
101283.783836205
101287.6506125488
101292.4972203646
101298.1703644551
101304.4461542527
101311.0900957026
101317.904783988
101324.7443309854
101331.5051272013
101338.1218511049
101344.5803298003
101350.9212128935
101357.1855004584
101363.2386294955
101368.4319952122
101371.5870304188
101372.4972592187
101372.5558483718
101372.5000815392
101372.3270600732
101371.8509380654
101370.9055481176
101369.2929682479
101366.8351772838
101363.4060678394
101358.9678506656
101353.5885866755
101347.4335439083
101340.733397331
101333.7384986683
101326.6701755437
101319.6821748217
101312.8433520489
101306.1428054385
101299.5164894884
101292.9268138574
101286.5892556569
101281.356206847
101278.4786694886
101277.7947338352
101277.7750135172
101277.8051679886
101277.9889400181
101278.4293733478
101279.2979135716
101280.7673264187
101283.0060524834
101286.1473720375
101290.2612389329
101295.3295977394
101301.2369756404
101307.7857853559
101314.7341343924
101321.843519876
101328.9250509036
101335.8770887579
101342.7014456462
101349.4740142041
101356.2360407412
101362.7523370905
101368.152125752
101371.1695078596
101371.9306873813
101371.9713582483
101371.9274722565
101371.7894559815
101371.4166378393
101370.6772216132
101369.4085319374
101367.4469823583
101364.6462969046
101360.9051972041
101356.1921237565
101350.5616215176
101344.1576615874
101337.1969132289
101329.926611647
101322.56531137
101315.2503774933
101308.0173024256
101300.8292730604
101293.6923423487
101286.935948023
101281.5876136641
101278.8725979379
101278.2990660303
101278.2867092249
101278.3129176626
101278.4629153864
101278.8207576516
101279.5246310018
101280.7197911573
101282.5578235415
101285.1772738843
101288.6834233604
101293.1247635438
101298.4735020761
101304.6195367547
101311.3827486301
101318.5429126459
101325.8851749466
101333.2533346951
101340.5871289887
101347.9055655449
101355.1926621093
101362.1307113229
101367.7386355195
101370.7481575858
101371.4704310962
101371.5077829899
101371.4732843674
101371.3640454301
101371.0657056621
101370.4698105569
101369.4387616659
101367.8270175884
101365.491806922
101362.3127515294
101358.2122187852
101353.1740294988
101347.25757345
101340.5996336893
101333.3936343227
101325.8455488174
101318.1220965168
101310.3169565646
101302.4667779558
101294.6718582293
101287.4051866509
101281.8612993757
101279.2210844341
101278.709747307
101278.7002126802
101278.7222659463
101278.8466115739
101279.1430165776
101279.7268553838
101280.7224482841
101282.2647301037
101284.4861289831
101287.5022480314
101291.3929864979
101296.1837085809
101301.8334251014
101308.2344739403
101315.2257903932
101322.6231370191
101330.2647627786
101338.0521070092
101345.943524732
101353.844535061
101361.3277095462
101367.2724773938
101370.3706257227
101371.0894720717
101371.1264944707
101371.0989503733
101371.0114040079
101370.7683094736
101370.2788159716
101369.425000747
101368.0780931497
101366.1047589668
101363.3811231318
101359.808300899
101355.3285400615
101349.9406897149
101343.709124025
101336.756370234
101329.2356660372
101321.2926160971
101313.0363013298
101304.5545171748
101296.0422773965
101288.1363093099
101282.2378548512
101279.5469043194
101279.0540525305
101279.0444590283
101279.0627266097
101279.1668447795
101279.415913032
101279.9081233889
101280.7509570647
101282.0641828751
101283.9707571989
101286.5866925928
101290.0064352372
101294.2869129592
101299.43532532
101305.4038906665
101312.0937053361
101319.3725341254
101327.1081924425
101335.2017200189
101343.5805681816
101352.0893687347
101360.1989613319
101366.6377156589
101369.9815870487
101370.7603270866
101370.8027634607
101370.7810288587
101370.7110400184
101370.5111576128
101370.1041298359
101369.387805118
101368.248319956
101366.5634905852
101364.2127718753
101361.0886569514
101357.1094604993
101352.2331351597
101346.4677702058
101339.8707517752
101332.5329048197
101324.5538140534
101316.0240338929
101307.0473014304
101297.878407567
101289.2787986962
101282.8426841889
101279.9030542234
101279.3574989505
101279.3429018798
101279.3569943126
101279.4432909995
101279.6528488588
101280.0710255494
101280.7918196583
101281.9218170529
101283.573755688
101285.8594530084
101288.8787069361
101292.7065847323
101297.3827582972
101302.9048713335
101309.2276235265
101316.2724131367
101323.9501001004
101332.1842364204
101340.8995728719
101349.9140935542
101358.6455824553
101365.7169859447
101369.5159223689
101370.4573525023
101370.5170960772
101370.5005468207
101370.446172585
101370.2825159052
101369.9429695278
101369.3377855017
101368.3657795389
101366.9157399344
101364.8734440482
101362.1296605301
101358.589741555
101354.184952673
101348.8821992631
101342.6859334948
101335.6297524646
101327.7624921792
101319.1405980809
101309.8561767776
101300.1766445299
101290.9079830967
101283.7666014493
101280.3375074806
101279.6405877395
101279.6126393896
101279.62227463
101279.6918761284
101279.8661826084
101280.2211023938
101280.8399314687
101281.818317018
101283.2594170521
101285.269024024
101287.9472451713
101291.3788174362
101295.624576469
101300.7149822802
101306.6469538668
101313.3885224769
101320.8937279969
101329.1172624699
101337.9993652255
101347.3648439306
101356.6416765305
101364.4324837458
101368.9090055989
101370.1559529705
101370.2558456872
101370.2439782017
101370.2038771193
101370.0719023608
101369.7900658841
101369.2782194126
101368.4456603329
101367.1910324281
101365.4072950061
101362.9870658063
101359.8295575938
101355.8494594218
101350.9850446591
101345.200914242
101338.4842684021
101330.8385607412
101322.2827424514
101312.8807499457
101302.8724850298
101293.025244226
101285.0718565465
101280.9061842222
101279.9224250435
101279.8644929118
101279.8698846699
101279.9240094445
101280.0660100769
101280.3649179202
101280.8954386534
101281.744376088
101283.006548233
101284.7814200707
101287.166892634
101290.2521846136
101294.1113539264
101298.7975157429
101304.3388067203
101310.7402170832
101317.9930888878
101326.0834308908
101334.9757403573
101344.5248455233
101354.2213709018
101362.7419043356
101368.0884084769
101369.8260003056
101370.00970028
101370.0026396831
101369.9753844759
101369.8713075181
101369.6400006736
101369.2086883119
101368.4952685198
101367.4068555295
101365.8433761579
101363.7009456219
101360.8767977981
101357.2760803203
101352.8181763311
101347.4393852206
101341.0920502897
101333.7430380254
101325.3766517281
101316.0218502057
101305.8669393679
101295.5801784731
101286.7985334315
101281.6807186261
101280.227702773
101280.1052888428
101280.1066247541
101280.1470261968
101280.2595704789
101280.5081667098
101280.960495565
101281.6962412976
101282.8031939295
101284.374890021
101286.505957907
101289.2870458305
101292.800016288
101297.1129290621
101302.275913132
101308.321604786
101315.271067783
101323.1377805312
101331.9124829763
101341.4910542816
101351.4569597071
101360.6376283504
101366.9769540926
101369.423999864
101369.7698311877
101369.7717262381
101369.755179495
101369.6753190164
101369.4885115747
101369.127707111
101368.5179431975
101367.573503663
101366.2006578837
101364.29964763
101361.7682121252
101358.5067024915
101354.4227351411
101349.4334715244
101343.4664540963
101336.4608499623
101328.3717194214
101319.1930910418
101309.0532127248
101298.4912197346
101288.9572533587
101282.7429475687
101280.5949260393
101280.3403694414
101280.3365544464
101280.3652210543
101280.4514733009
101280.6549514066
101281.0373425893
101281.6725893089
101282.6425754112
101284.0355292693
101285.9424977666
101288.4538295307
101291.6555878629
101295.6252111359
101300.4277396973
101306.1157132054
101312.7326902362
101320.3143975014
101328.8758332101
101338.3554967713
101348.4383902626
101358.1476145625
101365.5068590228
101368.88624542
101369.5253218169
101369.5484850968
101369.5398568342
101369.4806640268
101369.3328285394
101369.0340391399
101368.5154480566
101367.697406281
101366.4918342548
101364.8032429199
101362.5313269462
101359.5747386343
101355.8343052982
101351.2148755647
101345.6271468899
101338.9902216849
101331.2358530051
101322.3270527849
101312.3342847391
101301.6628488823
101291.5230524721
101284.1693778935
101281.0828565883
101280.5772918061
101280.5622379878
101280.5809714267
101280.6443202395
101280.8077937776
101281.1275468703
101281.6728449391
101282.5205435513
101283.7541711449
101285.4612406874
101287.730853729
101290.6509175115
101294.3043856055
101298.766084038
101304.1024883535
101310.3735434062
101317.6320478537
101325.9135276423
101335.1951051817
101345.2571145819
101355.3299615993
101363.6367833256
101368.1320806271
101369.2550892815
101369.3309279382
101369.3277840088
101369.2854578134
101369.1714789529
101368.927136423
101368.4891390191
101367.7830555023
101366.7258288457
101365.2261795967
101363.1865825395
101360.5059509599
101357.0816992887
101352.8112682556
101347.5944718928
101341.3363925439
101333.9509583185
101325.3756562514
101315.6309749108
101304.9998041142
101294.4387004636
101286.011156679
101281.7707432075
101280.8345147359
101280.7835094032
101280.7955094614
101280.8394611207
101280.9678933115
101281.2317913116
101281.6963829243
101282.4341240792
101283.5243707613
101285.0512859079
101287.1022149458
101289.7653825544
101293.1266574192
101297.2670790073
101302.2626389407
101308.1848201762
101315.0990162842
101323.057203643
101332.0687383008
101341.9953284573
101352.2613213576
101361.3641478275
101367.0749215981
101368.9199934086
101369.1160615354
101369.1181764743
101369.0890888581
101369.0039518394
101368.8071311981
101368.4404389724
101367.8340081031
101366.9093199176
101365.5791731128
101363.7492653825
101361.319974094
101358.1875592753
101354.2455146166
101349.3870854574
101343.5078965945
101336.5087172198
101328.3071737106
101318.8833698594
101308.4167567625
101297.6255579455
101288.2803472372
101282.7506146717
101281.1445809104
101281.0021143739
101281.0089585266
101281.0372187089
101281.1355817898
101281.3499929659
101281.7422671
101282.3808119721
101283.3412306791
101284.704551296
101286.5560815991
101288.9833789367
101292.0735249444
101295.9113368446
101300.5791045646
101306.1561481943
101312.7168869754
101320.3260289507
101329.0183634233
101338.7206439418
101349.0239408117
101358.7251975659
101365.6409503873
101368.4575536974
101368.8979305731
101368.9100728452
101368.8915385404
101368.8305090111
101368.6746975237
101368.3709615197
101367.8534000674
101367.0476693496
101365.870512991
101364.2310633978
101362.0318813034
101359.1695847639
101355.5361386232
101351.0212633946
101345.5144780702
101338.9072010429
101331.1023194757
101322.0487773112
101311.8431243013
101300.9973603788
101290.9473965496
101284.1067597191
101281.5629915423
101281.2232278728
101281.2212533782
101281.2371768303
101281.310456189
101281.4815082802
101281.8092248523
101282.3582394273
101283.2007147436
101284.4147300509
101286.0833901647
101288.2929529401
101291.1306226197
101294.6833408971
101299.0373620174
101304.2770998955
101310.4833091504
101317.7303167917
101326.0721265921
101335.4850703552
101345.6951792603
101355.7850762017
101363.7893519291
101367.7848643799
101368.6576190841
101368.7045470872
101368.6929383519
101368.6516841849
101368.5308975998
101368.2824755256
101367.8441194577
101367.1453962157
101366.106863201
101364.6411608538
101362.6534531798
101360.0417410875
101356.6981358835
101352.5109351307
101347.3659906814
101341.1484210666
101333.7506712525
101325.0983992065
101315.2241063844
101304.4716531783
101293.9491295083
101285.8942620793
101282.1709994763
101281.4594250029
101281.4314324569
101281.4391577623
101281.4917780964
101281.6252749244
101281.895727999
101282.3640628194
101283.0992837816
101284.1766517739
101285.6769499107
101287.6847382135
101290.2866591807
101293.5706400765
101297.6251990696
101302.5378670002
101308.393784899
101315.2743899913
101323.247655575
101332.3263823265
101342.3411721313
101352.6237261697
101361.5224883854
101366.8093001834
101368.3601438541
101368.5004928861
101368.4939800872
101368.4683152654
101368.3769470963
101368.1768624428
101367.8089152342
101367.2064825334
101366.2938107261
101364.9870323815
101363.1941599734
101360.8152829514
101357.7438022554
101353.8680185177
101349.0719023622
101343.236694866
101336.2478234276
101328.0139407813
101318.5193765475
101307.9767734002
101297.2032791058
101288.1252389206
101283.0640243118
101281.7387017889
101281.6400564788
101281.6423099658
101281.6787551821
101281.7800473322
101282.0000684764
101282.3959507715
101283.0337090215
101283.9858747222
101285.3308202468
101287.151164021
101289.5325532815
101292.5630855904
101296.3323041189
101300.9294768363
101306.4427407535
101312.9586379925
101320.5549187496
101329.2705116353
101339.0145344783
101349.3223532904
101358.8826989971
101365.451816414
101367.9467178454
101368.292366657
101368.2954770172
101368.281637998
101368.2143454717
101368.0561056969
101367.750504703
101367.234625454
101366.4362848697
101365.2750487199
101363.6619236555
101361.4995774193
101358.6834626754
101355.1028474348
101350.6411590305
101345.1776635744
101338.5933914794
101330.7848170417
101321.7008049374
101311.4549461696
101300.6232591111
101290.7665814678
101284.3317161339
101282.1134313266
101281.8500139775
101281.8460704914
101281.8701275036
101281.94447421
101282.12062939
101282.451957928
101283.0017197661
101283.8397700994
101285.0421071324
101286.6894682602
101288.8664710958
101291.6610832699
101295.1634785643
101299.4645116053
101304.6552732063
101310.8268190642
101318.0644690252
101326.425729905
101335.8734753595
101346.0860244956
101356.0327776654
101363.6277052942
101367.1336535791
101367.801751538
101367.8272930377
101367.8190404162
101367.7654068362
101367.6291829206
101367.3536837257
101366.8764244644
101366.1261012744
101365.0247273203
101363.4890398845
101361.4328921324
101358.7708245232
101355.4238463405
101351.3303630408
101346.471357553
101340.9355364273
101335.0782608049
101329.7822670964
101326.3521560127
101325.1603879749
101325.0052112214
101325.0000302752
101325.0000000185
101324.9999999971
101324.9999999975
101324.9999999975
101324.9999999975
101324.9999999976
101324.9999999972
101324.9999999973
101324.9999999977
101324.9999999975
101324.9999999976
101324.9999999976
101324.9999999976
101324.9999999977
101324.9999999978
101324.9999999978
101324.9999999975
101324.9999999975
101324.9999999976
101324.9999999976
101324.9999999976
101324.9999999979
101324.9999999981
101324.9999999977
101324.9999999983
101324.999999998
101324.999999998
101324.9999999981
101324.9999999981
101324.9999999983
101324.9999999983
101324.9999999983
101324.999999998
101324.9999999985
101324.9999999987
101324.9999999982
101324.9999999981
101324.9999999985
101324.9999999985
101324.9999999984
101324.9999999982
101324.9999999984
101324.9999999981
101324.999999998
101324.999999998
101324.9999999981
101324.9999999981
101324.9999999979
101324.9999999981
101324.9999999978
101324.9999999981
101324.9999999982
101324.9999999978
101324.9999999978
101324.9999999982
101324.9999999979
101324.9999999982
101324.9999999979
101324.9999999981
101324.999999998
101324.999999998
101324.9999999981
101324.9999999982
101324.9999999982
101324.9999999981
101324.9999999981
101324.9999999981
101324.999999998
101324.9999999978
101324.9999999977
101324.9999999975
101324.9999999974
101324.9999999973
101324.9999999971
101324.9999999972
101324.9999999969
101324.9999999971
101324.9999999972
101324.9999999971
101324.9999999975
101324.9999999974
101324.9999999975
101324.9999999975
101324.9999999975
101324.9999999975
101324.9999999975
101324.9999999975
101324.9999999975
101324.999999997
101324.9999999975
101324.9999999971
101324.9999999971
101324.9999999972
101324.9999999974
101324.9999999969
101324.9999999971
101324.9999999969
101324.9999999969
101324.9999999969
101324.9999999968
101324.9999999968
101324.9999999967
101324.9999999967
101324.9999999971
101324.9999999966
101324.9999999972
101324.9999999972
101324.9999999972
101324.9999999971
101324.9999999972
101324.9999999975
101324.9999999975
101324.9999999974
101324.9999999975
101324.9999999973
101324.9999999976
101324.9999999975
101324.9999999975
101324.9999999976
101324.9999999975
101324.9999999975
101324.9999999975
101324.9999999975
101324.9999999977
101324.9999999975
101324.9999999975
101324.999999998
101324.9999999981
101324.9999999981
101324.9999999984
101324.9999999981
101324.9999999981
101324.9999999981
101324.9999999979
101324.9999999981
101324.9999999981
101324.9999999981
101324.9999999981
101324.9999999982
101324.9999999978
101324.9999999979
101324.9999999976
101324.9999999975
101324.9999999976
101324.9999999975
101324.9999999975
101324.9999999975
101324.9999999977
101324.9999999975
101324.9999999975
101324.9999999975
101324.9999999972
101324.9999999977
101324.9999999976
101324.9999999977
101324.9999999974
101324.9999999975
101324.9999999974
101324.9999999972
101324.999999997
101324.9999999968
)
;

boundaryField
{
    inlet
    {
        type            uniformFixedValue;
        uniformValue    sine;
        uniformValueCoeffs
        {
            frequency       constant 3000;
            scale           constant 50;
            level           constant 101325;
        }
        value           uniform 101325;
    }
    outlet
    {
        type            characteristicVelocityInletOutletPressure;
        UName           U;
        pName           p;
        TName           T;
        phiName         phi;
        rhoName         rho;
        U               (0 0 0);
        p               101325;
        T               300;
        value           uniform 101324.9999999968;
    }
    frontAndBack
    {
        type            empty;
    }
}


// ************************************************************************* //
