/*--------------------------------*- C++ -*----------------------------------*\
| =========                 |                                                 |
| \\      /  F ield         | OpenFOAM: The Open Source CFD Toolbox           |
|  \\    /   O peration     | Version:  v2012                                 |
|   \\  /    A nd           | Website:  www.openfoam.com                      |
|    \\/     M anipulation  |                                                 |
\*---------------------------------------------------------------------------*/
FoamFile
{
    version     2.0;
    format      ascii;
    class       volScalarField;
    location    "0.006";
    object      pMean;
}
// * * * * * * * * * * * * * * * * * * * * * * * * * * * * * * * * * * * * * //

dimensions      [1 -1 -2 0 0 0 0];


internalField   nonuniform List<scalar> 
1000
(
101325.0300083083
101325.0063547168
101325.0290569188
101325.0504905015
101325.0814787128
101325.1188562743
101325.1611750477
101325.2104205338
101325.26323767
101325.3205405769
101325.3792792881
101325.43833317
101325.4969992
101325.5551234057
101325.611426337
101325.6650344784
101325.7144719543
101325.7590199528
101325.7975537757
101325.8297290865
101325.8546748936
101325.8722439542
101325.8818013512
101325.8834465298
101325.8768513121
101325.8624168491
101325.8401467244
101325.8107209388
101325.774327028
101325.7316024634
101325.682670457
101325.6286849186
101325.5714704822
101325.5135212999
101325.4554539955
101325.3976212699
101325.3402882394
101325.2841385516
101325.2301087663
101325.1793716568
101325.1331588183
101325.0926029138
101325.0586181413
101325.0318558984
101325.0127567684
101325.0015941301
101324.9985321355
101325.0036008645
101325.0167102516
101325.0376207256
101325.0660540436
101325.101745226
101325.1444759853
101325.1937553379
101325.2481658473
101325.3051344738
101325.3626274111
101325.420105023
101325.4773737555
101325.5342545796
101325.5900427641
101325.6441159637
101325.6952696852
101325.7424992292
101325.7844323772
101325.8201569729
101325.8486483488
101325.8694874557
101325.8821794822
101325.8867704308
101325.8831281709
101325.8715473109
101325.8520404355
101325.8249370467
101325.7901874171
101325.7480787374
101325.6989864401
101325.6447871475
101325.5881313052
101325.5311341765
101325.474090706
101325.4172211845
101325.3607289492
101325.3050866746
101325.2509631487
101325.1992703483
101325.1510864995
101325.1076051644
101325.0699894409
101325.0392803895
101325.0162617547
101325.0014482064
101324.9950527579
101324.9970906531
101325.0074090349
101325.0258469525
101325.052267322
101325.0866518546
101325.128873668
101325.1782143207
101325.2325521164
101325.2889363074
101325.3456143969
101325.4022830351
101325.4587708813
101325.5149530083
101325.5702852999
101325.6242957736
101325.6760247923
101325.7246126795
101325.7687932418
101325.8075521131
101325.8396734394
101325.8644044912
101325.8809789437
101325.8891993561
101325.888850397
101325.8801647262
101325.8631528492
101325.8380534628
101325.8047523985
101325.7634798699
101325.7148130822
101325.6610066593
101325.6049678626
101325.5486612577
101325.4923158243
101325.4361144329
101325.3802013221
101325.3249622307
101325.2709050335
101325.2187854345
101325.1694927015
101325.1241175818
101325.0837812993
101325.0496450005
101325.0226986164
101325.0037666989
101324.9933447276
101324.991704138
101324.9988419681
101325.0147064867
101325.0392045696
101325.0723435914
101325.1139101276
101325.1629428807
101325.2169154266
101325.2727464141
101325.3288051447
101325.3848618054
101325.4407646407
101325.4964236453
101325.5513885507
101325.6052849272
101325.6573117464
101325.7067404745
101325.7524479642
101325.793465626
101325.82856597
101325.8568458982
101325.8773308523
101325.889535953
101325.8929937552
101325.8877016926
101325.8735396879
101325.8506511254
101325.818921922
101325.7786351643
101325.7305722988
101325.6772536144
101325.6217555828
101325.5659995203
101325.5102046428
101325.4545310317
101325.3990806208
101325.3441781666
101325.2902273989
101325.2378664716
101325.1878424919
101325.1411241478
101325.0987374067
101325.0618306677
101325.0314606636
101325.0086326294
101324.9940893451
101324.9884003255
101324.9918429855
101325.004602193
101325.026732381
101325.0583045571
101325.0990166023
101325.1476353168
101325.2012454903
101325.2566114942
101325.3121704496
101325.3677333309
101325.423163346
101325.4783957281
101325.5330487235
101325.5868173544
101325.6390181428
101325.6890294815
101325.7358573339
101325.7786132632
101325.8161228234
101325.8474398244
101325.8714854077
101325.8875651957
101325.8949734048
101325.8934301963
101325.8825874659
101325.8623975995
101325.8326583317
101325.7936492685
101325.7463290717
101325.6934996285
101325.6384610769
101325.5831595552
101325.527818899
101325.4725811212
101325.4175198011
101325.3629116434
101325.3090851958
101325.2565859872
101325.2060483344
101325.1583293235
101325.1143517405
101325.0752037347
101325.0419386418
101325.0156416234
101324.9972178378
101324.9874783779
101324.9869819394
101324.9962043342
101325.0154476586
101325.0449476541
101325.0844156236
101325.13240411
101325.1856117199
101325.2405740807
101325.2957190504
101325.3508706243
101325.4059078101
101325.4607827416
101325.5151664132
101325.5688054484
101325.621110469
101325.6715451322
101325.7192297673
101325.7633583335
101325.8028349756
101325.8367206091
101325.8639021551
101325.8835547556
101325.8947958683
101325.8970952603
101325.8898626949
101325.872802617
101325.8455398177
101325.8082528959
101325.761976674
101325.7097386886
101325.6551267542
101325.6002131364
101325.5452594554
101325.4903928215
101325.4356672003
101325.3813195481
101325.3276228775
101325.2750480135
101325.2241387172
101325.1756525002
101325.1304167916
101325.0894412566
101325.0537416325
101325.0244218586
101325.0024808888
101324.9888975023
101324.984466744
101324.9899381034
101325.0058915735
101325.0327936466
101325.0704829236
101325.1174465441
101325.1701049382
101325.2246822547
101325.2794685812
101325.334263938
101325.3889630321
101325.4435278051
101325.4976750525
101325.5511889157
101325.6035563599
101325.6543089011
101325.7026671839
101325.7479012305
101325.7889999786
101325.8250567328
101325.8549675208
101325.8778332151
101325.8926552106
101325.8987066683
101325.8951842969
101325.8815444652
101325.8572038464
101325.8221563949
101325.7773644594
101325.7259342455
101325.671765586
101325.6171981885
101325.5625864738
101325.5080471618
101325.4536195403
101325.3995070209
101325.3459405363
101325.2933283981
101325.2421432972
101325.1930552629
101325.1468074364
101325.1043274976
101325.0665787863
101325.0346474636
101325.0095772718
101324.9924518109
101324.9842416697
101324.985918031
101324.9983156197
101325.0221475846
101325.0574734667
101325.1029078034
101325.1547828653
101325.2089555292
101325.2634161929
101325.317889106
101325.3722837926
101325.4265694631
101325.4805016861
101325.5338932712
101325.58629527
101325.6372933425
101325.6861936637
101325.7323335517
101325.7747849672
101325.8126847498
101325.8449617387
101325.8706826088
101325.8887823674
101325.8983927639
101325.8985464411
101325.8884870421
101325.8674265379
101325.8351235549
101325.7923231723
101325.742010385
101325.6883532624
101325.6341103353
101325.5798106544
101325.525570775
101325.4714168499
101325.4175230989
101325.3640874529
101325.3114653896
101325.2600726406
101325.2105041435
101325.1634297022
101325.1196986329
101325.0802169493
101325.0460331694
101325.0182018537
101324.9978610741
101324.9860988802
101324.9840465156
101324.9927446456
101325.01313446
101325.0455507206
101325.0889098877
101325.1396883551
101325.1933929363
101325.2475441279
101325.3017156974
101325.3558258314
101325.4098502365
101325.4635783243
101325.516847302
101325.569260927
101325.6204502036
101325.6697936135
101325.7166875564
101325.7602799946
101325.7997553545
101325.8340868832
101325.8623353684
101325.8834059865
101325.896338873
101325.900052547
101325.8936261389
101325.8760936756
101325.8469666926
101325.8066694867
101325.7578611714
101325.7048479388
101325.6509281543
101325.596920818
101325.5429626841
101325.489067675
101325.4353845726
101325.3820835411
101325.329475305
101325.2779280005
101325.2279722932
101325.1802150407
101325.1354335996
101325.0944764645
101325.0583445108
101325.0280800555
101325.0048386167
101324.9897768164
101324.9841295342
101324.9890887357
101325.005786295
101325.0348422831
101325.0755889029
101325.1248793557
101325.1779928432
101325.2318349955
101325.2857185391
101325.3395556677
101325.3933281994
101325.4468557164
101325.4999968113
101325.5524002907
101325.6037359196
101325.6534435617
101325.700971824
101325.7455364677
101325.7863698464
101325.8224945737
101325.8529834794
101325.8767383627
101325.8927475665
101325.899858788
101325.8970344845
101325.8831680602
101325.8575422657
101325.8202157054
101325.7733572121
101325.7212010713
101325.6676295437
101325.6139018564
101325.5602143526
101325.5065700398
101325.4530954611
101325.3999363629
101325.3473644678
101325.2957075712
101325.245440832
101325.1971162857
101325.151446226
101325.109223968
101325.0713981438
101325.0389841103
101325.0131292709
101324.9950208059
101324.9859515976
101324.987214972
101325.0000884998
101325.0254531935
101325.0630992083
101325.1104448891
101325.1627648971
101325.2162771844
101325.2698815573
101325.3234524614
101325.3769770585
101325.4303024145
101325.483306629
101325.535677906
101325.5871199304
101325.6371257562
101325.6851900077
101325.7305889755
101325.7726016198
101325.8103009146
101325.8427833114
101325.8689650102
101325.8878121048
101325.8981358176
101325.8988225822
101325.8886641752
101325.8667511732
101325.8327845525
101325.7883469394
101325.7373530805
101325.6841963942
101325.6307422917
101325.5773180382
101325.5239201098
101325.4706555467
101325.417648035
101325.3651348408
101325.3134085578
101325.2628956217
101325.2140997753
101325.1676745333
101325.1243610381
101325.0850543369
101325.0507338158
101325.0225214676
101325.0016081384
101324.9893099655
101324.9869802151
101324.9959981452
101325.0174613976
101325.0516000216
101325.0965097295
101325.1477392809
101325.200865096
101325.2541953042
101325.3075042022
101325.3607818104
101325.4139005335
101325.4667565206
101325.5190730118
101325.5705843724
101325.6208303751
101325.6693469593
101325.7154648365
101325.7585071893
101325.7975970115
101325.8318609531
101325.8602414199
101325.8817030815
101325.8950461095
101325.8991131803
101325.8926297203
101325.8745377329
101325.8442235919
101325.8026627061
101325.753223691
101325.7006112172
101325.6474346479
101325.5942680861
101325.5411143944
101325.4880634257
101325.4352185011
101325.3827859898
101325.3310271185
101325.2803249047
101325.2311398423
101325.1840719973
101325.1398134582
101325.0992060704
101325.0631881213
101325.0328451793
101325.0093532644
101324.9940263688
101324.9882456585
101324.9934531411
101325.0109125571
101325.0412369158
101325.0832271696
101325.1329740321
101325.1855999713
101325.2386542628
101325.29170426
101325.3447344535
101325.397640776
101325.4503359942
101325.5025752279
101325.5541209277
101325.6045548276
101325.6534504024
101325.7001878844
101325.7441323763
101325.7844554276
101325.8203176742
101325.8506950981
101325.8745651136
101325.8907349643
101325.8980279402
101325.8951325488
101325.8808843689
101325.854414865
101325.816132569
101325.7687042477
101325.7168501247
101325.6639743962
101325.61106126
101325.5581505716
101325.5053174945
101325.4526464298
101325.4003156096
101325.3485580888
101325.2977173319
101325.2482148212
101325.2006014205
101325.1555232176
101325.113770033
101325.0762363659
101325.0439648085
101325.0181040005
101324.9999482264
101324.9908822236
101324.9923793109
101325.0058205967
101325.03212815
101325.0707649216
101325.1185619069
101325.1704936654
101325.2232550761
101325.2760489863
101325.3288307963
101325.3815187359
101325.4340404069
101325.486180729
101325.5377277328
101325.5883018451
101325.6375107461
101325.6847806561
101325.7295160445
101325.7709356038
101325.8082356326
101325.8404302698
101325.8665190493
101325.8853286825
101325.8956810806
101325.8962507503
101325.8858037071
101325.8632783693
101325.8285955318
101325.7836567565
101325.7328730094
101325.6803579223
101325.6276959181
101325.5750272898
101325.5224164511
101325.4699300015
101325.4177205946
101325.3659955484
101325.3150619427
101325.2653056568
101325.2172317872
101325.1714433687
101325.1286794564
101325.0897901343
101325.0557708579
101325.0277352629
101325.006945278
101324.9947721317
101324.9926954571
101325.0021721142
101325.0243571231
101325.0592872844
101325.104631164
101325.155574977
101325.2079963825
101325.2605358929
101325.3130685968
101325.3655325332
101325.41786861
101325.4698894123
101325.5214070025
101325.5720773559
101325.6215402475
101325.6692645415
101325.7146922853
101325.7570873806
101325.7956827119
101325.8295330388
101325.857666014
101325.878936304
101325.8921770702
101325.8960665305
101325.8893304292
101325.8707707833
101325.8399148897
101325.7979219318
101325.7486132991
101325.6965788325
101325.6441714838
101325.5917439624
101325.5393591508
101325.4870670883
101325.4349971366
101325.3833329195
101325.3323477602
101325.2823946615
101325.2339360232
101325.1875341908
101325.1438792745
101325.1037768773
101325.068173539
101325.0381427518
101325.0149059638
101324.9998084755
101324.9943177727
101324.9999323901
101325.0179719264
101325.04893914
101325.091338408
101325.1408993211
101325.1928806456
101325.245163216
101325.2974466468
101325.3496818244
101325.4018212343
101325.4537035849
101325.5051632386
101325.5558895003
101325.6055521577
101325.6536603225
101325.6996916686
101325.7429538017
101325.7827161633
101325.8180755637
101325.8480913547
101325.8716518526
101325.8876103757
101325.89466174
101325.8915140417
101325.8768799828
101325.849986752
101325.8113340892
101325.7639711686
101325.7126214952
101325.6604883519
101325.608300582
101325.5561448292
101325.5040556826
101325.4521413773
101325.4005636007
101325.3495641495
101325.2994655345
101325.2506899965
101325.2037614464
101325.1593227664
101325.1181358265
101325.0810975051
101325.0492382294
101325.0237335436
101325.0058944023
101324.9971624839
101324.9990515979
101325.0129887748
101325.039834871
101325.0788537898
101325.1265567693
101325.1779179629
101325.2299294644
101325.28196422
101325.3339668789
101325.3858998052
101325.4376265547
101325.4890021512
101325.539747311
101325.5895601222
101325.6379878397
101325.6845421291
101325.7285727754
101325.7693855105
101325.8061196497
101325.8378684594
101325.8635575188
101325.8820665932
101325.8921161699
101325.8924135815
101325.8816193134
101325.8587432002
101325.8237389078
101325.7788146354
101325.7284541733
101325.6766471541
101325.6246984601
101325.5727737649
101325.5208945059
101325.4691499648
101325.4176814452
101325.3667010947
101325.316503155
101325.2674717976
101325.2200946845
101325.1749690881
101325.1328143956
101325.0944777306
101325.0609450362
101325.0333424542
101325.0129411085
101325.001146873
101324.9994690353
101325.0093966916
101325.0320525384
101325.0673416302
101325.1126722632
101325.1631324502
101325.2148328033
101325.2666194882
101325.3183870089
101325.3701050883
101325.4216608653
101325.4729284155
101325.5236579851
101325.5735743263
101325.6222605793
101325.6692605371
101325.7139639808
101325.7557114624
101325.7936829786
101325.8270046951
101325.8546383966
101325.8754901838
101325.8883063724
101325.8917990628
101325.8845998659
101325.8655751805
101325.8342886251
101325.7922275926
101325.7434037983
101325.6923191377
101325.6409371444
101325.5895710329
101325.5382378348
101325.4870192325
101325.4360451739
101325.3855186901
101325.3357226908
101325.2870295594
101325.2399083287
101325.1949296488
101325.1527672517
101325.1141939903
101325.0800684235
101325.0513014239
101325.0287730979
101325.0131231
101325.0042805546
101325.0008055654
101325.0000636557
101325.0000014232
101325.0000000048
101324.999999999
101324.9999999989
101324.999999999
101324.9999999989
101324.999999999
101324.999999999
101324.9999999989
101324.9999999989
101324.999999999
101324.999999999
101324.9999999989
101324.9999999988
101324.999999999
101324.9999999989
101324.999999999
101324.999999999
101324.999999999
101324.9999999989
101324.9999999989
101324.999999999
101324.999999999
101324.999999999
101324.999999999
101324.9999999989
101324.999999999
101324.999999999
101324.9999999989
101324.999999999
101324.9999999989
101324.999999999
101324.9999999989
101324.999999999
101324.9999999989
101324.999999999
101324.9999999989
101324.999999999
101324.9999999989
101324.9999999989
101324.999999999
101324.9999999989
101324.999999999
101324.999999999
101324.999999999
101324.999999999
101324.9999999989
101324.999999999
101324.999999999
101324.999999999
101324.999999999
101324.999999999
101324.999999999
101324.999999999
101324.999999999
101324.9999999989
101324.999999999
101324.9999999989
101324.9999999991
101324.9999999988
101324.9999999989
101324.9999999989
101324.9999999989
101324.999999999
101324.999999999
101324.9999999989
101324.999999999
101324.999999999
101324.999999999
101324.9999999989
101324.9999999989
101324.999999999
101324.9999999989
101324.999999999
101324.9999999989
101324.9999999989
101324.9999999989
101324.9999999989
101324.9999999989
101324.999999999
101324.9999999988
101324.9999999989
101324.9999999989
101324.9999999989
101324.9999999989
101324.9999999989
101324.9999999989
101324.9999999989
101324.9999999989
101324.9999999989
101324.9999999988
101324.9999999989
101324.9999999988
101324.9999999989
101324.9999999989
101324.9999999988
101324.9999999989
101324.9999999989
101324.9999999988
101324.9999999989
101324.9999999988
101324.9999999988
101324.9999999988
101324.9999999988
101324.9999999988
101324.9999999988
101324.9999999987
101324.9999999987
101324.9999999988
101324.9999999986
101324.9999999987
101324.9999999987
101324.9999999987
101324.9999999987
101324.9999999987
101324.9999999987
101324.9999999987
101324.9999999987
101324.9999999987
101324.9999999986
101324.9999999987
101324.9999999987
101324.9999999986
101324.9999999986
101324.9999999987
101324.9999999987
101324.9999999988
101324.9999999987
101324.9999999988
101324.9999999987
101324.9999999988
101324.9999999987
101324.9999999987
101324.9999999988
101324.9999999988
101324.9999999987
101324.9999999987
101324.9999999987
101324.9999999987
101324.9999999987
101324.9999999986
101324.9999999987
101324.9999999987
101324.9999999986
101324.9999999986
101324.9999999987
101324.9999999986
101324.9999999986
101324.9999999987
101324.9999999987
101324.9999999987
101324.9999999987
101324.9999999987
101324.9999999986
101324.9999999986
101324.9999999987
101324.9999999986
101324.9999999986
101324.9999999987
101324.9999999986
101324.9999999986
101324.9999999987
101324.9999999986
)
;

boundaryField
{
    inlet
    {
        type            calculated;
        value           uniform 101325.0000001021;
    }
    outlet
    {
        type            calculated;
        value           uniform 101324.9999999986;
    }
    frontAndBack
    {
        type            empty;
    }
}


// ************************************************************************* //
