/*--------------------------------*- C++ -*----------------------------------*\
| =========                 |                                                 |
| \\      /  F ield         | OpenFOAM: The Open Source CFD Toolbox           |
|  \\    /   O peration     | Version:  v2012                                 |
|   \\  /    A nd           | Website:  www.openfoam.com                      |
|    \\/     M anipulation  |                                                 |
\*---------------------------------------------------------------------------*/
FoamFile
{
    version     2.0;
    format      ascii;
    class       volScalarField;
    location    "0.006";
    object      rho;
}
// * * * * * * * * * * * * * * * * * * * * * * * * * * * * * * * * * * * * * //

dimensions      [1 -3 0 0 0 0 0];


internalField   nonuniform List<scalar> 
1000
(
1.176302378538517
1.176326000858459
1.176272161600553
1.176228730755359
1.176177891147805
1.176131388917812
1.176091976045478
1.176058891360583
1.176030353165368
1.176010352404786
1.176004267559741
1.176003904171637
1.176006187310525
1.176013688469889
1.176029228498296
1.176053460819561
1.176085497016064
1.176123798821433
1.176167070426511
1.176214437114976
1.176265210101388
1.176318662034162
1.176373939999463
1.176430044726941
1.176485845345507
1.176540175861758
1.176592033726197
1.176640849665587
1.176686696357118
1.176729945987774
1.176769381407954
1.176798911034393
1.176811465820136
1.176812972822595
1.176812457463153
1.176810691394397
1.176805290052268
1.176794308451611
1.176775768023926
1.17674859120797
1.176712922040331
1.17667004043719
1.176621782916601
1.176569881274298
1.176515631386713
1.176459962640057
1.176403674730717
1.176347611319505
1.176292672483091
1.1762396071421
1.176188644348909
1.176139425679701
1.17609213782923
1.176050527641444
1.176023571117818
1.176015042178139
1.176014500218047
1.176014729362365
1.176016607345262
1.176021245209577
1.176030577243254
1.176046341603447
1.176069939978621
1.176102006400823
1.176142197834828
1.176189242756359
1.176241284269551
1.176296377649623
1.176352885844986
1.176409599091565
1.176465658276412
1.176520521815627
1.176574072257681
1.176626646707118
1.176678585152205
1.176728771972582
1.176771829783747
1.176797987658934
1.17680553416341
1.176806019897499
1.176805557531216
1.176804123033166
1.176800175600288
1.1767923375561
1.17677896792804
1.176758590684978
1.176730160126416
1.176693362703613
1.176648762408969
1.176597729183396
1.176542175337038
1.176484176450287
1.176425567593185
1.176367623599765
1.176310915471154
1.176255352877874
1.176200404789882
1.176145759522732
1.176093204009452
1.176049807188058
1.176025943986351
1.176020272128264
1.176020108582108
1.176020358642948
1.176021882652246
1.176025535148293
1.176032737910923
1.176044923645928
1.176063489146439
1.176089539556318
1.176123654781416
1.176165684813925
1.176214671762832
1.176268976830963
1.176326593922896
1.176385545190139
1.176444264309707
1.17650190854542
1.176558492986529
1.176614646944894
1.176670712428988
1.176724739511068
1.176769508824482
1.176794525479923
1.176800836267442
1.176801173455411
1.176800809599603
1.176799665328983
1.176796574365956
1.17679044400547
1.176779925512853
1.17676366256446
1.176740442297478
1.176709424843221
1.176670348289359
1.176623664561415
1.17657056702354
1.176512851862707
1.176452568824246
1.176391529991333
1.176330874363252
1.176270896276804
1.176211290504424
1.176152107269549
1.176096078565448
1.176051725746081
1.176029210349488
1.176024454072441
1.176024351592434
1.176024568929324
1.176025812847658
1.176028780414297
1.176034617595657
1.176044528968464
1.17605977157059
1.176081494252559
1.1761105699384
1.176147400531514
1.176191755271409
1.176242720810342
1.176298803222662
1.17635817610326
1.176419057715458
1.176480152797204
1.176540961664545
1.176601641936563
1.176662061115323
1.176719585115937
1.176766080138541
1.176791031657425
1.176797019887144
1.176797329555759
1.176797043525057
1.176796137836174
1.176793664351719
1.176788723889267
1.176780175629339
1.176766812874882
1.176747451851999
1.176721094385634
1.176687096626707
1.176645324164042
1.176596269087647
1.176541065171679
1.176481315881772
1.17641872884459
1.176354686322795
1.176289965030046
1.176224868831976
1.176160229437886
1.176099969285579
1.176053994831912
1.176032099770053
1.176027859272123
1.176027780192962
1.176027963065562
1.176028994245651
1.176031452308671
1.176036294041249
1.176044550409652
1.176057340384002
1.176075762108842
1.176100774146401
1.176133038905579
1.176172766480693
1.17621961666887
1.176272696365658
1.17633066966776
1.176392008601007
1.176455371754547
1.176519941774592
1.176585373288949
1.176650882886726
1.176712926758379
1.176762214625333
1.176787900962855
1.176793860781339
1.176794167714939
1.176793939338542
1.176793213492872
1.176791198029989
1.176787139716499
1.176780060864618
1.176768893832182
1.176752533109503
1.176729951563489
1.176700329190213
1.17666318694262
1.176618514992402
1.17656684675047
1.176509197795279
1.176446838388425
1.176380975579221
1.176312513649086
1.176242180450395
1.176171593021945
1.176106031588963
1.176057116857476
1.176034801074171
1.176030713876087
1.176030634306639
1.176030785781275
1.176031649212115
1.176033714709475
1.176037796567141
1.176044786109641
1.176055676545938
1.176071487490278
1.176093180929436
1.17612153994638
1.176157036427058
1.176199729814286
1.176249223572187
1.176304697229745
1.176365053952432
1.176429197387095
1.176496306743045
1.176565780286185
1.176636329661073
1.176703567513598
1.176756951143198
1.176784674782352
1.176791131175108
1.17679148299447
1.176791302782558
1.17679072250096
1.17678906529915
1.176785690690916
1.176779751747023
1.176770304425328
1.17675633567773
1.17673684600428
1.176710943951358
1.176677952085331
1.176637521541817
1.176589719084323
1.176535020171578
1.176474177511714
1.176408016468463
1.176337287568439
1.176262850704018
1.176186818462814
1.176115505213359
1.176062131911789
1.176037753894877
1.176033229635078
1.176033108571802
1.176033225423073
1.176033941060636
1.176035678899417
1.176039146798821
1.176045124275102
1.176054495218338
1.176068194515004
1.176087149383613
1.176112187318856
1.176143930670129
1.176182708199686
1.17622850008899
1.176280930368061
1.176339346908908
1.176403010213296
1.176471286055573
1.176543550186996
1.176618293174037
1.176690687645175
1.176749316769645
1.176780813366932
1.176788618607997
1.176789113920327
1.17678897670103
1.176788525878445
1.176787169017812
1.176784353885892
1.176779336391237
1.176771277617892
1.176759255495885
1.17674232296247
1.176719574294048
1.176690224621007
1.176653703854035
1.176609737326877
1.17655836161955
1.176499854917415
1.176434621733099
1.176363129665374
1.176286142029894
1.176205875945987
1.17612901492878
1.176069793217367
1.176041356194817
1.176035576689822
1.176035344907344
1.176035424798622
1.176036001985699
1.176037447487965
1.176040390802759
1.176045522691834
1.176053636336021
1.176065587185333
1.176082252509494
1.176104462392027
1.176132919401977
1.17616812784094
1.176210340053562
1.176259530188645
1.17631543280533
1.17637766641975
1.176445854945747
1.176519502460534
1.176597155979542
1.176674072495376
1.176738666507008
1.176775781000245
1.176786119256421
1.17678694744201
1.17678684904147
1.176786516557861
1.176785422368066
1.176783085700371
1.176778842053681
1.176771939417219
1.17676153743886
1.17674674861389
1.176726682570413
1.176700503566367
1.176667504111229
1.176627172182187
1.176579213968407
1.176523522965452
1.176460127369183
1.17638918382286
1.176311221953155
1.176228230573807
1.176146572199405
1.176080617038156
1.17604607176682
1.176037913541557
1.17603743310852
1.17603747781256
1.176037926654815
1.17603910424852
1.176041583061715
1.176045982618364
1.17605302276506
1.176063489795697
1.17607820851887
1.176097990740778
1.176123576222009
1.176155578943321
1.176194439151544
1.176240389893223
1.176293472214902
1.176353613937247
1.176420698613043
1.17649443139187
1.176573608099339
1.176654004986043
1.176724649600482
1.17676897720505
1.176783383354777
1.176784906377083
1.176784847832579
1.17678462185497
1.176783758962932
1.176781841229577
1.176778265280018
1.176772350412794
1.176763326508454
1.17675036383903
1.176732601046085
1.176709186004138
1.176679332144756
1.176642370858163
1.176597773710919
1.176545145208679
1.17648421018657
1.17641483797218
1.176337268098286
1.176253061418878
1.176167758980627
1.176094935747361
1.17605249465642
1.17604044495551
1.176039429783218
1.176039440855587
1.176039775893842
1.17604070920972
1.17604277079389
1.176046521913221
1.176052623374671
1.176061803194776
1.17607483702748
1.176092509553384
1.176115572408617
1.176144704321481
1.176180469498816
1.176223283387787
1.176273416308343
1.176331042547925
1.17639627342695
1.176469031657766
1.176548453368815
1.176631084440513
1.17670720281398
1.176759762083196
1.176780050274908
1.176782917509085
1.176782933216649
1.176782796023907
1.176782133908415
1.176780585113677
1.176777593735299
1.176772538265847
1.176764708032006
1.176753325898774
1.176737564733151
1.176716576618271
1.176689535243285
1.17665567447044
1.176614307223232
1.176564832405704
1.176506745204505
1.176439672476905
1.176363564092871
1.176279482820758
1.176191898780928
1.176112837347747
1.17606130348439
1.176043490221064
1.176041379204758
1.176041347563377
1.176041585288406
1.176042300567496
1.176043987991606
1.176047159124766
1.176052427159389
1.176060471136552
1.176072022697092
1.176087836832573
1.176108662711191
1.176135213919731
1.176168132465381
1.176207957477595
1.176255124350467
1.176309993924494
1.176372862012893
1.176443852464273
1.176522454756899
1.176606056542225
1.17668655786499
1.176747573590763
1.176775591799764
1.17678089029548
1.176781082336323
1.176781010797022
1.176780520035026
1.176779294351398
1.176776817131115
1.176772517563599
1.176765735280534
1.176755740005053
1.176741740009326
1.176722903604197
1.176698390415312
1.176667378043598
1.176629077357147
1.176582747627169
1.176527717706187
1.176463421218805
1.176389550853664
1.176306690190397
1.176218199407834
1.176134114725535
1.17607313265267
1.176047536604738
1.176043344008615
1.176043219166346
1.176043374518426
1.176043899862092
1.176045255532145
1.176047907213595
1.176052429313783
1.176059459177781
1.176069689476008
1.176083845902953
1.176102667298759
1.176126882560432
1.176157179454789
1.176194178287445
1.176238430044179
1.17629043147244
1.17635061996912
1.176419289606831
1.176496250100084
1.176579679468749
1.176663196359987
1.176732068910339
1.176769339175519
1.176778649906879
1.176779278673152
1.176779252605203
1.176778901682704
1.176777956699637
1.176775930890489
1.176772299514185
1.176766445464469
1.176757680110214
1.176745246632888
1.176728336405481
1.176706111235466
1.176677720451553
1.176642313531957
1.176599059545151
1.176547171134023
1.176485934160261
1.176414829689332
1.176334026900464
1.176245870827613
1.176158293191305
1.176088406247709
1.176053241269962
1.176045477240188
1.17604505425678
1.17604515377071
1.176045518256166
1.176046583331574
1.176048771811899
1.176052624621798
1.176058742622897
1.176067783888407
1.17608044633894
1.176097454262801
1.176119539205472
1.17614741312896
1.176181747890077
1.176223173415443
1.176272282160502
1.176329615989876
1.176395605405663
1.176470327403256
1.176552634679423
1.176637753746642
1.17671322658124
1.176760574502957
1.176775871808272
1.176777497382664
1.176777514916158
1.176777273753622
1.176776567894154
1.176774936081987
1.176771895886903
1.176766868045327
1.176759201556623
1.176748173420096
1.176733001739824
1.1767128604771
1.176686889410489
1.176654205320184
1.176613922845501
1.176565176251496
1.176507142332546
1.176439137511668
1.176360996117756
1.176274205407343
1.176184720531375
1.176107224233226
1.176061367362536
1.176048048746971
1.176046867286986
1.176046924044156
1.176047158402185
1.176047974117281
1.176049752207861
1.176053005296115
1.176058300674566
1.17606626529773
1.176077571095354
1.176092925467352
1.176113054438866
1.176138680048996
1.176170505505395
1.176209212991171
1.176255459981165
1.176309863215254
1.176372958797954
1.176445034634913
1.1765254827424
1.176610911885264
1.176691347032728
1.176748685719149
1.176772037957517
1.176775689068956
1.176775789738314
1.176775636072388
1.176775130084709
1.176773838273351
1.176771320039314
1.176767029002893
1.176760348779442
1.176750589080338
1.176736996494982
1.17671876309968
1.176695031659674
1.176664906303892
1.176627472477864
1.176581813859132
1.176527029752863
1.176462314413485
1.176387243830675
1.176302617824681
1.176212681323386
1.176129341454274
1.176072613836534
1.176051518773934
1.176048701154587
1.176048684780009
1.176048816831107
1.176049424529275
1.176050843046894
1.17605356076558
1.176058113679698
1.176065100216126
1.176075167855421
1.176089005736675
1.176107329120333
1.176130861078424
1.176160322457135
1.176196428339765
1.176239878471599
1.176291342160955
1.176351435309124
1.176420605177773
1.176498654880344
1.176583312137854
1.176666970300749
1.17673333437727
1.176766460970883
1.176773696886958
1.17677408596084
1.176773989714153
1.176773647681291
1.17677264625622
1.176770586622011
1.176766952267132
1.1767611592317
1.176752548850803
1.176740396805601
1.176723916766831
1.176702262980779
1.176674540812549
1.176639823938475
1.176597165666792
1.176545613110643
1.176484273989377
1.176412531254564
1.176330653652623
1.176241491766594
1.176154233940653
1.176087437443787
1.176056561122734
1.17605066013064
1.176050427991561
1.176050492056525
1.176050928431406
1.176052035506675
1.176054278344718
1.176058162190698
1.176064259281987
1.176073193730971
1.176085635429946
1.17610228556962
1.176123862577788
1.176151095492523
1.176184718194768
1.176225456305707
1.176274015540813
1.176331070797602
1.17639718520975
1.176472464306403
1.176555502831142
1.176640759134635
1.176714540001895
1.176758372878429
1.176771230783585
1.176772394400829
1.176772340404019
1.176772127620342
1.176771370099086
1.176769711223492
1.176766660619127
1.176761665918033
1.176754099043564
1.17674326463555
1.176728399990361
1.176708676684012
1.176683210793343
1.176651076046196
1.176611310186715
1.176562928220052
1.17650497972739
1.176436706707765
1.176357978503466
1.176270557576515
1.176181219412642
1.176105938610811
1.176063967075075
1.176052976373479
1.176052158320103
1.176052177007989
1.176052479244257
1.17605331924917
1.176055143860111
1.176058426865243
1.17606371571139
1.176071611879814
1.176082765276536
1.176097860999611
1.176117609235768
1.17614274045216
1.176173997051496
1.176212119087235
1.176257837151133
1.176311868508956
1.176374857404692
1.176447126050054
1.176527920210981
1.176613386780222
1.176692653562708
1.176747118297583
1.176767803352604
1.176770669089856
1.17677069487753
1.176770580140046
1.176770022226519
1.17676871028087
1.176766176580632
1.176761899484289
1.176755280520733
1.176745652798876
1.176732278447339
1.176714350430475
1.17669100185304
1.176661314486961
1.17662432160281
1.176579021869873
1.176524428459191
1.176459682443018
1.176384359138521
1.176299399657345
1.176209579794223
1.176127842707205
1.176074480058933
1.176056084198777
1.176053899713949
1.176053867011121
1.176054066513293
1.176054683062278
1.17605614389711
1.176058891564935
1.176063450668215
1.176070400496724
1.176080371272543
1.176094032502016
1.176112085844151
1.176135260703382
1.176164304731251
1.176199971163089
1.176243015114441
1.176294191313288
1.176354206809609
1.176423537899256
1.176501876087997
1.176586553489325
1.176669024741639
1.176731994885645
1.176761062564258
1.176766601704712
1.176766813466622
1.176766745045177
1.176766300375661
1.176765170959317
1.176762886826783
1.176758929920217
1.176752709058368
1.176743577642341
1.176730845315392
1.176713797784728
1.176691726422209
1.176663976188925
1.176630036226972
1.176589748644149
1.176543848692262
1.176495282644896
1.17645136983798
1.176422928048446
1.176413046088232
1.176411759382984
1.176411716423212
1.176411716172328
1.17641171617215
1.176411716172155
1.176411716172153
1.176411716172153
1.176411716172155
1.176411716172154
1.176411716172155
1.176411716172157
1.176411716172155
1.176411716172155
1.176411716172155
1.176411716172155
1.176411716172155
1.176411716172155
1.176411716172157
1.176411716172155
1.176411716172155
1.176411716172155
1.176411716172155
1.176411716172155
1.176411716172157
1.17641171617216
1.176411716172156
1.176411716172161
1.176411716172161
1.176411716172159
1.176411716172159
1.176411716172159
1.17641171617216
1.176411716172161
1.176411716172162
1.176411716172158
1.176411716172162
1.176411716172164
1.176411716172163
1.176411716172163
1.176411716172166
1.176411716172166
1.176411716172164
1.176411716172162
1.176411716172162
1.176411716172159
1.176411716172159
1.176411716172159
1.17641171617216
1.17641171617216
1.176411716172159
1.17641171617216
1.176411716172156
1.17641171617216
1.17641171617216
1.176411716172156
1.176411716172155
1.17641171617216
1.176411716172158
1.176411716172161
1.176411716172157
1.17641171617216
1.176411716172159
1.176411716172159
1.17641171617216
1.17641171617216
1.176411716172159
1.17641171617216
1.17641171617216
1.17641171617216
1.176411716172158
1.176411716172157
1.176411716172156
1.176411716172154
1.176411716172152
1.176411716172155
1.176411716172154
1.176411716172156
1.176411716172153
1.176411716172155
1.176411716172156
1.176411716172154
1.176411716172155
1.176411716172154
1.176411716172155
1.176411716172155
1.176411716172154
1.176411716172155
1.176411716172155
1.176411716172155
1.176411716172155
1.17641171617215
1.176411716172155
1.176411716172151
1.176411716172152
1.176411716172153
1.176411716172154
1.176411716172149
1.176411716172151
1.176411716172149
1.176411716172149
1.176411716172149
1.176411716172148
1.176411716172148
1.176411716172148
1.176411716172148
1.176411716172151
1.176411716172147
1.176411716172154
1.176411716172154
1.176411716172154
1.176411716172151
1.176411716172153
1.176411716172155
1.176411716172155
1.176411716172153
1.176411716172155
1.176411716172156
1.17641171617216
1.176411716172159
1.176411716172158
1.17641171617216
1.176411716172157
1.176411716172155
1.176411716172154
1.176411716172155
1.176411716172156
1.176411716172155
1.176411716172154
1.176411716172159
1.17641171617216
1.17641171617216
1.176411716172161
1.176411716172157
1.17641171617216
1.17641171617216
1.176411716172157
1.176411716172157
1.17641171617216
1.17641171617216
1.17641171617216
1.17641171617216
1.176411716172157
1.176411716172157
1.176411716172156
1.176411716172154
1.176411716172156
1.176411716172155
1.176411716172154
1.176411716172152
1.176411716172155
1.176411716172155
1.176411716172155
1.176411716172155
1.176411716172156
1.17641171617216
1.17641171617216
1.17641171617216
1.176411716172159
1.176411716172161
1.176411716172159
1.176411716172157
1.176411716172155
1.176411716172154
)
;

boundaryField
{
    inlet
    {
        type            calculated;
        value           uniform 1.176411716172193;
    }
    outlet
    {
        type            calculated;
        value           uniform 1.176411716172154;
    }
    frontAndBack
    {
        type            empty;
    }
}


// ************************************************************************* //
