/*--------------------------------*- C++ -*----------------------------------*\
| =========                 |                                                 |
| \\      /  F ield         | OpenFOAM: The Open Source CFD Toolbox           |
|  \\    /   O peration     | Version:  v2012                                 |
|   \\  /    A nd           | Website:  www.openfoam.com                      |
|    \\/     M anipulation  |                                                 |
\*---------------------------------------------------------------------------*/
FoamFile
{
    version     2.0;
    format      ascii;
    class       volScalarField;
    location    "0.006";
    object      T;
}
// * * * * * * * * * * * * * * * * * * * * * * * * * * * * * * * * * * * * * //

dimensions      [0 0 0 1 0 0 0];


internalField   nonuniform List<scalar> 
1000
(
299.9881735061655
299.9899703844868
299.983643667311
299.9789658803694
299.9744687574747
299.9705585395458
299.9669903530569
299.9637695346327
299.9609280647508
299.9589796638539
299.9584466182558
299.9585196873224
299.9588605948704
299.9596376348941
299.9611776571919
299.9635945007781
299.9668111919774
299.9706722091587
299.9750459494675
299.9798452093594
299.9850023362312
299.9904446595423
299.9960846633847
300.0018180231412
300.0075259335903
300.0130858728716
300.0183925962984
300.0233860423037
300.0280725155908
300.0324895923175
300.0365137124566
300.0395245027111
300.0408009670419
300.0409505300629
300.040893666516
300.0407090454971
300.04015630764
300.0390357830412
300.0371446241854
300.0343727191575
300.0307344732033
300.0263601136691
300.0214367665196
300.016141010255
300.0106050598696
300.0049238205665
299.9991790171192
299.9934568806532
299.9878493898681
299.9824330676029
299.9772313429085
299.972207644647
299.9673810014039
299.9631338401451
299.9603823982002
299.9595119094895
299.959456658707
299.9594801110482
299.9596718129206
299.9601451767875
299.96109770374
299.9627068198101
299.9651155830078
299.9683886833351
299.9724910646753
299.9772928912019
299.9826045841667
299.988227616346
299.9939948825813
299.9997829050885
300.0055040068483
300.0111029260084
300.0165676889986
300.0219327080418
300.0272326845651
300.0323537846126
300.0367473245784
300.0394163720968
300.040186384474
300.0402359518716
300.0401887800267
300.0400424164308
300.0396396418873
300.0388398840341
300.037475699299
300.0353964652707
300.0324954575356
300.0287406459364
300.0241895345187
300.0189818663225
300.0133127394982
300.0073939319404
300.0014126995639
299.9954991437563
299.9897115474089
299.9840407020172
299.9784324166943
299.9728548817837
299.9674904923178
299.9630608207044
299.9606249678793
299.9600460055568
299.9600293134807
299.9600548422129
299.9602104103681
299.9605832448956
299.9613184743618
299.9625623381152
299.9644574028656
299.9671164552536
299.9705986566398
299.974888653317
299.9798886254404
299.9854312589902
299.9913117663065
299.9973282639332
300.0033208898811
300.0092036441565
300.0149780762275
300.0207084132764
300.0264295568535
300.0319425342188
300.036510714225
300.0390633146305
300.039707238078
300.0397416451462
300.0397045212717
300.0395877675851
300.039272381097
300.0386468660455
300.0375735992868
300.035914177779
300.0335448282175
300.030379825259
300.0263924053725
300.0216286363471
300.0162102427862
300.0103204734061
300.0041684706242
299.9979391457875
299.9917487380158
299.9856272917909
299.9795436594202
299.973502968469
299.967784078351
299.9632568264628
299.9609585528431
299.9604730505661
299.9604625917323
299.9604847798091
299.9606117569265
299.9609146760987
299.9615105122519
299.9625222198567
299.964078103641
299.9662954177114
299.9692632410186
299.9730225625965
299.9775497850447
299.9827516359752
299.9884755902909
299.9945352028659
300.0007486073586
300.0069836051428
300.013189201888
300.01938148409
300.0255469304843
300.0314167575048
300.0361610352442
300.0387069936909
300.0393180071428
300.0393496073452
300.0393204254703
300.039228016815
300.038975635961
300.0384715339337
300.0375993036192
300.0362358119929
300.0342602588394
300.0315707728084
300.0281016261284
300.0238390627752
300.0188332482264
300.0131998274592
300.007102384704
300.0007151501887
299.9941791682608
299.9875736973119
299.980929743921
299.9743321931405
299.9681814144666
299.9634886423703
299.9612536931504
299.9608208418103
299.9608127729032
299.9608314448836
299.9609367081591
299.961187620431
299.9616818466019
299.9625246206532
299.9638301561195
299.9657105353011
299.9682635845779
299.9715568907632
299.9756118615659
299.9803937278647
299.9858112847594
299.9917281383803
299.9979883043103
300.004454854728
300.0110443585241
300.0177215587119
300.0244065021698
300.0307375719556
300.0357668398059
300.0383877809023
300.0389958976793
300.0390272201382
300.039003922448
300.0389298658027
300.0387242206338
300.0383101305197
300.0375878344336
300.0364483896259
300.0347789849768
300.0324747995559
300.0294521378731
300.0256620844304
300.0211035930027
300.0158310446922
300.0099480237545
300.0035841117419
299.9968624512093
299.9898752978312
299.9826969108396
299.9754923146136
299.9688004604545
299.9638075731203
299.9615296811999
299.961112479401
299.9611043612141
299.9611198293691
299.9612079704313
299.961418811863
299.9618354739315
299.9625489371778
299.9636605794017
299.9652744696611
299.9674887882742
299.9703834455352
299.9740065771577
299.9783642110011
299.9834158271811
299.9890776349223
299.9952376415918
300.0017839131275
300.0086326487647
300.0157224110135
300.022921702398
300.0297828165868
300.0352300291059
300.0380588536976
300.0387176397942
300.0387535425333
300.0387351595855
300.0386759561334
300.0385068666729
300.0381625392057
300.0375565553322
300.0365925851032
300.0351672541182
300.0331785648338
300.030535536542
300.0271690169459
300.0230433703113
300.0181653629835
300.012583460498
300.0063744199919
299.9996224166002
299.9924039937953
299.9848068637547
299.9770466059788
299.9697677082056
299.9643197371941
299.961831344574
299.9613695296125
299.9613571757752
299.9613691093371
299.9614421642102
299.9616195593886
299.9619735509522
299.9625837070032
299.9635402475577
299.9649385950132
299.9668733839551
299.9694290625544
299.9726691303107
299.97662711028
299.9813009373603
299.9866521891698
299.9926142556916
299.9991116121263
300.0060794819416
300.0134541113362
300.0210814222795
300.0284687878119
300.0344512751628
300.0376650864516
300.0384615032262
300.0385120468249
300.0384980499388
300.0384520553414
300.0383136108977
300.0380263694717
300.0375144062198
300.0366921186733
300.0354654170954
300.0337376572313
300.0314164064501
300.028421555219
300.0246948998436
300.0202083713132
300.0149656517955
300.0089950713701
300.002337847565
299.9950416342265
299.9871842663072
299.9789919673906
299.9711468769534
299.9651019725484
299.9621992609078
299.9616093151777
299.9615856589048
299.9615938185572
299.9616527401627
299.9618002940626
299.9621007374181
299.9626245790421
299.9634527804887
299.9646726570583
299.9663737472206
299.9686407669811
299.9715454087662
299.9751391183763
299.9794476148607
299.9844682138795
299.9901737710243
299.9965252946783
300.0034843423599
300.0110002411016
300.0189246540682
300.0267735390403
300.0333647265953
300.0371517833051
300.0382066579613
300.0382911655543
300.0382811284584
300.0382472075744
300.038135564095
300.0378971422593
300.0374641385785
300.0367598186703
300.035698432134
300.0341894138591
300.0321419008469
300.0294705970117
300.0261032835491
300.0219876764932
300.0170937475104
300.0114105711301
300.0049409579753
299.9977008184921
299.9897441226144
299.9812737702605
299.9729391062591
299.9662069520772
299.9626807519695
299.9618479956432
299.9617989573098
299.961803523868
299.9618493434951
299.9619695495197
299.9622225775815
299.9626716651549
299.9633902887256
299.9644587055022
299.9659611008004
299.9679803277708
299.9705918789123
299.9738583997615
299.9778247932513
299.9825148039114
299.9879325704961
299.9940706677038
300.0009171454158
300.0084418406662
300.0165217919801
300.0247259206204
300.0319345781375
300.0364576643899
300.0379276109227
300.0380830157346
300.0380770443174
300.0380539897193
300.0379659460434
300.0377702696561
300.0374053943113
300.0368018622441
300.0358810901944
300.0345584099304
300.0327459213618
300.0303566601947
300.0273103430936
300.0235387128849
300.0189878043591
300.0136172050388
300.0073987682389
300.0003190793802
299.9924024933167
299.9838082149323
299.9751017146659
299.9676685961817
299.9633364552046
299.9621064735342
299.9620028504633
299.9620039829099
299.9620381848856
299.9621334553006
299.962343893598
299.9627267908481
299.9633495974878
299.9642866228402
299.9656170361557
299.9674209239473
299.9697749939843
299.9727485046611
299.9763990160051
299.98076889415
299.9858856819934
299.9917671104028
299.9984244732578
300.0058498056008
300.013954863418
300.0223870849171
300.0301543752993
300.0355174412336
300.0375875719811
300.037880133691
300.0378817378574
300.0378677414928
300.0378001834842
300.0376421513924
300.0373369227385
300.0368210800483
300.03602210637
300.0348607010462
300.0332524581731
300.0311108457436
300.0283515289765
300.024896303531
300.0206750208244
300.0156262922733
300.0096985390967
300.0028536027679
299.9950862729023
299.9865049089909
299.9775656518976
299.9694958886376
299.9642356494066
299.962417350912
299.9622018682466
299.9621986398478
299.9622229074325
299.9622959210805
299.9624681661525
299.9627918604749
299.9633295945727
299.9641506791999
299.9653297920563
299.9669439909067
299.9690697341377
299.9717798415788
299.9751398184304
299.9792046592667
299.984018759536
299.9896188933429
299.9960351851234
300.0032801957363
300.011301735393
300.0198331273025
300.0280477644632
300.0342737723033
300.0371326560833
300.0376732932537
300.0376928892254
300.0376855909437
300.0376355166583
300.0375104530671
300.0372576866544
300.036818973142
300.0361269290166
300.0351070357702
300.0336785016548
300.0317564528106
300.0292551226622
300.0260905700922
300.0221822374139
300.0174544923922
300.0118387870014
300.0052772466101
299.9977384150762
299.9892817414803
299.9802500633438
299.9716676905108
299.9654430995068
299.9628303786017
299.9624024166998
299.9623896741995
299.9624055327686
299.9624591582366
299.9625975389559
299.9628682096604
299.9633298021677
299.9640473715833
299.9650916185612
299.9665366117832
299.9684577574957
299.9709294411275
299.9740218422081
299.9777982450564
299.9823148475608
299.9876222990982
299.9937651774366
300.0007734175974
300.0086275092177
300.0171414216815
300.0256638911362
300.0326916825611
300.0364946380276
300.0374446676634
300.0375088249857
300.0375061658559
300.0374703598144
300.0373739375046
300.0371672310603
300.0367966971739
300.0361993670266
300.0353049722069
300.034036284213
300.0323107842783
300.0300429311774
300.0271459025374
300.0235328808678
300.0191190345046
300.013823962133
300.0075747151298
300.0003182442394
299.9920717055768
299.9830743171624
299.9741355496485
299.9670020979842
299.9634126477713
299.9626201292637
299.9625769534848
299.9625871119035
299.9626243173795
299.9627330352928
299.9629564243588
299.9633496988486
299.9639741902033
299.9648970682572
299.9661895678311
299.9679256115365
299.970179857562
299.9730249582432
299.9765294635692
299.9807576330738
299.9857698890926
299.9916214758808
299.9983562557647
300.0059819969827
300.0143815148983
300.0230675987577
300.0307689827787
300.0356002739675
300.0371611527066
300.0373270201583
300.0373288096281
300.0373042027153
300.0372321794934
300.0370656748631
300.0367554629036
300.0362424364313
300.0354601672805
300.0343348785903
300.0327867807209
300.0307315749014
300.0280814674414
300.0247463084266
300.0206357170958
300.0156612997718
300.0097389837542
300.0027989233108
299.9948241041745
299.9859661936553
299.9768328935738
299.9689228474008
299.9642420640435
299.9628825596182
299.9627619616937
299.9627677554447
299.9627916778816
299.962874942107
299.9630564404106
299.9633884982119
299.9639290206872
299.9647420017861
299.9658960242569
299.96746328829
299.9695178906694
299.972133515105
299.9753819150878
299.979332688043
299.9840528972127
299.9896054337313
299.9960449423894
300.0034007195782
300.0116106182039
300.0203284675204
300.0285363255758
300.0343871141689
300.0367698969851
300.0371424421485
300.0371527142925
300.0371370349583
300.0370854058082
300.0369535935408
300.036696640616
300.0362587954405
300.0355771623897
300.0345813032271
300.0331943361668
300.0313338128043
300.0289122469686
300.0258382015069
300.0220183213689
300.0173590563723
300.0117684326878
300.0051641438794
299.9975028164241
299.9888659580523
299.9796866990779
299.9711803189821
299.9653899756892
299.9632366939384
299.9629490840139
299.9629474126851
299.962960891963
299.9630229227242
299.9631677174991
299.9634451274285
299.9639098631639
299.9646230071459
299.9656506472509
299.9670631209257
299.9689334279426
299.9713353598889
299.9743424738075
299.9780277291106
299.9824625080086
299.9877150720807
299.993848215611
300.0009075033215
300.0088727439328
300.0175119463951
300.0260488118034
300.0328206224411
300.0362007674637
300.0369390924502
300.0369787922143
300.0369689716044
300.0369340717425
300.036831889432
300.036621730458
300.0362508910417
300.0356597844235
300.0347811997906
300.0335412248667
300.0318596163464
300.0296500619654
300.0268212540137
300.0232786408286
300.0189255786592
300.0136647741306
300.0074050971455
300.000083480935
299.9917272363073
299.9826271725584
299.9737210234919
299.9669030028566
299.963751315115
299.9631489684961
299.96312527289
299.9631318123739
299.9631763552429
299.9632893595021
299.9635182960241
299.9639147369165
299.9645370916896
299.9654490635564
299.9667190263831
299.9684185453229
299.9706209400608
299.9734006066441
299.9768324267534
299.9809904280497
299.9859465930845
299.9917697430467
299.9985172740872
300.0061998619448
300.0146739923037
300.0233740650914
300.030902784898
300.0353754053421
300.0366873789628
300.0368061102015
300.0368006005571
300.0367788887889
300.0367015935739
300.0365323266833
300.0362210513929
300.0357114047526
300.0349392975957
300.0338337733918
300.0323170009399
300.030304438351
300.0277058738643
300.024426765019
300.0203688849377
300.0154316700333
300.0095180646225
300.0025506251827
299.9945159065663
299.9855936593987
299.9764753140843
299.9687913893717
299.9645071953617
299.9633853159172
299.9633018129294
299.9633037205022
299.9633345711414
299.9634203142105
299.9636065602821
299.9639416706225
299.9644815245357
299.9652875156919
299.9664259787333
299.9679668374911
299.9699825723417
299.9725477277465
299.9757380585007
299.9796290694426
299.9842952870595
299.9898098624272
299.9962384758936
300.0036139223767
300.011859126232
300.020580782358
300.0286694057655
300.0342269359984
300.0363375711304
300.036629980384
300.0366326116525
300.0366209041695
300.0365639762649
300.036430109001
300.0361715770596
300.0357351529273
300.0350597687096
300.0340773735123
300.0327126711396
300.0308833039239
300.0285008002048
300.0254714418988
300.0216965503192
300.0170739008273
300.0115027293706
300.0048953008328
299.9972081706644
299.9885372638615
299.9793698928682
299.9710270930867
299.9655802187618
299.9637024613069
299.9634794794595
299.9634761413129
299.9634965053732
299.9635594392285
299.9637085529623
299.9639890190123
299.9644543850695
299.9651637800395
299.9661815300578
299.9675759685679
299.9694187071182
299.9717841839288
299.9747486924795
299.9783890867646
299.9827824008079
299.9880056144346
299.9941308237697
300.0012065546613
300.0092012232125
300.0178424658042
300.0262581988841
300.0326836860755
300.0356496745435
300.0362148689445
300.0362364764151
300.0362294948584
300.0361841219457
300.0360688792346
300.0358358120871
300.0354320586502
300.0347972949219
300.0338655407387
300.0325663485712
300.0308268248696
300.0285746490094
300.0257429619442
300.022279609053
300.0181684452367
300.0134844616703
300.0085282874772
300.0040468647839
300.0011442402612
300.0001357261576
300.0000044099237
300.0000000256246
300.0000000000202
300.0000000000022
300.0000000000023
300.0000000000024
300.0000000000024
300.0000000000023
300.0000000000015
300.0000000000016
300.0000000000024
300.0000000000023
300.0000000000026
300.0000000000026
300.0000000000026
300.0000000000027
300.0000000000028
300.0000000000023
300.0000000000023
300.0000000000023
300.0000000000023
300.0000000000026
300.0000000000026
300.0000000000027
300.0000000000026
300.0000000000024
300.0000000000029
300.0000000000022
300.0000000000024
300.0000000000028
300.000000000003
300.0000000000032
300.0000000000029
300.0000000000027
300.0000000000031
300.0000000000033
300.0000000000032
300.0000000000021
300.000000000002
300.0000000000024
300.0000000000022
300.0000000000024
300.0000000000023
300.000000000003
300.000000000003
300.0000000000026
300.0000000000026
300.0000000000028
300.0000000000028
300.0000000000024
300.0000000000028
300.0000000000027
300.0000000000028
300.000000000003
300.0000000000027
300.000000000003
300.0000000000031
300.0000000000026
300.0000000000026
300.0000000000028
300.0000000000028
300.0000000000026
300.0000000000026
300.0000000000028
300.000000000003
300.0000000000032
300.0000000000028
300.0000000000028
300.0000000000028
300.0000000000027
300.0000000000025
300.0000000000024
300.0000000000024
300.0000000000025
300.0000000000016
300.0000000000011
300.0000000000009
300.0000000000011
300.000000000001
300.0000000000009
300.0000000000011
300.0000000000021
300.0000000000019
300.0000000000023
300.0000000000023
300.0000000000023
300.0000000000023
300.0000000000023
300.0000000000023
300.0000000000023
300.0000000000019
300.0000000000023
300.0000000000021
300.0000000000017
300.000000000002
300.0000000000019
300.0000000000018
300.0000000000019
300.0000000000018
300.0000000000018
300.0000000000018
300.0000000000016
300.0000000000018
300.0000000000016
300.0000000000016
300.0000000000021
300.0000000000016
300.0000000000015
300.0000000000015
300.0000000000015
300.000000000002
300.000000000002
300.0000000000023
300.0000000000023
300.0000000000022
300.0000000000023
300.0000000000013
300.0000000000013
300.0000000000011
300.0000000000014
300.0000000000013
300.0000000000014
300.0000000000023
300.0000000000023
300.0000000000023
300.0000000000024
300.0000000000023
300.0000000000023
300.0000000000027
300.0000000000028
300.0000000000028
300.0000000000033
300.0000000000032
300.0000000000028
300.0000000000028
300.0000000000029
300.0000000000032
300.0000000000028
300.0000000000028
300.0000000000028
300.000000000003
300.0000000000025
300.0000000000027
300.0000000000021
300.0000000000023
300.0000000000022
300.0000000000023
300.0000000000023
300.0000000000027
300.0000000000026
300.0000000000023
300.0000000000023
300.0000000000022
300.0000000000013
300.0000000000015
300.0000000000013
300.0000000000016
300.0000000000007
300.0000000000006
300.0000000000007
300.0000000000006
300.0000000000008
300.0000000000002
)
;

boundaryField
{
    inlet
    {
        type            fixedValue;
        value           uniform 300;
    }
    outlet
    {
        type            characteristicVelocityInletOutletTemperature;
        UName           U;
        pName           p;
        TName           T;
        phiName         phi;
        rhoName         rho;
        U               (0 0 0);
        p               101325;
        T               300;
        value           uniform 300.0000000000002;
    }
    frontAndBack
    {
        type            empty;
    }
}


// ************************************************************************* //
