/*--------------------------------*- C++ -*----------------------------------*\
| =========                 |                                                 |
| \\      /  F ield         | OpenFOAM: The Open Source CFD Toolbox           |
|  \\    /   O peration     | Version:  v2012                                 |
|   \\  /    A nd           | Website:  www.openfoam.com                      |
|    \\/     M anipulation  |                                                 |
\*---------------------------------------------------------------------------*/
FoamFile
{
    version     2.0;
    format      ascii;
    class       volVectorField;
    location    "0.006";
    object      U;
}
// * * * * * * * * * * * * * * * * * * * * * * * * * * * * * * * * * * * * * //

dimensions      [0 1 -1 0 0 0 0];


internalField   nonuniform List<vector> 
1000
(
(-0.001018437868222701 0 0)
(-0.03286202289337501 0 0)
(-0.04107863896044529 0 0)
(-0.05634220327541608 0 0)
(-0.07035834092806398 0 0)
(-0.08348463530547635 0 0)
(-0.0947046840879443 0 0)
(-0.1043086579189375 0 0)
(-0.1127030541421066 0 0)
(-0.1185882431926869 0 0)
(-0.1203040201660065 0 0)
(-0.1202111544702044 0 0)
(-0.1195483525354393 0 0)
(-0.1172890611987575 0 0)
(-0.1127456169840056 0 0)
(-0.1056387563007892 0 0)
(-0.09622318239556625 0 0)
(-0.08495088872309856 0 0)
(-0.07221057490418538 0 0)
(-0.05826024765446387 0 0)
(-0.04329193346233898 0 0)
(-0.02751494698258102 0 0)
(-0.01119434586261626 0 0)
(0.005363435224416907 0 0)
(0.02183836237615201 0 0)
(0.03790195706123896 0 0)
(0.05323665514471281 0 0)
(0.06763949683700704 0 0)
(0.08114890365171817 0 0)
(0.09393093592660538 0 0)
(0.1056166898165249 0 0)
(0.1143234171923316 0 0)
(0.1179688165484827 0 0)
(0.1183877522927677 0 0)
(0.1183372630420329 0 0)
(0.1177364690721716 0 0)
(0.1161665275403112 0 0)
(0.1129215242148545 0 0)
(0.1074485756541474 0 0)
(0.09942811219562783 0 0)
(0.08890551265389335 0 0)
(0.07625176336251079 0 0)
(0.06200460523305319 0 0)
(0.04668289391509138 0 0)
(0.03067639697606232 0 0)
(0.01424957486748533 0 0)
(-0.00237472940688323 0 0)
(-0.01893602799135248 0 0)
(-0.03514599667953641 0 0)
(-0.05079407772683887 0 0)
(-0.06584884650146165 0 0)
(-0.08041094257025726 0 0)
(-0.09436932062626023 0 0)
(-0.106611763587892 0 0)
(-0.1145621814221238 0 0)
(-0.1171298122311487 0 0)
(-0.1173232361240547 0 0)
(-0.1171632432733757 0 0)
(-0.1166670220219573 0 0)
(-0.1152793490078268 0 0)
(-0.1125264383906783 0 0)
(-0.1078730436856994 0 0)
(-0.1009061268539584 0 0)
(-0.09143538038366956 0 0)
(-0.07956716412707267 0 0)
(-0.06568092791143443 0 0)
(-0.05031893675272432 0 0)
(-0.03404893193727114 0 0)
(-0.01736171631470664 0 0)
(-0.0006257617967630396 0 0)
(0.01591337819145293 0 0)
(0.03211477292617253 0 0)
(0.04793695689459156 0 0)
(0.06344908368307831 0 0)
(0.07875354052364987 0 0)
(0.09356724003550793 0 0)
(0.1063098725233542 0 0)
(0.1140393487790472 0 0)
(0.1162276419926757 0 0)
(0.1163411436365796 0 0)
(0.1162789676134837 0 0)
(0.1158101136890548 0 0)
(0.1146589737889242 0 0)
(0.1123442206398322 0 0)
(0.1083975594764006 0 0)
(0.1023824501568243 0 0)
(0.09399371481331339 0 0)
(0.08313516067163432 0 0)
(0.06996880139853714 0 0)
(0.05490311622002209 0 0)
(0.03850901981562459 0 0)
(0.02139410699548216 0 0)
(0.004089337878757476 0 0)
(-0.01302442138161801 0 0)
(-0.02976164539917276 0 0)
(-0.04615100913657388 0 0)
(-0.06237554156659789 0 0)
(-0.07853109173067095 0 0)
(-0.09405156488452755 0 0)
(-0.1068375525706759 0 0)
(-0.1138692742099082 0 0)
(-0.1155721224283051 0 0)
(-0.1156536772691894 0 0)
(-0.1155187125522102 0 0)
(-0.1151025212398926 0 0)
(-0.1140140844027019 0 0)
(-0.1118882963208438 0 0)
(-0.1082911285328005 0 0)
(-0.102810216157353 0 0)
(-0.09511659562078081 0 0)
(-0.08504240771551001 0 0)
(-0.07263548208804568 0 0)
(-0.05817464798951642 0 0)
(-0.04213860779381558 0 0)
(-0.02512483133610325 0 0)
(-0.007725985580588771 0 0)
(0.009600833145724092 0 0)
(0.02662102037944554 0 0)
(0.04333504285601908 0 0)
(0.05990605183399891 0 0)
(0.0764352059728379 0 0)
(0.09238105379213035 0 0)
(0.1056189828325428 0 0)
(0.1130107166903248 0 0)
(0.1148459228805677 0 0)
(0.1149215789024603 0 0)
(0.1148677803712674 0 0)
(0.1144983778332742 0 0)
(0.1135955276810671 0 0)
(0.111785445968495 0 0)
(0.1086805581905948 0 0)
(0.1038798280289807 0 0)
(0.09702822325743707 0 0)
(0.0878754280885784 0 0)
(0.07634034236810346 0 0)
(0.06255913328637121 0 0)
(0.04688933926114672 0 0)
(0.02985752399612122 0 0)
(0.01206004272914165 0 0)
(-0.005965169332216534 0 0)
(-0.02386862029167279 0 0)
(-0.04156444672146477 0 0)
(-0.05916310014062404 0 0)
(-0.07665339078120531 0 0)
(-0.09319920443166783 0 0)
(-0.1062744871998515 0 0)
(-0.1129105598059272 0 0)
(-0.1143348509205191 0 0)
(-0.1143926356742999 0 0)
(-0.11428203577734 0 0)
(-0.1139396183345319 0 0)
(-0.1130561365507727 0 0)
(-0.1113332078730986 0 0)
(-0.1084074075928889 0 0)
(-0.1039074873881907 0 0)
(-0.09749204465743744 0 0)
(-0.08890600755661077 0 0)
(-0.07803362760890893 0 0)
(-0.06493978409278779 0 0)
(-0.04989000216031715 0 0)
(-0.03332983654052143 0 0)
(-0.0158056213234989 0 0)
(0.00216137569025341 0 0)
(0.02020012148348545 0 0)
(0.03815889598972846 0 0)
(0.05606597526475812 0 0)
(0.07388398715324887 0 0)
(0.09086306450190389 0 0)
(0.1046056047065016 0 0)
(0.1119751828468076 0 0)
(0.11372009247396 0 0)
(0.1137934658365625 0 0)
(0.1137522612345544 0 0)
(0.1134588782742823 0 0)
(0.112736616651323 0 0)
(0.1112778717052568 0 0)
(0.108754640029141 0 0)
(0.1048099574807403 0 0)
(0.09909702525313153 0 0)
(0.09131942950531344 0 0)
(0.08128384185831991 0 0)
(0.06895269019875874 0 0)
(0.05447578253057347 0 0)
(0.03818490097846769 0 0)
(0.02054587212633717 0 0)
(0.00206509725769317 0 0)
(-0.01683827459374431 0 0)
(-0.03593595379889986 0 0)
(-0.05515530158790204 0 0)
(-0.07425345355436209 0 0)
(-0.092047897921073 0 0)
(-0.1056057959820028 0 0)
(-0.1120607942805998 0 0)
(-0.1133287581340199 0 0)
(-0.113375142395989 0 0)
(-0.1132831707413712 0 0)
(-0.1129988902883136 0 0)
(-0.1122672157566865 0 0)
(-0.1108380765533076 0 0)
(-0.1084008259424201 0 0)
(-0.10462496996447 0 0)
(-0.09918441108224163 0 0)
(-0.09179835735846685 0 0)
(-0.08227367091375348 0 0)
(-0.07054552753519748 0 0)
(-0.05671093597786943 0 0)
(-0.04103757756106693 0 0)
(-0.02392584066150103 0 0)
(-0.005822464606409809 0 0)
(0.01288591715769375 0 0)
(0.03195350208308574 0 0)
(0.05126302934681231 0 0)
(0.07058629251169951 0 0)
(0.08890047100564567 0 0)
(0.1034640812862104 0 0)
(0.1110481030023109 0 0)
(0.1127879286169174 0 0)
(0.1128648302845193 0 0)
(0.1128336358712789 0 0)
(0.1125969040300943 0 0)
(0.1120088197473654 0 0)
(0.1108104782093992 0 0)
(0.1087210394422416 0 0)
(0.1054244931329812 0 0)
(0.1005968239607395 0 0)
(0.0939334874908756 0 0)
(0.08518961641892185 0 0)
(0.07422547008180802 0 0)
(0.061042081915436 0 0)
(0.04579454855564141 0 0)
(0.02877618232254276 0 0)
(0.01036384343416378 0 0)
(-0.009076743628123603 0 0)
(-0.0292798131872355 0 0)
(-0.05004515249498363 0 0)
(-0.07089702660621049 0 0)
(-0.0902557409258062 0 0)
(-0.1046843860811571 0 0)
(-0.1112656681106701 0 0)
(-0.1124861298284061 0 0)
(-0.1125282319822993 0 0)
(-0.1124518953678319 0 0)
(-0.1122139489364406 0 0)
(-0.1115990832502548 0 0)
(-0.1103942617671573 0 0)
(-0.1083309767730183 0 0)
(-0.1051158678942819 0 0)
(-0.1004463520634554 0 0)
(-0.09404032448873112 0 0)
(-0.08566855082038566 0 0)
(-0.07518922582101518 0 0)
(-0.06258202936367063 0 0)
(-0.04796768737123627 0 0)
(-0.03159334205759063 0 0)
(-0.01377866501015492 0 0)
(0.005160285387913965 0 0)
(0.02497627186805178 0 0)
(0.04547888627220266 0 0)
(0.06629218367138212 0 0)
(0.08614062702153727 0 0)
(0.1019104317689082 0 0)
(0.1100931449382205 0 0)
(0.1119821906522463 0 0)
(0.1120763328075715 0 0)
(0.1120538241812756 0 0)
(0.1118625134194375 0 0)
(0.111379584981073 0 0)
(0.1103829945477305 0 0)
(0.10863003880895 0 0)
(0.1058411692875487 0 0)
(0.1017193246360578 0 0)
(0.09596830759160806 0 0)
(0.08832264744262552 0 0)
(0.07858388046318325 0 0)
(0.06665231510173145 0 0)
(0.05254547442135242 0 0)
(0.03639826437458069 0 0)
(0.0184348344232809 0 0)
(-0.001093310989400343 0 0)
(-0.02196655054147571 0 0)
(-0.04394366000574276 0 0)
(-0.06640094060089637 0 0)
(-0.08745630917559685 0 0)
(-0.1032030674874774 0 0)
(-0.1103959436581986 0 0)
(-0.1117447135654827 0 0)
(-0.111793966213556 0 0)
(-0.1117327842778866 0 0)
(-0.1115366029604309 0 0)
(-0.111018914551387 0 0)
(-0.1099954294511748 0 0)
(-0.1082309179837765 0 0)
(-0.1054643160700077 0 0)
(-0.1014184123838028 0 0)
(-0.09582120171534821 0 0)
(-0.08842981728957386 0 0)
(-0.07905818081476475 0 0)
(-0.06760718698633549 0 0)
(-0.05408619336130284 0 0)
(-0.03860995544796025 0 0)
(-0.02136678702565914 0 0)
(-0.00256918642304604 0 0)
(0.0175899678605173 0 0)
(0.0389161253002762 0 0)
(0.06096973940777835 0 0)
(0.08234184193867571 0 0)
(0.09965732987005173 0 0)
(0.1089506025942985 0 0)
(0.111240245583361 0 0)
(0.1113804314223583 0 0)
(0.1113664447849048 0 0)
(0.1112145673302843 0 0)
(0.1108202201348973 0 0)
(0.1099886048018725 0 0)
(0.1085076133721856 0 0)
(0.1061287008462128 0 0)
(0.1025813264127289 0 0)
(0.09758476989013636 0 0)
(0.09086985909961925 0 0)
(0.08220648948618051 0 0)
(0.07142898142145694 0 0)
(0.05845392535414926 0 0)
(0.04328773974007551 0 0)
(0.02601500987450868 0 0)
(0.006761501605299747 0 0)
(-0.01433794858865634 0 0)
(-0.03706868687026978 0 0)
(-0.0607738748818648 0 0)
(-0.08346502219164158 0 0)
(-0.1009398349101443 0 0)
(-0.109334707090093 0 0)
(-0.111053540843507 0 0)
(-0.1111304893469873 0 0)
(-0.1110838253497728 0 0)
(-0.1109278511231739 0 0)
(-0.1104964482032216 0 0)
(-0.1096280202800898 0 0)
(-0.1081131363672958 0 0)
(-0.1057176063324241 0 0)
(-0.1021880449737264 0 0)
(-0.09726710679779589 0 0)
(-0.09071059164309991 0 0)
(-0.08230880745263841 0 0)
(-0.07191162933667282 0 0)
(-0.05944801236078398 0 0)
(-0.04492807523501023 0 0)
(-0.02842577371808857 0 0)
(-0.01004982918046208 0 0)
(0.01008228512739967 0 0)
(0.03181662599234985 0 0)
(0.05473206565781397 0 0)
(0.0774406614996483 0 0)
(0.09651386586052636 0 0)
(0.1074623618328552 0 0)
(0.110502334350695 0 0)
(0.1107437395118844 0 0)
(0.1107383207839114 0 0)
(0.1106214289719583 0 0)
(0.1103050838723878 0 0)
(0.1096143962050925 0 0)
(0.1083618035762555 0 0)
(0.1063242665682611 0 0)
(0.1032550439546232 0 0)
(0.0988909036045508 0 0)
(0.09296774555331222 0 0)
(0.08524061599467148 0 0)
(0.07550253020616342 0 0)
(0.06359973969319031 0 0)
(0.04944229148874944 0 0)
(0.03300188768349879 0 0)
(0.01429158126777844 0 0)
(-0.006646985371875384 0 0)
(-0.02966595730490305 0 0)
(-0.05417342693416544 0 0)
(-0.07827851495938677 0 0)
(-0.09774309002853096 0 0)
(-0.1079452301783214 0 0)
(-0.1103649279274931 0 0)
(-0.1105113188507637 0 0)
(-0.1104775333280032 0 0)
(-0.1103597201922023 0 0)
(-0.1100069731350004 0 0)
(-0.1092759717325959 0 0)
(-0.1079772501618967 0 0)
(-0.1058985158908336 0 0)
(-0.1028071719173698 0 0)
(-0.09846126267786179 0 0)
(-0.09262138690769629 0 0)
(-0.08506698480528305 0 0)
(-0.07561640694866203 0 0)
(-0.0641430051509447 0 0)
(-0.05057910781110628 0 0)
(-0.03490813393359579 0 0)
(-0.01714954432837371 0 0)
(0.00265534741577732 0 0)
(0.02441500442291174 0 0)
(0.04778304014744712 0 0)
(0.07152024622623812 0 0)
(0.09237606070253784 0 0)
(0.1054515020956243 0 0)
(0.109694857363934 0 0)
(0.1101436615158177 0 0)
(0.1101480401548968 0 0)
(0.1100616380442465 0 0)
(0.1098145915764463 0 0)
(0.1092470917968969 0 0)
(0.1081916096839158 0 0)
(0.106445762168862 0 0)
(0.1037832367670487 0 0)
(0.09995777530681527 0 0)
(0.09471442032358363 0 0)
(0.08780350047231517 0 0)
(0.07899387045899568 0 0)
(0.06808536444089405 0 0)
(0.05492004666045686 0 0)
(0.03938483835355285 0 0)
(0.02140140839755519 0 0)
(0.00092548140933276 0 0)
(-0.02197809928028683 0 0)
(-0.04684166877407729 0 0)
(-0.07202050193241319 0 0)
(-0.09351535521369775 0 0)
(-0.106051732608819 0 0)
(-0.1096181071278862 0 0)
(-0.1099197273844952 0 0)
(-0.1098974041389407 0 0)
(-0.1098142355284203 0 0)
(-0.1095327539901258 0 0)
(-0.1089253448608683 0 0)
(-0.1078179644868462 0 0)
(-0.1060162363551645 0 0)
(-0.1033050950947911 0 0)
(-0.09945692042861277 0 0)
(-0.09423974565306587 0 0)
(-0.08742975889736243 0 0)
(-0.07882702798190395 0 0)
(-0.06826795311907843 0 0)
(-0.05562967370755832 0 0)
(-0.04082824455649985 0 0)
(-0.023812430988816 0 0)
(-0.00455613577770683 0 0)
(0.01691655048773085 0 0)
(0.04035995336009206 0 0)
(0.06475707190923648 0 0)
(0.08722521092434295 0 0)
(0.1027289420267768 0 0)
(0.1087102132872694 0 0)
(0.1095622587635115 0 0)
(0.1095817458724832 0 0)
(0.1095217381649999 0 0)
(0.1093355367263077 0 0)
(0.1088762453267902 0 0)
(0.1079934179599985 0 0)
(0.1065013621409349 0 0)
(0.1041910678921671 0 0)
(0.1008318026930042 0 0)
(0.09617929923201683 0 0)
(0.08998509154357372 0 0)
(0.08200545935597031 0 0)
(0.07201149350578474 0 0)
(0.05979976033514784 0 0)
(0.04519662039275377 0 0)
(0.02805397860623439 0 0)
(0.008255539139243984 0 0)
(-0.01421637013227538 0 0)
(-0.03903998366629101 0 0)
(-0.06489118198012374 0 0)
(-0.08823076887480773 0 0)
(-0.1034534238502989 0 0)
(-0.1087194616918634 0 0)
(-0.1093415667876988 0 0)
(-0.1093339671512858 0 0)
(-0.1092809213073716 0 0)
(-0.1090624790601562 0 0)
(-0.1085660991920391 0 0)
(-0.1076297763683651 0 0)
(-0.1060740159573186 0 0)
(-0.1036984300322781 0 0)
(-0.1002881074243478 0 0)
(-0.09561936384292406 0 0)
(-0.08946955238736001 0 0)
(-0.08162915275361322 0 0)
(-0.07191095433528126 0 0)
(-0.06015442496309544 0 0)
(-0.0462276884826923 0 0)
(-0.03002626822056331 0 0)
(-0.01146860416154428 0 0)
(0.009483581421504895 0 0)
(0.03268784392994922 0 0)
(0.05737096528134869 0 0)
(0.08112959070857889 0 0)
(0.09912862480594882 0 0)
(0.1073958778981668 0 0)
(0.1089693123622335 0 0)
(0.1090330578445475 0 0)
(0.1089936584323903 0 0)
(0.1088599512962547 0 0)
(0.1084950571616999 0 0)
(0.1077642210006263 0 0)
(0.1064953779296938 0 0)
(0.1044942531788282 0 0)
(0.1015440612550879 0 0)
(0.09741152801643981 0 0)
(0.0918527342155296 0 0)
(0.08461903095008946 0 0)
(0.07546526470964147 0 0)
(0.06415911851151342 0 0)
(0.05048534540354646 0 0)
(0.03424486148548705 0 0)
(0.01526474423973958 0 0)
(-0.006545596779136262 0 0)
(-0.03100606248542805 0 0)
(-0.05712477982350999 0 0)
(-0.08195029037471802 0 0)
(-0.09996371760363222 0 0)
(-0.1075251284725059 0 0)
(-0.1087553160588141 0 0)
(-0.1087833265086412 0 0)
(-0.1087538179065187 0 0)
(-0.1085897288473016 0 0)
(-0.1081920675925154 0 0)
(-0.1074088407144709 0 0)
(-0.1060732794473642 0 0)
(-0.1039973372473446 0 0)
(-0.100977238167844 0 0)
(-0.09679762705529663 0 0)
(-0.09123949300203574 0 0)
(-0.08408925441958658 0 0)
(-0.07514530860765098 0 0)
(-0.06422236627861702 0 0)
(-0.05115564890485338 0 0)
(-0.03580186431051186 0 0)
(-0.01803591071457848 0 0)
(0.002233025030286732 0 0)
(0.02495472254487292 0 0)
(0.04958544947994196 0 0)
(0.07423148713182778 0 0)
(0.0945512461684837 0 0)
(0.1055538993902061 0 0)
(0.1083103982514051 0 0)
(0.1084987466554841 0 0)
(0.1084734719681834 0 0)
(0.1083832652895814 0 0)
(0.1080999002067482 0 0)
(0.1075026933385666 0 0)
(0.1064311120199013 0 0)
(0.1047037784578032 0 0)
(0.1021164134516027 0 0)
(0.09844647399381774 0 0)
(0.09345641024601992 0 0)
(0.08689762095163127 0 0)
(0.07851727012627611 0 0)
(0.06806589123829977 0 0)
(0.05530072116098259 0 0)
(0.03998685547251487 0 0)
(0.02190900719667142 0 0)
(0.0009166466724258407 0 0)
(-0.02293400641370254 0 0)
(-0.04895474562552724 0 0)
(-0.07481419097345438 0 0)
(-0.09545617094873175 0 0)
(-0.1058381392268225 0 0)
(-0.1081222904152323 0 0)
(-0.1082434113106134 0 0)
(-0.1082296963350019 0 0)
(-0.1081111574814946 0 0)
(-0.1078003283770567 0 0)
(-0.1071534822420826 0 0)
(-0.1060155746787797 0 0)
(-0.1042090879802245 0 0)
(-0.1015400653899451 0 0)
(-0.09780124159596601 0 0)
(-0.0927785577094631 0 0)
(-0.0862577881315653 0 0)
(-0.07802919058017171 0 0)
(-0.0678919562446693 0 0)
(-0.05565945038824822 0 0)
(-0.04116069210466102 0 0)
(-0.02423754644205552 0 0)
(-0.004757726785158956 0 0)
(0.01730429782381749 0 0)
(0.04160163441448511 0 0)
(0.0667193149271267 0 0)
(0.0889906402165364 0 0)
(0.1029703510116192 0 0)
(0.107491321232025 0 0)
(0.1079711652913671 0 0)
(0.1079592178744034 0 0)
(0.1079040629862708 0 0)
(0.1076894862278629 0 0)
(0.107209171713672 0 0)
(0.1063120275823302 0 0)
(0.1048283533514039 0 0)
(0.1025652293867315 0 0)
(0.09931034916593964 0 0)
(0.09483348488454429 0 0)
(0.08888930156818503 0 0)
(0.08122300474750828 0 0)
(0.07157602602769937 0 0)
(0.0596883042494858 0 0)
(0.04530090674250693 0 0)
(0.02816820257006697 0 0)
(0.008092692924756503 0 0)
(-0.01497081090892797 0 0)
(-0.04059013664273921 0 0)
(-0.06701434202998435 0 0)
(-0.0899002435617836 0 0)
(-0.1034357433053929 0 0)
(-0.1073619199421328 0 0)
(-0.1077095922305261 0 0)
(-0.1077083682249 0 0)
(-0.1076259145929059 0 0)
(-0.1073900981135591 0 0)
(-0.1068639052653119 0 0)
(-0.1059032063601055 0 0)
(-0.1043397920422761 0 0)
(-0.1019885631417027 0 0)
(-0.09865003295428559 0 0)
(-0.09411573932941944 0 0)
(-0.08817289214005093 0 0)
(-0.08060784188857559 0 0)
(-0.07121074168117292 0 0)
(-0.05978092506196122 0 0)
(-0.04612797701994518 0 0)
(-0.03006945484200549 0 0)
(-0.0114419450393176 0 0)
(0.009839004627911247 0 0)
(0.03358532578945068 0 0)
(0.05879490011223643 0 0)
(0.08253474343877602 0 0)
(0.09946492652517236 0 0)
(0.1063608592674934 0 0)
(0.1074311328776124 0 0)
(0.107451340287246 0 0)
(0.1074222491125907 0 0)
(0.1072643958461409 0 0)
(0.1068853204525001 0 0)
(0.1061420546054939 0 0)
(0.1048756695578725 0 0)
(0.102903652046393 0 0)
(0.1000234099296608 0 0)
(0.09601252627931306 0 0)
(0.09063101060953224 0 0)
(0.08362584903218864 0 0)
(0.0747347955385692 0 0)
(0.06368784559109532 0 0)
(0.05021099502539933 0 0)
(0.03403780749366937 0 0)
(0.01493521079904354 0 0)
(-0.007221285504041365 0 0)
(-0.0322035488302646 0 0)
(-0.05876123739449896 0 0)
(-0.08336889175063428 0 0)
(-0.1001122749816254 0 0)
(-0.106336087034847 0 0)
(-0.1071722491945898 0 0)
(-0.107188607869791 0 0)
(-0.107134950653695 0 0)
(-0.1069624135327541 0 0)
(-0.1065416838482017 0 0)
(-0.1057392958272139 0 0)
(-0.1043952193167531 0 0)
(-0.1023326123242321 0 0)
(-0.0993594861587276 0 0)
(-0.09527322896943864 0 0)
(-0.08986375883687281 0 0)
(-0.08291642059292122 0 0)
(-0.07421681397987177 0 0)
(-0.06355563417751646 0 0)
(-0.05072904723426464 0 0)
(-0.0355373119223911 0 0)
(-0.01779464415796973 0 0)
(0.002627629443246813 0 0)
(0.02566425363433603 0 0)
(0.05064774098103997 0 0)
(0.07534278434638188 0 0)
(0.09493681172647053 0 0)
(0.104712308773539 0 0)
(0.1068393523486664 0 0)
(0.1069503111542467 0 0)
(0.1069378268159057 0 0)
(0.1068258893209559 0 0)
(0.1065337589218844 0 0)
(0.1059255070920334 0 0)
(0.1048528192275845 0 0)
(0.1031427482642331 0 0)
(0.1006019237673037 0 0)
(0.09701599773056312 0 0)
(0.09215164520359087 0 0)
(0.08576000721017391 0 0)
(0.07757880263433332 0 0)
(0.06733340524860797 0 0)
(0.05474142122912865 0 0)
(0.03952285794449201 0 0)
(0.02141845828065408 0 0)
(0.0002439195393562031 0 0)
(-0.02392870802262208 0 0)
(-0.05025651129882639 0 0)
(-0.07601723320239812 0 0)
(-0.09573245741704103 0 0)
(-0.1048485109193309 0 0)
(-0.1065986491512025 0 0)
(-0.1066721801636903 0 0)
(-0.1066389871161336 0 0)
(-0.1065191420789641 0 0)
(-0.1061894083251436 0 0)
(-0.1055275835939177 0 0)
(-0.1043810818555043 0 0)
(-0.1025808934750335 0 0)
(-0.09994230066596249 0 0)
(-0.09626860577481351 0 0)
(-0.09135325138365401 0 0)
(-0.08498260382849633 0 0)
(-0.07694075728189387 0 0)
(-0.06701341240210983 0 0)
(-0.05498771823445846 0 0)
(-0.0406521684084472 0 0)
(-0.02380551131212855 0 0)
(-0.004286604531440111 0 0)
(0.01793134642775848 0 0)
(0.04243981698198462 0 0)
(0.06760943606403526 0 0)
(0.0893902028366738 0 0)
(0.1023219311171133 0 0)
(0.1061101703882416 0 0)
(0.1064524781705759 0 0)
(0.1064526002759842 0 0)
(0.1063759625850062 0 0)
(0.1061574923947453 0 0)
(0.105666977647392 0 0)
(0.1047665555477232 0 0)
(0.1032922557801286 0 0)
(0.1010595226711543 0 0)
(0.09786220283745573 0 0)
(0.09347444721471967 0 0)
(0.08765300870298043 0 0)
(0.08013804099068395 0 0)
(0.07065418234012727 0 0)
(0.05891554321678687 0 0)
(0.04463392626765646 0 0)
(0.02753140604677222 0 0)
(0.00738004362424555 0 0)
(-0.01586390685879957 0 0)
(-0.04167544886484616 0 0)
(-0.06804718177838015 0 0)
(-0.09026874192291733 0 0)
(-0.1026647944681312 0 0)
(-0.105916642750466 0 0)
(-0.1061599003472955 0 0)
(-0.1061401565237816 0 0)
(-0.1060622734122789 0 0)
(-0.1058101034548658 0 0)
(-0.1052722454544366 0 0)
(-0.1043030705480704 0 0)
(-0.1027413417406469 0 0)
(-0.1004093756683629 0 0)
(-0.0971163653901846 0 0)
(-0.09265986372369983 0 0)
(-0.08682869754226163 0 0)
(-0.0794074806596957 0 0)
(-0.07017937940939675 0 0)
(-0.05892582121145651 0 0)
(-0.04542781837729955 0 0)
(-0.02947378401387549 0 0)
(-0.01087903953483284 0 0)
(0.01045049255791214 0 0)
(0.03429957082215158 0 0)
(0.05953242611231661 0 0)
(0.0829293619418833 0 0)
(0.09899717516679478 0 0)
(0.1050970779177717 0 0)
(0.1059480496385668 0 0)
(0.105966765105058 0 0)
(0.105917561643211 0 0)
(0.1057602511056396 0 0)
(0.1053713087021772 0 0)
(0.1046235494761882 0 0)
(0.1033612000402262 0 0)
(0.1014082415038053 0 0)
(0.09856676727930952 0 0)
(0.094618848605278 0 0)
(0.08932772346371674 0 0)
(0.08243771034384584 0 0)
(0.07367556164590554 0 0)
(0.0627553938111009 0 0)
(0.04938471521413245 0 0)
(0.03327292600527444 0 0)
(0.01416136778528833 0 0)
(-0.008077603656952197 0 0)
(-0.03315964279354756 0 0)
(-0.0596717784405591 0 0)
(-0.08380205675542193 0 0)
(-0.09956344404204473 0 0)
(-0.1050001616914348 0 0)
(-0.1056436114368419 0 0)
(-0.1056400283018786 0 0)
(-0.1055950296685414 0 0)
(-0.1054070469675041 0 0)
(-0.1049772195930402 0 0)
(-0.104165916746354 0 0)
(-0.1028195820635405 0 0)
(-0.1007671829054224 0 0)
(-0.09782348858725989 0 0)
(-0.09379030298025724 0 0)
(-0.08845934997111318 0 0)
(-0.08161607369063056 0 0)
(-0.07304152085714598 0 0)
(-0.06251237683225025 0 0)
(-0.04980317748464339 0 0)
(-0.03469261254465375 0 0)
(-0.01697639489026373 0 0)
(0.003487264848184065 0 0)
(0.02661341484708845 0 0)
(0.05161270218028789 0 0)
(0.07595328750916658 0 0)
(0.0945315551699487 0 0)
(0.1031092464342222 0 0)
(0.1047513144917437 0 0)
(0.104818829901919 0 0)
(0.1047852225492964 0 0)
(0.1046620559585722 0 0)
(0.1043263998834207 0 0)
(0.1036527628905166 0 0)
(0.1024848897982816 0 0)
(0.1006489423093553 0 0)
(0.09795397870998451 0 0)
(0.09419624954299555 0 0)
(0.08916491108803147 0 0)
(0.08265077369258532 0 0)
(0.0744604376645918 0 0)
(0.0644430258567236 0 0)
(0.05255180594764908 0 0)
(0.0390036438070945 0 0)
(0.02466806063164083 0 0)
(0.0117055792251462 0 0)
(0.003309724456025568 0 0)
(0.0003925895718339167 0 0)
(1.275577686090725e-05 0 0)
(7.411298135621337e-08 0 0)
(5.201731161020055e-11 0 0)
(4.000242093830457e-14 0 0)
(9.467108390890305e-13 0 0)
(1.446548381112887e-12 0 0)
(9.832168368136983e-13 0 0)
(7.493458315780387e-13 0 0)
(5.481350619220716e-14 0 0)
(-1.362181587510715e-12 0 0)
(-9.423510903635304e-13 0 0)
(-4.955766021155395e-13 0 0)
(-1.147517144109974e-12 0 0)
(-2.122017130959904e-12 0 0)
(-3.465100260938008e-12 0 0)
(-4.396952680194469e-12 0 0)
(-4.388234753509996e-12 0 0)
(-3.202457770297002e-12 0 0)
(-2.749572203789908e-12 0 0)
(-3.752777441611908e-12 0 0)
(-5.489676762772176e-12 0 0)
(-7.232603411456351e-12 0 0)
(-8.846876808978061e-12 0 0)
(-9.737877848024555e-12 0 0)
(-8.695558887052794e-12 0 0)
(-8.885111498203965e-12 0 0)
(-8.673052829807331e-12 0 0)
(-6.978808358763387e-12 0 0)
(-5.801774969668756e-12 0 0)
(-4.256148621753456e-12 0 0)
(-2.460147310883595e-12 0 0)
(-5.658979145075422e-13 0 0)
(9.536707792628805e-13 0 0)
(2.147240748706416e-12 0 0)
(1.653396827539629e-12 0 0)
(1.136980026498525e-12 0 0)
(2.917350547674633e-12 0 0)
(3.356386623022684e-12 0 0)
(1.976788672001004e-12 0 0)
(1.86722382495522e-12 0 0)
(3.300698914747653e-12 0 0)
(4.021332821987544e-12 0 0)
(3.408505586252489e-12 0 0)
(2.428764696492821e-12 0 0)
(1.320406659070221e-12 0 0)
(-2.138557316427461e-13 0 0)
(-1.025729589376382e-12 0 0)
(-5.884510498486041e-13 0 0)
(4.399057307166925e-13 0 0)
(1.056215523890957e-12 0 0)
(1.402179154547877e-12 0 0)
(1.071025199200555e-12 0 0)
(6.094371038735305e-13 0 0)
(1.574321975326503e-12 0 0)
(1.361331500146225e-12 0 0)
(-2.611085867245674e-14 0 0)
(6.458559772576492e-13 0 0)
(1.405659858576731e-12 0 0)
(1.514398081262751e-12 0 0)
(1.081384635118539e-12 0 0)
(7.553862153569849e-14 0 0)
(-9.067355023282166e-13 0 0)
(-2.172360043554226e-12 0 0)
(-2.759110680770176e-12 0 0)
(-2.238401881464263e-12 0 0)
(-1.671630432655011e-12 0 0)
(-2.384507040038527e-12 0 0)
(-3.070380834652851e-12 0 0)
(-3.023419221343079e-12 0 0)
(-1.96369634831902e-12 0 0)
(-4.232597408802184e-13 0 0)
(1.268414859303454e-12 0 0)
(2.955734526026361e-12 0 0)
(4.431756266033834e-12 0 0)
(6.1207753730013e-12 0 0)
(6.854477288320457e-12 0 0)
(7.705535696831535e-12 0 0)
(8.728696924126719e-12 0 0)
(9.158109138931003e-12 0 0)
(9.863071659608775e-12 0 0)
(1.01534430511497e-11 0 0)
(1.106880171381928e-11 0 0)
(1.163985947750366e-11 0 0)
(1.156338916874503e-11 0 0)
(1.153644294005937e-11 0 0)
(1.169380832742357e-11 0 0)
(1.211283612045063e-11 0 0)
(1.280393445044353e-11 0 0)
(1.415396625629597e-11 0 0)
(1.536491179450495e-11 0 0)
(1.485814722918455e-11 0 0)
(1.453300267704397e-11 0 0)
(1.615250425531577e-11 0 0)
(1.740779818361984e-11 0 0)
(1.884908168504994e-11 0 0)
(2.054072763609822e-11 0 0)
(2.042426731469963e-11 0 0)
(1.926112957369422e-11 0 0)
(1.796931285643913e-11 0 0)
(1.663409739734528e-11 0 0)
(1.54092491619466e-11 0 0)
(1.403315125717314e-11 0 0)
(1.202767094700027e-11 0 0)
(1.035431020778317e-11 0 0)
(9.317233625051477e-12 0 0)
(1.003610759048509e-11 0 0)
(1.023604187926491e-11 0 0)
(1.003874644383387e-11 0 0)
(1.16200497644205e-11 0 0)
(1.257970946672902e-11 0 0)
(1.2125964412218e-11 0 0)
(1.038213726543593e-11 0 0)
(9.536290364487357e-12 0 0)
(8.851274487843438e-12 0 0)
(7.574252939894362e-12 0 0)
(6.481505184853776e-12 0 0)
(5.136676623956869e-12 0 0)
(4.221324936613703e-12 0 0)
(3.887465768456615e-12 0 0)
(2.990361655537832e-12 0 0)
(1.701159934473444e-12 0 0)
(4.528437823143543e-13 0 0)
(-1.232729205856809e-12 0 0)
(-2.142860450767513e-12 0 0)
(-2.551411620824097e-12 0 0)
(-2.269760782817119e-12 0 0)
(-2.135879639594265e-12 0 0)
(-3.208611770445421e-12 0 0)
(-2.724380833082647e-12 0 0)
(-1.562125525005155e-12 0 0)
(-1.47606101522433e-12 0 0)
(-7.9019786817564e-13 0 0)
(-2.321032151011035e-13 0 0)
(-8.223159149415552e-13 0 0)
(-1.304824436600007e-12 0 0)
(-1.415249763930068e-12 0 0)
(-9.945046514724085e-13 0 0)
(-2.129606743045157e-13 0 0)
(-2.373069311729489e-13 0 0)
(-3.911845734866269e-13 0 0)
(3.02536330384529e-13 0 0)
(1.843834785249179e-12 0 0)
(3.473788058614864e-12 0 0)
(4.956767324197744e-12 0 0)
(5.693081476704758e-12 0 0)
(5.934728447931004e-12 0 0)
(5.706964932651983e-12 0 0)
(4.642069153475839e-12 0 0)
(3.748429444871985e-12 0 0)
(4.329104826088065e-12 0 0)
(5.224496003264467e-12 0 0)
(5.274923096951118e-12 0 0)
(5.087075064162059e-12 0 0)
(4.010920072792552e-12 0 0)
(3.180765292643952e-12 0 0)
(4.044839882825117e-12 0 0)
(5.624350221061636e-12 0 0)
(7.228261096169498e-12 0 0)
(8.409668983245694e-12 0 0)
(1.008825620200101e-11 0 0)
(1.111406444916622e-11 0 0)
(1.03247236081572e-11 0 0)
(9.517126665796943e-12 0 0)
)
;

boundaryField
{
    inlet
    {
        type            zeroGradient;
    }
    outlet
    {
        type            characteristicPressureInletOutletVelocity;
        UName           U;
        pName           p;
        TName           T;
        phiName         phi;
        rhoName         rho;
        U               (0 0 0);
        p               101325;
        T               300;
        value           uniform (9.517126665796943e-12 0 0);
    }
    frontAndBack
    {
        type            empty;
    }
}


// ************************************************************************* //
