/*--------------------------------*- C++ -*----------------------------------*\
| =========                 |                                                 |
| \\      /  F ield         | OpenFOAM: The Open Source CFD Toolbox           |
|  \\    /   O peration     | Version:  v2012                                 |
|   \\  /    A nd           | Website:  www.openfoam.com                      |
|    \\/     M anipulation  |                                                 |
\*---------------------------------------------------------------------------*/
FoamFile
{
    version     2.0;
    format      ascii;
    class       volVectorField;
    location    "0.006";
    object      UMean;
}
// * * * * * * * * * * * * * * * * * * * * * * * * * * * * * * * * * * * * * //

dimensions      [0 1 -1 0 0 0 0];


internalField   nonuniform List<vector> 
1000
(
(-4.485603713743896e-05 0 0)
(1.853002309092244e-05 0 0)
(4.975276910909096e-05 0 0)
(0.0001136339361399802 0 0)
(0.000188400795635328 0 0)
(0.0002769172336127338 0 0)
(0.000383547526011674 0 0)
(0.0005006837593695415 0 0)
(0.0006321367232230919 0 0)
(0.0007714378884346686 0 0)
(0.0009158024504897571 0 0)
(0.001060034456537141 0 0)
(0.001204015786005012 0 0)
(0.001345918848754903 0 0)
(0.001484139176609599 0 0)
(0.001615030968473453 0 0)
(0.00173641919638318 0 0)
(0.001845095725808367 0 0)
(0.00193981075185012 0 0)
(0.002018199145256858 0 0)
(0.002079630718147705 0 0)
(0.002122272154431054 0 0)
(0.002146027038628277 0 0)
(0.002149708480045932 0 0)
(0.002133896019340795 0 0)
(0.002098222794064993 0 0)
(0.002044048504592448 0 0)
(0.001971725106897752 0 0)
(0.001882955415615341 0 0)
(0.001778056133555428 0 0)
(0.001658608571336407 0 0)
(0.001526231222205478 0 0)
(0.00138650339037181 0 0)
(0.001244371318763294 0 0)
(0.001102481294476373 0 0)
(0.000960856668804463 0 0)
(0.0008205745643473861 0 0)
(0.0006831521238678173 0 0)
(0.0005509284632938205 0 0)
(0.0004267552168939912 0 0)
(0.000313650768483838 0 0)
(0.0002144011230776648 0 0)
(0.0001312180440070124 0 0)
(6.572058445658563e-05 0 0)
(1.895840315429701e-05 0 0)
(-8.349238850870119e-06 0 0)
(-1.585135417882693e-05 0 0)
(-3.437892700380178e-06 0 0)
(2.862665326209186e-05 0 0)
(7.983152656405073e-05 0 0)
(0.0001494382227220975 0 0)
(0.0002368224516577924 0 0)
(0.0003413902463982888 0 0)
(0.0004620445823265224 0 0)
(0.000595271669515943 0 0)
(0.000734767404464441 0 0)
(0.0008754916328450297 0 0)
(0.001016145467596247 0 0)
(0.001156515471070462 0 0)
(0.001295566144201978 0 0)
(0.001432363014252518 0 0)
(0.001564530915364171 0 0)
(0.00168997545386647 0 0)
(0.001805386969030514 0 0)
(0.001908255301100544 0 0)
(0.001995502798911856 0 0)
(0.002065452993070459 0 0)
(0.002116255175246553 0 0)
(0.002147530912486717 0 0)
(0.002158568855330489 0 0)
(0.002149851257312521 0 0)
(0.00212129364283304 0 0)
(0.00207375150255768 0 0)
(0.002007229804677646 0 0)
(0.001922377681023804 0 0)
(0.001819101065904376 0 0)
(0.001699148068074077 0 0)
(0.001566336711845535 0 0)
(0.00142788851514228 0 0)
(0.001288193615161451 0 0)
(0.001148720295024438 0 0)
(0.001009495700894884 0 0)
(0.0008712589609313678 0 0)
(0.0007350779039090474 0 0)
(0.0006026305942771205 0 0)
(0.0004761114076403693 0 0)
(0.0003581968827211546 0 0)
(0.0002517718853991782 0 0)
(0.0001597222427928875 0 0)
(8.454726875625177e-05 0 0)
(2.821641983886195e-05 0 0)
(-8.053368535013778e-06 0 0)
(-2.368966889739822e-05 0 0)
(-1.87190958200688e-05 0 0)
(6.544620576423406e-06 0 0)
(5.166333289586056e-05 0 0)
(0.0001163677794401946 0 0)
(0.0002005266325001822 0 0)
(0.000303888601247779 0 0)
(0.0004246584878791539 0 0)
(0.0005577266754901013 0 0)
(0.0006957611726926712 0 0)
(0.0008345339482494213 0 0)
(0.0009731898524335252 0 0)
(0.001111627540025293 0 0)
(0.001249006651785836 0 0)
(0.001384644137597238 0 0)
(0.001516701402325572 0 0)
(0.001643513786835854 0 0)
(0.00176229233566566 0 0)
(0.001870623274507754 0 0)
(0.001965338993655666 0 0)
(0.002044139475211697 0 0)
(0.002104507998233604 0 0)
(0.002145250420205628 0 0)
(0.002165207741927752 0 0)
(0.002164517440590853 0 0)
(0.00214308316602674 0 0)
(0.002101612426782492 0 0)
(0.002040025017491626 0 0)
(0.001958686324308205 0 0)
(0.001857494024183587 0 0)
(0.001738551301413895 0 0)
(0.001606724649285194 0 0)
(0.001469754315808733 0 0)
(0.001331784113871914 0 0)
(0.001194005142624 0 0)
(0.001056406582572989 0 0)
(0.0009196064029277078 0 0)
(0.0007843903907977176 0 0)
(0.0006521269977272457 0 0)
(0.0005245431325436514 0 0)
(0.0004039362758745342 0 0)
(0.000292856739316657 0 0)
(0.0001941693214403757 0 0)
(0.0001105887058251528 0 0)
(4.466529928439232e-05 0 0)
(-1.703196334830568e-06 0 0)
(-2.717723878184353e-05 0 0)
(-3.122777376126806e-05 0 0)
(-1.373013761569103e-05 0 0)
(2.507119566150003e-05 0 0)
(8.508395996661444e-05 0 0)
(0.0001661769292768624 0 0)
(0.0002679554595168823 0 0)
(0.0003879564541941526 0 0)
(0.0005201409022395017 0 0)
(0.0006568031600325252 0 0)
(0.0007940776562392714 0 0)
(0.0009312333895271431 0 0)
(0.001068225118727371 0 0)
(0.001204343465487853 0 0)
(0.001339060093244708 0 0)
(0.001470859307278602 0 0)
(0.00159838042518367 0 0)
(0.001719239065805608 0 0)
(0.001831288152930489 0 0)
(0.001931554462791138 0 0)
(0.002017629066583938 0 0)
(0.002086706482158157 0 0)
(0.002137002419970285 0 0)
(0.002166732708267666 0 0)
(0.002175341888588933 0 0)
(0.002162234444700845 0 0)
(0.002127720310545918 0 0)
(0.002071560049321548 0 0)
(0.001994049120319798 0 0)
(0.00189529047235258 0 0)
(0.001777809222938664 0 0)
(0.001647190550781586 0 0)
(0.001511523745996449 0 0)
(0.001374919601239462 0 0)
(0.001238481192026947 0 0)
(0.001102170435112394 0 0)
(0.0009665102289894573 0 0)
(0.0008321096979858323 0 0)
(0.0007001152476811234 0 0)
(0.0005719330381984959 0 0)
(0.0004495453759146575 0 0)
(0.0003351709862453347 0 0)
(0.0002314739449595635 0 0)
(0.0001411065478541661 0 0)
(6.68128032350624e-05 0 0)
(1.090140090083151e-05 0 0)
(-2.465286074426436e-05 0 0)
(-3.861934392011584e-05 0 0)
(-3.01584410577052e-05 0 0)
(1.034379022048718e-06 0 0)
(5.52555395488659e-05 0 0)
(0.0001325052202161822 0 0)
(0.0002322009313928943 0 0)
(0.0003511828981897005 0 0)
(0.0004824840755144839 0 0)
(0.0006179998283254383 0 0)
(0.0007540580673443551 0 0)
(0.0008900069349579678 0 0)
(0.001025830456300921 0 0)
(0.00116091853420583 0 0)
(0.001294856961823572 0 0)
(0.00142635820612606 0 0)
(0.001554290884172742 0 0)
(0.001676591108753402 0 0)
(0.00179136895135868 0 0)
(0.001895906106323031 0 0)
(0.001987865326844396 0 0)
(0.002064393336064721 0 0)
(0.002123391738152459 0 0)
(0.002162621284566251 0 0)
(0.002180886593227112 0 0)
(0.002176970609748838 0 0)
(0.002150566688948608 0 0)
(0.002101023989733186 0 0)
(0.002028368465380992 0 0)
(0.001932752963844046 0 0)
(0.001817076433438531 0 0)
(0.001687666716843062 0 0)
(0.001553108576458274 0 0)
(0.001417631472185129 0 0)
(0.001282298561613132 0 0)
(0.001147053906423317 0 0)
(0.001012349056068557 0 0)
(0.0008786653286786384 0 0)
(0.0007469786488635995 0 0)
(0.0006184552203859779 0 0)
(0.000494814265517009 0 0)
(0.0003779882701348733 0 0)
(0.000270401526386457 0 0)
(0.0001745470839196449 0 0)
(9.317198415566901e-05 0 0)
(2.876811918510344e-05 0 0)
(-1.628102065797896e-05 0 0)
(-4.016370467851106e-05 0 0)
(-4.134123150541016e-05 0 0)
(-1.880846551591326e-05 0 0)
(2.834683543199039e-05 0 0)
(0.0001005207397614438 0 0)
(0.0001971746925373961 0 0)
(0.0003146126178557429 0 0)
(0.0004449284090803175 0 0)
(0.00057945247440866 0 0)
(0.0007144995925555107 0 0)
(0.0008494469475243064 0 0)
(0.0009842973685682654 0 0)
(0.001118524010582248 0 0)
(0.001251789053764202 0 0)
(0.001382987423668163 0 0)
(0.001511161609424851 0 0)
(0.001634512933204183 0 0)
(0.001751374589471788 0 0)
(0.0018592868768549 0 0)
(0.00195604870203269 0 0)
(0.002038880308947212 0 0)
(0.002105542097601962 0 0)
(0.002153532023990636 0 0)
(0.002181166128371106 0 0)
(0.002186671313762759 0 0)
(0.002169089757805517 0 0)
(0.002127220224999251 0 0)
(0.002060610570850651 0 0)
(0.001969225742393386 0 0)
(0.001856091047373169 0 0)
(0.00172814128608318 0 0)
(0.001594611116645493 0 0)
(0.001460098014673968 0 0)
(0.001325704774167918 0 0)
(0.001191370841576555 0 0)
(0.001057487004632976 0 0)
(0.0009244415622758211 0 0)
(0.0007930719379877982 0 0)
(0.0006643642982696182 0 0)
(0.0005398137274216242 0 0)
(0.0004211115010987402 0 0)
(0.0003104454279266246 0 0)
(0.0002101201878724152 0 0)
(0.0001227869941000933 0 0)
(5.098691195135336e-05 0 0)
(-2.671513659769855e-06 0 0)
(-3.59609481108496e-05 0 0)
(-4.676875876489311e-05 0 0)
(-3.341612925858224e-05 0 0)
(5.683174452405351e-06 0 0)
(7.149762200052446e-05 0 0)
(0.0001637967726075927 0 0)
(0.0002787285359978921 0 0)
(0.0004076969230198525 0 0)
(0.0005412782454914052 0 0)
(0.0006754451178782531 0 0)
(0.0008095292437025801 0 0)
(0.0009435391445559707 0 0)
(0.001077020847976324 0 0)
(0.001209692896110724 0 0)
(0.001340599112814494 0 0)
(0.001468912142668442 0 0)
(0.001593056716967594 0 0)
(0.001711553747752625 0 0)
(0.001822187043577072 0 0)
(0.001922906600216798 0 0)
(0.00201106886733678 0 0)
(0.002084398428516447 0 0)
(0.002140268297259247 0 0)
(0.002176654409089847 0 0)
(0.002191359263707962 0 0)
(0.002182845341686411 0 0)
(0.002149359949594355 0 0)
(0.002089887164702601 0 0)
(0.002003998604461849 0 0)
(0.001894483491992946 0 0)
(0.001768523052472315 0 0)
(0.001636061644035826 0 0)
(0.001502409867111292 0 0)
(0.001368846234508592 0 0)
(0.001235317293298895 0 0)
(0.001102159642767155 0 0)
(0.0009696930301933964 0 0)
(0.0008386387445371725 0 0)
(0.0007098436446021922 0 0)
(0.0005846150947890309 0 0)
(0.000464443989171375 0 0)
(0.0003512978268567803 0 0)
(0.0002472951307344273 0 0)
(0.0001549444949705693 0 0)
(7.675733233029083e-05 0 0)
(1.543673292635816e-05 0 0)
(-2.651813062511753e-05 0 0)
(-4.657935459583041e-05 0 0)
(-4.251158676185624e-05 0 0)
(-1.212163137035892e-05 0 0)
(4.617954743988232e-05 0 0)
(0.000132689706183357 0 0)
(0.0002438828652705072 0 0)
(0.000370928692308829 0 0)
(0.0005035210484265822 0 0)
(0.0006368857822527254 0 0)
(0.0007701912957044808 0 0)
(0.0009034429209570933 0 0)
(0.001036254684657508 0 0)
(0.001168387235550065 0 0)
(0.001299007285938735 0 0)
(0.001427392163378214 0 0)
(0.001552151242119938 0 0)
(0.001671962709057164 0 0)
(0.001784826973754344 0 0)
(0.001888845852717151 0 0)
(0.001981533902430136 0 0)
(0.002060644066782633 0 0)
(0.002123516375755025 0 0)
(0.0021679138235905 0 0)
(0.002191344372968961 0 0)
(0.002191816365582537 0 0)
(0.002167105637739902 0 0)
(0.002115647208904328 0 0)
(0.002036489454439479 0 0)
(0.001931836920523658 0 0)
(0.001808621611640648 0 0)
(0.001677397317690652 0 0)
(0.001544552101825798 0 0)
(0.001411746212534174 0 0)
(0.001278953546217667 0 0)
(0.001146461782734387 0 0)
(0.001014535204892442 0 0)
(0.0008837965438926957 0 0)
(0.0007549817862595011 0 0)
(0.0006292410980481103 0 0)
(0.000507899014761245 0 0)
(0.0003927255096624709 0 0)
(0.0002856660979955818 0 0)
(0.0001890706084634998 0 0)
(0.0001053761931254045 0 0)
(3.729337905431282e-05 0 0)
(-1.252632584491166e-05 0 0)
(-4.128505558684778e-05 0 0)
(-4.633882829343011e-05 0 0)
(-2.501061437214332e-05 0 0)
(2.48674235606795e-05 0 0)
(0.0001042506788000243 0 0)
(0.0002103694027747549 0 0)
(0.0003347247202903858 0 0)
(0.0004661731840991814 0 0)
(0.0005987749044908909 0 0)
(0.0007313536546343031 0 0)
(0.0008638962253687169 0 0)
(0.0009960801254048535 0 0)
(0.001127701736622072 0 0)
(0.001258032630733259 0 0)
(0.001386435143325968 0 0)
(0.001511673726670994 0 0)
(0.001632559218323506 0 0)
(0.001747280707783359 0 0)
(0.001854082635202976 0 0)
(0.00195063979838128 0 0)
(0.002034769397127509 0 0)
(0.002103840080772954 0 0)
(0.00215549995671887 0 0)
(0.002187075524462556 0 0)
(0.00219625126793263 0 0)
(0.002180441990270918 0 0)
(0.002137607030406709 0 0)
(0.002066234418387303 0 0)
(0.001967698184095557 0 0)
(0.001848172518433764 0 0)
(0.00171851154352977 0 0)
(0.001586467725818701 0 0)
(0.001454372982585513 0 0)
(0.001322272109171379 0 0)
(0.001190410491839178 0 0)
(0.001059003802431035 0 0)
(0.0009285899172973065 0 0)
(0.0007998137684106181 0 0)
(0.0006736904674593045 0 0)
(0.0005514057259406807 0 0)
(0.0004345567007102856 0 0)
(0.0003249315923524472 0 0)
(0.0002247216246459962 0 0)
(0.0001362645168855804 0 0)
(6.222195822563179e-05 0 0)
(5.307986917715906e-06 0 0)
(-3.153033582160896e-05 0 0)
(-4.537820817187451e-05 0 0)
(-3.320806198579257e-05 0 0)
(7.6346399530091e-06 0 0)
(7.87882722385376e-05 0 0)
(0.0001785166188385123 0 0)
(0.0002992222519108844 0 0)
(0.0004292258304533338 0 0)
(0.0005610660016237487 0 0)
(0.0006929499430777723 0 0)
(0.0008248127098035359 0 0)
(0.0009563900389105076 0 0)
(0.001087511198626768 0 0)
(0.001217538084505988 0 0)
(0.001345906799267975 0 0)
(0.001471513003977189 0 0)
(0.00159328136224735 0 0)
(0.001709564775513116 0 0)
(0.001818738445007322 0 0)
(0.001918630052576214 0 0)
(0.002007140986360682 0 0)
(0.002081705143606952 0 0)
(0.002139927935200697 0 0)
(0.002179044103240916 0 0)
(0.002196527757345868 0 0)
(0.002189542392562074 0 0)
(0.002155671394395156 0 0)
(0.002092878056859389 0 0)
(0.002001603279103881 0 0)
(0.001886854897445621 0 0)
(0.001759280944606606 0 0)
(0.0016280989771545 0 0)
(0.001496685326607521 0 0)
(0.001365247557675527 0 0)
(0.001233996828360572 0 0)
(0.001103104252603403 0 0)
(0.0009730333998988321 0 0)
(0.0008443505146233059 0 0)
(0.0007179549382281723 0 0)
(0.000594913497743345 0 0)
(0.0004766717736875876 0 0)
(0.0003648766955735944 0 0)
(0.0002615670270372969 0 0)
(0.0001689691105215938 0 0)
(8.966130041585535e-05 0 0)
(2.635573930950152e-05 0 0)
(-1.79424756566972e-05 0 0)
(-4.016143265799345e-05 0 0)
(-3.704368053155333e-05 0 0)
(-5.558349698690175e-06 0 0)
(5.655589712837601e-05 0 0)
(0.0001486980322094821 0 0)
(0.0002646355067451616 0 0)
(0.0003926985041469243 0 0)
(0.0005237270827365562 0 0)
(0.0006549371036951185 0 0)
(0.0007861371703908393 0 0)
(0.0009171164584522993 0 0)
(0.001047734590704802 0 0)
(0.001177433911274662 0 0)
(0.001305716277071785 0 0)
(0.001431590696533785 0 0)
(0.00155408159615365 0 0)
(0.001671684616840717 0 0)
(0.001782894097049059 0 0)
(0.001885680662448859 0 0)
(0.001978039221276372 0 0)
(0.00205749078025428 0 0)
(0.002121648047617496 0 0)
(0.002167719623342816 0 0)
(0.00219305938728616 0 0)
(0.002194674021885955 0 0)
(0.002169871919349464 0 0)
(0.002116174410020647 0 0)
(0.002033114398948134 0 0)
(0.001924294171861638 0 0)
(0.001799556258929625 0 0)
(0.001669399198282431 0 0)
(0.001538650962725899 0 0)
(0.00140785736645515 0 0)
(0.001277208027728817 0 0)
(0.001146832597563759 0 0)
(0.00101712868875606 0 0)
(0.0008885934421672833 0 0)
(0.000762024255921775 0 0)
(0.000638384300644896 0 0)
(0.0005189851184077822 0 0)
(0.0004053462616206114 0 0)
(0.0002993626852164191 0 0)
(0.0002031447181132957 0 0)
(0.0001191668788523733 0 0)
(5.009600004066754e-05 0 0)
(-1.069926253476645e-06 0 0)
(-3.11883331785789e-05 0 0)
(-3.687094080072394e-05 0 0)
(-1.481981454492449e-05 0 0)
(3.774124108934919e-05 0 0)
(0.0001213001196033888 0 0)
(0.0002312666681849205 0 0)
(0.0003566621137669076 0 0)
(0.0004867422095714794 0 0)
(0.0006172887411796631 0 0)
(0.0007478368762764602 0 0)
(0.0008782198581276222 0 0)
(0.001008325046053134 0 0)
(0.001137667673269288 0 0)
(0.001265809745254948 0 0)
(0.001391860214314598 0 0)
(0.001514932805902615 0 0)
(0.001633649448472785 0 0)
(0.001746613273138003 0 0)
(0.001851927429603003 0 0)
(0.001947683925451925 0 0)
(0.002031503135456406 0 0)
(0.00210103787713045 0 0)
(0.00215351689373822 0 0)
(0.002186240765167128 0 0)
(0.002196134782705262 0 0)
(0.002180322499438658 0 0)
(0.002135984360664747 0 0)
(0.002061855292652985 0 0)
(0.001960077853039249 0 0)
(0.001839139007444884 0 0)
(0.001710322640553686 0 0)
(0.00158024872064141 0 0)
(0.001450085123218776 0 0)
(0.001320033040435365 0 0)
(0.001190182780598491 0 0)
(0.001060873124040567 0 0)
(0.0009325389389641006 0 0)
(0.0008058864927297685 0 0)
(0.0006817868027503695 0 0)
(0.0005614314383320855 0 0)
(0.0004462239824441101 0 0)
(0.0003379244321099287 0 0)
(0.0002385269461714932 0 0)
(0.0001503910655541086 0 0)
(7.611030188585693e-05 0 0)
(1.863047011176976e-05 0 0)
(-1.889760993565813e-05 0 0)
(-3.303209859016077e-05 0 0)
(-2.030385172491019e-05 0 0)
(2.245338036156227e-05 0 0)
(9.667682640904683e-05 0 0)
(0.0001994886826753936 0 0)
(0.0003212571961386695 0 0)
(0.0004501123920680393 0 0)
(0.0005799886724558496 0 0)
(0.0007098933162414201 0 0)
(0.0008396786639607569 0 0)
(0.000969257374664052 0 0)
(0.001098211783016104 0 0)
(0.001226159393931629 0 0)
(0.001352299252375749 0 0)
(0.001475826339972643 0 0)
(0.001595476234759236 0 0)
(0.001709952117435449 0 0)
(0.001817480469761144 0 0)
(0.001916250601268574 0 0)
(0.002003988246865541 0 0)
(0.002078407310879683 0 0)
(0.002136787894119421 0 0)
(0.002176425338214989 0 0)
(0.002194220752625489 0 0)
(0.002187186946556393 0 0)
(0.002152262715953032 0 0)
(0.002087535019122622 0 0)
(0.001993783980344148 0 0)
(0.001877761542395127 0 0)
(0.001750808476103356 0 0)
(0.001621465551628186 0 0)
(0.001491921115586321 0 0)
(0.001362464299306779 0 0)
(0.001233149110623976 0 0)
(0.001104261451501177 0 0)
(0.0009761797122029712 0 0)
(0.0008495269724334679 0 0)
(0.0007250916101703645 0 0)
(0.0006039558098784312 0 0)
(0.0004874170958053474 0 0)
(0.0003771084754804339 0 0)
(0.00027491009213802 0 0)
(0.000183061458722176 0 0)
(0.0001040648205841278 0 0)
(4.078455432330442e-05 0 0)
(-3.664742876644511e-06 0 0)
(-2.584445469126776e-05 0 0)
(-2.219401140625427e-05 0 0)
(1.072456943096637e-05 0 0)
(7.511565196079362e-05 0 0)
(0.0001697111442961388 0 0)
(0.0002867098709054656 0 0)
(0.0004138641435403303 0 0)
(0.000543027421224236 0 0)
(0.0006722956223105216 0 0)
(0.0008014815079972078 0 0)
(0.0009305188646880798 0 0)
(0.001059053724911316 0 0)
(0.001186753939839165 0 0)
(0.001312902079596082 0 0)
(0.001436767055191708 0 0)
(0.001557189317331377 0 0)
(0.001672963963513666 0 0)
(0.001782433712973285 0 0)
(0.001883883115007356 0 0)
(0.001975145991880963 0 0)
(0.002054009867419257 0 0)
(0.002117826905029901 0 0)
(0.00216392093130708 0 0)
(0.002189210141039449 0 0)
(0.002190654821569375 0 0)
(0.002165038531858705 0 0)
(0.002109956647890448 0 0)
(0.002025017662137257 0 0)
(0.001915084953836223 0 0)
(0.001790757120618217 0 0)
(0.001662290576650963 0 0)
(0.001533360263983611 0 0)
(0.001404497490812358 0 0)
(0.001275726925745752 0 0)
(0.001147288065836263 0 0)
(0.001019506806656731 0 0)
(0.0008929299541918468 0 0)
(0.0007682706857067197 0 0)
(0.0006465102779442396 0 0)
(0.0005288486274833597 0 0)
(0.0004167983926999589 0 0)
(0.0003121298968051952 0 0)
(0.0002169601475099413 0 0)
(0.0001336907123778571 0 0)
(6.508444146485449e-05 0 0)
(1.419070935259784e-05 0 0)
(-1.559773916131123e-05 0 0)
(-2.069003858492547e-05 0 0)
(2.520150241803772e-06 0 0)
(5.681991778327953e-05 0 0)
(0.0001423356115911831 0 0)
(0.0002533331499683866 0 0)
(0.0003780666531020913 0 0)
(0.0005064002383831505 0 0)
(0.0006350368660124753 0 0)
(0.0007636217395577213 0 0)
(0.0008921040576837727 0 0)
(0.001020189338127496 0 0)
(0.001147592395785917 0 0)
(0.001273672752925413 0 0)
(0.001397768760340232 0 0)
(0.001518817411484867 0 0)
(0.001635700358098241 0 0)
(0.001746869431232563 0 0)
(0.001850702636692456 0 0)
(0.001945141585479682 0 0)
(0.002028055101332102 0 0)
(0.002096880648525625 0 0)
(0.002148993284541217 0 0)
(0.002181358091334103 0 0)
(0.002190925657468652 0 0)
(0.002174395911428525 0 0)
(0.002129013016336747 0 0)
(0.002053444256959472 0 0)
(0.001950718166328155 0 0)
(0.001830004500341315 0 0)
(0.001702706321769437 0 0)
(0.001574401315709505 0 0)
(0.001446130097628801 0 0)
(0.00131791262134 0 0)
(0.001189946835075158 0 0)
(0.001062510055718038 0 0)
(0.0009360785037224452 0 0)
(0.0008112962560824364 0 0)
(0.0006890508766861241 0 0)
(0.0005704512444554448 0 0)
(0.0004568963815763809 0 0)
(0.0003500505498781107 0 0)
(0.0002519090834994884 0 0)
(0.000164767006297486 0 0)
(9.127424868854401e-05 0 0)
(3.439472841145311e-05 0 0)
(-2.55415023074942e-06 0 0)
(-1.599834770775671e-05 0 0)
(-2.245802917489656e-06 0 0)
(4.190669532028804e-05 0 0)
(0.0001177164774882235 0 0)
(0.0002215098288405697 0 0)
(0.0003428546516511354 0 0)
(0.000470111365743616 0 0)
(0.0005981126788778953 0 0)
(0.0007260959635080303 0 0)
(0.0008540111184914524 0 0)
(0.000981619761870806 0 0)
(0.00110867939926598 0 0)
(0.001234621910269833 0 0)
(0.001358850427998657 0 0)
(0.001480392564899645 0 0)
(0.001598211179247277 0 0)
(0.001710862072761383 0 0)
(0.001816813720706308 0 0)
(0.001914114680565662 0 0)
(0.002000718783316063 0 0)
(0.002074157478940788 0 0)
(0.002131872069591035 0 0)
(0.002170895101829736 0 0)
(0.002188198900901021 0 0)
(0.00218045520154978 0 0)
(0.002144674300192639 0 0)
(0.002078809019500757 0 0)
(0.001984254640320725 0 0)
(0.001868304835271875 0 0)
(0.001742675149437928 0 0)
(0.001615044512973996 0 0)
(0.001487361612025824 0 0)
(0.001359703605943454 0 0)
(0.001232232329961064 0 0)
(0.0011051794536004 0 0)
(0.0009789558762214119 0 0)
(0.0008541418325125442 0 0)
(0.0007315370742318328 0 0)
(0.0006121654192893207 0 0)
(0.0004973180000788521 0 0)
(0.0003885573769867756 0 0)
(0.0002877588837220376 0 0)
(0.0001971088085190596 0 0)
(0.0001191373640282288 0 0)
(5.671026918322532e-05 0 0)
(1.304860980222224e-05 0 0)
(-8.324716930477758e-06 0 0)
(-3.695998445360415e-06 0 0)
(3.041553612578711e-05 0 0)
(9.613351565815839e-05 0 0)
(0.0001916557555264429 0 0)
(0.0003084471578666131 0 0)
(0.0004341859432975973 0 0)
(0.0005615190150553992 0 0)
(0.0006889020029821531 0 0)
(0.0008162401210744751 0 0)
(0.0009433483243467743 0 0)
(0.00107002258750202 0 0)
(0.001195763100322043 0 0)
(0.001320033776022777 0 0)
(0.001441947694571694 0 0)
(0.001560544601016206 0 0)
(0.001674479586368992 0 0)
(0.001782308861003174 0 0)
(0.001882185964542967 0 0)
(0.001972151773901784 0 0)
(0.0020498366482693 0 0)
(0.002112758209934937 0 0)
(0.002158030065591863 0 0)
(0.002182669196672081 0 0)
(0.002183360547765952 0 0)
(0.002156973106054422 0 0)
(0.002100945100007535 0 0)
(0.002015315628797988 0 0)
(0.001905334809349938 0 0)
(0.001782119445800572 0 0)
(0.001655291342978835 0 0)
(0.001528194694219713 0 0)
(0.001401100112215857 0 0)
(0.001274141046764757 0 0)
(0.001147506473855985 0 0)
(0.001021546599383961 0 0)
(0.0008967826529717165 0 0)
(0.0007739314205658127 0 0)
(0.0006539372431704528 0 0)
(0.0005379883345830602 0 0)
(0.0004275502113649316 0 0)
(0.0003243803823732656 0 0)
(0.0002305566341418675 0 0)
(0.0001484857849517235 0 0)
(8.092777461355005e-05 0 0)
(3.099262273889722e-05 0 0)
(2.127860907311164e-06 0 0)
(-1.979430543832032e-06 0 0)
(2.231963500752399e-05 0 0)
(7.777734783545728e-05 0 0)
(0.0001641723422799478 0 0)
(0.000275149591083874 0 0)
(0.0003986834923273691 0 0)
(0.0005252509012406088 0 0)
(0.0006520351692874647 0 0)
(0.0007787890207407084 0 0)
(0.0009053766129510817 0 0)
(0.001031627892680894 0 0)
(0.001157107497652426 0 0)
(0.001281336207158427 0 0)
(0.001403507373225958 0 0)
(0.001522733353950953 0 0)
(0.001637763072533248 0 0)
(0.001747236065518085 0 0)
(0.001849405698865924 0 0)
(0.001942397003852103 0 0)
(0.002023936085127301 0 0)
(0.002091615139745553 0 0)
(0.002142626362671024 0 0)
(0.002174033697224625 0 0)
(0.002182548980594943 0 0)
(0.002164957707918233 0 0)
(0.002118360770894508 0 0)
(0.002041824946270388 0 0)
(0.001938851947768736 0 0)
(0.001819392561559592 0 0)
(0.001694337856306803 0 0)
(0.001568626128526213 0 0)
(0.001442895755012428 0 0)
(0.001317275264243523 0 0)
(0.001191925780266726 0 0)
(0.00106717675599182 0 0)
(0.0009435225200356441 0 0)
(0.0008216557498254119 0 0)
(0.0007024875804694221 0 0)
(0.0005871657307757916 0 0)
(0.0004770866057243011 0 0)
(0.0003738989148613499 0 0)
(0.0002794940281111102 0 0)
(0.0001959731894122886 0 0)
(0.0001255658695784785 0 0)
(7.042650125171267e-05 0 0)
(3.212130148771899e-05 0 0)
(1.047762323014774e-05 0 0)
(1.971821565580287e-06 0 0)
(1.558170106367357e-07 0 0)
(3.487423660411906e-09 0 0)
(1.602474082513057e-11 0 0)
(1.34729473146164e-12 0 0)
(1.249898778742544e-12 0 0)
(1.345173965103808e-12 0 0)
(1.495130197596628e-12 0 0)
(1.780032656576167e-12 0 0)
(2.250607617048572e-12 0 0)
(2.49888708298571e-12 0 0)
(2.091949492051272e-12 0 0)
(2.185246697103885e-12 0 0)
(2.458886955866218e-12 0 0)
(2.471318900955445e-12 0 0)
(2.037104169020709e-12 0 0)
(1.877743779660404e-12 0 0)
(2.105556439145445e-12 0 0)
(2.070482754713955e-12 0 0)
(2.295100480705104e-12 0 0)
(2.313950306321827e-12 0 0)
(2.013604008102346e-12 0 0)
(1.520454381679239e-12 0 0)
(1.237799212275568e-12 0 0)
(1.636571121573549e-12 0 0)
(1.912832256714659e-12 0 0)
(2.304379119718549e-12 0 0)
(2.491503945557468e-12 0 0)
(2.599668059277292e-12 0 0)
(2.755618229343225e-12 0 0)
(2.478109524038603e-12 0 0)
(2.148898766077701e-12 0 0)
(1.991955147721777e-12 0 0)
(2.238626269421239e-12 0 0)
(2.177407651661393e-12 0 0)
(2.323039494707989e-12 0 0)
(2.389848061403013e-12 0 0)
(2.34991946824259e-12 0 0)
(2.305668922116117e-12 0 0)
(1.919691210640442e-12 0 0)
(1.476792020388919e-12 0 0)
(9.389315433023818e-13 0 0)
(7.520687412091929e-13 0 0)
(3.852625223608781e-13 0 0)
(4.115548264726816e-13 0 0)
(8.853929170883461e-13 0 0)
(1.271764306367178e-12 0 0)
(1.365447419477246e-12 0 0)
(1.253426222139108e-12 0 0)
(1.464956029140615e-12 0 0)
(1.830403136474137e-12 0 0)
(2.162761700356754e-12 0 0)
(2.383020034028215e-12 0 0)
(2.700463011746073e-12 0 0)
(3.087868731353398e-12 0 0)
(3.590916107729029e-12 0 0)
(4.054986625010726e-12 0 0)
(3.89088051020014e-12 0 0)
(3.687641668283512e-12 0 0)
(3.614510505560299e-12 0 0)
(3.868649303725906e-12 0 0)
(3.698328240607721e-12 0 0)
(3.239636249775678e-12 0 0)
(3.029540778067215e-12 0 0)
(2.676767087886827e-12 0 0)
(2.505047412434672e-12 0 0)
(2.33521605720804e-12 0 0)
(1.992799146455784e-12 0 0)
(1.360246895870306e-12 0 0)
(9.077477903368547e-13 0 0)
(5.151439432739073e-13 0 0)
(2.887356085824573e-13 0 0)
(2.57625556239439e-13 0 0)
(3.401546443352853e-13 0 0)
(5.606141812017766e-13 0 0)
(7.530157191480263e-13 0 0)
(9.818198504204166e-13 0 0)
(6.728759284730621e-13 0 0)
(6.134414848883474e-13 0 0)
(5.701971798964153e-13 0 0)
(4.147516881000646e-13 0 0)
(8.324565836507736e-13 0 0)
(9.1888437788772e-13 0 0)
(7.372051988034983e-13 0 0)
(4.866531531267744e-13 0 0)
(7.425793014855693e-13 0 0)
(8.750607264896199e-13 0 0)
(9.733080380949881e-13 0 0)
(1.050937351032928e-12 0 0)
(1.12307756205904e-12 0 0)
(1.256382747949851e-12 0 0)
(1.265576754760942e-12 0 0)
(9.876840899086829e-13 0 0)
(4.66447228775482e-13 0 0)
(3.116675945947707e-13 0 0)
(2.852361999814836e-13 0 0)
(4.316706752865205e-13 0 0)
(6.20524345876097e-13 0 0)
(9.142598806211661e-13 0 0)
(1.336042274435284e-12 0 0)
(1.294282783113758e-12 0 0)
(1.408318414834847e-12 0 0)
(1.734735007733028e-12 0 0)
(2.094974961222278e-12 0 0)
(2.195525460190892e-12 0 0)
(2.587489023987819e-12 0 0)
(2.989246983352942e-12 0 0)
(3.448016498936627e-12 0 0)
(3.501853957994117e-12 0 0)
(2.966588389592619e-12 0 0)
(3.081219509343739e-12 0 0)
(3.056480929262027e-12 0 0)
(2.775858922998839e-12 0 0)
(2.492557437040344e-12 0 0)
(2.385554612388138e-12 0 0)
(2.420849190682073e-12 0 0)
(2.540738112930437e-12 0 0)
(2.587965263179666e-12 0 0)
(2.513002672908196e-12 0 0)
(2.487839666007402e-12 0 0)
(2.177676428169391e-12 0 0)
(1.73141538201795e-12 0 0)
(1.410625413284577e-12 0 0)
(1.581183511152291e-12 0 0)
(1.371916479020262e-12 0 0)
(7.706998598177905e-13 0 0)
(3.974986309926467e-13 0 0)
(2.52337751325838e-13 0 0)
(2.882805937639277e-13 0 0)
(3.356559294930713e-13 0 0)
(5.375615011796672e-13 0 0)
(6.41253441449459e-13 0 0)
(5.781710457806882e-13 0 0)
(4.778597736761209e-13 0 0)
(3.937368989454718e-13 0 0)
(3.87456319069549e-13 0 0)
(2.68452547019996e-13 0 0)
(4.343653053271136e-13 0 0)
(5.493771085263314e-13 0 0)
(5.016262920973591e-13 0 0)
(4.420477624453436e-13 0 0)
(5.249596867684253e-13 0 0)
(5.416863564077798e-13 0 0)
(5.738512681011422e-13 0 0)
(8.753507778241662e-13 0 0)
(9.155460374511729e-13 0 0)
(9.216474340818269e-13 0 0)
(9.784356667861476e-13 0 0)
(1.04547220297103e-12 0 0)
(7.496880486440119e-13 0 0)
(7.361136257488248e-13 0 0)
(8.33220673293777e-13 0 0)
(9.09569911806913e-13 0 0)
(1.00249943626785e-12 0 0)
(9.062835404972966e-13 0 0)
(8.930891601628061e-13 0 0)
(7.992990790094414e-13 0 0)
(1.095646329841582e-12 0 0)
(1.120243644495512e-12 0 0)
(7.517134025740265e-13 0 0)
(5.986697683831005e-13 0 0)
(1.769106413528821e-13 0 0)
(-3.432712672139568e-13 0 0)
(-5.92122611925912e-13 0 0)
(-5.765774533746783e-13 0 0)
)
;

boundaryField
{
    inlet
    {
        type            calculated;
        value           uniform (-4.485603713743896e-05 0 0);
    }
    outlet
    {
        type            calculated;
        value           uniform (-5.765774533746783e-13 0 0);
    }
    frontAndBack
    {
        type            empty;
    }
}


// ************************************************************************* //
