/*--------------------------------*- C++ -*----------------------------------*\
| =========                 |                                                 |
| \\      /  F ield         | OpenFOAM: The Open Source CFD Toolbox           |
|  \\    /   O peration     | Version:  v2012                                 |
|   \\  /    A nd           | Website:  www.openfoam.com                      |
|    \\/     M anipulation  |                                                 |
\*---------------------------------------------------------------------------*/
FoamFile
{
    version     2.0;
    format      ascii;
    class       volScalarField;
    location    "0.006";
    object      rho;
}
// * * * * * * * * * * * * * * * * * * * * * * * * * * * * * * * * * * * * * //

dimensions      [1 -3 0 0 0 0 0];


internalField   nonuniform List<scalar> 
1000
(
1.176332142635417
1.176323386701844
1.176261572147091
1.176210253556891
1.176166068352495
1.176123085377101
1.17609279976071
1.176074700263385
1.176054835262601
1.176012170279798
1.175978997416413
1.175959682770666
1.175971235748444
1.176006032353837
1.176055192341393
1.176073212391428
1.176105181107046
1.176132083711002
1.176159686252061
1.176197852997604
1.176248443138723
1.176302366130756
1.176332823468102
1.17639707057388
1.176504292046178
1.176599217826567
1.176653718165058
1.17669413734255
1.176716431869013
1.176710228866251
1.176710630189749
1.176744943494489
1.176818036425226
1.176858692462971
1.176887693587035
1.176874419666272
1.176834710425945
1.176786078485245
1.176742400206318
1.176714778308895
1.176701012051593
1.176687706635422
1.176666119089475
1.176632326517347
1.176574542913225
1.176482908547467
1.176378304324028
1.176301898923879
1.176260130582621
1.176229277508536
1.176188675523314
1.176133648642791
1.17607177020033
1.17601862409985
1.175992030406035
1.175989258463828
1.175987414137083
1.175976723954078
1.175960948621125
1.175963799828551
1.175991932742926
1.176041830043754
1.176091511854553
1.176123750872119
1.176137061674456
1.1761448861684
1.176168974222815
1.176225456962189
1.176315403006159
1.176429724656364
1.176528298513807
1.176575241273276
1.176595677051673
1.176630074700372
1.176700778484528
1.176786722776772
1.176835641549907
1.176845255235815
1.176831368799282
1.176813171157554
1.176813180810773
1.176822690550533
1.176846310808942
1.176854553416597
1.176839886420156
1.176804910200124
1.176752431681761
1.176688483638429
1.176632876692151
1.176604675533219
1.176586773588515
1.176553540873589
1.176492454537765
1.176406052153684
1.176299047714194
1.176182907007799
1.176083070258923
1.176027882110998
1.176010327354483
1.175998946961493
1.176003888991106
1.176015544906829
1.176021221823894
1.176009598734822
1.175989174106032
1.175974515249783
1.17598200924351
1.176004403126719
1.176032513064168
1.17604446185145
1.176078484112756
1.176150714648818
1.176232308019997
1.176292513676837
1.176342656119544
1.176391427290594
1.176469923939274
1.176580075373562
1.176643063260372
1.1766669998721
1.176684043202978
1.17670244380387
1.176725872244
1.176782465512739
1.176834167967026
1.176847793758664
1.176858959218904
1.176852807465504
1.176831148330322
1.176801880796149
1.17678141179888
1.176776987203387
1.176782873195251
1.176782694916558
1.176767023962204
1.176729211749481
1.176663164970083
1.176546681674675
1.176410827508085
1.176332705992616
1.176296053048037
1.176253107893948
1.176176826285402
1.176061808764865
1.175975257047146
1.175966229577722
1.175972695714674
1.175983014386785
1.175984028639607
1.175985068696633
1.175987920805987
1.175996342503348
1.176008238327938
1.176020728503627
1.176031516480097
1.176035885236217
1.176043257521102
1.176077669445591
1.17618216846582
1.176347954295853
1.176445263909742
1.176462666417557
1.17646555709333
1.176461316443469
1.176477521803073
1.176542314384172
1.176678444291635
1.176784182584374
1.176804926525731
1.176802542244964
1.176796474587186
1.176797107112423
1.176804035742138
1.176816423825954
1.176831487569068
1.176841802076202
1.176843684512251
1.176841579928609
1.1768433499092
1.17684255854224
1.176829915867415
1.176797280237069
1.176737306700371
1.176647404405193
1.17653007585859
1.176377449980799
1.17618703939353
1.176035832152309
1.175996294110858
1.175992074385717
1.175995144050952
1.176000646348957
1.176003648658325
1.176004592045808
1.176005251751963
1.176007160119694
1.176010539167672
1.176011487025326
1.176010447386114
1.176005896829365
1.17600598106093
1.176012023857606
1.176026659654727
1.176051964444894
1.176114590345742
1.176239098263863
1.176368187368455
1.1764254352212
1.176447041223761
1.176468379163293
1.176510515375804
1.176611323318237
1.176735830735986
1.176780972442164
1.176785438228322
1.176787599959291
1.176788762374906
1.176789485681291
1.176800571526988
1.176827824616206
1.176852666108156
1.176858861827289
1.176857708341704
1.176854759126801
1.176852962052966
1.176849821331802
1.176839266964395
1.176814785767065
1.176770307171708
1.176699866766314
1.17658713491975
1.176396157601082
1.176148657440728
1.176020889600476
1.176006495211405
1.176006068790171
1.176005573220702
1.176006823741683
1.176009359303655
1.176011272991547
1.176010517647107
1.176007706257536
1.176004368949799
1.175999367071627
1.175992811548208
1.175989439090674
1.175988924885443
1.175987322948849
1.175987014663691
1.175988615691888
1.175993709625678
1.176006076324942
1.176035477361703
1.176123164267474
1.176351882140366
1.176677306101988
1.176819126246633
1.176829962945111
1.176830793231472
1.176829208604232
1.17682694480066
1.176825820304891
1.176825385764196
1.176824628741019
1.176824183875014
1.176823478647948
1.176824465427789
1.17682595226921
1.176826822929865
1.176826095794953
1.176824946632117
1.176824345416781
1.176824395355467
1.176824053761708
1.176819859292161
1.176804068241913
1.176761487333736
1.176622183075013
1.176311990068441
1.176024709999521
1.175963402092836
1.175961088218992
1.175961764733371
1.175963148367096
1.175963975367323
1.175964791322726
1.175965889415919
1.175966977362791
1.175967678799213
1.175967562392478
1.175967561245067
1.175968432409606
1.175970003044752
1.175971412722504
1.175973412028853
1.175978341977273
1.17598810938584
1.176006768658454
1.176050003162501
1.17616253396919
1.176413458434924
1.176702889372641
1.176794645470299
1.176799384631005
1.176799509685485
1.176798945160015
1.176798544125351
1.176799349098861
1.176800463492288
1.17680229845583
1.176811644704025
1.176828665151917
1.176847843939656
1.176854612301828
1.176856574827791
1.17685539213267
1.176852525496083
1.176852127536569
1.176854952168522
1.176848884714687
1.176838605832408
1.17683396817021
1.176780686257314
1.176620306078108
1.176284513569364
1.176016311753924
1.175971141329468
1.17597012364789
1.175970186293953
1.175969995916519
1.175969919793655
1.175970280529064
1.175971106232317
1.17597179295539
1.175972477109228
1.17597265108887
1.175972517160031
1.175972166286559
1.175971978508498
1.175972350843012
1.175973366077298
1.175975044924237
1.175977492692788
1.175982511319469
1.17599745680895
1.176045268275604
1.176189255075078
1.176500946537586
1.176786542024342
1.176846943506266
1.176848685517565
1.176848653413197
1.176848333779429
1.176847946446986
1.17684772078751
1.176847378374631
1.176846790541882
1.176846281979965
1.176846092935988
1.176846081703363
1.176845932327766
1.17684561194049
1.176845277995011
1.17684477571456
1.176843564311328
1.176841173033922
1.176836416306662
1.176824807740113
1.176791452245249
1.176689802042919
1.17643250919871
1.17609672042846
1.175973675421817
1.175966714388171
1.175966656254018
1.175966578490396
1.175966688278825
1.175967023898178
1.175967418013665
1.175967571014778
1.175968546961116
1.175969997957014
1.175970621004636
1.175970553096714
1.175970467970974
1.175971058415974
1.175971661485628
1.175971032892273
1.17597214956375
1.175977211572893
1.175983660144135
1.17601742188373
1.176121225979239
1.176387017787678
1.176728629785364
1.176850220943249
1.176856742343047
1.176856652648514
1.176856489335581
1.176856563975099
1.176856477147327
1.176856165786107
1.176855663074838
1.176855076433247
1.176852898895583
1.176848488328991
1.176842589235928
1.17683790199321
1.176835686537075
1.176834499864364
1.176833452665996
1.176832236730528
1.176828985628683
1.176820593281674
1.176797843902565
1.176724838775415
1.176524271551993
1.176184289775602
1.175989775248452
1.175968846163243
1.175968477430934
1.175968839888395
1.175969265443037
1.175969216530341
1.17596945058613
1.175970725570624
1.175972829182556
1.175976866190624
1.175984579023112
1.175992629857677
1.175996488122675
1.175997537454286
1.175998051328671
1.175999541717689
1.176001963938354
1.176005211344532
1.176013429460576
1.176033853495745
1.176085857707468
1.176235662956381
1.176541805984888
1.176802125244589
1.176852135359344
1.176853474720388
1.176853812403548
1.176853369594438
1.176852264251456
1.176850857143782
1.176849621847096
1.176844162728545
1.176834433238778
1.176827208086632
1.176825742983703
1.176825674557245
1.176824840003235
1.176823772471018
1.176824221375078
1.176823992268627
1.176821048279665
1.176814853661101
1.176805029554976
1.176757758488578
1.176627446297827
1.176332135703283
1.176040041799758
1.175969732098899
1.175967372292359
1.175968335650898
1.175968981982512
1.175969551456959
1.175973154622572
1.175980372426328
1.175990257054947
1.176000614637273
1.176005505031443
1.176007524737966
1.176006653693213
1.176004078635324
1.176006554133704
1.17601144207833
1.176013453168547
1.176010811483347
1.176017511770812
1.176035316754889
1.176053629249826
1.176145254067367
1.176378612253181
1.17670910052158
1.176847202356472
1.176857535254569
1.176858590332175
1.176856978353848
1.176854390136332
1.17685291007336
1.176848524170423
1.1768359561299
1.176822517987129
1.176818126613027
1.176818581472713
1.176818844165548
1.176817898926227
1.176817850594878
1.176820886880622
1.176817203618059
1.176810297327975
1.176807308634027
1.17680375126729
1.176769850285709
1.176693595118286
1.176469158978104
1.176132442018824
1.17597935642976
1.175967678151237
1.175968109900024
1.175968431008594
1.175969151869817
1.175972824162104
1.175979542847079
1.17598948657058
1.175999822074052
1.176004201988321
1.176005962093224
1.176003727694159
1.176001007141195
1.176002436177736
1.176006220137128
1.17600681774906
1.17600447891578
1.176011528094516
1.176027312715928
1.17604043899685
1.17611798997725
1.176322339226096
1.176656934101785
1.176834083690754
1.176851918028757
1.176852936695729
1.176851403115372
1.176849143983005
1.176848221790416
1.17684401327789
1.176833231203912
1.176822404498347
1.176818973652778
1.176819070077655
1.176818670396373
1.176818521848838
1.176819367215857
1.176821621143815
1.176817555068581
1.176811466546247
1.176810908730299
1.17680701245031
1.176778480563696
1.176721500240045
1.176534850651228
1.176202836687869
1.175999329655692
1.175975575833755
1.17597531536459
1.175975083894475
1.175976185392931
1.175980181016863
1.175985847302701
1.175994272886359
1.17600180845369
1.176004944996803
1.176006272891231
1.176004135571596
1.176001787167547
1.17600418830032
1.176007701276756
1.176006805873021
1.176006054568848
1.176012915179409
1.176025186710041
1.176033176459602
1.176091633787665
1.176250442720318
1.176568251214512
1.176807333787113
1.17684575566429
1.176846953565524
1.176845810695983
1.17684378731133
1.176841801584215
1.176834020029753
1.176824036528904
1.17682036421688
1.176820861021384
1.176821572483377
1.176819786740047
1.176818134740077
1.176819765069938
1.17681954701622
1.176814717655794
1.17680964363342
1.176811401192801
1.176806689976457
1.176783826289612
1.176746439593317
1.176606030435216
1.176303731787467
1.176035139343052
1.175981308644117
1.175979808466581
1.175979425063964
1.175980543471733
1.175984843386301
1.175990883642035
1.175998965829975
1.176002992395254
1.176004221553497
1.17600425718625
1.176002770621672
1.176002790336186
1.176005774942862
1.176008300101062
1.17600617277614
1.176007562979144
1.176014312209157
1.176022503262367
1.17602697165751
1.176070179264363
1.176184300838121
1.176461350921773
1.176760648499235
1.176841904984482
1.176845164631378
1.176844294122187
1.176843107924848
1.176841581954196
1.176834560984206
1.176824471739061
1.17681945944343
1.176819324705408
1.176819457901346
1.176817905688465
1.17681733235661
1.17681947945932
1.17681790807295
1.176813337636509
1.176810199840033
1.176813195864862
1.176807109036158
1.176788351361767
1.1767661760744
1.176664802536321
1.176412680993198
1.176094673662587
1.175985547339852
1.175979450929107
1.175978790830784
1.175979977305154
1.175983645176982
1.175988440985164
1.175997824767297
1.176004724476181
1.176006342676052
1.176005721573711
1.176004116533691
1.176004916972204
1.17600757750647
1.176008517645088
1.176006308853887
1.176009511967032
1.176016027051179
1.176019802008314
1.17602310390969
1.176055829509425
1.176132855662471
1.176354580271617
1.176684767750279
1.176833670541332
1.176844928272799
1.17684453346833
1.176844021095192
1.176842782385352
1.176836560297608
1.176826953889183
1.176819739970473
1.176818251544258
1.176817823947044
1.176816880388272
1.176817289383305
1.176819038742398
1.176816349162869
1.176811979095497
1.176811496192621
1.1768135892962
1.176806580198864
1.176791567517293
1.176779812678046
1.17670770159847
1.176513455331041
1.176183063600127
1.175997897143524
1.175978190982437
1.175977310119481
1.175978517996578
1.175981382528314
1.175984735118755
1.175994516152784
1.176004585916011
1.176007318763854
1.176006545023907
1.176005331510729
1.176006745575929
1.17600881232304
1.176007946940444
1.176007179043037
1.176011567210377
1.17601734811832
1.176017322662949
1.176021186415888
1.176046632943041
1.176095398848265
1.176260800801695
1.176581302516146
1.176812587832261
1.176846758314016
1.176847279864614
1.176847389488731
1.176846131749242
1.176840555016816
1.176831978470862
1.176821686096748
1.17681724772925
1.176815884228571
1.176815072109219
1.176816445389333
1.176817335117451
1.176814157634727
1.176810833839981
1.176812540010074
1.17681226326132
1.176805059272823
1.176794308315887
1.176788561532465
1.176737259642488
1.176597410314103
1.176293185983946
1.176028959874587
1.175977183818563
1.17597552954063
1.17597661494221
1.175978509175998
1.175981010502554
1.175990605157834
1.176002993819321
1.176007745700636
1.17600742552968
1.176006830011593
1.176008429225636
1.176009167865095
1.176007117628729
1.176008190978026
1.176012905290154
1.176016956432492
1.17601409874288
1.176019845772402
1.176040922967278
1.176069643679069
1.176189108635317
1.176466855624087
1.176766135250857
1.176847168792127
1.176850750712473
1.176851546804053
1.176850020363627
1.176845486222642
1.176839871467685
1.176827889247159
1.176816449684285
1.176812736090263
1.176812166752065
1.176814052486261
1.176815068272385
1.176812721296785
1.176811149618785
1.176813898096975
1.176810924994906
1.176803574636592
1.176797839222729
1.176794471127509
1.176756702897701
1.176662551401338
1.176411515193543
1.176090282749854
1.17597764050863
1.175971468915996
1.175972425616584
1.175973692661472
1.17597431632862
1.175979374130899
1.175990713436802
1.17600513672612
1.17601223180547
1.176013661325877
1.176014797799174
1.176013608407832
1.176011533797241
1.176011130310816
1.176014399965991
1.176017082743715
1.176014803568158
1.176019239422009
1.176033877144804
1.176052439731671
1.17613512598193
1.176355991546711
1.176686995460006
1.176836176604996
1.176847281323263
1.176847347451202
1.176847348784777
1.17684733758494
1.176847324680316
1.176847259259501
1.176847084128134
1.176846633903409
1.176845566049552
1.176843271802715
1.176839028478304
1.176832458992856
1.176823247835805
1.176808807761481
1.176779049591227
1.176706199970996
1.17656216364922
1.176437428508937
1.176412326368739
1.176411716931958
1.176411716172212
1.176411716172193
1.176411716172194
1.176411716172193
1.176411716172196
1.176411716172202
1.17641171617221
1.176411716172213
1.176411716172212
1.176411716172212
1.176411716172212
1.176411716172211
1.17641171617221
1.17641171617221
1.176411716172211
1.176411716172211
1.176411716172212
1.176411716172213
1.176411716172214
1.176411716172215
1.176411716172215
1.176411716172216
1.176411716172216
1.176411716172216
1.176411716172216
1.176411716172216
1.176411716172216
1.176411716172215
1.176411716172213
1.176411716172212
1.176411716172212
1.176411716172212
1.176411716172212
1.176411716172213
1.176411716172214
1.176411716172215
1.176411716172214
1.176411716172213
1.176411716172213
1.176411716172212
1.176411716172212
1.176411716172211
1.17641171617221
1.176411716172209
1.176411716172209
1.176411716172209
1.176411716172209
1.17641171617221
1.176411716172211
1.176411716172212
1.176411716172212
1.176411716172213
1.176411716172212
1.176411716172213
1.176411716172213
1.176411716172214
1.176411716172213
1.176411716172213
1.176411716172213
1.176411716172213
1.176411716172213
1.176411716172213
1.176411716172213
1.176411716172214
1.176411716172214
1.176411716172215
1.176411716172215
1.176411716172216
1.176411716172216
1.176411716172215
1.176411716172215
1.176411716172215
1.176411716172215
1.176411716172215
1.176411716172215
1.176411716172214
1.176411716172215
1.176411716172215
1.176411716172215
1.176411716172216
1.176411716172216
1.176411716172216
1.176411716172216
1.176411716172216
1.176411716172215
1.176411716172216
1.176411716172216
1.176411716172215
1.176411716172215
1.176411716172215
1.176411716172215
1.176411716172213
1.176411716172212
1.176411716172211
1.176411716172212
1.176411716172212
1.176411716172211
1.17641171617221
1.17641171617221
1.176411716172211
1.176411716172211
1.176411716172211
1.176411716172211
1.176411716172211
1.176411716172211
1.176411716172211
1.176411716172211
1.176411716172211
1.176411716172211
1.176411716172212
1.176411716172213
1.176411716172213
1.176411716172214
1.176411716172215
1.176411716172215
1.176411716172215
1.176411716172215
1.176411716172216
1.176411716172216
1.176411716172216
1.176411716172215
1.176411716172216
1.176411716172215
1.176411716172214
1.176411716172214
1.176411716172215
1.176411716172215
1.176411716172216
1.176411716172216
1.176411716172216
1.176411716172216
1.176411716172216
1.176411716172216
1.176411716172216
1.176411716172216
1.176411716172216
1.176411716172216
1.176411716172216
1.176411716172216
1.176411716172216
1.176411716172217
1.176411716172216
1.176411716172217
1.176411716172217
1.176411716172217
1.176411716172216
1.176411716172216
1.176411716172216
1.176411716172216
1.176411716172216
1.176411716172215
1.176411716172215
1.176411716172213
1.176411716172212
1.176411716172212
1.176411716172212
1.176411716172212
1.176411716172211
1.176411716172212
1.176411716172211
1.176411716172211
1.176411716172209
1.176411716172208
1.176411716172208
1.176411716172207
1.176411716172208
1.17641171617221
)
;

boundaryField
{
    inlet
    {
        type            calculated;
        value           uniform 1.176411716172193;
    }
    outlet
    {
        type            calculated;
        value           uniform 1.176411716172214;
    }
    frontAndBack
    {
        type            empty;
    }
}


// ************************************************************************* //
