/*--------------------------------*- C++ -*----------------------------------*\
| =========                 |                                                 |
| \\      /  F ield         | OpenFOAM: The Open Source CFD Toolbox           |
|  \\    /   O peration     | Version:  v2012                                 |
|   \\  /    A nd           | Website:  www.openfoam.com                      |
|    \\/     M anipulation  |                                                 |
\*---------------------------------------------------------------------------*/
FoamFile
{
    version     2.0;
    format      ascii;
    class       volVectorField;
    location    "0.006";
    object      UMean;
}
// * * * * * * * * * * * * * * * * * * * * * * * * * * * * * * * * * * * * * //

dimensions      [0 1 -1 0 0 0 0];


internalField   nonuniform List<vector> 
1000
(
(-4.730418567790347e-05 0 0)
(-4.760426447524197e-05 0 0)
(3.044314003418085e-05 0 0)
(9.352441478329349e-05 0 0)
(0.0001578293653347748 0 0)
(0.0002851167512890574 0 0)
(0.0003851319767259972 0 0)
(0.0004694499811638916 0 0)
(0.0006040457978929617 0 0)
(0.0007737799989369042 0 0)
(0.0008967155088603008 0 0)
(0.001029824713112083 0 0)
(0.001241053451373774 0 0)
(0.001364470675031776 0 0)
(0.001450997471442279 0 0)
(0.001635492831888901 0 0)
(0.001769588044189798 0 0)
(0.00181767128159267 0 0)
(0.00192572162197891 0 0)
(0.002041682344842374 0 0)
(0.002112025998702138 0 0)
(0.002106341991326046 0 0)
(0.002178628928650299 0 0)
(0.002216886695261098 0 0)
(0.002197255231992898 0 0)
(0.0021450660923967 0 0)
(0.002067233176954357 0 0)
(0.002016057790494829 0 0)
(0.001876909866292396 0 0)
(0.001762895312011355 0 0)
(0.001677786517257585 0 0)
(0.001585909349982207 0 0)
(0.001432011705149546 0 0)
(0.001298904054115862 0 0)
(0.001138634735167295 0 0)
(0.0009616133481663689 0 0)
(0.0007974315254436486 0 0)
(0.00066952237048991 0 0)
(0.0005374595516159915 0 0)
(0.0004228812293075645 0 0)
(0.0003287272014784805 0 0)
(0.0002128623719106101 0 0)
(0.0001170532932222047 0 0)
(5.273799243152762e-05 0 0)
(-4.15150786384894e-05 0 0)
(-8.623893565417742e-05 0 0)
(-6.948960634604982e-05 0 0)
(-7.472497857273994e-05 0 0)
(-2.459124598218376e-05 0 0)
(3.398827808186045e-05 0 0)
(9.940202341421957e-05 0 0)
(0.0001962205267362989 0 0)
(0.0002929560184655849 0 0)
(0.0004105994828065659 0 0)
(0.0005733759843187789 0 0)
(0.0007084215738272559 0 0)
(0.0008552027704508417 0 0)
(0.001011341046288223 0 0)
(0.001175752205909878 0 0)
(0.001329006871483413 0 0)
(0.001491306265303748 0 0)
(0.001632596068690989 0 0)
(0.001748278519896742 0 0)
(0.001876444033375612 0 0)
(0.00196343003379768 0 0)
(0.002062970421951489 0 0)
(0.002167528409329466 0 0)
(0.002237906335896 0 0)
(0.002290782252857317 0 0)
(0.002318084764982827 0 0)
(0.002305266849779553 0 0)
(0.002243245888577126 0 0)
(0.002192934285122189 0 0)
(0.002138950952316519 0 0)
(0.002034133468872442 0 0)
(0.001920551257987965 0 0)
(0.001784556939670537 0 0)
(0.001635629253772068 0 0)
(0.001478967200550491 0 0)
(0.001331408272065333 0 0)
(0.001202609566435228 0 0)
(0.001054016113876518 0 0)
(0.000893631313078655 0 0)
(0.0007530497807923184 0 0)
(0.0005929231722050201 0 0)
(0.0004423661863835103 0 0)
(0.0003126059748696467 0 0)
(0.0002103122296103735 0 0)
(0.0001110781985401752 0 0)
(2.117457902598834e-05 0 0)
(-2.019013102942559e-05 0 0)
(-9.163609259802512e-05 0 0)
(-0.0001476208392115031 0 0)
(-0.0001474910990696437 0 0)
(-0.0001341967247810188 0 0)
(-9.922628038354009e-05 0 0)
(-3.676591144184157e-06 0 0)
(0.0001412339492111538 0 0)
(0.0002521482385734649 0 0)
(0.0004018468958329142 0 0)
(0.0005598856995899167 0 0)
(0.0006951544642611036 0 0)
(0.0008229255566761624 0 0)
(0.0009732793995357844 0 0)
(0.001128557168264156 0 0)
(0.001265301226807729 0 0)
(0.001417969795828802 0 0)
(0.001584652748548392 0 0)
(0.001715491184144898 0 0)
(0.001836922915474594 0 0)
(0.001980566662509134 0 0)
(0.002088260880455096 0 0)
(0.002161439828375904 0 0)
(0.00222088703403243 0 0)
(0.002257377102836413 0 0)
(0.002269078739414975 0 0)
(0.002276201471652898 0 0)
(0.002235983399489878 0 0)
(0.002163342991796324 0 0)
(0.002084830337659505 0 0)
(0.001986693934399918 0 0)
(0.001879909038569731 0 0)
(0.001783996847558836 0 0)
(0.001667625700765987 0 0)
(0.001514461750584097 0 0)
(0.00136802127730013 0 0)
(0.001216341239688172 0 0)
(0.001046729835970573 0 0)
(0.0008993855094037515 0 0)
(0.0007554410625179825 0 0)
(0.0006176284336524399 0 0)
(0.0004860647789240883 0 0)
(0.0003535541217255445 0 0)
(0.0002212626954805491 0 0)
(8.922365700742296e-05 0 0)
(-2.976117011619391e-05 0 0)
(-0.000136361427556083 0 0)
(-0.0002142374603471991 0 0)
(-0.0002399703008050094 0 0)
(-0.0002379230474308047 0 0)
(-0.0002079902804093437 0 0)
(-0.0001636820258813933 0 0)
(-9.33542024622151e-05 0 0)
(-1.748911015076827e-06 0 0)
(0.0001324983500672486 0 0)
(0.0002940974942994403 0 0)
(0.0004492609798629211 0 0)
(0.0005974937387104487 0 0)
(0.0007485825608054388 0 0)
(0.0009066179458661586 0 0)
(0.001053825688453071 0 0)
(0.001202340672390334 0 0)
(0.001346294490132275 0 0)
(0.00149022238171498 0 0)
(0.001625956691301509 0 0)
(0.001755828772981564 0 0)
(0.001893069279350637 0 0)
(0.002024980323463377 0 0)
(0.002130424560286487 0 0)
(0.002184508646498873 0 0)
(0.002193894947467127 0 0)
(0.002186179066704476 0 0)
(0.002160101149226136 0 0)
(0.002147654729183041 0 0)
(0.002131921047474388 0 0)
(0.002103968478410348 0 0)
(0.002032184718981085 0 0)
(0.001925850291963323 0 0)
(0.001794152141349064 0 0)
(0.001654378450307667 0 0)
(0.001514747883256449 0 0)
(0.001386624614053773 0 0)
(0.001245040224428001 0 0)
(0.001107599051595081 0 0)
(0.0009590390383692016 0 0)
(0.000813914188998241 0 0)
(0.0006588732189362302 0 0)
(0.0005093912133265054 0 0)
(0.0003527737883079298 0 0)
(0.0002031894826052054 0 0)
(5.126951453170323e-05 0 0)
(-9.193475598432534e-05 0 0)
(-0.000225240416162525 0 0)
(-0.0003255983592536974 0 0)
(-0.0003973892545085858 0 0)
(-0.0004270235934403529 0 0)
(-0.0003894073798912186 0 0)
(-0.0002867723463014258 0 0)
(-0.0001486764468733062 0 0)
(1.388383563464042e-06 0 0)
(0.0001489506448456479 0 0)
(0.0002963951307190402 0 0)
(0.0004404003158177775 0 0)
(0.0005878285315049953 0 0)
(0.0007287844529049864 0 0)
(0.000875170271565356 0 0)
(0.00101674972424484 0 0)
(0.001159498079558073 0 0)
(0.001300503536667445 0 0)
(0.001445452542864893 0 0)
(0.001588711058736569 0 0)
(0.001732133785311686 0 0)
(0.001870945154417434 0 0)
(0.002005264437761561 0 0)
(0.002125809491295875 0 0)
(0.002217308037892498 0 0)
(0.002259328522550622 0 0)
(0.002266939856958685 0 0)
(0.00226090565517326 0 0)
(0.002244339339503035 0 0)
(0.002221435216698302 0 0)
(0.00217439913372309 0 0)
(0.002086698830300921 0 0)
(0.001959738226876695 0 0)
(0.001830592167737115 0 0)
(0.001697977278266711 0 0)
(0.001563476583037543 0 0)
(0.001427086660940863 0 0)
(0.001298767714196775 0 0)
(0.001151294199745977 0 0)
(0.001002022489946967 0 0)
(0.0008438694246954369 0 0)
(0.0006863045554791929 0 0)
(0.0005253304859290532 0 0)
(0.0003731241034876748 0 0)
(0.0002109527741423898 0 0)
(5.884637825165284e-05 0 0)
(-9.138911803035651e-05 0 0)
(-0.000228621661884953 0 0)
(-0.000352567788027848 0 0)
(-0.0004388537463740077 0 0)
(-0.0004854083283396177 0 0)
(-0.0004453830996132867 0 0)
(-0.0003315794990974646 0 0)
(-0.0001893758037710052 0 0)
(-4.865068991549831e-05 0 0)
(9.789790685589847e-05 0 0)
(0.0002379135936142767 0 0)
(0.0003817611041702623 0 0)
(0.0005227446995221311 0 0)
(0.0006654111321981224 0 0)
(0.0008073674635421672 0 0)
(0.0009515420286259149 0 0)
(0.001096209172672283 0 0)
(0.001243379683312707 0 0)
(0.001393210890079582 0 0)
(0.001541920099589032 0 0)
(0.001693995223484151 0 0)
(0.001842326238001668 0 0)
(0.001996041018818351 0 0)
(0.002141421266013001 0 0)
(0.002293580972659671 0 0)
(0.002427752126598784 0 0)
(0.002558636483960732 0 0)
(0.002628878830948172 0 0)
(0.002607457802376543 0 0)
(0.002482047963417928 0 0)
(0.002340877936846492 0 0)
(0.002189391865914159 0 0)
(0.002043266195982587 0 0)
(0.001895452943683396 0 0)
(0.001748721012043816 0 0)
(0.001602833244130411 0 0)
(0.001456032536285771 0 0)
(0.00131137389069455 0 0)
(0.001163360543769886 0 0)
(0.001019630939123565 0 0)
(0.0008713590155164612 0 0)
(0.0007266453905989792 0 0)
(0.0005768429385689215 0 0)
(0.0004348641661778301 0 0)
(0.0002852828836387429 0 0)
(0.0001436305511416275 0 0)
(-6.920673609369674e-06 0 0)
(-0.0001487161788936159 0 0)
(-0.0002933668117318217 0 0)
(-0.0004249379075455006 0 0)
(-0.0005351801414543564 0 0)
(-0.0005702044992442079 0 0)
(-0.0004860184673917116 0 0)
(-0.0003373436836103053 0 0)
(-0.0001767994272438904 0 0)
(-1.856046473849029e-05 0 0)
(0.0001426081260359409 0 0)
(0.0003006970696821224 0 0)
(0.0004603499123021061 0 0)
(0.0006175430385166935 0 0)
(0.0007772355107909017 0 0)
(0.0009339897936125438 0 0)
(0.001092711368455078 0 0)
(0.001250028073460604 0 0)
(0.001406422296145012 0 0)
(0.001564929817718037 0 0)
(0.001720333546141532 0 0)
(0.00187798566222488 0 0)
(0.002031403098913939 0 0)
(0.002185862858106764 0 0)
(0.002332556734997349 0 0)
(0.002473880162830597 0 0)
(0.002588429299432109 0 0)
(0.002648983606291999 0 0)
(0.002601747556059162 0 0)
(0.002483415196388424 0 0)
(0.002343895559070127 0 0)
(0.002210239615367065 0 0)
(0.002069698575954654 0 0)
(0.001936547936828592 0 0)
(0.00179592687186603 0 0)
(0.00166272051137518 0 0)
(0.0015207137391831 0 0)
(0.001386743807187946 0 0)
(0.001237296039977653 0 0)
(0.001093196650260973 0 0)
(0.0009303676828181646 0 0)
(0.0007806038385039611 0 0)
(0.0006152594489019118 0 0)
(0.0004658777782625155 0 0)
(0.0003012147140006192 0 0)
(0.0001522657330379244 0 0)
(-1.2859186757625e-05 0 0)
(-0.000157594258516258 0 0)
(-0.0003161169041203915 0 0)
(-0.0004548274148125372 0 0)
(-0.0005708055605134718 0 0)
(-0.0005984343768566691 0 0)
(-0.0005106153662657907 0 0)
(-0.0003591254107579936 0 0)
(-0.0002043185432497448 0 0)
(-4.725223199698789e-05 0 0)
(0.0001084892697163139 0 0)
(0.000264866354838065 0 0)
(0.0004213275073338316 0 0)
(0.0005767532912158642 0 0)
(0.0007335583751531495 0 0)
(0.000887814834427207 0 0)
(0.00104492077375419 0 0)
(0.001198131919565998 0 0)
(0.00135635447886965 0 0)
(0.001509053098365378 0 0)
(0.001668013541043124 0 0)
(0.00181982762549098 0 0)
(0.001978539760415896 0 0)
(0.002129044963103799 0 0)
(0.002286170312172789 0 0)
(0.002432936390693482 0 0)
(0.002578600240618375 0 0)
(0.002688676931151698 0 0)
(0.002731497255298477 0 0)
(0.0026497295791368 0 0)
(0.002508446793789592 0 0)
(0.002350352373818525 0 0)
(0.002199508453349557 0 0)
(0.002041651283806856 0 0)
(0.001891037381327848 0 0)
(0.001733488298063458 0 0)
(0.001582481694700847 0 0)
(0.00142556855297341 0 0)
(0.001274591576591365 0 0)
(0.001118580708512488 0 0)
(0.0009669530813767042 0 0)
(0.0008114813231921769 0 0)
(0.0006596438958720942 0 0)
(0.0005049316030314634 0 0)
(0.0003525908890675672 0 0)
(0.0001987412896127412 0 0)
(4.676567650334309e-05 0 0)
(-0.0001050449264830084 0 0)
(-0.0002540120661405736 0 0)
(-0.0003967366403875839 0 0)
(-0.0005202782997475481 0 0)
(-0.0005875657438033088 0 0)
(-0.0005451417261318087 0 0)
(-0.0004088992021384725 0 0)
(-0.0002527213914808323 0 0)
(-9.432762799393828e-05 0 0)
(6.254729921210004e-05 0 0)
(0.0002212758815900628 0 0)
(0.0003777595464355125 0 0)
(0.0005363653527184311 0 0)
(0.0006923784606400396 0 0)
(0.0008511920663740325 0 0)
(0.001006263292547273 0 0)
(0.001164347710575891 0 0)
(0.001318761736042625 0 0)
(0.001477029595203793 0 0)
(0.00163114911809866 0 0)
(0.001789318279320155 0 0)
(0.001942901139709868 0 0)
(0.002101522753885744 0 0)
(0.002253862150928255 0 0)
(0.00240923363077864 0 0)
(0.002555603732071633 0 0)
(0.002684849864200002 0 0)
(0.00275468328497612 0 0)
(0.00271294594230297 0 0)
(0.002576009202876932 0 0)
(0.002419961791112312 0 0)
(0.002261519415684371 0 0)
(0.002104730485360805 0 0)
(0.001946390146697389 0 0)
(0.001789606268410393 0 0)
(0.001631325192548212 0 0)
(0.001474702670956873 0 0)
(0.001316772057473932 0 0)
(0.001160598120154774 0 0)
(0.001004222686031815 0 0)
(0.0008508189738532055 0 0)
(0.0006982525916984039 0 0)
(0.0005480962252570187 0 0)
(0.0003975223960226999 0 0)
(0.0002483836511394115 0 0)
(9.869338787791087e-05 0 0)
(-4.953215425711525e-05 0 0)
(-0.000196773004187759 0 0)
(-0.0003387093953110723 0 0)
(-0.0004682277988759668 0 0)
(-0.0005551467423848459 0 0)
(-0.0005489257982548374 0 0)
(-0.0004323727662043269 0 0)
(-0.0002790097260564425 0 0)
(-0.0001211242967956424 0 0)
(3.495953663082565e-05 0 0)
(0.0001927623548590975 0 0)
(0.0003485966535269462 0 0)
(0.0005063788854991328 0 0)
(0.0006619594989673681 0 0)
(0.0008189414509697122 0 0)
(0.0009730323113040208 0 0)
(0.001127277122339359 0 0)
(0.001276416617810773 0 0)
(0.001425557253249102 0 0)
(0.0015714993704262 0 0)
(0.00171943281972528 0 0)
(0.001864726646526592 0 0)
(0.002011658336871278 0 0)
(0.002155285451964845 0 0)
(0.002299902461898583 0 0)
(0.002437519147464538 0 0)
(0.002567119696430033 0 0)
(0.002665075697616529 0 0)
(0.002688806429627207 0 0)
(0.002599031601230855 0 0)
(0.002450862784470103 0 0)
(0.002293880570076238 0 0)
(0.002138031994824279 0 0)
(0.001980855447745837 0 0)
(0.001825158736121481 0 0)
(0.001668827466264158 0 0)
(0.001513848434216395 0 0)
(0.001358768860874705 0 0)
(0.001207392900102647 0 0)
(0.001058348252937318 0 0)
(0.0009116281890254123 0 0)
(0.00076487831104115 0 0)
(0.0006182851221019786 0 0)
(0.0004723262620289536 0 0)
(0.0003259628325318676 0 0)
(0.0001803416973371989 0 0)
(3.387170871236072e-05 0 0)
(-0.000109208615316882 0 0)
(-0.0002518569320668662 0 0)
(-0.0003863127053294848 0 0)
(-0.0004930280931235916 0 0)
(-0.0005342223024711535 0 0)
(-0.0004573845494946152 0 0)
(-0.0003131313509611257 0 0)
(-0.0001541866409115464 0 0)
(1.250282013496164e-06 0 0)
(0.0001600159049774251 0 0)
(0.000315091323398544 0 0)
(0.000473242656368908 0 0)
(0.0006258010211470221 0 0)
(0.0007792961955351862 0 0)
(0.0009254357082057573 0 0)
(0.001071975739066981 0 0)
(0.001213890611864007 0 0)
(0.001358927609659145 0 0)
(0.001501075605202584 0 0)
(0.001647146638039897 0 0)
(0.001788003570046966 0 0)
(0.001931217626609497 0 0)
(0.00207097812979551 0 0)
(0.002214318568277352 0 0)
(0.002349684566600772 0 0)
(0.002481129979746156 0 0)
(0.002600381806245745 0 0)
(0.002663081784125414 0 0)
(0.002630613626885627 0 0)
(0.002495002017407295 0 0)
(0.002342487318383606 0 0)
(0.002180525352681412 0 0)
(0.002026487239210218 0 0)
(0.001865263427003587 0 0)
(0.001712757779966527 0 0)
(0.001552831702556753 0 0)
(0.001403690555890907 0 0)
(0.001251604232097937 0 0)
(0.001110665028805791 0 0)
(0.0009628833137570611 0 0)
(0.0008225703639206782 0 0)
(0.000674707468168739 0 0)
(0.0005346873807590155 0 0)
(0.0003867207758490962 0 0)
(0.0002458257938522777 0 0)
(9.978505455135635e-05 0 0)
(-3.704675049208928e-05 0 0)
(-0.0001806650465969883 0 0)
(-0.0003133611197669485 0 0)
(-0.0004312909701310078 0 0)
(-0.0005065812020190371 0 0)
(-0.0004760564441732337 0 0)
(-0.0003506092556049757 0 0)
(-0.0001926008474462406 0 0)
(-3.758384726329851e-05 0 0)
(0.000121704520354397 0 0)
(0.0002765647498179591 0 0)
(0.0004351816268542253 0 0)
(0.0005875114939647432 0 0)
(0.0007417344900989561 0 0)
(0.0008876475003743375 0 0)
(0.001034937863346206 0 0)
(0.00117699967188919 0 0)
(0.001323102736343161 0 0)
(0.00146615205736089 0 0)
(0.001613521474229451 0 0)
(0.001755998168939657 0 0)
(0.001901320882841564 0 0)
(0.00204337795383375 0 0)
(0.00218889436223364 0 0)
(0.002326382445874426 0 0)
(0.002461729787771543 0 0)
(0.002586817889167838 0 0)
(0.002663245019669617 0 0)
(0.002651999113119276 0 0)
(0.002528785440342167 0 0)
(0.00237923505701077 0 0)
(0.002219355181427254 0 0)
(0.002067208715260397 0 0)
(0.001908071926928528 0 0)
(0.001757156774949406 0 0)
(0.001599040197942582 0 0)
(0.001451205195551141 0 0)
(0.001299778076607502 0 0)
(0.001158584857719389 0 0)
(0.001010715508175484 0 0)
(0.0008700978184334204 0 0)
(0.0007224364926992691 0 0)
(0.0005818037926601785 0 0)
(0.000433675505257786 0 0)
(0.0002922639694074557 0 0)
(0.0001463531441976032 0 0)
(8.324223139850002e-06 0 0)
(-0.0001363082517640204 0 0)
(-0.000270543693087168 0 0)
(-0.0003939207179359822 0 0)
(-0.0004841709555245648 0 0)
(-0.0004797328825156007 0 0)
(-0.0003720954564943089 0 0)
(-0.0002182606676639835 0 0)
(-6.619745793323651e-05 0 0)
(9.093048636210013e-05 0 0)
(0.0002431072806745671 0 0)
(0.0003994179593970943 0 0)
(0.0005489513207813618 0 0)
(0.0007015705300994073 0 0)
(0.0008456667479166426 0 0)
(0.0009930234938977961 0 0)
(0.001134436953524926 0 0)
(0.001280925622266566 0 0)
(0.001423274266432356 0 0)
(0.001570785841821273 0 0)
(0.001712054326968311 0 0)
(0.001857785165744651 0 0)
(0.001999020684871427 0 0)
(0.002144462582531214 0 0)
(0.002281210719327435 0 0)
(0.002419044595179681 0 0)
(0.00254739953966817 0 0)
(0.002640158534004265 0 0)
(0.002658259591490518 0 0)
(0.002559019286941979 0 0)
(0.00241356177365906 0 0)
(0.002256732692988229 0 0)
(0.002105646954524519 0 0)
(0.001949317083690375 0 0)
(0.001799516680165637 0 0)
(0.001644828119074342 0 0)
(0.001500154530024502 0 0)
(0.00135136884367504 0 0)
(0.001209942782007329 0 0)
(0.001061599318909874 0 0)
(0.0009199453910488487 0 0)
(0.0007724062390781363 0 0)
(0.0006316467021013085 0 0)
(0.000483677557389387 0 0)
(0.0003433069725644573 0 0)
(0.0001981891879356587 0 0)
(6.043644262249554e-05 0 0)
(-8.431828630846922e-05 0 0)
(-0.0002183938762044734 0 0)
(-0.000346657464044953 0 0)
(-0.0004508457777994133 0 0)
(-0.0004786270897749641 0 0)
(-0.0003983289922459055 0 0)
(-0.0002513625308607559 0 0)
(-0.0001007046582879865 0 0)
(5.458183920012599e-05 0 0)
(0.0002054579683265953 0 0)
(0.0003599946374334294 0 0)
(0.0005079811465777352 0 0)
(0.0006586619348584209 0 0)
(0.0008014600810685537 0 0)
(0.0009487652799199829 0 0)
(0.001090483909771336 0 0)
(0.001237740594309978 0 0)
(0.001379973071496724 0 0)
(0.001527207519625331 0 0)
(0.001667765239532485 0 0)
(0.001813801244116255 0 0)
(0.001954623839199347 0 0)
(0.002099661007014325 0 0)
(0.002236151532940662 0 0)
(0.00237612433539603 0 0)
(0.002507215311465551 0 0)
(0.00261369394405679 0 0)
(0.002662319214643288 0 0)
(0.002595039638609379 0 0)
(0.002457603996950741 0 0)
(0.002301902846790728 0 0)
(0.002151266265675627 0 0)
(0.001995550249639436 0 0)
(0.001845772147511095 0 0)
(0.001691257578509173 0 0)
(0.001546247234175239 0 0)
(0.001397578320706073 0 0)
(0.00125659259827872 0 0)
(0.001108869168747909 0 0)
(0.0009680155880417069 0 0)
(0.0008209687657747768 0 0)
(0.0006804452352393264 0 0)
(0.0005327199970798644 0 0)
(0.0003931616130468931 0 0)
(0.0002480744491169102 0 0)
(0.0001101547974982852 0 0)
(-3.517755661833477e-05 0 0)
(-0.0001689641304481724 0 0)
(-0.0003015037550441881 0 0)
(-0.0004163858176902378 0 0)
(-0.0004735185405887727 0 0)
(-0.0004276024961213085 0 0)
(-0.0002918018978407907 0 0)
(-0.0001412078099057895 0 0)
(1.415485017136087e-05 0 0)
(0.0001656047108605237 0 0)
(0.0003203371155807711 0 0)
(0.0004694409011875093 0 0)
(0.0006208756791157857 0 0)
(0.0007641002331444515 0 0)
(0.00091076334583592 0 0)
(0.001052230969901469 0 0)
(0.001199090804651998 0 0)
(0.001341090499375455 0 0)
(0.001487716626678904 0 0)
(0.001628022040228018 0 0)
(0.00177439166060415 0 0)
(0.001914735423300095 0 0)
(0.0020595384005944 0 0)
(0.002195666464165951 0 0)
(0.002337966714125848 0 0)
(0.002469881797634064 0 0)
(0.002587334541519568 0 0)
(0.00266130413699887 0 0)
(0.002632356560815483 0 0)
(0.002509224153989075 0 0)
(0.002355823864626332 0 0)
(0.002204040704833046 0 0)
(0.002049443992437766 0 0)
(0.001898035049135801 0 0)
(0.001744447888735517 0 0)
(0.001597295627155764 0 0)
(0.001449388241291202 0 0)
(0.001307308371132372 0 0)
(0.001161421866256216 0 0)
(0.001019819702330216 0 0)
(0.000874371755294741 0 0)
(0.000732596096438045 0 0)
(0.000586543655574794 0 0)
(0.0004462694817998257 0 0)
(0.0003025520638061252 0 0)
(0.0001628281183750617 0 0)
(1.902665976018795e-05 0 0)
(-0.0001161712051078179 0 0)
(-0.0002504045921698877 0 0)
(-0.0003742792983980024 0 0)
(-0.0004534080947278981 0 0)
(-0.0004467997679033032 0 0)
(-0.0003288926482808518 0 0)
(-0.0001810928807609341 0 0)
(-2.408239738788173e-05 0 0)
(0.0001264831461622321 0 0)
(0.0002828605463025025 0 0)
(0.0004315662500534722 0 0)
(0.0005853634260904122 0 0)
(0.000727840446752407 0 0)
(0.0008754013789951049 0 0)
(0.001015090709710145 0 0)
(0.001162592575406182 0 0)
(0.001302777983394555 0 0)
(0.001449674707169389 0 0)
(0.00158872183053622 0 0)
(0.001735849700729159 0 0)
(0.001874784666180899 0 0)
(0.002019383315176012 0 0)
(0.00215510773706451 0 0)
(0.00229880391259867 0 0)
(0.00243086927887841 0 0)
(0.002555783316501979 0 0)
(0.002649779438245553 0 0)
(0.002659351126716992 0 0)
(0.00256068369051294 0 0)
(0.002410231333954733 0 0)
(0.002257145448127747 0 0)
(0.002101925890318595 0 0)
(0.001948701182301543 0 0)
(0.001794512411733432 0 0)
(0.00164496218386434 0 0)
(0.001496285198199924 0 0)
(0.001353178150966502 0 0)
(0.001208576430115617 0 0)
(0.001066618449787174 0 0)
(0.0009225758287860033 0 0)
(0.000780083691704549 0 0)
(0.0006357263488296157 0 0)
(0.000494881213394424 0 0)
(0.0003522340116786528 0 0)
(0.0002112129709905121 0 0)
(6.919654220000582e-05 0 0)
(-6.719569616303985e-05 0 0)
(-0.000202599882959518 0 0)
(-0.0003323119000879202 0 0)
(-0.0004279277605454464 0 0)
(-0.0004589571159569504 0 0)
(-0.0003687029735857871 0 0)
(-0.0002266133236264954 0 0)
(-6.795442883594945e-05 0 0)
(8.200484323848085e-05 0 0)
(0.0002402342103585288 0 0)
(0.0003889652501201388 0 0)
(0.0005451247355223926 0 0)
(0.0006876207731406805 0 0)
(0.0008364091985028799 0 0)
(0.0009747597414421793 0 0)
(0.001122818618357135 0 0)
(0.001261370830342269 0 0)
(0.001408798392626755 0 0)
(0.001546969802150505 0 0)
(0.001695023749643782 0 0)
(0.001832551577939518 0 0)
(0.001977774073292102 0 0)
(0.002113364266425487 0 0)
(0.002258651273685046 0 0)
(0.002390240722341445 0 0)
(0.002520818261169201 0 0)
(0.002628713382688466 0 0)
(0.002672014329300644 0 0)
(0.002606588617987198 0 0)
(0.002463701258168357 0 0)
(0.002309725619781542 0 0)
(0.002153237173536202 0 0)
(0.001998600051774231 0 0)
(0.001843062602985555 0 0)
(0.0016913669025357 0 0)
(0.001539835777782583 0 0)
(0.001395746747743235 0 0)
(0.001251695892021556 0 0)
(0.00111104246692219 0 0)
(0.0009677697711824686 0 0)
(0.000826306173070271 0 0)
(0.0006826544839514403 0 0)
(0.0005421495600676262 0 0)
(0.0003992003081217238 0 0)
(0.0002581359757602835 0 0)
(0.0001169082839401962 0 0)
(-1.966494157940468e-05 0 0)
(-0.0001570956052069667 0 0)
(-0.0002892635778974124 0 0)
(-0.0003975947321033486 0 0)
(-0.0004604121122934537 0 0)
(-0.0004073538646304627 0 0)
(-0.0002758565686758345 0 0)
(-0.0001162039778515701 0 0)
(3.513518910066337e-05 0 0)
(0.0001950617003657625 0 0)
(0.0003456759713753885 0 0)
(0.000504849309858307 0 0)
(0.0006517978523541571 0 0)
(0.000803752013665383 0 0)
(0.0009418982967131191 0 0)
(0.001087858034047228 0 0)
(0.001224097342475689 0 0)
(0.001369445437182394 0 0)
(0.001506333701187192 0 0)
(0.001652627589058637 0 0)
(0.001789782736734772 0 0)
(0.001934294090711269 0 0)
(0.00207018181328263 0 0)
(0.002214815554531824 0 0)
(0.002347719351586622 0 0)
(0.002482236436311079 0 0)
(0.002599504222702366 0 0)
(0.002671456601716125 0 0)
(0.002643431100365613 0 0)
(0.002517775705242687 0 0)
(0.002364876339879168 0 0)
(0.002210635788236673 0 0)
(0.002056376689598631 0 0)
(0.001902127498509271 0 0)
(0.001747873087835215 0 0)
(0.001593632043167702 0 0)
(0.001439422825842674 0 0)
(0.001285304381527307 0 0)
(0.001131411083009924 0 0)
(0.0009780309211787342 0 0)
(0.0008256829620700325 0 0)
(0.0006750904850683089 0 0)
(0.0005270586661219179 0 0)
(0.0003827369794601591 0 0)
(0.0002450699981656546 0 0)
(0.000122850446044682 0 0)
(3.676570413653076e-05 0 0)
(3.863259516343463e-06 0 0)
(6.431560149320616e-08 0 0)
(6.277572201805688e-11 0 0)
(-1.738492814508837e-12 0 0)
(-1.699450053797284e-12 0 0)
(-1.74114790563451e-12 0 0)
(-1.691226357108496e-12 0 0)
(-1.676569170384638e-12 0 0)
(-1.668241270747056e-12 0 0)
(-1.678490672753439e-12 0 0)
(-1.687654280036843e-12 0 0)
(-1.682817179171527e-12 0 0)
(-1.697309725236871e-12 0 0)
(-1.632722653751076e-12 0 0)
(-1.730794300680168e-12 0 0)
(-1.659090167817634e-12 0 0)
(-1.688339935437505e-12 0 0)
(-1.691613992076271e-12 0 0)
(-1.698191282180535e-12 0 0)
(-1.698689372273912e-12 0 0)
(-1.696088466681595e-12 0 0)
(-1.721891200767688e-12 0 0)
(-1.665690382570168e-12 0 0)
(-1.773978086561758e-12 0 0)
(-1.709526478908603e-12 0 0)
(-1.728278841505407e-12 0 0)
(-1.714805400275505e-12 0 0)
(-1.704345508313719e-12 0 0)
(-1.71824826569103e-12 0 0)
(-1.688823437117945e-12 0 0)
(-1.749998904072679e-12 0 0)
(-1.727868281888628e-12 0 0)
(-1.744797092887891e-12 0 0)
(-1.741704349378618e-12 0 0)
(-1.763241014757213e-12 0 0)
(-1.776295560134349e-12 0 0)
(-1.793278556666873e-12 0 0)
(-1.833025729309783e-12 0 0)
(-1.782989557540446e-12 0 0)
(-1.895839266613638e-12 0 0)
(-1.845142448151101e-12 0 0)
(-1.874731917382939e-12 0 0)
(-1.875286277068521e-12 0 0)
(-1.880123377933904e-12 0 0)
(-1.889328666396734e-12 0 0)
(-1.88836791521229e-12 0 0)
(-1.921043875775997e-12 0 0)
(-1.881765616400795e-12 0 0)
(-2.004424991037616e-12 0 0)
(-1.943826808416761e-12 0 0)
(-1.95861320679702e-12 0 0)
(-1.953380134727617e-12 0 0)
(-1.963033495868636e-12 0 0)
(-1.976206832607065e-12 0 0)
(-1.939735800662341e-12 0 0)
(-1.991472564549744e-12 0 0)
(-1.959915743651766e-12 0 0)
(-1.963258574237198e-12 0 0)
(-1.949722611238206e-12 0 0)
(-1.933767055777125e-12 0 0)
(-1.945075159739005e-12 0 0)
(-1.955997712791674e-12 0 0)
(-1.984288813286004e-12 0 0)
(-1.932103976720385e-12 0 0)
(-2.04266122092846e-12 0 0)
(-1.989582323065125e-12 0 0)
(-2.041990153940706e-12 0 0)
(-2.041971397410054e-12 0 0)
(-2.047998495946243e-12 0 0)
(-2.069906123820733e-12 0 0)
(-2.061173916743754e-12 0 0)
(-2.079578241492575e-12 0 0)
(-2.022541715648598e-12 0 0)
(-2.110241001092822e-12 0 0)
(-2.036761249989388e-12 0 0)
(-2.037215574844467e-12 0 0)
(-2.027314210685978e-12 0 0)
(-2.02374838579145e-12 0 0)
(-2.029806745212237e-12 0 0)
(-1.998364547557877e-12 0 0)
(-2.081922807831557e-12 0 0)
(-2.070804353236167e-12 0 0)
(-2.101954782634848e-12 0 0)
(-2.121407389044852e-12 0 0)
(-2.154593944055321e-12 0 0)
(-2.155927741795353e-12 0 0)
(-2.155267095102408e-12 0 0)
(-2.208229285663021e-12 0 0)
(-2.141612340742075e-12 0 0)
(-2.262817042219028e-12 0 0)
(-2.206918412572095e-12 0 0)
(-2.21739289294665e-12 0 0)
(-2.205221988571676e-12 0 0)
(-2.200043102035737e-12 0 0)
(-2.19207574460002e-12 0 0)
(-2.180423770908398e-12 0 0)
(-2.182097270259942e-12 0 0)
(-2.11525524697025e-12 0 0)
(-2.214177189958594e-12 0 0)
(-2.15981242771219e-12 0 0)
(-2.207193508355766e-12 0 0)
(-2.209442207982509e-12 0 0)
(-2.224845487817062e-12 0 0)
(-2.261122702277971e-12 0 0)
(-2.180740547871598e-12 0 0)
(-2.286906679833163e-12 0 0)
(-2.205234492925739e-12 0 0)
(-2.227227567217937e-12 0 0)
(-2.143129535671172e-12 0 0)
(-2.24954992282689e-12 0 0)
(-2.176393200863797e-12 0 0)
(-2.172243839457976e-12 0 0)
(-2.174411260784932e-12 0 0)
(-2.18342064770456e-12 0 0)
(-2.21155127565841e-12 0 0)
(-2.159662375466436e-12 0 0)
(-2.28864061689486e-12 0 0)
(-2.235184504358535e-12 0 0)
(-2.266760081787106e-12 0 0)
(-2.262539862376353e-12 0 0)
(-2.256994181461741e-12 0 0)
(-2.261414470533458e-12 0 0)
(-2.248395354158463e-12 0 0)
(-2.281894518014541e-12 0 0)
(-2.235617988624139e-12 0 0)
(-2.351952244292051e-12 0 0)
(-2.293169277032825e-12 0 0)
(-2.316673294077246e-12 0 0)
(-2.342273874443419e-12 0 0)
(-2.35679351327555e-12 0 0)
(-2.3443183362912e-12 0 0)
(-2.337259628565932e-12 0 0)
(-2.336934515366878e-12 0 0)
(-2.266724652784686e-12 0 0)
(-2.36692620797906e-12 0 0)
(-2.300751083559695e-12 0 0)
(-2.302460011913687e-12 0 0)
(-2.28378059138106e-12 0 0)
(-2.273178983409251e-12 0 0)
(-2.310375267875067e-12 0 0)
(-2.249533250355415e-12 0 0)
(-2.332608008948771e-12 0 0)
(-2.262889984282907e-12 0 0)
(-2.300667721200836e-12 0 0)
(-2.30669273567827e-12 0 0)
(-2.297685432817397e-12 0 0)
(-2.288540582064589e-12 0 0)
(-2.279527027026552e-12 0 0)
(-2.290785113573393e-12 0 0)
(-2.224232774480495e-12 0 0)
(-2.361126271870433e-12 0 0)
(-2.301970258055867e-12 0 0)
(-2.336280120850789e-12 0 0)
(-2.340483667789821e-12 0 0)
(-2.339114441047502e-12 0 0)
(-2.373142955881237e-12 0 0)
(-2.392666420296398e-12 0 0)
(-2.413492421566401e-12 0 0)
(-2.311169294342034e-12 0 0)
(-2.40405371849887e-12 0 0)
(-2.359352737688418e-12 0 0)
(-2.37955560532702e-12 0 0)
(-2.376994296854985e-12 0 0)
(-2.395277746183435e-12 0 0)
(-2.423802261282299e-12 0 0)
(-2.361970315752723e-12 0 0)
(-2.479619612629608e-12 0 0)
(-2.437471604055199e-12 0 0)
(-2.455934282455311e-12 0 0)
(-2.455705035968635e-12 0 0)
)
;

boundaryField
{
    inlet
    {
        type            calculated;
        value           uniform (-4.730418567790347e-05 0 0);
    }
    outlet
    {
        type            calculated;
        value           uniform (-2.455705035968635e-12 0 0);
    }
    frontAndBack
    {
        type            empty;
    }
}


// ************************************************************************* //
