/*--------------------------------*- C++ -*----------------------------------*\
| =========                 |                                                 |
| \\      /  F ield         | OpenFOAM: The Open Source CFD Toolbox           |
|  \\    /   O peration     | Version:  v2012                                 |
|   \\  /    A nd           | Website:  www.openfoam.com                      |
|    \\/     M anipulation  |                                                 |
\*---------------------------------------------------------------------------*/
FoamFile
{
    version     2.0;
    format      ascii;
    class       volScalarField;
    location    "0.011";
    object      p;
}
// * * * * * * * * * * * * * * * * * * * * * * * * * * * * * * * * * * * * * //

dimensions      [1 -1 -2 0 0 0 0];


internalField   nonuniform List<scalar> 
1000
(
101310.9456642154
101313.5899288571
101306.8423470987
101301.5331812319
101295.6878735081
101290.4487128256
101285.943872485
101282.0914682958
101278.7854330731
101276.5586869057
101275.9248494596
101275.9451449744
101276.322867355
101277.3496739387
101279.3324301882
101282.3367953143
101286.2524666403
101290.9055690811
101296.1493856093
101301.8806762705
101308.0151548285
101314.4625481478
101321.1162944906
101327.8542929774
101334.5441114614
101341.0513784826
101347.2563191819
101353.0828624076
101358.52386449
101363.6012034604
101368.1659986563
101371.5643300438
101373.0209711775
101373.182812391
101373.1271462393
101372.8557314933
101372.1163972512
101370.6602351515
101368.2830436169
101364.8907203214
101360.5247807856
101355.3383401216
101349.5341143214
101343.3024423258
101336.7916071472
101330.1142793935
101323.3704009323
101316.6642255596
101310.1031937786
101303.776676622
101297.7269226186
101291.9506824713
101286.5001514041
101281.7476749344
101278.5846230237
101277.505620083
101277.4315051403
101277.4783906256
101277.7332523121
101278.374912919
101279.6231558513
101281.6721299376
101284.6580659609
101288.6234997449
101293.5052787951
101299.1499769053
101305.3531252004
101311.906207451
101318.630975524
101325.3900449039
101332.0810652212
101338.6322643827
101345.0071299878
101351.2036155384
101357.216874758
101362.9209426679
101367.8266949506
101370.982979428
101372.0167620149
101372.0908280203
101372.0369258197
101371.8314597752
101371.2869369527
101370.2263944764
101368.4645471477
101365.8498541072
101362.2918098776
101357.7846344922
101352.4133362142
101346.3392366842
101339.7699866192
101332.9228093956
101325.9894258397
101319.110990899
101312.3691558369
101305.7923676689
101299.3750103687
101293.1286027781
101287.2253902406
101282.2668283084
101279.2671423495
101278.3942352938
101278.3498635314
101278.3867609534
101278.5940598903
101279.0988665489
101280.0768696607
101281.694023555
101284.0960904477
101287.3829129944
101291.5886769897
101296.6688940275
101302.5012960739
101308.9043306591
101315.6688014697
101322.5924954241
101329.5102364634
101336.3160223618
101342.970735574
101349.4818132437
101355.8367180225
101361.8597741185
101366.971569705
101370.1759969977
101371.2011829232
101371.2793990877
101371.2371184404
101371.0792477124
101370.6527890167
101369.8138847677
101368.4025452876
101366.2721000186
101363.3064118365
101359.4406860288
101354.6766880249
101349.0890692485
101342.820475096
101336.0630031654
101329.0259087433
101321.8973270033
101314.8140540031
101307.8506737932
101301.0353692667
101294.4125445336
101288.2020517627
101283.0625408514
101280.013196671
101279.1357416567
101279.0861771998
101279.1135486722
101279.2774940666
101279.6848323128
101280.4831777634
101281.8169226662
101283.8229158853
101286.6125386656
101290.2557416497
101294.7657609832
101300.0902388106
101306.1137023967
101312.6719629698
101319.5755421488
101326.6395810551
101333.7157737467
101340.7136863068
101347.5918342848
101354.2976490616
101360.6262141499
101365.9820195063
101369.3671139716
101370.4937003644
101370.5940978914
101370.5633464916
101370.445160172
101370.1086866641
101369.4311536037
101368.2709468665
101366.4918565
101363.9743035145
101360.6312164078
101356.4218405254
101351.3622433002
101345.53028876
101339.0608127801
101332.127259226
101324.912566423
101317.5790440686
101310.2484360185
101303.0053048702
101295.9515560877
101289.3631947618
101283.9457009068
101280.7311388778
101279.7793898263
101279.7142965824
101279.7348843525
101279.8657232528
101280.1979678336
101280.8597247474
101281.9792851273
101283.6837980953
101286.0854116562
101289.2687558051
101293.2775386626
101298.1042960548
101303.6869699874
101309.9133750016
101316.6333793645
101323.6797994109
101330.896264743
101338.1608659506
101345.3859522931
101352.4707230543
101359.1721341912
101364.8742381376
101368.5578735414
101369.8612941059
101370.0002439998
101369.9786456979
101369.8893122653
101369.6206478365
101369.0660444467
101368.0994181989
101366.595137307
101364.4357720438
101361.5247213103
101357.797858485
101353.2341040109
101347.8634547103
101341.7685705074
101335.0759287103
101327.9374621224
101320.5084776501
101312.9290966173
101305.3219953951
101297.8381784706
101290.8060101757
101284.9825628817
101281.4596858271
101280.3600871791
101280.2689280933
101280.2822357505
101280.3847042837
101280.6554455705
101281.2088243017
101282.1596488044
101283.6249706977
101285.7131775517
101288.514462322
101292.0896220203
101296.4603364531
101301.6035708546
101307.4509103887
101313.8935830773
101320.7955753492
101328.014581708
101335.4219316781
101342.9049317908
101350.3294251637
101357.4249638431
101363.5615950202
101367.6780272047
101369.2616010294
101369.4671729697
101369.453508611
101369.3889649778
101369.1757987251
101368.720365787
101367.9087108158
101366.6254829007
101364.7584967445
101362.2085331675
101358.8987208005
101354.784120981
101349.8603504144
101344.1680428941
101337.7899124309
101330.8405546112
101323.4520832235
101315.7601328314
101307.9018067618
101300.0565542538
101292.5843684553
101286.2710026143
101282.2828149269
101280.9155195933
101280.7713253279
101280.7794118198
101280.8583896775
101281.0782441714
101281.5414627282
101282.3523613628
101283.6194812747
101285.4466902014
101287.9254600427
101291.1256887171
101295.0874514993
101299.8151971853
101305.2746397533
101311.3934830552
101318.0689363678
101325.1822702655
101332.6133984089
101340.2427192496
101347.9213800014
101355.3719969806
101361.9761613509
101366.6442108071
101368.6467189759
101368.9736069253
101368.9684689226
101368.9253773403
101368.7587323734
101368.3866815867
101367.7044622277
101366.6054307235
101364.9831695263
101362.7391766807
101359.7902440268
101356.0766193554
101351.5700230654
101346.2790588011
101340.2496913764
101333.5607507656
101326.3159052895
101318.6346225222
101310.6517389684
101302.5533251634
101294.6999780116
101287.8639844005
101283.2701352044
101281.4872362113
101281.2430172212
101281.244595361
101281.3023580062
101281.4770850464
101281.8621030809
101282.5534003806
101283.6521385051
101285.2572462036
101287.4592506149
101290.3327899482
101293.9297632986
101298.2738191213
101303.3561753981
101309.1341166676
101315.5349500391
101322.4654473291
101329.8213324458
101337.4879051212
101345.3169303726
101353.0438428127
101360.0924553302
101365.3874032446
101367.9625529937
101368.4991429307
101368.5121528734
101368.4854916746
101368.3585297114
101368.057864251
101367.4866235532
101366.545359604
101365.1329565354
101363.1528921949
101360.5191362376
101357.1629684853
101353.0397975342
101348.1345342079
101342.4641681336
101336.0770435114
101329.0489736894
101321.4780471748
101313.4863490192
101305.2509375287
101297.1084924176
101289.7761592113
101284.4865400446
101282.1238328462
101281.6990156242
101281.6923224044
101281.7289606529
101281.863428223
101282.1782010802
101282.7634760928
101283.7146627885
101285.1262694623
101287.0868851011
101289.6731851533
101292.9443985374
101296.9373326287
101301.6618663618
101307.0984078508
101313.1996100421
101319.8959357099
101327.1010731808
101334.7116717805
101342.5900894523
101350.4978565928
101357.9241261433
101363.8593849985
101367.144513152
101368.0214275605
101368.0761411482
101368.0609875988
101367.9677122044
101367.7294006112
101367.2552392654
101366.4520351387
101365.223208068
101363.4746517374
101361.119360176
101358.0831013186
101354.3103095514
101349.7690537901
101344.4543151441
101338.3894290714
101331.6253957404
101324.2387429224
101316.3341882534
101308.0702035012
101299.7449046189
101291.9919640364
101285.9853689004
101282.884155548
101282.153476046
101282.1191426341
101282.1444975432
101282.2459609051
101282.5015002291
101282.9940949615
101283.8136744213
101285.0505120698
101286.7913475466
101289.1147948664
101292.0865436995
101295.7543811463
101300.143464458
101305.2530499913
101311.056026837
101317.5011185434
101324.5161486954
101332.0083795295
101339.8524982956
101347.8412542493
101355.5339366235
101362.0344956211
101366.0729717102
101367.4183176152
101367.5817165568
101367.5590324932
101367.5101139077
101367.3538488359
101367.0103056638
101366.3816300931
101365.3646816837
101363.8585212026
101361.7689377494
101359.0143876813
101355.5323344699
101351.2838935763
101346.2560379719
101340.4618902171
101333.9398893744
101326.7528990726
101318.9935885853
101310.7980917426
101302.4167634701
101294.400476817
101287.7923951328
101283.8615813432
101282.570760582
101282.4264972628
101282.3538960246
101282.3487083366
101282.4564802878
101282.7694981358
101283.3831767922
101284.3987220332
101285.9174035067
101288.0299997553
101290.8079070215
101294.2985825742
101298.5247736446
101303.4852635123
101309.1554082405
101315.4887340783
101322.4206776121
101329.8673849098
101337.7151253639
101345.7896891868
101353.7305622964
101360.6907549227
101365.4962111104
101367.7072152855
101368.1720677853
101368.20089678
101368.1877252764
101368.0725763027
101367.7820190059
101367.2444907073
101366.366368939
101365.0358975586
101363.1433547593
101360.5979842463
101357.3330780331
101353.3047095157
101348.4910142798
101342.8935167281
101336.5373127983
101329.4703847434
101321.7727766074
101313.5778988622
101305.1084334114
101296.8054333348
101289.6136441766
101284.7987623578
101282.7023466285
101282.2816981603
101282.2425445129
101282.2677012884
101282.4104263967
101282.7344304716
101283.3057973903
101284.2113859449
101285.5544760411
101287.4351976899
101289.9366409704
101293.1200026432
101297.0231426235
101301.659435603
101307.0178650344
101313.0652887796
101319.7499471555
101326.9997702546
101334.7070113162
101342.7021568212
101350.6914822497
101358.0483293452
101363.657908899
101366.7190956973
101367.6187516237
101367.681177999
101367.6805296174
101367.5825473274
101367.3300861523
101366.8565670992
101366.0867647961
101364.9229662175
101363.2595849361
101360.9990060131
101358.0595620221
101354.3788959078
101349.9172197386
101344.6601777235
101338.6198911945
101331.8346825128
101324.3741468749
101316.3577174991
101307.9832786619
101299.5993789546
101291.9356494058
101286.2450102496
101283.3252903966
101282.5133162186
101282.4603767864
101282.4793732488
101282.606592326
101282.8996736713
101283.4165335743
101284.2314674282
101285.4369570039
101287.1273414611
101289.3869702228
101292.2858825095
101295.8769060782
101300.1913376718
101305.2353692408
101310.9893097172
101317.4101863719
101324.4329480626
101331.9587577088
101339.8352238286
101347.8250340407
101355.4632247148
101361.7696411233
101365.6731512836
101367.1610690226
101367.3678807247
101367.3456018094
101367.2660046896
101367.0500241377
101366.6365178584
101365.9593568045
101364.9311929176
101363.4535045971
101361.4301928562
101358.7747581059
101355.4141419931
101351.2935110959
101346.3813956312
101340.67368094
101334.1953501762
101327.0031175174
101319.2005792496
101310.9611724089
101302.5663831189
101294.5746460566
101288.1042018521
101284.2965704885
101282.9363881832
101282.7658100755
101282.7956976358
101282.8976700044
101283.1539384051
101283.6139867718
101284.3425873825
101285.4238819766
101286.9476333112
101288.9965388421
101291.6425863295
101294.9454105064
101298.948192325
101303.6725865385
101309.1151334067
101315.2465389244
101322.01218619
101329.3255134561
101337.0531829558
101344.9944619031
101352.7899564818
101359.658990741
101364.4173970235
101366.6332329645
101367.092287798
101367.0823455061
101367.0146119112
101366.8278751946
101366.4684568381
101365.8731837473
101364.9643800408
101363.6480989314
101361.8298987898
101359.4232387998
101356.3514580369
101352.5509289876
101347.9768700366
101342.6092606739
101336.4570775623
101329.5615972552
101322.0066594849
101313.939696815
101305.6000129151
101297.424799774
101290.3229002198
101285.5854191776
101283.5374247238
101283.1287184121
101283.1479739169
101283.2306604739
101283.4541569045
101283.8619079498
101284.5110422084
101285.4777044498
101286.848760244
101288.7062522443
101291.1225504236
101294.1603065839
101297.8698972801
101302.2842327179
101307.4137288236
101313.2431390754
101319.731099855
101326.8072521985
101334.3568982919
101342.2012983364
101350.0537352959
101357.3283760284
101362.9039517443
101365.9141513726
101366.8086241494
101366.873869021
101366.802283086
101366.6419241137
101366.3254510523
101365.79920443
101364.9938672527
101363.8209653829
101362.1883807309
101360.0095137741
101357.2047732634
101353.7042838719
101349.4541042026
101344.4223509664
101338.603996389
101332.0244773162
101324.746387062
101316.8903780223
101308.6618433864
101300.4068051701
101292.8303578565
101287.2010131952
101284.362657331
101283.5617880105
101283.5193436945
101283.5946642685
101283.7801813006
101284.1398306958
101284.7174927325
101285.5814389641
101286.8152908149
101288.500224744
101290.7084958339
101293.5041165408
101296.9415671913
101301.0611246568
101305.8836921363
101311.4068716075
101317.603305531
101324.4182546166
101331.7564676153
101339.4642590551
101347.3069066093
101354.8371582705
101361.1046895368
101364.9680989175
101366.4729963023
101366.6710047565
101366.6119014894
101366.4753694306
101366.1963804796
101365.7279986191
101365.0113786503
101363.9662572915
101362.5017762583
101360.5306959162
101357.9723513755
101354.7536353027
101350.813808146
101346.1109400697
101340.6273982909
101334.3739244053
101327.3947371052
101319.7843929743
101311.7153261759
101303.4705561477
101295.5954080698
101289.184973498
101285.433077053
101284.0842457081
101283.9007568383
101283.9676309842
101284.1191488775
101284.4370055846
101284.9548874681
101285.7302830025
101286.8405020574
101288.3666713541
101290.3824785148
101292.953569465
101296.1371171516
101299.9780327362
101304.5044799047
101309.7241848142
101315.6216432185
101322.1561424404
101329.2541605414
101336.7892879809
101344.5585315677
101352.2103520732
101359.0148953156
101363.7725373665
101365.9794687055
101366.4765391286
101366.4663090773
101366.3404607604
101366.0913432147
101365.6711545151
101365.0280681997
101364.0912589531
101362.774148598
101360.9904411153
101358.6586619462
101355.7022537866
101352.0543049993
101347.6651233246
101342.5077294088
101336.581450498
101329.9157241773
101322.5807046802
101314.7141499608
101306.5547695797
101298.527989494
101291.5009184702
101286.7871694993
101284.7683746724
101284.3262734553
101284.3442005211
101284.4744836684
101284.7529704876
101285.2193421862
101285.9190710603
101286.9208188788
101288.3027795976
101290.1392842984
101292.4985565859
101295.4417678681
101299.0188009857
101303.263501705
101308.190470948
101313.7928058328
101320.0410269781
101326.8789174471
101334.204972287
101341.84789028
101349.5306538254
101356.6987221459
101362.2711343469
101365.2831420071
101366.2611409502
101366.3360783526
101366.2296522037
101366.0171767544
101365.6331654552
101365.0444022173
101364.1949921988
101363.0066161955
101361.3941890698
101359.2742375041
101356.5664120955
101353.1979008271
101349.1111261759
101344.2704485227
101338.666298035
101332.3172775078
101325.2749787852
101317.6469012126
101309.6313212881
101301.5645879961
101294.1150333801
101288.50268887
101285.6599062888
101284.80378371
101284.717985987
101284.8301963604
101285.0619078742
101285.487081842
101286.128679689
101287.0427677744
101288.30033226
101289.9735128564
101292.1324898847
101294.8445731831
101298.1677366669
101302.1430405416
101306.7908902685
101312.1100135321
101318.0771527084
101324.6462619809
101331.7374338155
101339.2122220225
101346.8432208207
101354.2043419244
101360.4295004698
101364.3630299584
101365.9179982958
101366.2076787187
101366.1560667035
101365.9753174758
101365.6270511093
101365.0808161251
101364.294890378
101363.2055069542
101361.737165138
101359.8101138814
101357.3407016768
101354.246326297
101350.4568689654
101345.9255845091
101340.6342604696
101334.5944565863
101327.8487421953
101320.482621434
101312.6556109064
101304.6400068965
101296.9505222849
101290.601725325
101286.7912350639
101285.4055214664
101285.143728799
101285.1725804332
101285.3628374145
101285.7407142375
101286.3347153766
101287.1854140944
101288.3497088976
101289.8891198269
101291.8679752778
101294.3558654658
101297.4221599335
101301.1235144295
101305.4934117814
101310.5384199745
101316.2386016914
101322.5499599062
101329.4024205325
101336.6802133612
101344.1958563323
101351.6286921269
101358.3094288609
101363.116857843
101365.3977433361
101366.0248621375
101366.0891648188
101365.9625228629
101365.6740513646
101365.1692886905
101364.4262501607
101363.40098242
101362.0354200215
101360.2624225028
101358.0049874047
101355.1773321497
101351.6940567392
101347.4851363218
101342.5108555854
101336.7712320459
101330.3063652481
101323.1949749137
101315.5752124431
101307.6761198045
101299.8880112458
101293.0095741369
101288.278014289
101286.1860268448
101285.6593324322
101285.5740226443
101285.6842871074
101285.9806340598
101286.5125353736
101287.3115428878
101288.4173128771
101289.8709630606
101291.7164397738
101294.0098443156
101296.8227512275
101300.2315148614
101304.2979829639
101309.0524873373
101314.486534768
101320.5556318078
101327.1876766596
101334.2764063268
101341.6564951894
101349.0725887642
101356.0231113022
101361.5255513483
101364.6651979268
101365.7369312097
101365.9170339855
101365.91609471
101365.7337316752
101365.3253715688
101364.6469942305
101363.6619466219
101362.3377292365
101360.6427310691
101358.5333202227
101355.9405181183
101352.7707912732
101348.9232708813
101344.3151483389
101338.9060880048
101332.7181623362
101325.8362305904
101318.4038209666
101310.6364268403
101302.8432526397
101295.6210268186
101290.1052614131
101287.1644377239
101286.2438770598
101286.1020254056
101286.1148793047
101286.2938588379
101286.6898820862
101287.362381781
101288.3756314002
101289.7787138601
101291.5933434769
101293.8239190167
101296.480897638
101299.6019846269
101303.2667504409
101307.59500783
101312.6990797415
101318.5925341831
101325.1130093744
101332.0825432755
101339.0932959756
101347.1601148794
)
;

boundaryField
{
    inlet
    {
        type            uniformFixedValue;
        uniformValue    sine;
        uniformValueCoeffs
        {
            frequency       constant 3000;
            scale           constant 50;
            level           constant 101325;
        }
        value           uniform 101323.6421297957;
    }
    outlet
    {
        type            pressureOutletNSCBC;
        pInf            101325;
        gamma           1.4;
        etaAc           1;
        fieldInf        1;
        lInf            2.25;
        value           uniform 101350.8696757732;
    }
    frontAndBack
    {
        type            empty;
    }
}


// ************************************************************************* //
