/*--------------------------------*- C++ -*----------------------------------*\
| =========                 |                                                 |
| \\      /  F ield         | OpenFOAM: The Open Source CFD Toolbox           |
|  \\    /   O peration     | Version:  v2012                                 |
|   \\  /    A nd           | Website:  www.openfoam.com                      |
|    \\/     M anipulation  |                                                 |
\*---------------------------------------------------------------------------*/
FoamFile
{
    version     2.0;
    format      ascii;
    class       volScalarField;
    location    "0.011";
    object      pMean;
}
// * * * * * * * * * * * * * * * * * * * * * * * * * * * * * * * * * * * * * //

dimensions      [1 -1 -2 0 0 0 0];


internalField   nonuniform List<scalar> 
1000
(
101325.0358460408
101325.0033695384
101325.0162614793
101325.0285051125
101325.0454102874
101325.0658472506
101325.0881089887
101325.115163925
101325.1439194409
101325.1752914273
101325.2075038504
101325.2396248252
101325.2716571725
101325.303207852
101325.3338653877
101325.3629463797
101325.3898236204
101325.413963651
101325.4348671883
101325.4522702907
101325.4657657168
101325.475211471
101325.4803379865
101325.4811284798
101325.4774841774
101325.4695438705
101325.4573904146
101325.4413183616
101325.4215043596
101325.3982512986
101325.3717490858
101325.342521552
101325.3115334687
101325.280040486
101325.2485180102
101325.2171120322
101325.1860023527
101325.155580455
101325.1263470132
101325.0989447085
101325.0740083206
101325.0521506095
101325.0338342564
101325.0194336574
101325.0091677834
101325.003210326
101325.0016300645
101325.0044630795
101325.0116384477
101325.0230529341
101325.0385225871
101325.0578906823
101325.0809631745
101325.1074729493
101325.1367340076
101325.1675139047
101325.1986452847
101325.2297761027
101325.2607968428
101325.2915694263
101325.3217321018
101325.3508896655
101325.3784286197
101325.4037855197
101325.4262749379
101325.4454009528
101325.4606583047
101325.471798935
101325.4785797886
101325.4809837631
101325.4789541549
101325.4726165392
101325.4620090621
101325.4473103422
101325.4285704314
101325.4059913682
101325.3798034205
101325.3508311165
101325.3203461522
101325.2895602222
101325.2587484789
101325.2280368562
101325.197541102
101325.1675501336
101325.1384287777
101325.1106967614
101325.0849139208
101325.0617200756
101325.0416903684
101325.0253708659
101325.0131406607
101325.0052899741
101325.001925947
101325.0030937252
101325.008710525
101325.0187040877
101325.0329457646
101325.0513656377
101325.0737986246
101325.0999176191
101325.1288059412
101325.1590741248
101325.1896031239
101325.2201410194
101325.2505737074
101325.2808296317
101325.3105874589
101325.3395732818
101325.3672549478
101325.3931680843
101325.4166475067
101325.4371833569
101325.4541560325
101325.4672040324
101325.4759258249
101325.4802258633
101325.4799573702
101325.4752422527
101325.4660719034
101325.4526291772
101325.4349205268
101325.4131586842
101325.3875988852
101325.3591712138
101325.3292171157
101325.2989670383
101325.2686792317
101325.2384827388
101325.2084392421
101325.1788083956
101325.1498539859
101325.1220383865
101325.0958121982
101325.0717895971
101325.0505078294
101325.032583892
101325.0184711616
101325.0086082599
101325.0032162469
101325.0024713612
101325.0063533601
101325.0148548558
101325.0278507435
101325.0452900985
101325.0669611422
101325.0924996148
101325.1208761188
101325.1506628923
101325.1807015494
101325.210764825
101325.2407309362
101325.2705673324
101325.2999870812
101325.3287870121
101325.3564913791
101325.3827198328
101325.406852243
101325.4284155131
101325.4467685995
101325.4614964558
101325.4720968523
101325.478361877
101325.4800241665
101325.4771136773
101325.469548157
101325.4574850888
101325.4409139524
101325.4200794402
101325.3952552764
101325.3674316871
101325.3379725884
101325.3081808581
101325.2783333923
101325.2485702901
101325.2189133256
101325.1895972081
101325.1608233671
101325.1330013693
101325.1065092977
101325.0819105317
101325.0596981655
101325.0404936888
101325.0247722879
101325.0130636951
101325.0056778205
101325.0029325081
101325.0049040216
101325.0117020593
101325.023240057
101325.039512399
101325.0602748713
101325.085134113
101325.1129769137
101325.1423186214
101325.1719372969
101325.2015932811
101325.2311597621
101325.2606342741
101325.2897535586
101325.3183672604
101325.3460444114
101325.3724691241
101325.3970671579
101325.4194123312
101325.4388691724
101325.4550175452
101325.4672920117
101325.4754144666
101325.4790041299
101325.4779928935
101325.4721968201
101325.4617110618
101325.4464784369
101325.4267404962
101325.4027743564
101325.3755974464
101325.3466135989
101325.3172211121
101325.2877579157
101325.2583709783
101325.2290573818
101325.200028648
101325.171440543
101325.1436586341
101325.1170009773
101325.0919871508
101325.0690590478
101325.0488243341
101325.0317525445
101325.018420216
101325.0091961072
101325.0045038183
101325.0045203886
101325.0094710385
101325.0193528086
101325.0342266475
101325.0538733579
101325.0778992784
101325.1051508315
101325.1340643909
101325.163313611
101325.1926087072
101325.2218260543
101325.2509775424
101325.2798267312
101325.3082577975
101325.335880417
101325.3624294391
101325.3873729286
101325.4103289727
101325.4306847203
101325.4480267409
101325.4617661287
101325.4715741282
101325.4769957652
101325.4778703868
101325.4739215843
101325.465158488
101325.4514585723
101325.4330176685
101325.4100814484
101325.3836492043
101325.3551552813
101325.326130585
101325.2970111395
101325.2679636936
101325.2389593221
101325.2101983437
101325.1817915468
101325.1540792449
101325.1273215203
101325.1020040661
101325.0785160438
101325.0574444614
101325.0392387005
101325.0244949263
101325.0136170301
101325.0071004374
101325.0052069287
101325.0082636405
101325.0163612027
101325.0296448708
101325.0479558038
101325.0709464491
101325.0974826224
101325.1259423307
101325.1548483896
101325.1838166685
101325.2127165175
101325.2415715967
101325.2701698445
101325.2984203023
101325.3259712235
101325.3525928062
101325.3777981771
101325.4012392068
101325.4223366726
101325.4406874163
101325.4557027906
101325.4670207565
101325.4741405625
101325.4768261624
101325.474725754
101325.4677599183
101325.455736708
101325.4387775702
101325.4170685342
101325.3915286697
101325.3635895247
101325.3349203462
101325.3061219832
101325.2773846923
101325.2486734158
101325.220161367
101325.191941092
101325.1643116728
101325.1375048763
101325.1119576488
101325.0880293872
101325.0662667924
101325.0471067077
101325.0311371476
101325.0187869154
101325.010591821
101325.0068810052
101325.0080624645
101325.0143126757
101325.0258651913
101325.0426385892
101325.0643792471
101325.0900320701
101325.1179761322
101325.1465442842
101325.1752092368
101325.2038099287
101325.2323887618
101325.2607460211
101325.2888206626
101325.3162836674
101325.3429452494
101325.368346783
101325.3921824523
101325.4138940917
101325.4331073583
101325.4492299594
101325.4618971127
101325.4705663179
101325.4749613334
101325.4746562736
101325.4695103466
101325.4592480126
101325.4439259374
101325.4236292777
101325.3991674697
101325.3718845449
101325.3435912272
101325.315091766
101325.2866521211
101325.2582150791
101325.2299489504
101325.2019120155
101325.1743859621
101325.1475611858
101325.1218483374
101325.0975649361
101325.0752323375
101325.0552597778
101325.038227335
101325.0245686817
101325.0148445825
101325.0094314684
101325.0087951108
101325.0131896515
101325.0229203045
101325.0380024471
101325.0582855564
101325.0828690813
101325.1101850815
101325.1384060133
101325.1667735061
101325.1950940513
101325.2233982657
101325.2515290925
101325.2794183938
101325.3067909926
101325.3334559112
101325.3590154231
101325.3831635666
101325.4054016823
101325.4253453599
101325.4424462065
101325.4563050987
101325.4663943507
101325.472371719
101325.4737962945
101325.4704375406
101325.4619874633
101325.4483981074
101325.4296862983
101325.406480749
101325.380009595
101325.3521297568
101325.3239311198
101325.2957683201
101325.2676050391
101325.2395730489
101325.2117302426
101325.1843147474
101325.1575069986
101325.1316701629
101325.1071066329
101325.0842933834
101325.0636295406
101325.045666592
101325.0308475372
101325.019733804
101325.0127410849
101325.0103690467
101325.0129372962
101325.0208093727
101325.0340913036
101325.052745019
101325.0760551255
101325.1025950589
101325.1304228527
101325.1585029418
101325.186548854
101325.2145918368
101325.2424947312
101325.2702037596
101325.2974695243
101325.3241207766
101325.3497902224
101325.3741936922
101325.3968640634
101325.4174339013
101325.4353780359
101325.4502980933
101325.4616699123
101325.4691277696
101325.4722017242
101325.4706098703
101325.4639949445
101325.4522190902
101325.4352134827
101325.4134488435
101325.3879311518
101325.3605305913
101325.3325910912
101325.3046396061
101325.2766893274
101325.2488632784
101325.2212162751
101325.1939541747
101325.1672336014
101325.1414077698
101325.1167028221
101325.0935943631
101325.0724296825
101325.053727947
101325.0378661893
101325.0254857111
101325.0169850897
101325.0128883632
101325.0135831715
101325.0195260476
101325.0308867754
101325.0476911562
101325.0694724123
101325.0949949123
101325.1222824176
101325.1500776878
101325.1777837452
101325.2054431058
101325.2328870153
101325.2601623337
101325.2869661456
101325.3131762665
101325.3384820591
101325.3626986253
101325.3853312595
101325.4061303454
101325.424660808
101325.4403880927
101325.4529422096
101325.4618542122
101325.4667600748
101325.4670929012
101325.4626442656
101325.4531515682
101325.4384250648
101325.418743801
101325.3951424777
101325.3690472205
101325.3420055756
101325.3149134271
101325.2878093832
101325.2608112761
101325.2339429863
101325.2075389053
101325.1815733868
101325.1563575519
101325.132155667
101325.1093438888
101325.088188067
101325.0693169682
101325.0529574341
101325.0397646706
101325.0301784553
101325.0246949277
101325.0237644445
101325.0278714395
101325.0372252909
101325.052037506
101325.0718536217
101325.0958468227
101325.1221806023
101325.1493764457
101325.1766781282
101325.2039121948
101325.2310064199
101325.2578560675
101325.2844065683
101325.3103956277
101325.3355840071
101325.3597651131
101325.3825983162
101325.4036456933
101325.4226444534
101325.4390762399
101325.4524466786
101325.462443917
101325.4685031878
101325.4703399267
101325.4674077352
101325.459562874
101325.4465707162
101325.4285376226
101325.4061289597
101325.380874834
101325.3540370265
101325.3270298478
101325.2999884061
101325.2730648895
101325.246137416
101325.2196896557
101325.1936533958
101325.168300689
101325.1438265209
101325.1207030202
101325.0990422352
101325.0794630716
101325.0622938154
101325.0480166116
101325.0371832395
101325.0302170982
101325.0277050131
101325.029937874
101325.037370752
101325.0501801832
101325.0681897515
101325.0906331346
101325.1161387122
101325.1428141143
101325.1698519479
101325.1968662809
101325.2237344766
101325.2504009968
101325.2767939404
101325.3027348166
101325.3279305051
101325.3521958394
101325.3752351267
101325.3966826034
101325.4161083772
101325.4333186338
101325.4475767415
101325.4586495888
101325.4659760308
101325.469307161
101325.4679683792
101325.4618944546
101325.4507345137
101325.4345729904
101325.4136321715
101325.3894126629
101325.3631809439
101325.3363768746
101325.3095761531
101325.2828281064
101325.2560750552
101325.2296389339
101325.2036657389
101325.1782719141
101325.1536797874
101325.1302676937
101325.1083642945
101325.0881447352
101325.070387815
101325.0552227533
101325.0432472279
101325.0350606046
101325.030953359
101325.0315782164
101325.0371647506
101325.0480683021
101325.0642362479
101325.0851694311
101325.1095777565
101325.1358867796
101325.1625050215
101325.1893924525
101325.2160931758
101325.2426345494
101325.2689131816
101325.2948623653
101325.3201045111
101325.3445181899
101325.3677409953
101325.3896371057
101325.4094702638
101325.4273750461
101325.4425114909
101325.4545855948
101325.4631616901
101325.4678563591
101325.4681886407
101325.4638212926
101325.4545086923
101325.4402093891
101325.4210371601
101325.3979123386
101325.3725683772
101325.3460299894
101325.319518823
101325.2929882872
101325.2664848744
101325.2401265258
101325.2142197164
101325.1888319746
101325.1641813314
101325.1405605169
101325.1183741064
101325.0977657674
101325.0793745721
101325.0635211151
101325.0505676945
101325.0411804056
101325.035749068
101325.0348014278
101325.0386290106
101325.0477084926
101325.0620056681
101325.0813690082
101325.104536416
101325.1302448221
101325.1566265052
101325.1832021497
101325.2097938327
101325.2362694716
101325.2623668017
101325.2883090791
101325.313644206
101325.3381979805
101325.3616606292
101325.3838505062
101325.4042830074
101325.4226641835
101325.4386452925
101325.4517118032
101325.4614151014
101325.467481731
101325.4693027902
101325.4666515875
101325.4591563149
101325.4467167399
101325.4293757045
101325.40768379
101325.3831592351
101325.3572658458
101325.3308678897
101325.3047064225
101325.278479646
101325.252224495
101325.2264350909
101325.2011316888
101325.1764247605
101325.152689084
101325.130172435
101325.1093807233
101325.0902549594
101325.0738314187
101325.0600838644
101325.0495916512
101325.0429543035
101325.0404732713
101325.0427468402
101325.0499956874
101325.0624898693
101325.0801127724
101325.1020716312
101325.1268691099
101325.1530226252
101325.1793035499
101325.2057658015
101325.2321153952
101325.2581262676
101325.2840635738
101325.3094491759
101325.334118909
101325.3578340265
101325.3803005748
101325.4012899208
101325.4201165522
101325.4369156484
101325.4509218059
101325.4617105762
101325.4689828217
101325.472325821
101325.471283405
101325.4655154125
101325.4549508231
101325.4394328879
101325.4194166628
101325.395842577
101325.3706382749
101325.3446947039
101325.3186510346
101325.2927792168
101325.2668302502
101325.2410934245
101325.2158844453
101325.1912025851
101325.1673827226
101325.1446464551
101325.1235274964
101325.1040063514
101325.0869678251
101325.0724676268
101325.061000632
101325.0531462455
101325.0494514896
101325.0500665501
101325.0556412541
101325.0663508996
101325.0822013516
101325.1027525257
101325.1265993163
101325.1522612494
101325.178467802
101325.2045525145
101325.2309195554
101325.2569286822
101325.2825965509
101325.3081230805
101325.3329490378
101325.356879395
101325.3796541697
101325.4010519089
101325.4205236846
101325.4379792762
101325.4527577981
101325.4646514785
101325.4730923582
101325.4778829854
101325.4782649213
101325.4743086021
101325.4655063991
101325.4518709102
101325.4335541446
101325.4113287779
101325.3867573353
101325.3613338634
101325.3355994532
101325.3099497076
101325.2844093396
101325.2586662028
101325.2336850425
101325.2090321559
101325.185138652
101325.1622602282
101325.1407755368
101325.121052041
101325.1031913749
101325.0880615691
101325.075881185
101325.0668867071
101325.0619318973
101325.0611052615
101325.0651184385
101325.0740114888
101325.0881546249
101325.1070853741
101325.1299831363
101325.1549021632
101325.1808907769
101325.2069397471
101325.2329101158
101325.2590573941
101325.2845523079
101325.3101676055
101325.3350799164
101325.3591881746
101325.382278646
101325.4040076185
101325.424164629
101325.4420205498
101325.4577887668
101325.470671985
101325.480171256
101325.4862134172
101325.4883241753
101325.4858572998
101325.4788245315
101325.4670393932
101325.4504940196
101325.4297885569
101325.4060862854
101325.3811213412
101325.3559051037
101325.3303762567
101325.3052714834
101325.2798582434
101325.2547530857
101325.2303056269
101325.2063951469
101325.1834120001
101325.1616562943
101325.1416103387
101325.1232618958
101325.107577734
101325.0944962695
101325.0845785058
101325.0783498673
101325.0764083972
101325.0786168614
101325.0859705673
101325.0983136446
101325.1156449749
101325.1372537831
101325.1616135559
101325.1870714141
101325.2130441324
101325.238895282
101325.2647978032
101325.2905933671
101325.3156705633
101325.3409581439
101325.365244642
101325.3886159854
101325.4107153281
101325.4313649464
101325.449904711
101325.4664156552
101325.4800501013
101325.4908563638
101325.4979939364
101325.501589223
101325.500641371
101325.4954409436
101325.4853441553
101325.4706711196
101325.4515137721
101325.4290659985
101325.4045567362
101325.3797166709
101325.3547617107
101325.3295896492
101325.3049538352
101325.2796365563
101325.2555179646
101325.2316178373
101325.2084992897
101325.1865692878
101325.1661221548
101325.1475691215
101325.1309479026
101325.1172938781
101325.1066569289
101325.0991308204
101325.0958418144
101325.0969596779
101325.102468174
101325.1131273798
101325.1287806897
101325.1489669311
101325.1725681295
101325.1975868458
101325.2233188973
101325.2491753153
101325.2747040652
101325.3006703204
101325.3257935385
101325.3507267634
101325.3754025135
101325.3990133198
101325.4215086576
101325.4425765788
101325.4618890148
101325.4787835105
101325.4935898818
101325.5052755469
101325.5136221191
101325.5184561515
101325.5193967163
101325.5155025062
101325.5073649757
101325.4944014234
101325.4769824283
101325.4557719342
101325.4322542701
101325.4075002384
101325.3829341337
101325.3583256149
101325.3335660139
101325.3094248192
101325.284342619
101325.2609971748
101325.2378979803
101325.2157332316
101325.1950345335
101325.1760505906
101325.1589814981
101325.1446097258
101325.132991976
101325.1249542793
101325.1199969528
101325.1198256768
101325.1239294251
101325.1329157764
101325.1468381362
101325.1655310766
101325.188002814
101325.2128160131
101325.2380790815
101325.2637921317
101325.2895371369
101325.3147470206
101325.3407727773
101325.3649217315
101325.3900378622
101325.413932847
101325.4366133932
101325.4582127104
101325.478093122
101325.4958151394
101325.511080608
101325.5239051508
101325.5334961595
101325.5393349361
101325.541666445
101325.5398913034
101325.5331531349
101325.5221347069
101325.506417137
101325.486666065
101325.4640346471
101325.4400589596
101325.4154366702
101325.3911407093
101325.366970524
101325.3425506163
101325.3192135895
101325.2942385111
101325.2717845036
101325.2496530577
101325.2285865268
101325.2093278424
101325.191685259
101325.1765362459
101325.1643740554
101325.1552429933
101325.1497835351
101325.1477228818
101325.1507183951
101325.1576751363
101325.1702789077
101325.1872331149
101325.2085012391
101325.2325319711
101325.2578443256
101325.2832677145
101325.3088369875
101325.334461933
101325.3593537968
101325.3854284768
101325.4085269554
101325.4334585466
101325.4566490667
101325.478220224
101325.4993019654
101325.517199457
101325.5336247464
101325.5471231187
101325.557626377
101325.565080732
101325.5681351376
101325.5681067433
101325.5633204897
101325.5561405802
)
;

boundaryField
{
    inlet
    {
        type            calculated;
        value           uniform 101324.9999999996;
    }
    outlet
    {
        type            calculated;
        value           uniform 101325.5468990765;
    }
    frontAndBack
    {
        type            empty;
    }
}


// ************************************************************************* //
