/*--------------------------------*- C++ -*----------------------------------*\
| =========                 |                                                 |
| \\      /  F ield         | OpenFOAM: The Open Source CFD Toolbox           |
|  \\    /   O peration     | Version:  v2012                                 |
|   \\  /    A nd           | Website:  www.openfoam.com                      |
|    \\/     M anipulation  |                                                 |
\*---------------------------------------------------------------------------*/
FoamFile
{
    version     2.0;
    format      ascii;
    class       volScalarField;
    location    "0.011";
    object      rho;
}
// * * * * * * * * * * * * * * * * * * * * * * * * * * * * * * * * * * * * * //

dimensions      [1 -3 0 0 0 0 0];


internalField   nonuniform List<scalar> 
1000
(
1.17629994782451
1.176323790403446
1.176270276307013
1.176226787379767
1.176176084112442
1.176129996967447
1.176091045667855
1.176058283321381
1.176030245009405
1.176011075371429
1.176005206430462
1.176004674289065
1.176007098104785
1.176015324539591
1.176031714828291
1.176056665328941
1.176089242897354
1.176128002282713
1.176171712442062
1.176219493812316
1.176270619350531
1.176324314275753
1.176379675725557
1.176435680683577
1.176491228275375
1.176545207368122
1.176596632018887
1.176644881977793
1.176689910584683
1.176731912089695
1.176769665223242
1.176797761400054
1.176809777915301
1.176811082555596
1.17681059953642
1.176808351314616
1.176802251377787
1.176790212940677
1.176770537925226
1.176742445067141
1.176706274577783
1.176663292721942
1.176615179028954
1.176563511929053
1.176509522240481
1.176454146217444
1.176398214878348
1.176342594925981
1.176288179123901
1.176235709834154
1.176185538024756
1.176137636807368
1.176092438637721
1.176053030705098
1.176026804187276
1.176017860371916
1.176017249116294
1.176017641132537
1.176019756595571
1.176025077377297
1.176035427911467
1.176052418550742
1.176077178985112
1.176110062022046
1.176150543920044
1.176197352185971
1.176248790996858
1.176303130988551
1.176358893852051
1.176414940205591
1.17647042125476
1.176524741836511
1.176577599219473
1.17662897649844
1.176678833587755
1.176726126228108
1.176766799334419
1.176792967433524
1.176801538160491
1.176802152112821
1.176801705144318
1.176800001642498
1.176795487162659
1.176786694459476
1.176772087304392
1.17675040919742
1.176720909595391
1.176683540337416
1.176639005948891
1.176588643687862
1.176534175003444
1.176477400822546
1.176419910737115
1.176362875166405
1.176306971203647
1.17625243480461
1.176199219473846
1.176147420805346
1.176098467268816
1.176057346815737
1.176032470699581
1.176025231720754
1.176024863738798
1.176025169714204
1.176026888824047
1.176031075155673
1.176039185670998
1.176052596579592
1.176072516592034
1.176099773547276
1.176134650732062
1.176176778952551
1.176225144000178
1.17627824008701
1.176334332280048
1.176391743669658
1.176449104575814
1.176505536071788
1.176560713869899
1.176614699705558
1.17666738969789
1.176717327391045
1.176759709092617
1.176786276581921
1.176794776212382
1.176795424680473
1.176795074131524
1.176793765246608
1.176790229551685
1.176783274338143
1.176771573128975
1.1767539098353
1.176729321458991
1.176697270608519
1.176657771677136
1.176611443322947
1.176559467961892
1.176503438094809
1.176445088589727
1.176385979316235
1.176327244557414
1.176269502807812
1.176212987831964
1.176158067929073
1.176106566373063
1.176063945448539
1.176038657576328
1.176031380897325
1.176030969854829
1.176031196833394
1.1760325564131
1.176035934438083
1.17604255505323
1.176053615666123
1.176070251093798
1.176093384901965
1.1761235970165
1.176160996980982
1.176205150345244
1.1762550992675
1.176309481970965
1.176366727053164
1.176425301526023
1.176483975604996
1.17654199945023
1.176599029139041
1.176654628875315
1.176707099774018
1.176751504688198
1.176779570134146
1.176788910474853
1.17678974284285
1.176789487876506
1.176788508001292
1.17678571834837
1.176780101023875
1.176770481907449
1.176755731656434
1.176734858768358
1.176707141198972
1.176672240851825
1.17663029069021
1.176581936013877
1.176528294505155
1.17647080402129
1.176410981239304
1.176350171897328
1.176289385461642
1.176229323160975
1.176170830100112
1.176116195212249
1.1760712691597
1.176044611212559
1.1760367184291
1.176036178605375
1.176036349324197
1.176037434347222
1.176040189617126
1.176045677502932
1.176054961893093
1.176069097180862
1.17608901331659
1.176115411995404
1.176148655497563
1.176188681693945
1.176234975698848
1.176286606947942
1.176342330256077
1.17640075911826
1.176460596789888
1.176520832364204
1.176580739069906
1.176639481166957
1.176695043633622
1.176742319874709
1.176772860571877
1.176783667036426
1.17678481903618
1.176784639955011
1.176783899289266
1.176781671823205
1.176777073680339
1.176769059502967
1.176756587662668
1.176738684498352
1.176714548988747
1.176683649299332
1.176645810441505
1.176601280861187
1.176550745627975
1.176495253136869
1.176436062905004
1.176374462511284
1.176311613713006
1.17624853370514
1.176186474682993
1.176128159740367
1.176079867377775
1.176050652688145
1.176041533817449
1.176040777831735
1.176040888175255
1.176041737921938
1.176043983145164
1.176048572252906
1.176056457326175
1.176068609030887
1.176085926150893
1.176109156541197
1.176138804229996
1.176175048803858
1.176217699004431
1.176266187236928
1.176319611259723
1.176376842981835
1.176436702210538
1.176498121896498
1.176560167549079
1.176621726797721
1.176680557362474
1.176731436496518
1.176765565580234
1.176778694784475
1.176780399140817
1.176780285839794
1.176779750701481
1.176777983359403
1.176774207419797
1.176767478083342
1.176756838966976
1.176741359906163
1.176720218197461
1.176692776371607
1.176658661657539
1.176617837479694
1.176570640470729
1.176517756153395
1.176460134417711
1.176398870461334
1.176335088751348
1.176269926023738
1.176204870266133
1.176142906787642
1.176090551884588
1.176057478546301
1.176046139718738
1.176044943920584
1.176045010968119
1.176045665908831
1.176047489130848
1.176051330545972
1.17605805522556
1.176068563266537
1.176083715983774
1.176104271858997
1.176130810419521
1.176163663830718
1.176202868772227
1.176248140678297
1.176298879774362
1.176354233432042
1.176413216900762
1.176474834241831
1.176538093611131
1.176601760715084
1.176663535698131
1.176718291456984
1.176756994109807
1.176773596689892
1.17677630686689
1.176776264259304
1.176775906979082
1.176774525338201
1.176771440706813
1.176765784502035
1.17675667253765
1.17674322248013
1.176724617590708
1.176700167887283
1.1766693778094
1.176632012684344
1.176588143597396
1.176538151375527
1.176482689339031
1.176422616780204
1.176358924044935
1.176292728991909
1.176225574427214
1.176160450575373
1.176103761970431
1.176065666129443
1.176050880787137
1.176048855499856
1.176048868577815
1.176049347585331
1.176050796570251
1.176053989475726
1.176059722313675
1.176068833987397
1.176082144863269
1.176100405604109
1.1761242350694
1.176154063502549
1.176190086825825
1.176232231987457
1.176280144516606
1.176333221354209
1.176390689177869
1.176451683096902
1.17651525184487
1.176580166180192
1.176644232448219
1.176702673516522
1.176746573959017
1.176767924314508
1.176772373113079
1.176772480970528
1.176772259916808
1.176771207283311
1.176768714498041
1.176763978402767
1.176756174472486
1.176744464337602
1.176728047687695
1.176706211162235
1.176678384872785
1.176644198931974
1.176603528008417
1.176556512701849
1.176503553559482
1.176445278887912
1.176382501717185
1.176316234106802
1.176247944051069
1.176180423343759
1.176119619130735
1.176075753606456
1.176056160050887
1.176052637090284
1.176052581578095
1.176052885407658
1.1760540005257
1.17605661089561
1.176061464502632
1.176069352552748
1.176081058761613
1.176097317731646
1.176118765234434
1.176145892319993
1.176179004057583
1.176218182165208
1.176263263938378
1.176313856496108
1.176369382951025
1.176429127341653
1.176492232463169
1.176557556845667
1.176623123126538
1.176684695812303
1.176733905329495
1.176761142151041
1.176768412557186
1.176768866177383
1.176768740535704
1.176767967195084
1.17676599137821
1.176762060155927
1.176755400865321
1.176745212748033
1.176730715534011
1.176711187790086
1.176686013950199
1.176654733164069
1.176617080486533
1.176573014058931
1.17652272708022
1.176466642110393
1.176405393377979
1.176339848887852
1.176271322446054
1.176202285967677
1.176137994257217
1.176088183282169
1.176062465496622
1.176056406072655
1.176056121346944
1.176056331608186
1.176057173027622
1.176059292180778
1.176063377201238
1.176070173850752
1.176080430732006
1.176094867121243
1.176114134881016
1.176138778657846
1.176169194594106
1.176205591126094
1.176247961865062
1.176296081743391
1.176349525291467
1.176407693739685
1.176469817852201
1.176534858344294
1.176601096638566
1.176664878658796
1.176718775421466
1.176752258346783
1.176763412501938
1.176764767223874
1.176764579150416
1.176764173568865
1.176762877990124
1.176760029708008
1.176754817416559
1.176746385972622
1.176733898464295
1.176716573735495
1.176693735615703
1.17666486547603
1.176629640737004
1.176587953158226
1.176539911270579
1.176485833486082
1.176426240725948
1.176361901070345
1.176293943059961
1.176224442495435
1.176157967447733
1.176103168835174
1.176070571451773
1.176059866878082
1.176058670520155
1.176058068445632
1.176058025423312
1.176058919161201
1.176061514977323
1.176066604128907
1.176075025885248
1.176087620026126
1.176105139301306
1.176128175689092
1.176157122604125
1.176192168503628
1.176233303080365
1.17628032172493
1.176332838788833
1.17639031862005
1.17645206563021
1.17651713654558
1.17658408670728
1.176649926898616
1.176707634784468
1.1767474768243
1.176765808083534
1.176769662122414
1.176769901138576
1.176769791933751
1.176768837247284
1.176766428272735
1.176761971687558
1.176754691266711
1.176743660425604
1.176727969419992
1.176706865710323
1.176679796095567
1.17664639620597
1.176606484541219
1.17656007347589
1.176507370787182
1.176448773993705
1.176384946464994
1.176316994121927
1.176246763237877
1.176177911110359
1.176118272358885
1.176078343739005
1.176060958517319
1.176057470137012
1.176057145440078
1.176057354060797
1.176058537660875
1.176061224584516
1.176065962852195
1.176073472759774
1.176084610766074
1.176100207183856
1.176120950982893
1.176147349535464
1.176179716643503
1.176218163018544
1.176262597069687
1.176312743705232
1.176368173440713
1.176428288385722
1.176492194855944
1.17655848709164
1.176624729585239
1.176685726664734
1.176732235980848
1.176757616139521
1.176765075104716
1.176765592675673
1.176765587299295
1.176764774937389
1.176762681807976
1.176758755910127
1.176752373549685
1.176742724577383
1.176728933545403
1.176710191065619
1.176685819928977
1.176655302980348
1.176618310134681
1.176574722117989
1.176524639141771
1.176468378631865
1.176406517309664
1.176340045173588
1.176270602825982
1.176201080394
1.176137528468276
1.17609033765466
1.176066124984908
1.176059391405312
1.17605895238702
1.17605910992245
1.176060164932221
1.176062595414477
1.176066881659548
1.176073639779822
1.176083636692013
1.176097654695613
1.176116393217997
1.176140432978144
1.176170211922292
1.176205989402444
1.176247816545291
1.176295529810103
1.176348772577549
1.176407005150164
1.176469407704108
1.176534716417896
1.176600963463124
1.176664293695975
1.176716580843493
1.176748944801118
1.176761281018861
1.176762995676694
1.176762810965741
1.176762151033476
1.176760360357994
1.176756932015306
1.176751317730904
1.176742793294915
1.176730541841393
1.176713766563678
1.176691750207071
1.176663886913183
1.176629721876403
1.176588993949001
1.176541668741669
1.176487953087582
1.1764283169009
1.176363618844979
1.176295296765139
1.176225684611462
1.176159413177583
1.176105755996602
1.17607418017588
1.176062900413239
1.176061485836688
1.176061733691954
1.176062579334821
1.176064704529829
1.176068519640178
1.176074561807443
1.17608352879014
1.176096164943861
1.176113156007934
1.176135098875582
1.176162487960176
1.1761956811857
1.17623485792431
1.176279989247551
1.176330831971927
1.176386932920585
1.176447574043086
1.176511649478276
1.176577494647209
1.176642129622305
1.176699081863757
1.17673853393939
1.176756905321012
1.176760711308862
1.176760628880733
1.17676006730918
1.176758519090333
1.176755539181645
1.17675060381893
1.176743068987494
1.176732155757408
1.17671708107356
1.176697127354377
1.176671658891691
1.176640147989694
1.176602223153319
1.176557718134668
1.176506707065937
1.176449531864295
1.176386887365985
1.176319995755715
1.17625084113456
1.176183048779352
1.176124155560657
1.176084868897049
1.176067885270612
1.176064495937314
1.176064655623765
1.176065341334005
1.176067194755053
1.176070576167524
1.1760759593276
1.176083975680075
1.176095345560882
1.176110749288819
1.176130786940032
1.176155977964354
1.176186739975618
1.176223345702405
1.176265881297518
1.176314220076653
1.176368018766212
1.176426693662319
1.176489293440455
1.17655433583684
1.176619443440402
1.176679759046363
1.176725986536243
1.17675094402506
1.176758360037583
1.176758900981183
1.176758307472869
1.176756977950949
1.176754354096113
1.176749991022654
1.176743314022408
1.176733589544429
1.176720053806865
1.17670198875434
1.176678734400399
1.176649711268857
1.176614471942473
1.176572751838975
1.17652450899407
1.176469954001521
1.176409605526931
1.176344463674088
1.176276231303221
1.176207777579879
1.176144949597457
1.176098267207281
1.176074729345252
1.176068087879433
1.176067735900589
1.176068360527112
1.176069898991936
1.176072881502357
1.17607767195001
1.176084836491655
1.176095068565181
1.176109041314254
1.176127353873761
1.176150536991963
1.176179042331638
1.176213203729461
1.176253194322895
1.176298993988198
1.176350375603166
1.176406884983134
1.176467732037818
1.176531642212327
1.176596669145339
1.176659104526218
1.176711069366742
1.176743100916236
1.176755577938748
1.176757219616565
1.176756729601068
1.176755597628247
1.176753284551173
1.176749401227605
1.176743459773169
1.176734794717228
1.176722652730537
1.176706310461942
1.176685099038734
1.176658412207022
1.176625746207092
1.176586753181565
1.176541286675433
1.176489435453702
1.176431565832107
1.176368461519949
1.176301552040947
1.176233184047906
1.176167879600791
1.176114720214724
1.176083606691668
1.176072421099592
1.17607089946352
1.176071454045139
1.176072710562387
1.176075346492762
1.176079641190388
1.176086071392512
1.176095278200747
1.176107934353086
1.176124650874067
1.17614597207094
1.176172371951497
1.176204222801031
1.176241757983917
1.176285041348124
1.176333944075939
1.176388128299189
1.17644698409934
1.176509463061411
1.176573881856832
1.176637325669163
1.176693743297031
1.176733189108427
1.176751486699906
1.17675560788048
1.176755523069032
1.176754479677154
1.176752414264181
1.176748930506802
1.176743598713968
1.176735831668391
1.176724911533183
1.176710122790383
1.176690789867912
1.176666277925396
1.176636032050218
1.176599640047653
1.176556877989745
1.176507740019574
1.176452469906396
1.176391649019165
1.176326419321724
1.176258759980033
1.176192198682137
1.176133926167939
1.176094836438645
1.176078095018947
1.176074428759992
1.176074577431801
1.176075657854842
1.17607796729875
1.176081834830109
1.176087637539089
1.176095944813483
1.176107405076151
1.176122634696574
1.176142199370106
1.176166606277241
1.176196268948153
1.176231467883856
1.176272323958619
1.17631877969564
1.176370590385628
1.176427289603968
1.176488035425082
1.176551407260664
1.176615108109647
1.176674540190908
1.176720741527727
1.176745714051936
1.176753822588136
1.176754443894429
1.176753561529202
1.176751799915439
1.1767486161033
1.176743734699061
1.176736692275961
1.176726839476936
1.176713470831779
1.176695894208919
1.176673443343546
1.176645514421666
1.176611629891746
1.176571494042837
1.176525027268881
1.176472383517683
1.176413990249904
1.176350738514387
1.176284272157845
1.17621738012053
1.176155604605034
1.176109063353355
1.176085488867334
1.176078389221754
1.176077677722897
1.176078608269022
1.176080529815235
1.176084055701594
1.176089376339077
1.176096956666731
1.176107385339072
1.176121260560329
1.176139164263079
1.176161654545621
1.17618921205015
1.176222177120483
1.176260718781442
1.176304826262208
1.176354306457903
1.176408777289627
1.176467575909732
1.176529554128702
1.176592826245592
1.176653859406017
1.176705473014882
1.17673808598598
1.176750978165729
1.176753379890718
1.176752951985091
1.176751453414378
1.176748565965354
1.176744037163155
1.176737521087153
1.176728489036237
1.17671631501103
1.176700337752183
1.176679863632265
1.176654207684559
1.176622788396848
1.176585218000448
1.176541345249808
1.176491265711464
1.176435332044367
1.176374252913392
1.17630935073881
1.176242883251075
1.176179118633893
1.176126470582454
1.176094871273583
1.176083379865677
1.176081208875158
1.176081448141609
1.176083025912765
1.176086159571977
1.176091085497116
1.176098140146938
1.176107795352875
1.176120561258397
1.176136971277251
1.176157602432012
1.176183029881389
1.176213723313519
1.176249960212665
1.176291794835775
1.176339061620912
1.176391395484278
1.176448215116025
1.17650856033677
1.17657087643902
1.17663250465345
1.176687895873656
1.176727754536065
1.176746665307246
1.176751864715966
1.17675239784948
1.176751347875749
1.17674895618355
1.176744771228437
1.176738610731461
1.176730110266501
1.176718788393625
1.176704088415971
1.176685371847004
1.176661927370376
1.176633046797933
1.176598149367234
1.176556905565112
1.176509315269578
1.176455710667549
1.17639674416698
1.176333561011261
1.176268060213644
1.176203478298254
1.176146438566136
1.176107201292659
1.176089852968359
1.176085485210095
1.176084777757976
1.176085692164452
1.176088149713835
1.176092560658348
1.176099186643629
1.176108356516229
1.176120411231015
1.1761357151856
1.176154733555333
1.176178059801873
1.176206326986417
1.17624004782907
1.176279473660648
1.176324533825043
1.17637485912405
1.176429851430334
1.17648862938455
1.176549821965646
1.176611311803071
1.176668940249612
1.176714561521784
1.176740592335764
1.17674947802363
1.176750971243312
1.176750963457843
1.176749451507182
1.176746065837966
1.176740441476354
1.176732274518756
1.176721295484592
1.176707242242322
1.176689752973658
1.176668255683667
1.176641974760049
1.176610073739733
1.176571865867878
1.176527016514207
1.176475708475314
1.176418645136956
1.176357016359719
1.176292608774275
1.176227986177669
1.176168096836208
1.176122357274777
1.176097969768181
1.176090334638999
1.176089157042138
1.176089260484646
1.176090738579999
1.176094017384403
1.176099594104779
1.176108003682002
1.176119647453859
1.176134693398011
1.176153176447691
1.176175214418877
1.176201174809573
1.176231734120164
1.176267792893972
1.176310070207506
1.176358403212096
1.176411312182843
1.17646806720908
1.176527300366347
1.17659863154482
)
;

boundaryField
{
    inlet
    {
        type            calculated;
        value           uniform 1.176395950917642;
    }
    outlet
    {
        type            calculated;
        value           uniform 1.176631139093237;
    }
    frontAndBack
    {
        type            empty;
    }
}


// ************************************************************************* //
