/*--------------------------------*- C++ -*----------------------------------*\
| =========                 |                                                 |
| \\      /  F ield         | OpenFOAM: The Open Source CFD Toolbox           |
|  \\    /   O peration     | Version:  v2012                                 |
|   \\  /    A nd           | Website:  www.openfoam.com                      |
|    \\/     M anipulation  |                                                 |
\*---------------------------------------------------------------------------*/
FoamFile
{
    version     2.0;
    format      ascii;
    class       volScalarField;
    location    "0.011";
    object      T;
}
// * * * * * * * * * * * * * * * * * * * * * * * * * * * * * * * * * * * * * //

dimensions      [0 0 0 1 0 0 0];


internalField   nonuniform List<scalar> 
1000
(
299.9868894563958
299.9886387498602
299.9823062128831
299.9776758443621
299.973297374816
299.9695362894056
299.966129635371
299.9630765092974
299.9604364913115
299.9587308852653
299.9583505560294
299.9585463981458
299.9590469007769
299.9599897969325
299.961681652918
299.9642157678991
299.9675033657671
299.9713980030056
299.9757790447062
299.9805649836235
299.9856915573083
299.991088967679
299.9966718741364
300.0023396005708
300.0079807765961
300.0134809484716
300.0187369918499
300.0236819412431
300.0283066264297
300.0326263521756
300.0365118998069
300.0394068711125
300.0406544607886
300.0408008406632
300.0407592329162
300.0405291170625
300.0398961005951
300.0386555023259
300.0366358279633
300.0337576609246
300.0300570198827
300.0256641223319
300.0207506509921
300.0154774663166
300.0099696099378
300.0043218451048
299.998618118657
299.9929460761668
299.9873961862626
299.9820438008495
299.9769245735179
299.9720357992709
299.9674218149055
299.9633980336478
299.9607193693715
299.9598048722965
299.9597412707851
299.9597801452071
299.9599954059679
299.9605387075728
299.9615956345177
299.9633304297818
299.9658583629191
299.969215320581
299.973347720744
299.9781255983867
299.9833758229127
299.98892187942
299.994612908498
300.0003326626014
300.0059945597209
300.0115379014298
300.0169318248225
300.0221746226334
300.0272622099536
300.0320880294408
300.0362383093907
300.0389084705153
300.0397830447589
300.0398457299055
300.0398001508186
300.0396263428613
300.0391656884436
300.0382684965335
300.0367780148698
300.0345660191557
300.0315559021359
300.0277427145002
300.0231983023947
300.0180590772256
300.0125006643858
300.006706816265
300.000839737669
299.9950188726435
299.9893133301813
299.9837472030473
299.9783157575014
299.9730287614572
299.9680320317246
299.9638347298214
299.9612954939645
299.9605565681706
299.9605190090021
299.9605502466745
299.9607257312118
299.9611530575607
299.9619809447168
299.9633498635964
299.9653831802009
299.9681653735142
299.9717253275797
299.9760253182087
299.9809617822614
299.9863809881156
299.9921058299217
299.9979651416299
300.003819130491
300.0095781017569
300.0152089705929
300.0207180472037
300.0260947404556
300.0311904425575
300.0355150148932
300.0382258724742
300.0390931391886
300.0391593084764
300.0391235429918
300.0389899933647
300.0386292279239
300.0379195462989
300.0367255950372
300.0349232779897
300.0324143150206
300.0291438436371
300.025113295321
300.0203857555289
300.0150818384229
300.0093640148365
300.0034092999685
299.9973768688058
299.9913824796542
299.9854892614326
299.9797210821475
299.9741155434382
299.9688587612589
299.9645083178991
299.9619270603774
299.9611842884361
299.9611423334298
299.9611655066209
299.96130429063
299.9616491071879
299.9623249108392
299.9634539229275
299.9651519703918
299.9675133092205
299.9705971094178
299.9744145185861
299.9789211520033
299.9840192021894
299.989569639772
299.9954120530222
300.0013899674296
300.00737786904
300.0132992365595
300.0191189796034
300.0247926360778
300.0301468615121
300.034677901846
300.0375416176808
300.0384946709287
300.0385796059037
300.0385535944737
300.0384536168058
300.0381689749781
300.0375958067233
300.0366143058262
300.0351092302449
300.0329793961877
300.0301511060269
300.0265898300841
300.0223090974912
300.0173747130983
300.011900687948
300.0060337152683
299.9999285465262
299.993722504848
299.9875186092368
299.9813884307313
299.9754182334428
299.9698416633155
299.9652559490272
299.9625348511129
299.9617291935909
299.9616740942683
299.9616915255619
299.9618022852806
299.9620835343006
299.9626437144507
299.9635914192603
299.9650342687036
299.9670671744459
299.9697617413865
299.973154920573
299.9772403351593
299.9819653910409
299.9872350675139
299.9929222388938
299.9988853681617
300.0049920938744
300.011139239836
300.0172526372507
300.0232470061459
300.0289167403497
300.0337407949723
300.0368570913112
300.0379597459941
300.0380772955522
300.0380590275228
300.0379834588799
300.0377561810168
300.0372870064434
300.036469268548
300.0351966772432
300.0333698725256
300.0309071029651
300.0277540758238
300.0238929020505
300.019348893632
300.0141919145346
300.0085289077755
300.0024883700829
299.9962016749189
299.9897873693133
299.9833492600762
299.9770151523967
299.9710630013752
299.9661337048584
299.9631516392545
299.9622208306544
299.9621436669822
299.962154935989
299.9622416800968
299.9624708658519
299.9629393028502
299.9637441724802
299.9649845497846
299.9667521679398
299.9691233476943
299.9721495137549
299.9758489664986
299.9802021476998
299.9851510841721
299.9906036485631
299.9964446696374
300.0025536696143
300.0088217302935
300.0151534735858
300.0214353809904
300.0274386490138
300.032630375128
300.036112837225
300.037452499219
300.0376264090319
300.0376148524624
300.0375602549126
300.0373799260639
300.0369946454558
300.0363080078645
300.0352224226837
300.0336429705252
300.0314856912207
300.0286855179586
300.0252043850932
300.021038524769
300.0162222468416
300.0108254622812
300.0049450637021
299.9986927806763
299.9921833413497
299.9855327393807
299.9788928335345
299.9725683323293
299.9672243980703
299.9638484777333
299.9626910686095
299.9625690103941
299.9625758589264
299.9626427175816
299.9628288267645
299.9632209419002
299.9639073635744
299.9649799646604
299.9665266557205
299.9686248453439
299.9713336687674
299.9746870048922
299.978688565128
299.983309266659
299.9884878527185
299.9941372619301
300.0001569551611
300.0064452610601
300.012900937276
300.0193980123899
300.0257017971498
300.0312891379624
300.0352382989968
300.0369323764817
300.0372089159426
300.0372045716713
300.0371681210156
300.0370271468151
300.0367124037792
300.0361352639194
300.0352055043487
300.0338330879422
300.0319346659258
300.029439816996
300.026297950664
300.0224850894546
300.0180084490869
300.0129068482116
300.007246911882
300.0011162881501
299.9946160071267
299.9878601235621
299.9810060780062
299.9743590670262
299.9685728309957
299.9646842650696
299.9631750557735
299.9629683265024
299.9629696647888
299.9630185637953
299.9631664716215
299.9634923888254
299.9640775671569
299.9650076340515
299.9663663218095
299.9682302433478
299.9706625520009
299.973707141647
299.9773839816214
299.9816855810766
299.9865757215665
299.9919928119184
299.9978578865887
300.004082640975
300.0105699643223
300.0171943901627
300.0237320547058
300.0296955017249
300.0341750673135
300.0363535999401
300.0368075421692
300.0368185498384
300.0367959975162
300.0366885930894
300.0364342388586
300.03595098277
300.035154690349
300.0339598117332
300.0322846765932
300.0300564812044
300.027217054567
300.0237286259914
300.0195783720262
300.0147805995173
300.0093761382386
300.0034290603833
299.9970222933278
299.9902590844131
299.9832892267007
299.9763976490557
299.9701913876893
299.9657139212957
299.96371392036
299.9633543158416
299.9633486516166
299.9633796675472
299.9634934950611
299.9637599488276
299.9642553787035
299.9650605441021
299.9662554373933
299.9679150340325
299.9701042163175
299.9728730881553
299.9762527632728
299.9802515513718
299.9848528092003
299.9900163975022
299.9956833968773
300.0017806972677
300.0082207801875
300.0148871272316
300.0215779349521
300.0278610016299
300.0328823413027
300.0356615256617
300.0364033756861
300.0364496629956
300.0364368448387
300.0363579374427
300.0361563319685
300.0357552015082
300.035075703983
300.0340361282958
300.0325568506561
300.0305642460975
300.0279954859693
300.024803521464
300.0209612864184
300.0164644718504
300.0113327496575
300.0056091945725
299.9993584827969
299.9926691530601
299.985675252031
299.9786290464642
299.9720668859392
299.966982593748
299.9643574772741
299.9637389635123
299.9637099013124
299.9637313650318
299.9638172538216
299.9640335658174
299.9644505414369
299.9651443019927
299.9661912566693
299.9676648180629
299.9696315131863
299.9721469195729
299.9752514501756
299.9789663519685
299.9832909389119
299.9882022006836
299.9936566711219
299.9995931978991
300.0059332355761
300.0125706872373
300.0193301483443
300.0258387322375
300.0313384094567
300.0347549533069
300.0358930911454
300.0360313235975
300.036012133955
300.03597075057
300.035838553852
300.0355479227113
300.0350160725175
300.0341557438902
300.032881534928
300.0311137286235
300.0287833146457
300.0258373509902
300.0222428929462
300.0179888599796
300.0130862855722
300.0075676168303
300.0014859657326
299.9949196700194
299.9879838625058
299.9808903706218
299.9741054333398
299.9685120969388
299.9651847735424
299.9640921097122
299.9639699926071
299.963908536826
299.9639041458768
299.9639953740294
299.9642603399067
299.9647798095434
299.9656394480506
299.966924969658
299.9687132006703
299.9710645511367
299.9740191565763
299.9775962254202
299.9817946721259
299.9865935746446
299.9919535309126
299.9978198293682
300.004121438186
300.0107620542755
300.0175942198585
300.0243128830082
300.0302014899393
300.0342669277415
300.0361374001395
300.0365306542413
300.0365550432387
300.0365439008576
300.0364464877136
300.0362006824432
300.0357459435102
300.0350030651213
300.0338774966975
300.0322764020773
300.0301229804851
300.0273607645624
300.0239525474876
300.0198797747594
300.0151436685248
300.0097653857938
300.0037854435128
299.9972714893005
299.9903363413815
299.9831683935301
299.9761409110237
299.9700535935937
299.965977973154
299.9642033902685
299.9638473151117
299.963814172069
299.9638354673763
299.963956283099
299.964230548799
299.9647142022108
299.9654807648451
299.9666176546374
299.9682096170502
299.9703269651955
299.9730214698942
299.9763251370679
299.9802492363958
299.9847843832283
299.9899024600091
299.995559589918
300.0016947095728
300.0082165724987
300.01498168475
300.0217414893996
300.027965809369
300.0327116153354
300.0353013532313
300.0360624435842
300.0361152547599
300.0361147064262
300.0360318158893
300.0358182390044
300.0354176498481
300.0347664065292
300.033781840097
300.0323746156565
300.0304621343881
300.027975278744
300.0248612554856
300.0210863518414
300.0166383587024
300.0115274577466
300.0057859925971
299.9994727669263
299.9926887647907
299.98560138227
299.9785055711353
299.9720189111645
299.967202059956
299.9647305802784
299.9640432526546
299.963998439593
299.964014519841
299.9641222097413
299.9643702998953
299.9648078139589
299.9654976390008
299.9665180537192
299.9679489041221
299.9698615730642
299.9723153211162
299.9753548292483
299.9790065421319
299.9832756444811
299.9881454055373
299.9935793853551
299.9995224585716
300.0058909139297
300.0125557376394
300.0193160899273
300.0257785693032
300.0311139982637
300.0344163684428
300.0356751224674
300.0358500804402
300.0358312326048
300.0357638951644
300.0355811801558
300.0352313607328
300.0346584904132
300.0337886697196
300.0325385424447
300.0308267955257
300.028580228093
300.0257369992907
300.0222506736494
300.0180945683772
300.0132651322866
300.0077834244058
300.0016973482349
299.9950944818401
299.9881215221724
299.9810166446668
299.9742524921658
299.9687756634737
299.9655526179087
299.9644012429495
299.9642568497184
299.9642821487059
299.9643684669856
299.9645853952368
299.9649748191804
299.9655915647568
299.9665068517318
299.9677966539405
299.9695309586597
299.9717706798434
299.974566265323
299.9779542245461
299.9819528352768
299.9865591084594
299.9917481828907
299.9974737633062
300.0036625233088
300.0102015651771
300.0169209878338
300.02351668777
300.02932821053
300.0333538714933
300.0352284439591
300.0356167949948
300.0356083833723
300.0355510816682
300.0353931061583
300.0350890444037
300.0345854505649
300.0338166082382
300.032703032849
300.0311648158711
300.0291287252596
300.0265298773995
300.0233144028796
300.019444362828
300.0149027540717
300.0096970961413
300.0038622311842
299.9974690168108
299.9906421354121
299.9835840467719
299.9766647473361
299.9706535423506
299.9666434579426
299.964909871046
299.9645639057745
299.9645802044272
299.96465019668
299.964839383241
299.9651845380439
299.9657340167763
299.9665522704255
299.9677128216902
299.9692851057227
299.9713303632108
299.9739016001141
299.977041421692
299.9807776379245
299.985119008733
299.9900525653536
299.9955432301801
300.0015313871212
300.007919906233
300.0145574853162
300.0212014949144
300.0273562929092
300.0320733541663
300.0346199694123
300.0353766783516
300.0354318733197
300.0353713117573
300.0352356506003
300.034967919752
300.0345227217599
300.0338414120195
300.032849136798
300.0314679552434
300.0296245887474
300.0272516789439
300.0242900760533
300.0206940977435
300.0164367101835
300.0115135888161
300.0059461762754
299.9997873515668
299.9931391291755
299.9861752576734
299.9791885471909
299.972775802429
299.9680108640727
299.9656082726611
299.9649303493201
299.9648944195692
299.9649581759635
299.9651152124819
299.9654196494593
299.9659086281496
299.9666399353382
299.9676843485876
299.9691105715327
299.9709797501793
299.973346045797
299.9762555417877
299.9797422886119
299.9838239277492
299.9884983692795
299.9937423919891
299.999509598685
300.0057193123794
300.0122414228443
300.0188772792109
300.0252484603766
300.030551015619
300.0338194750137
300.0350925989615
300.0352601094517
300.0352101078395
300.0350946030015
300.0348585826436
300.0344623376505
300.0338560826028
300.0329719108806
300.0317329489955
300.0300653792939
300.0279009387252
300.0251777480129
300.0218443791659
300.0178653045871
300.0132255404518
300.0079340995512
300.0020283144936
299.9955881143131
299.9887593456043
299.9817814779567
299.9751160518396
299.9696900582848
299.9665142146239
299.9653724565422
299.9652171350668
299.9652737413982
299.9654019971184
299.9656710562282
299.9661094316365
299.9667657826491
299.9677055449887
299.9689973816186
299.9707036533106
299.9728799070306
299.9755745092703
299.9788254377559
299.9826564842899
299.9870741325358
299.9920651969065
299.9975951528274
300.0036017105971
300.0099778346563
300.0165517089805
300.0230258720557
300.0287828587189
300.0328078913325
300.034674938142
300.0350954512037
300.0350867954382
300.0349803279262
300.0347695773353
300.0344141027714
300.033870056899
300.0330775180867
300.0319632350547
300.0304541905369
300.0284814395959
300.0259801884286
300.0228937924354
300.0191801623851
300.0148164123416
300.0098019023447
300.0041614612404
299.9979543686873
299.9912971201806
299.9843916703298
299.9775980518206
299.971650232756
299.9676602702122
299.9659514142768
299.9655771837573
299.9655923571623
299.9657026370106
299.9659383689143
299.9663331409832
299.9669254414937
299.9677733863628
299.9689431572334
299.9704976613808
299.9724946302561
299.9749858182562
299.978013415465
299.9816060276892
299.9857759618988
299.9905173163318
299.9958050761749
300.0015915971269
300.0077909151171
300.0142580215112
300.0207584904836
300.0268231479194
300.0315375553756
300.0340857114189
300.0349130854053
300.0349764798621
300.0348864433244
300.0347066906254
300.0343818212575
300.0338837324563
300.0331651340336
300.0321597628113
300.0307956277544
300.0290020956735
300.0267111683143
300.0238612139034
300.0204034773441
300.0163077511704
300.0115658728493
300.0061935075808
300.0002342295939
299.993778925598
299.9869953213598
299.9801680368922
299.9738627512302
299.9691122480008
299.966705931701
299.9659812437828
299.9659086165666
299.9660035983759
299.9661997347694
299.9665596325421
299.9671027256676
299.9678764687791
299.9689409433433
299.9703572034397
299.972184639264
299.9744802042569
299.9772929408177
299.9806575652555
299.9845913015911
299.9890930174077
299.9941429667388
299.9997021149695
300.005702773878
300.0120277303137
300.018484522937
300.0247126322977
300.0299793654401
300.0333071626236
300.0346226511821
300.0348677158505
300.0348240512984
300.0346711376194
300.0343765068901
300.0339143960771
300.0332495053831
300.0323278835268
300.0310856493883
300.0294553212899
300.0273661109071
300.0247481082587
300.0215419529607
300.0177080467231
300.0132309193188
300.0081202805537
300.0024120726688
299.9961785693398
299.9895546884857
299.9827708240286
299.9762626006452
299.9708888340024
299.9676634258668
299.9664904593113
299.9662688576768
299.966293278442
299.9664543239903
299.9667741850623
299.9672769880886
299.9679970736042
299.9689825990351
299.9702856306886
299.9719606076024
299.974066416603
299.9766617496404
299.9797945275406
299.9834930468744
299.9877628142826
299.9925868963843
299.997927994224
300.0037267416895
300.0098851114094
300.0162444148507
300.0225333181851
300.0281855858107
300.032252761198
300.0341823822434
300.0347129166022
300.0347673147047
300.0346601756885
300.034416130445
300.0339891046495
300.0333604966184
300.0324931177047
300.0313378381309
300.0298378468885
300.027927984143
300.0255356539739
300.0225885732137
300.0190274533372
300.0148186355389
300.0099620665543
300.0044916002651
299.9984737692011
299.992025407223
299.9853402911913
299.9787487355773
299.9729267830685
299.9689217893356
299.9671509973809
299.9667051649701
299.9666329515535
299.9667262857273
299.9669771328845
299.9674273690573
299.968103698711
299.9690396845561
299.970270123951
299.9718322051954
299.973773400543
299.9761542727535
299.979039421085
299.9824811548962
299.9865050971466
299.991104001446
299.9962401486945
300.0018524561763
300.007850939763
300.0140956534419
300.0203705047218
300.0262511289849
300.0309063642932
300.033562518892
300.0344691968094
300.0346215619036
300.0346207667774
300.0344664873118
300.0341210132772
300.0335471016244
300.0327137407943
300.0315934318891
300.0301594262648
300.0283748031798
300.0261811931587
300.0234994423218
300.020244173533
300.0163452666445
300.0117685133888
300.0065324927032
300.0007089076662
299.99441912304
299.987845442179
299.9812495363413
299.9751365140861
299.9704676592114
299.9679784065434
299.9671994730831
299.9670797195478
299.9670914039219
299.9672444710528
299.9675810499513
299.9681503365991
299.9690062346069
299.9701917294607
299.9717282653301
299.9736199324105
299.97586761664
299.9784892075519
299.9815477480387
299.9851682828593
299.989499917657
299.994624210252
300.0004376173328
300.0065992306192
300.0122503569958
300.0179423428387
)
;

boundaryField
{
    inlet
    {
        type            fixedValue;
        value           uniform 300;
    }
    outlet
    {
        type            temperatureOutletNSCBC;
        pInf            101325;
        gamma           1.4;
        etaAc           1;
        fieldInf        1;
        lInf            2.25;
        value           uniform 300.0206346610594;
    }
    frontAndBack
    {
        type            empty;
    }
}


// ************************************************************************* //
