/*--------------------------------*- C++ -*----------------------------------*\
| =========                 |                                                 |
| \\      /  F ield         | OpenFOAM: The Open Source CFD Toolbox           |
|  \\    /   O peration     | Version:  v2012                                 |
|   \\  /    A nd           | Website:  www.openfoam.com                      |
|    \\/     M anipulation  |                                                 |
\*---------------------------------------------------------------------------*/
FoamFile
{
    version     2.0;
    format      ascii;
    class       volVectorField;
    location    "0.011";
    object      U;
}
// * * * * * * * * * * * * * * * * * * * * * * * * * * * * * * * * * * * * * //

dimensions      [0 1 -1 0 0 0 0];


internalField   nonuniform List<vector> 
1000
(
(-0.002760455334260778 0 0)
(-0.03442316899970696 0 0)
(-0.04261512452760401 0 0)
(-0.05781008661916944 0 0)
(-0.07170520008748457 0 0)
(-0.08460954678802368 0 0)
(-0.09561784032969514 0 0)
(-0.1050301817945182 0 0)
(-0.113122030307064 0 0)
(-0.118625793384667 0 0)
(-0.120178073295893 0 0)
(-0.1200436527456709 0 0)
(-0.1191872389271549 0 0)
(-0.1166558028927759 0 0)
(-0.1118039509525365 0 0)
(-0.1044471504081144 0 0)
(-0.09485921441751927 0 0)
(-0.08346542338012106 0 0)
(-0.0706262953616672 0 0)
(-0.05659516063653534 0 0)
(-0.04157713521992978 0 0)
(-0.02579250939376225 0 0)
(-0.009504190595897327 0 0)
(0.006987138101067437 0 0)
(0.02335980955711689 0 0)
(0.03928828494058454 0 0)
(0.05447674501224811 0 0)
(0.06873334024354359 0 0)
(0.08204289960096588 0 0)
(0.09446888090650327 0 0)
(0.1056471063642647 0 0)
(0.1139620698851053 0 0)
(0.1175156802729752 0 0)
(0.1179074568447408 0 0)
(0.1177894865508678 0 0)
(0.1171128203802582 0 0)
(0.1153080014902034 0 0)
(0.1117444491311209 0 0)
(0.1059273652631913 0 0)
(0.09762659244900806 0 0)
(0.08694418056016139 0 0)
(0.07425295118843005 0 0)
(0.06004764966647447 0 0)
(0.04479599761815981 0 0)
(0.02886294519186094 0 0)
(0.01252148747071697 0 0)
(-0.003987949168438028 0 0)
(-0.02040717966710211 0 0)
(-0.03646588470360874 0 0)
(-0.05194773575774456 0 0)
(-0.06676127414070759 0 0)
(-0.080914212102801 0 0)
(-0.09425978616880565 0 0)
(-0.1058810026947045 0 0)
(-0.1136213599731918 0 0)
(-0.1162821137280078 0 0)
(-0.1164764465262302 0 0)
(-0.1163283384465397 0 0)
(-0.1157244090188856 0 0)
(-0.1141470131640252 0 0)
(-0.1110912418974977 0 0)
(-0.106074671522457 0 0)
(-0.09876354966452733 0 0)
(-0.08905275352359103 0 0)
(-0.07709940370433178 0 0)
(-0.06328102666617912 0 0)
(-0.04809548794615599 0 0)
(-0.0320504500625645 0 0)
(-0.01558614203037717 0 0)
(0.0009555500428035044 0 0)
(0.01732834613363456 0 0)
(0.03336635507986892 0 0)
(0.04897654750889029 0 0)
(0.06413771639253994 0 0)
(0.07883900813987017 0 0)
(0.09279765624508661 0 0)
(0.1048223449998506 0 0)
(0.1125512625497217 0 0)
(0.115056074676493 0 0)
(0.1152207717927937 0 0)
(0.1151328168080509 0 0)
(0.1146033676060323 0 0)
(0.1132790706277576 0 0)
(0.1106830920149184 0 0)
(0.1063714634596487 0 0)
(0.09997312138901916 0 0)
(0.09126811664067457 0 0)
(0.08023976286583982 0 0)
(0.06709365707077257 0 0)
(0.05222731840301185 0 0)
(0.03615240852892196 0 0)
(0.01939676049763053 0 0)
(0.002423116992883451 0 0)
(-0.01441926800987405 0 0)
(-0.03091967297454431 0 0)
(-0.047010971805092 0 0)
(-0.0627243255431236 0 0)
(-0.07803258956347205 0 0)
(-0.09248763484552947 0 0)
(-0.1046085129548927 0 0)
(-0.1119446425378911 0 0)
(-0.1141050716818365 0 0)
(-0.1142350828001003 0 0)
(-0.1140998193649913 0 0)
(-0.1136176736957841 0 0)
(-0.1123740825155148 0 0)
(-0.1099802897733242 0 0)
(-0.1060210359088575 0 0)
(-0.100139625297564 0 0)
(-0.09209041495140219 0 0)
(-0.08179211270671775 0 0)
(-0.06935549774590871 0 0)
(-0.05507720703051832 0 0)
(-0.03939915221963081 0 0)
(-0.02283751058059938 0 0)
(-0.00589242903483169 0 0)
(0.01103624629488278 0 0)
(0.02769784679530615 0 0)
(0.04399228021847289 0 0)
(0.0599230479204862 0 0)
(0.07546212712503506 0 0)
(0.09020296929102255 0 0)
(0.1027297379944377 0 0)
(0.1105735155960263 0 0)
(0.1130607229075462 0 0)
(0.1132382645138903 0 0)
(0.1131743563438415 0 0)
(0.1127632075930724 0 0)
(0.1117273370379804 0 0)
(0.109673596849779 0 0)
(0.1062198250568163 0 0)
(0.1010064902888353 0 0)
(0.09375069196538388 0 0)
(0.08429187354020136 0 0)
(0.07263248636947432 0 0)
(0.05895742180487554 0 0)
(0.04361827331726598 0 0)
(0.02708176282698668 0 0)
(0.009855095086247129 0 0)
(-0.007597685404044241 0 0)
(-0.02493359293128177 0 0)
(-0.04197332968985046 0 0)
(-0.05866133984079962 0 0)
(-0.07488755198162406 0 0)
(-0.0900927617175747 0 0)
(-0.10266065164223 0 0)
(-0.1101227042204747 0 0)
(-0.1122907716986038 0 0)
(-0.112425324057983 0 0)
(-0.1123238026399083 0 0)
(-0.1119431540731415 0 0)
(-0.110939393049352 0 0)
(-0.1089854817344195 0 0)
(-0.1057201351449164 0 0)
(-0.1008083714362543 0 0)
(-0.09397669886221101 0 0)
(-0.08505602753171945 0 0)
(-0.07401516456572592 0 0)
(-0.06097970164248914 0 0)
(-0.04623069984041933 0 0)
(-0.03017424087761003 0 0)
(-0.01327798353299125 0 0)
(0.004010431545425559 0 0)
(0.02133467397221497 0 0)
(0.03846765479076738 0 0)
(0.05529593274848926 0 0)
(0.07169636553826056 0 0)
(0.08718737770275085 0 0)
(0.1003087468594961 0 0)
(0.1085906158823689 0 0)
(0.1113282793027116 0 0)
(0.1115650284536897 0 0)
(0.1115248891336569 0 0)
(0.111211674328563 0 0)
(0.1103960507734898 0 0)
(0.1087370042728635 0 0)
(0.1058978365365072 0 0)
(0.1015443145319099 0 0)
(0.09538492390940455 0 0)
(0.08720490268420401 0 0)
(0.07690308689815097 0 0)
(0.06452070457484746 0 0)
(0.05025016032319118 0 0)
(0.03441833677189512 0 0)
(0.01744583591757804 0 0)
(-0.0002162786077825483 0 0)
(-0.01816449315867887 0 0)
(-0.03610446412344418 0 0)
(-0.05383977173140055 0 0)
(-0.07111823759035543 0 0)
(-0.08724729694438547 0 0)
(-0.1004990368217306 0 0)
(-0.1083684989751549 0 0)
(-0.1107143473248349 0 0)
(-0.110883399715108 0 0)
(-0.110804613361767 0 0)
(-0.1105022176639605 0 0)
(-0.109683000453618 0 0)
(-0.108063544257275 0 0)
(-0.1053225471887816 0 0)
(-0.1011488968999236 0 0)
(-0.09526747906791201 0 0)
(-0.08747290390928346 0 0)
(-0.07765888885491208 0 0)
(-0.06584149278537962 0 0)
(-0.05217175818365991 0 0)
(-0.03692801421721165 0 0)
(-0.020480315494843 0 0)
(-0.003233428479288772 0 0)
(0.014434277398728 0 0)
(0.03221840844752619 0 0)
(0.04989600385759812 0 0)
(0.06722722973810395 0 0)
(0.08363202711957615 0 0)
(0.09759666875675842 0 0)
(0.1066063026350544 0 0)
(0.1097813031477094 0 0)
(0.1101163058177248 0 0)
(0.1100919393132678 0 0)
(0.109852000208044 0 0)
(0.1092018897633216 0 0)
(0.1078435525787382 0 0)
(0.1054780855286247 0 0)
(0.1017971130972047 0 0)
(0.09651412268205904 0 0)
(0.08939111825265504 0 0)
(0.08027020741469507 0 0)
(0.06910172507828963 0 0)
(0.0559602936266889 0 0)
(0.0410449930576113 0 0)
(0.02466246472461999 0 0)
(0.007188278575313021 0 0)
(-0.01099278305346744 0 0)
(-0.02954266315823311 0 0)
(-0.04816960953055882 0 0)
(-0.06649880601355079 0 0)
(-0.08371212352270925 0 0)
(-0.09795970151641778 0 0)
(-0.1065877754789324 0 0)
(-0.1092937254082315 0 0)
(-0.109522305905653 0 0)
(-0.1094649129488163 0 0)
(-0.1092315142718059 0 0)
(-0.1085627333050336 0 0)
(-0.1072088479106505 0 0)
(-0.1048809137648231 0 0)
(-0.1012928299191401 0 0)
(-0.09617895610183921 0 0)
(-0.08932003309583347 0 0)
(-0.08056744159654475 0 0)
(-0.06986613127656337 0 0)
(-0.05727231897656886 0 0)
(-0.04295689349617481 0 0)
(-0.02718748464043979 0 0)
(-0.01029272003255256 0 0)
(0.00738150803702169 0 0)
(0.02551381738097704 0 0)
(0.04382274872504845 0 0)
(0.06198821616714147 0 0)
(0.07935900369072603 0 0)
(0.09438382388383992 0 0)
(0.1044501711980251 0 0)
(0.1083139014283769 0 0)
(0.1088144874239963 0 0)
(0.1088066439914159 0 0)
(0.1086274059258485 0 0)
(0.108113534766412 0 0)
(0.1069975770534223 0 0)
(0.1050114641435585 0 0)
(0.1018714807567866 0 0)
(0.09730372750960732 0 0)
(0.09106414460206144 0 0)
(0.08296411939587831 0 0)
(0.07289518006395339 0 0)
(0.06084713226008712 0 0)
(0.04691679704595599 0 0)
(0.03130489154551667 0 0)
(0.01429494584993526 0 0)
(-0.003787067438179806 0 0)
(-0.02261372202429172 0 0)
(-0.04185484247098965 0 0)
(-0.0610657985150361 0 0)
(-0.07935586902413065 0 0)
(-0.09480672112200646 0 0)
(-0.1045755460295717 0 0)
(-0.1079326920895493 0 0)
(-0.1082885093369882 0 0)
(-0.1082498991926483 0 0)
(-0.1080710711136082 0 0)
(-0.1075275300443985 0 0)
(-0.1063944322604698 0 0)
(-0.1044090524287599 0 0)
(-0.1013061742197678 0 0)
(-0.09683151043328508 0 0)
(-0.09076244148345138 0 0)
(-0.08292760561999041 0 0)
(-0.07322715976502708 0 0)
(-0.06165069893259793 0 0)
(-0.04828523027934031 0 0)
(-0.03330795933915566 0 0)
(-0.0169664443692311 0 0)
(0.0004492686672172277 0 0)
(0.01863865512480849 0 0)
(0.03730613603781828 0 0)
(0.05609651426099687 0 0)
(0.07433725785341751 0 0)
(0.0905030029262488 0 0)
(0.1019177636445012 0 0)
(0.1068093357987333 0 0)
(0.1076087339262022 0 0)
(0.1076203616632712 0 0)
(0.1074922557790612 0 0)
(0.1070933131237141 0 0)
(0.1061809206073275 0 0)
(0.1045117032290458 0 0)
(0.1018225080674509 0 0)
(0.09785341094978035 0 0)
(0.09236239379994191 0 0)
(0.08514573310637029 0 0)
(0.07605834612957735 0 0)
(0.06503100181381913 0 0)
(0.05208264681893954 0 0)
(0.03732502966925342 0 0)
(0.0209535954368642 0 0)
(0.00322307950229545 0 0)
(-0.01557830931190764 0 0)
(-0.03512350463684933 0 0)
(-0.05495168103502789 0 0)
(-0.07417451116557007 0 0)
(-0.09090776006311081 0 0)
(-0.1021603446771722 0 0)
(-0.1065320984112582 0 0)
(-0.1071311905096699 0 0)
(-0.1071120146658721 0 0)
(-0.106983832465798 0 0)
(-0.106550914195136 0 0)
(-0.1056094123828851 0 0)
(-0.1039167773197442 0 0)
(-0.1012261309858871 0 0)
(-0.09729546892882808 0 0)
(-0.09190417516145269 0 0)
(-0.08486893692549687 0 0)
(-0.07606136769537589 0 0)
(-0.06542456738836422 0 0)
(-0.05298249152803701 0 0)
(-0.03883898978018695 0 0)
(-0.0231686898684628 0 0)
(-0.006200847526971275 0 0)
(0.01180346615346366 0 0)
(0.03056334583313539 0 0)
(0.04972444515379953 0 0)
(0.06864114671999053 0 0)
(0.08589152090140609 0 0)
(0.09883925288003052 0 0)
(0.1051345778031741 0 0)
(0.1064555405841476 0 0)
(0.1065003908303253 0 0)
(0.1064151914155217 0 0)
(0.1061143779955414 0 0)
(0.1053761452777759 0 0)
(0.1039787613484992 0 0)
(0.1016755968116668 0 0)
(0.09821973838371595 0 0)
(0.09337453426680938 0 0)
(0.08692955147383501 0 0)
(0.07871700235059556 0 0)
(0.06862743499188323 0 0)
(0.05662298596860336 0 0)
(0.04274517603613368 0 0)
(0.02711319889758439 0 0)
(0.009912253582441429 0 0)
(-0.008619582900339328 0 0)
(-0.02818393378367617 0 0)
(-0.0483449423994874 0 0)
(-0.06827755081602997 0 0)
(-0.08622936936010625 0 0)
(-0.09918341926956747 0 0)
(-0.1049713627270407 0 0)
(-0.1060090774685029 0 0)
(-0.1060214160590844 0 0)
(-0.1059374466254061 0 0)
(-0.1056053357920799 0 0)
(-0.1048354391753806 0 0)
(-0.1034023643513445 0 0)
(-0.1010729739967595 0 0)
(-0.09761630889572911 0 0)
(-0.0928161067785183 0 0)
(-0.08648385183816452 0 0)
(-0.07847373026244733 0 0)
(-0.06869695190307616 0 0)
(-0.05713098314763274 0 0)
(-0.04382239464896511 0 0)
(-0.02888485233541519 0 0)
(-0.01249085444853147 0 0)
(0.00514390709750468 0 0)
(0.02376849916889673 0 0)
(0.04305274813038477 0 0)
(0.06241105780790346 0 0)
(0.08058272379259744 0 0)
(0.09509805146874484 0 0)
(0.1031355196399119 0 0)
(0.1052907157040824 0 0)
(0.1054305084735359 0 0)
(0.105375889923821 0 0)
(0.1051585196390808 0 0)
(0.1045721084573386 0 0)
(0.1034123506011038 0 0)
(0.1014470290995344 0 0)
(0.09844046598480384 0 0)
(0.09416189919376702 0 0)
(0.08839866445971188 0 0)
(0.08096941022747661 0 0)
(0.07173745086326723 0 0)
(0.06062357187480502 0 0)
(0.04761574943192569 0 0)
(0.03277204772036019 0 0)
(0.01621652090990087 0 0)
(-0.001865271688308466 0 0)
(-0.02121598635555269 0 0)
(-0.04144457519985777 0 0)
(-0.06182185027285307 0 0)
(-0.08080065471711398 0 0)
(-0.09550710274985254 0 0)
(-0.1030995316750485 0 0)
(-0.1048864727979378 0 0)
(-0.1049697486320275 0 0)
(-0.1049240286307282 0 0)
(-0.1046825626044717 0 0)
(-0.1040684813108691 0 0)
(-0.1028680445983886 0 0)
(-0.1008585413351513 0 0)
(-0.09781641604859848 0 0)
(-0.09352994562621944 0 0)
(-0.08781081683447302 0 0)
(-0.08050630397832018 0 0)
(-0.07151012214677815 0 0)
(-0.06077012860094224 0 0)
(-0.04829226094199488 0 0)
(-0.0341406636954383 0 0)
(-0.01843306384246097 0 0)
(-0.001331680410336697 0 0)
(0.01695769148669741 0 0)
(0.03614944737203826 0 0)
(0.05574667897293398 0 0)
(0.07466427128864399 0 0)
(0.09069829729702088 0 0)
(0.1007328313143285 0 0)
(0.1041497211630905 0 0)
(0.1045981817224527 0 0)
(0.1045975860799286 0 0)
(0.1043833732805079 0 0)
(0.1038396595176876 0 0)
(0.1027815442092837 0 0)
(0.1010014227695944 0 0)
(0.09828585628578745 0 0)
(0.09442845009969311 0 0)
(0.08923523257273459 0 0)
(0.08252862587781624 0 0)
(0.07415427150760118 0 0)
(0.06399217830432923 0 0)
(0.05196999841333567 0 0)
(0.03807486576255697 0 0)
(0.02236018512822399 0 0)
(0.004944417487151746 0 0)
(-0.01397580934710245 0 0)
(-0.03407817863737916 0 0)
(-0.05472672663747868 0 0)
(-0.07452163231414978 0 0)
(-0.09084031651662523 0 0)
(-0.1005157394236677 0 0)
(-0.1036189927539448 0 0)
(-0.1038394726537872 0 0)
(-0.1036692392647062 0 0)
(-0.1032015017380459 0 0)
(-0.1024203441830708 0 0)
(-0.1011322499996007 0 0)
(-0.09916924907575889 0 0)
(-0.09635002563755143 0 0)
(-0.09248671264774389 0 0)
(-0.08740187437741058 0 0)
(-0.08093686207640154 0 0)
(-0.07295675008803826 0 0)
(-0.0633593766152715 0 0)
(-0.05208617828108475 0 0)
(-0.03912948362543037 0 0)
(-0.02453504934112875 0 0)
(-0.008399791081820315 0 0)
(0.009121087548895323 0 0)
(0.02778011440478255 0 0)
(0.04715111627482754 0 0)
(0.06633748106827418 0 0)
(0.08326020964038193 0 0)
(0.09501046021328369 0 0)
(0.1004334722979819 0 0)
(0.1015412531365546 0 0)
(0.1015265581914512 0 0)
(0.1012883798193073 0 0)
(0.1007173000357007 0 0)
(0.09967862722906096 0 0)
(0.09804983713480657 0 0)
(0.09566899511880123 0 0)
(0.09232605455812179 0 0)
(0.08780290206355082 0 0)
(0.08190259939942754 0 0)
(0.07445588749881732 0 0)
(0.0653226176963306 0 0)
(0.05439955355281542 0 0)
(0.0416307717780218 0 0)
(0.02701396796222189 0 0)
(0.0106058807064271 0 0)
(-0.007448637484354661 0 0)
(-0.02685589331882347 0 0)
(-0.04708203437918062 0 0)
(-0.0670493520546401 0 0)
(-0.0844242564524567 0 0)
(-0.09605673627579456 0 0)
(-0.1010879895707549 0 0)
(-0.1020358579364469 0 0)
(-0.1019831697940239 0 0)
(-0.1016929432627138 0 0)
(-0.1010566127266525 0 0)
(-0.09993060256323004 0 0)
(-0.09820092419939037 0 0)
(-0.09571346433532246 0 0)
(-0.09227877511113722 0 0)
(-0.08770592304415654 0 0)
(-0.08182258723063963 0 0)
(-0.07448131124796954 0 0)
(-0.06556678774419313 0 0)
(-0.05500529417162555 0 0)
(-0.04277008362852753 0 0)
(-0.02888117152044893 0 0)
(-0.01340247840962958 0 0)
(0.003545115173788775 0 0)
(0.02173635137899326 0 0)
(0.04078211002839442 0 0)
(0.05998141940616239 0 0)
(0.0777820789818545 0 0)
(0.09140690814551954 0 0)
(0.0988777696491451 0 0)
(0.1011138857156142 0 0)
(0.1012848534081156 0 0)
(0.1011283461668382 0 0)
(0.100697052870998 0 0)
(0.09978802516902219 0 0)
(0.09830294642421836 0 0)
(0.09611299302112236 0 0)
(0.09304837332895349 0 0)
(0.08891577261759093 0 0)
(0.08352199642510832 0 0)
(0.07668389680592831 0 0)
(0.06823712571003307 0 0)
(0.0580506280579968 0 0)
(0.04604061653446427 0 0)
(0.03217825530141627 0 0)
(0.01649344435365425 0 0)
(-0.0009037515740545341 0 0)
(-0.01976666521453561 0 0)
(-0.03964394551222488 0 0)
(-0.05970165065579901 0 0)
(-0.07813651162017811 0 0)
(-0.09185800985886065 0 0)
(-0.09890521913719694 0 0)
(-0.1008424566019395 0 0)
(-0.10093829210501 0 0)
(-0.1007827408683998 0 0)
(-0.1003130107093105 0 0)
(-0.09936699410988439 0 0)
(-0.09784104979449283 0 0)
(-0.09560136106228556 0 0)
(-0.09248239689776129 0 0)
(-0.08831204568921784 0 0)
(-0.08292736059425672 0 0)
(-0.07617659871625337 0 0)
(-0.06792563269795482 0 0)
(-0.05807285657569267 0 0)
(-0.04656248001225195 0 0)
(-0.03338957351322256 0 0)
(-0.0185988559651189 0 0)
(-0.002290259096489626 0 0)
(0.01534770641023972 0 0)
(0.03398602152857731 0 0)
(0.05306063185959931 0 0)
(0.07142224716292957 0 0)
(0.08667785110620402 0 0)
(0.09620636867540218 0 0)
(0.09989365040661019 0 0)
(0.1004249612043504 0 0)
(0.1004038702443986 0 0)
(0.1001164600259535 0 0)
(0.09939457817003354 0 0)
(0.09811559498386131 0 0)
(0.09616120125711357 0 0)
(0.09337949475533981 0 0)
(0.0895955889706052 0 0)
(0.08463589181564958 0 0)
(0.0783320259295448 0 0)
(0.07051884023745338 0 0)
(0.0610453455987236 0 0)
(0.0497958917103761 0 0)
(0.03670839220571869 0 0)
(0.02178411424537877 0 0)
(0.005100275467432055 0 0)
(-0.01314826935109822 0 0)
(-0.03258587963511395 0 0)
(-0.05254615121534478 0 0)
(-0.07166864866285177 0 0)
(-0.08723275509773819 0 0)
(-0.09641390406696095 0 0)
(-0.09967373301569374 0 0)
(-0.1000716245130029 0 0)
(-0.1000379420704495 0 0)
(-0.09972250492901689 0 0)
(-0.0989767871363614 0 0)
(-0.09767081328676447 0 0)
(-0.09568326784375138 0 0)
(-0.09286025900473675 0 0)
(-0.0890411443490432 0 0)
(-0.08407754904847468 0 0)
(-0.07783003330375415 0 0)
(-0.07016532546526008 0 0)
(-0.06096797712001186 0 0)
(-0.05015797848476389 0 0)
(-0.0377031514314016 0 0)
(-0.02362328651007658 0 0)
(-0.007991409152948633 0 0)
(0.009043113863659163 0 0)
(0.02720221569153096 0 0)
(0.04602440747594632 0 0)
(0.06466223094459693 0 0)
(0.08121751945537237 0 0)
(0.09274382247808341 0 0)
(0.09815220296063573 0 0)
(0.09936208463389336 0 0)
(0.09948100053227651 0 0)
(0.09932172982805608 0 0)
(0.09880664181617868 0 0)
(0.09775553599338564 0 0)
(0.09605227393538064 0 0)
(0.09355576551911425 0 0)
(0.09010315311430679 0 0)
(0.08553416364758748 0 0)
(0.07969621813505876 0 0)
(0.07243591170457132 0 0)
(0.0636024185934162 0 0)
(0.05306576042816796 0 0)
(0.0407379712465453 0 0)
(0.02658889012452935 0 0)
(0.01065726586552439 0 0)
(-0.006918093536761395 0 0)
(-0.02583150008370157 0 0)
(-0.04553688198065826 0 0)
(-0.06500372704671972 0 0)
(-0.08201700727606903 0 0)
(-0.0933745668563708 0 0)
(-0.09826950828824094 0 0)
(-0.09926698412962125 0 0)
(-0.09932079722462946 0 0)
(-0.09913677352021538 0 0)
(-0.09858409875495031 0 0)
(-0.09750093036530584 0 0)
(-0.09577100938485919 0 0)
(-0.09324632835449778 0 0)
(-0.08977067656874516 0 0)
(-0.08520245069082044 0 0)
(-0.07941249250556991 0 0)
(-0.07227534025966267 0 0)
(-0.06367453591368327 0 0)
(-0.05351848770602153 0 0)
(-0.04175499047976543 0 0)
(-0.02837928076956696 0 0)
(-0.01343762144519805 0 0)
(0.002956978030455199 0 0)
(0.0205804309783306 0 0)
(0.03905205282108506 0 0)
(0.05771154192936238 0 0)
(0.07511992276107186 0 0)
(0.08852669466170485 0 0)
(0.09584968371804704 0 0)
(0.09814532849415085 0 0)
(0.09838977579008172 0 0)
(0.09838242652128193 0 0)
(0.09804750907591919 0 0)
(0.09722018673749162 0 0)
(0.09577537214986744 0 0)
(0.09357368662170906 0 0)
(0.09045625665281469 0 0)
(0.08626606854307343 0 0)
(0.08086017142045628 0 0)
(0.07410046409228481 0 0)
(0.06584680042045092 0 0)
(0.05596689979447994 0 0)
(0.04435729696920977 0 0)
(0.03096305370393803 0 0)
(0.01579092027427455 0 0)
(-0.001068093051869033 0 0)
(-0.01938178596616866 0 0)
(-0.03871115310459539 0 0)
(-0.05825456554811863 0 0)
(-0.0762891202051804 0 0)
(-0.08972190799619097 0 0)
(-0.09651486654691928 0 0)
(-0.09845695040135828 0 0)
(-0.09857773456344496 0 0)
(-0.09854555305972318 0 0)
(-0.09816975707889317 0 0)
(-0.09730987436335298 0 0)
(-0.09584241523632203 0 0)
(-0.09362007537882915 0 0)
(-0.090484237305202 0 0)
(-0.08629473191938827 0 0)
(-0.08093087281746329 0 0)
(-0.07427760735029681 0 0)
(-0.06622327325627725 0 0)
(-0.05667183381905466 0 0)
(-0.04555813112592259 0 0)
(-0.03285931492470531 0 0)
(-0.0186009552093521 0 0)
(-0.002864167508667036 0 0)
(0.0141812684105018 0 0)
(0.03221935418984526 0 0)
(0.0507134969451293 0 0)
(0.0686056610667722 0 0)
(0.08361695345360319 0 0)
(0.09293287997601264 0 0)
(0.09660532420303439 0 0)
(0.09717831372361513 0 0)
(0.09730280143025868 0 0)
(0.09711496686175279 0 0)
(0.09651725767068357 0 0)
(0.0953343359973825 0 0)
(0.09343263589727117 0 0)
(0.09065337069386523 0 0)
(0.08683879816939229 0 0)
(0.08185207289419548 0 0)
(0.07556658857147211 0 0)
(0.06785266978613688 0 0)
(0.05858202137007382 0 0)
(0.04764506608651799 0 0)
(0.03497034367998399 0 0)
(0.0205407033541999 0 0)
(0.004408778804530257 0 0)
(-0.01326080010284999 0 0)
(-0.03211148845150249 0 0)
(-0.0514974436030963 0 0)
(-0.07013290459936203 0 0)
(-0.08538837659116416 0 0)
(-0.09431052809953201 0 0)
(-0.09747435458374422 0 0)
(-0.09791425418088308 0 0)
(-0.09797309294769274 0 0)
(-0.09773749800775505 0 0)
(-0.09709191688178997 0 0)
(-0.09587484199397613 0 0)
(-0.09394665136627522 0 0)
(-0.09114560428402511 0 0)
(-0.08732671282417329 0 0)
(-0.08237253656137454 0 0)
(-0.07617710035001579 0 0)
(-0.06863538936001204 0 0)
(-0.05965086532155663 0 0)
(-0.04915070167300586 0 0)
(-0.03709867994142375 0 0)
(-0.02350268207679302 0 0)
(-0.00841935811255401 0 0)
(0.008022375040044277 0 0)
(0.02556543442711574 0 0)
(0.0437733241414174 0 0)
(0.06185095452536317 0 0)
(0.07803078548224184 0 0)
(0.08936232630750482 0 0)
(0.0946532270444745 0 0)
(0.09596804940416789 0 0)
(0.0961375536546215 0 0)
(0.09609086008722911 0 0)
(0.09569660132481239 0 0)
(0.09477137641038444 0 0)
(0.09317018957037031 0 0)
(0.09073038275580274 0 0)
(0.08729007347844929 0 0)
(0.08271022302758241 0 0)
(0.07687121890622553 0 0)
(0.0696569814192228 0 0)
(0.06094983584160939 0 0)
(0.05064025952469341 0 0)
(0.03864540290912803 0 0)
(0.02492824715860583 0 0)
(0.009512322154193819 0 0)
(-0.007487073976546603 0 0)
(-0.0257901459630035 0 0)
(-0.04487730951931347 0 0)
(-0.0637761311385957 0 0)
(-0.08038745597823925 0 0)
(-0.09149602963461773 0 0)
(-0.09621460951940942 0 0)
(-0.09727025681687808 0 0)
(-0.09733717413236867 0 0)
(-0.09724815048255198 0 0)
(-0.09679533471201962 0 0)
(-0.09582598348464862 0 0)
(-0.0941946618478491 0 0)
(-0.09173029947094677 0 0)
(-0.08827833982341853 0 0)
(-0.08372127575867223 0 0)
(-0.07796288024101494 0 0)
(-0.07090896807395135 0 0)
(-0.0624668976260583 0 0)
(-0.05255819329436894 0 0)
(-0.04113271221716819 0 0)
(-0.02818029399722356 0 0)
(-0.01373839528142792 0 0)
(0.002095061614812271 0 0)
(0.01911908726204946 0 0)
(0.03696786288426513 0 0)
(0.05500402403983741 0 0)
(0.07190704516438444 0 0)
(0.08510599665108312 0 0)
(0.09226669955519901 0 0)
(0.09460205157698652 0 0)
(0.09483368049258034 0 0)
(0.09495139083987281 0 0)
(0.09472319699081137 0 0)
(0.09404605666062048 0 0)
(0.092742320515004 0 0)
(0.09064673535536312 0 0)
(0.08758292433263153 0 0)
(0.08340447574338782 0 0)
(0.07799796305459847 0 0)
(0.07126060564028956 0 0)
(0.06308704947905897 0 0)
(0.0533736896229117 0 0)
(0.04203227926259392 0 0)
(0.02900810584109098 0 0)
(0.01429943315182042 0 0)
(-0.002019743503361654 0 0)
(-0.0197428726064781 0 0)
(-0.03844353175448808 0 0)
(-0.05734216420346912 0 0)
(-0.07484146206794159 0 0)
(-0.08803325806411436 0 0)
(-0.09466361424634515 0 0)
(-0.0965678607458258 0 0)
(-0.09670835167594713 0 0)
(-0.09674036694883675 0 0)
(-0.09644648122323553 0 0)
(-0.09571207394540353 0 0)
(-0.09437343706558281 0 0)
(-0.09225257089988703 0 0)
(-0.08917367934422718 0 0)
(-0.08500458488327378 0 0)
(-0.07965345948124118 0 0)
(-0.07304406328845378 0 0)
(-0.06510057949964812 0 0)
(-0.05574965743154722 0 0)
(-0.04493234666115323 0 0)
(-0.03261887812011124 0 0)
(-0.01882185319243752 0 0)
(-0.003607587756501927 0 0)
(0.01286987422833271 0 0)
(0.03030410653031855 0 0)
(0.04817191060447024 0 0)
(0.06548216255317053 0 0)
(0.08015076529998495 0 0)
(0.08934967825447954 0 0)
(0.09291529276325738 0 0)
(0.09360105808353814 0 0)
(0.09368831605970744 0 0)
(0.09359570807435783 0 0)
(0.09314005245070327 0 0)
(0.09213424770633881 0 0)
(0.09039894712567623 0 0)
(0.08773586295302888 0 0)
(0.08397465293509905 0 0)
(0.07899133861226948 0 0)
(0.07269435710096023 0 0)
(0.06500330962071912 0 0)
(0.05583700887698004 0 0)
(0.04511459344407231 0 0)
(0.03276952405196975 0 0)
(0.01877276172501129 0 0)
(0.003157049075532757 0 0)
(-0.01393785710875506 0 0)
(-0.03217534983351228 0 0)
(-0.0509276237764288 0 0)
(-0.06897746121591523 0 0)
(-0.0838682694048505 0 0)
(-0.0926641372919529 0 0)
(-0.09570570527307044 0 0)
(-0.09622861271826022 0 0)
(-0.09618654407437129 0 0)
(-0.09601792160421802 0 0)
(-0.09548230212298789 0 0)
(-0.09442970123874737 0 0)
(-0.09266749284134272 0 0)
(-0.08999112223596918 0 0)
(-0.08623680067799692 0 0)
(-0.08129563463187725 0 0)
(-0.07509824719077215 0 0)
(-0.06759434079934783 0 0)
(-0.05873825499561987 0 0)
(-0.04848438702266306 0 0)
(-0.03679501673926443 0 0)
(-0.02365733537002649 0 0)
(-0.009100066078488725 0 0)
(0.006778847031766014 0 0)
(0.02374620241554351 0 0)
(0.04136725782252911 0 0)
(0.05885939817201595 0 0)
(0.0745773392036071 0 0)
(0.08582114429649346 0 0)
(0.09105765210278847 0 0)
(0.09236624640810642 0 0)
(0.09239269183468025 0 0)
(0.09237265945059124 0 0)
(0.0920567691372521 0 0)
(0.09131487213242338 0 0)
(0.08994366510560553 0 0)
(0.08771777315477759 0 0)
(0.08442453687422868 0 0)
(0.07990434992131545 0 0)
(0.07405095589607549 0 0)
(0.06679451120577286 0 0)
(0.05808687440917928 0 0)
(0.047889204832723 0 0)
(0.03616074520407232 0 0)
(0.02286208241223021 0 0)
(0.007981530018163143 0 0)
(-0.008415934097938907 0 0)
(-0.02609444063866138 0 0)
(-0.04455618158732399 0 0)
(-0.0628676956185004 0 0)
(-0.07905108104048419 0 0)
(-0.09007564260665939 0 0)
(-0.09478577271291348 0 0)
(-0.09578085003157108 0 0)
(-0.09573178455481673 0 0)
(-0.09555761903843366 0 0)
(-0.09511556866796281 0 0)
(-0.09428191577709648 0 0)
(-0.0928650482926343 0 0)
(-0.09063614657194756 0 0)
(-0.08737555051304513 0 0)
(-0.08291734080164516 0 0)
(-0.07715937011281085 0 0)
(-0.0700561278045594 0 0)
(-0.06160228495302028 0 0)
(-0.05180625147466691 0 0)
(-0.04066542414110734 0 0)
(-0.02816307016574743 0 0)
(-0.0142915897924367 0 0)
(0.0009130533705144185 0 0)
(0.01730761989864471 0 0)
(0.03455502680095562 0 0)
(0.05204027401363549 0 0)
(0.06850774503635194 0 0)
(0.08152451912880262 0 0)
(0.0888065831584135 0 0)
(0.09108741000867999 0 0)
(0.09136154042934716 0 0)
(0.09117093715680788 0 0)
(0.09086156749673518 0 0)
(0.09021959504059901 0 0)
(0.08911651361664935 0 0)
(0.08733781979048226 0 0)
(0.08461874158700562 0 0)
(0.08070568937197981 0 0)
(0.07540589695792216 0 0)
(0.06861013377111545 0 0)
(0.06028946279727019 0 0)
(0.05047029718931648 0 0)
(0.03919753489817584 0 0)
(0.02649592257011564 0 0)
(0.01235532416005698 0 0)
(-0.003243925836167405 0 0)
(-0.02021937361827695 0 0)
(-0.03822246380072247 0 0)
(-0.05653352695792963 0 0)
(-0.07362835233597047 0 0)
(-0.08667211457206198 0 0)
(-0.09349240038367526 0 0)
(-0.0954075301939445 0 0)
(-0.0955609373447896 0 0)
(-0.09533277628785081 0 0)
(-0.0948799239785293 0 0)
(-0.09405581034817755 0 0)
(-0.09276800200785359 0 0)
(-0.0908680403819469 0 0)
(-0.08814886477173685 0 0)
(-0.08437638510647225 0 0)
(-0.07932173227924151 0 0)
(-0.07279607316157692 0 0)
(-0.06469754634744952 0 0)
(-0.05506483646645513 0 0)
(-0.04409321781062695 0 0)
(-0.0320393392693202 0 0)
(-0.0189893513450988 0 0)
(-0.004783476309384947 0 0)
(0.01102651887312984 0 0)
(0.02735678730057323 0 0)
(0.04685606356183057 0 0)
)
;

boundaryField
{
    inlet
    {
        type            zeroGradient;
    }
    outlet
    {
        type            velocityOutletNSCBCx;
        pInf            101325;
        gamma           1.4;
        etaAc           1;
        fieldInf        (-1 0 0);
        lInf            2.25;
        value           uniform (0.05438177842540147 0 0);
    }
    frontAndBack
    {
        type            empty;
    }
}


// ************************************************************************* //
