/*--------------------------------*- C++ -*----------------------------------*\
| =========                 |                                                 |
| \\      /  F ield         | OpenFOAM: The Open Source CFD Toolbox           |
|  \\    /   O peration     | Version:  v2012                                 |
|   \\  /    A nd           | Website:  www.openfoam.com                      |
|    \\/     M anipulation  |                                                 |
\*---------------------------------------------------------------------------*/
FoamFile
{
    version     2.0;
    format      ascii;
    class       volVectorField;
    location    "0.011";
    object      UMean;
}
// * * * * * * * * * * * * * * * * * * * * * * * * * * * * * * * * * * * * * //

dimensions      [0 1 -1 0 0 0 0];


internalField   nonuniform List<vector> 
1000
(
(-2.97178972966003e-05 0 0)
(3.258455822137109e-06 0 0)
(2.238490119911378e-05 0 0)
(5.87212929478978e-05 0 0)
(0.0001012842845751157 0 0)
(0.0001473434541743522 0 0)
(0.000205700142583719 0 0)
(0.0002681275066524295 0 0)
(0.000340561391801542 0 0)
(0.0004166897443741794 0 0)
(0.0004957844293793445 0 0)
(0.0005744663687789648 0 0)
(0.0006527571451536639 0 0)
(0.0007300030376485013 0 0)
(0.0008049955525734844 0 0)
(0.000876256082093977 0 0)
(0.0009420283943646254 0 0)
(0.001001105206061862 0 0)
(0.001052309999839696 0 0)
(0.001094851500556445 0 0)
(0.001127969900543077 0 0)
(0.001151016910874625 0 0)
(0.001163662118373479 0 0)
(0.001165513655729969 0 0)
(0.00115668122407806 0 0)
(0.001137163783924011 0 0)
(0.001107505168990353 0 0)
(0.001068088360393855 0 0)
(0.001019676267393256 0 0)
(0.0009626926631124711 0 0)
(0.0008979038395299726 0 0)
(0.0008263182723759001 0 0)
(0.0007505428227705463 0 0)
(0.0006734156783898072 0 0)
(0.0005963223991584455 0 0)
(0.0005194315532529562 0 0)
(0.0004433271312815009 0 0)
(0.0003688568276665672 0 0)
(0.0002973353441373816 0 0)
(0.000230255849588828 0 0)
(0.0001692520431645118 0 0)
(0.0001157349395963843 0 0)
(7.093562982261322e-05 0 0)
(3.566537030590059e-05 0 0)
(1.056412801349779e-05 0 0)
(-4.036704831260645e-06 0 0)
(-7.879291504614943e-06 0 0)
(-9.662469727182326e-07 0 0)
(1.66213948510072e-05 0 0)
(4.454552233878936e-05 0 0)
(8.243854397416565e-05 0 0)
(0.0001298392077647554 0 0)
(0.0001863336314514197 0 0)
(0.0002512230012557611 0 0)
(0.0003228843182046565 0 0)
(0.0003982282115736571 0 0)
(0.0004744599751334843 0 0)
(0.000550648442462436 0 0)
(0.000626646668045147 0 0)
(0.0007019289670000343 0 0)
(0.0007758373986555383 0 0)
(0.0008471605533802041 0 0)
(0.000914650933792077 0 0)
(0.0009766581107988801 0 0)
(0.001031792001573683 0 0)
(0.001078541607811197 0 0)
(0.001115967584459714 0 0)
(0.001143166472800528 0 0)
(0.00115984163108319 0 0)
(0.001165657681185358 0 0)
(0.001160763262187304 0 0)
(0.001145175220940893 0 0)
(0.001119295325938354 0 0)
(0.001083247029625019 0 0)
(0.001037461846730405 0 0)
(0.0009821191253019084 0 0)
(0.0009181092795206286 0 0)
(0.0008471384449173346 0 0)
(0.00077261592796753 0 0)
(0.0006971936462494882 0 0)
(0.0006218516338749514 0 0)
(0.0005466583517873157 0 0)
(0.0004720563827500708 0 0)
(0.0003986379222924301 0 0)
(0.0003273968227823166 0 0)
(0.000259504688544443 0 0)
(0.0001964335029192842 0 0)
(0.00013964527475826 0 0)
(9.06545384342064e-05 0 0)
(5.068559395144068e-05 0 0)
(2.078240589018108e-05 0 0)
(1.540332059135492e-06 0 0)
(-6.659578917771938e-06 0 0)
(-3.830121721126304e-06 0 0)
(9.948611274750981e-06 0 0)
(3.438500616663115e-05 0 0)
(6.928698862678759e-05 0 0)
(0.0001143481263364754 0 0)
(0.0001692961699803564 0 0)
(0.000233205932220885 0 0)
(0.0003039785050594819 0 0)
(0.0003780490753547908 0 0)
(0.0004528286127858044 0 0)
(0.0005275329057120462 0 0)
(0.0006021299624182105 0 0)
(0.0006761089863117723 0 0)
(0.0007490601679986655 0 0)
(0.00081993458206329 0 0)
(0.000887797459983192 0 0)
(0.0009511465530057686 0 0)
(0.001008725436189295 0 0)
(0.001058903690949414 0 0)
(0.001100554409112061 0 0)
(0.001132395493822983 0 0)
(0.001153852980260958 0 0)
(0.001164276053877173 0 0)
(0.001163727744643451 0 0)
(0.001152078234637725 0 0)
(0.001129744408698078 0 0)
(0.001096744836441552 0 0)
(0.00105350406160849 0 0)
(0.00100014475632436 0 0)
(0.000937687131214388 0 0)
(0.0008680340551029217 0 0)
(0.0007948251848908089 0 0)
(0.0007206957107089521 0 0)
(0.0006466605830966057 0 0)
(0.000572699174598066 0 0)
(0.0004992341969045702 0 0)
(0.0004266639950285801 0 0)
(0.0003558668184551182 0 0)
(0.0002877332474176439 0 0)
(0.0002236142698888432 0 0)
(0.000164763255880559 0 0)
(0.0001127399565429407 0 0)
(6.881683202575175e-05 0 0)
(3.433144128037967e-05 0 0)
(1.014231317363685e-05 0 0)
(-3.0010675498272e-06 0 0)
(-4.873578499775819e-06 0 0)
(4.679811653278405e-06 0 0)
(2.544229006742233e-05 0 0)
(5.731633881379097e-05 0 0)
(9.995111776358352e-05 0 0)
(0.000153063070957267 0 0)
(0.0002155223682411535 0 0)
(0.0002850711648594424 0 0)
(0.0003579301735398011 0 0)
(0.0004315390460070124 0 0)
(0.0005050606291415675 0 0)
(0.0005785283602171333 0 0)
(0.0006514682375792295 0 0)
(0.000723606104489736 0 0)
(0.0007940080600540807 0 0)
(0.0008619439776386109 0 0)
(0.00092605002375511 0 0)
(0.0009852400098892828 0 0)
(0.001037923921543726 0 0)
(0.001082962250624105 0 0)
(0.001118909954284562 0 0)
(0.001144971778319664 0 0)
(0.001160198986598233 0 0)
(0.001164383126131275 0 0)
(0.001157143572980193 0 0)
(0.001138748169652204 0 0)
(0.001109109905704457 0 0)
(0.001068670605872376 0 0)
(0.001017560302622226 0 0)
(0.0009569272821661483 0 0)
(0.0008887270280453298 0 0)
(0.0008167511507107796 0 0)
(0.0007437225688103733 0 0)
(0.0006707862633063829 0 0)
(0.0005978655523854375 0 0)
(0.0005253628185784983 0 0)
(0.0004535494055655514 0 0)
(0.0003832045562849004 0 0)
(0.000315047090566737 0 0)
(0.0002502850081084955 0 0)
(0.0001900151427888601 0 0)
(0.0001357270332311754 0 0)
(8.865395561999703e-05 0 0)
(5.0251644508476e-05 0 0)
(2.15227996353701e-05 0 0)
(3.523817379044578e-06 0 0)
(-3.271922811644718e-06 0 0)
(1.633968128036904e-06 0 0)
(1.8197838014432e-05 0 0)
(4.652878353320742e-05 0 0)
(8.62820380168196e-05 0 0)
(0.0001371920772796406 0 0)
(0.0001979699982376131 0 0)
(0.0002662270122838797 0 0)
(0.0003379804059269282 0 0)
(0.0004105763686838469 0 0)
(0.0004830886766981987 0 0)
(0.0005555876065271658 0 0)
(0.0006276313059978686 0 0)
(0.0006990439261894491 0 0)
(0.000768980008159326 0 0)
(0.0008368583629582695 0 0)
(0.0009014361265125978 0 0)
(0.0009617759222675331 0 0)
(0.001016362998373672 0 0)
(0.001064116918740838 0 0)
(0.001103527926035585 0 0)
(0.001133703112183733 0 0)
(0.001153462684499332 0 0)
(0.001162377508958738 0 0)
(0.001159776661490971 0 0)
(0.001145721194473423 0 0)
(0.001119933953459326 0 0)
(0.001082778329403327 0 0)
(0.001034344746006816 0 0)
(0.0009758198927330845 0 0)
(0.0009091930480608366 0 0)
(0.0008383849205669308 0 0)
(0.0007663300660429322 0 0)
(0.0006943402557158158 0 0)
(0.0006223316522202047 0 0)
(0.0005506772200280293 0 0)
(0.0004795595229867197 0 0)
(0.0004096766179844714 0 0)
(0.0003416091665865149 0 0)
(0.0002764514588532546 0 0)
(0.0002151551877276535 0 0)
(0.0001591269354022209 0 0)
(0.0001095210515893812 0 0)
(6.782681109210853e-05 0 0)
(3.51109514253804e-05 0 0)
(1.26257083859965e-05 0 0)
(1.052693017901185e-06 0 0)
(1.183634686329053e-06 0 0)
(1.321741695956929e-05 0 0)
(3.749983337820905e-05 0 0)
(7.382316133417768e-05 0 0)
(0.0001220069544659235 0 0)
(0.0001807416443504713 0 0)
(0.0002475531236745041 0 0)
(0.0003182544410685781 0 0)
(0.0003899480451884362 0 0)
(0.0004615777059264812 0 0)
(0.0005332197416875688 0 0)
(0.000604473655036703 0 0)
(0.0006752254871790736 0 0)
(0.0007447115880784914 0 0)
(0.0008124611914031524 0 0)
(0.0008773378935375601 0 0)
(0.0009385288618211679 0 0)
(0.0009946072607290224 0 0)
(0.001044564976436792 0 0)
(0.001086897434979788 0 0)
(0.001120658567365227 0 0)
(0.001144545611938338 0 0)
(0.001157943136728245 0 0)
(0.00115996078069869 0 0)
(0.001150425279077663 0 0)
(0.001128854138559453 0 0)
(0.001095449719350103 0 0)
(0.001050189634141771 0 0)
(0.0009941884435224857 0 0)
(0.0009293790075209357 0 0)
(0.0008597730577066008 0 0)
(0.0007886128353771127 0 0)
(0.0007174747481201069 0 0)
(0.0006462830774344995 0 0)
(0.000575400207835333 0 0)
(0.0005049220472098676 0 0)
(0.0004354987877551804 0 0)
(0.0003675859469497405 0 0)
(0.0003021984273428611 0 0)
(0.000240145558122699 0 0)
(0.0001827590883136252 0 0)
(0.0001310953289213472 0 0)
(8.663450183313105e-05 0 0)
(5.045780355667325e-05 0 0)
(2.39297468265018e-05 0 0)
(7.887938506127951e-06 0 0)
(3.347525437654618e-06 0 0)
(1.074188215098907e-05 0 0)
(3.065822647415385e-05 0 0)
(6.308701751904621e-05 0 0)
(0.0001080024062545571 0 0)
(0.0001642019877391178 0 0)
(0.0002292611124224021 0 0)
(0.000298849027504008 0 0)
(0.0003697055527179186 0 0)
(0.0004405350947824885 0 0)
(0.0005113966394328521 0 0)
(0.0005819287465795242 0 0)
(0.0006520619399458138 0 0)
(0.0007211101604625491 0 0)
(0.000788679713212973 0 0)
(0.0008537389347667036 0 0)
(0.0009155660851626886 0 0)
(0.0009728371959499089 0 0)
(0.001024605475384928 0 0)
(0.001069413656266508 0 0)
(0.001106292490167543 0 0)
(0.001133882137504342 0 0)
(0.001151430269345547 0 0)
(0.001157888251411516 0 0)
(0.001152869570262982 0 0)
(0.001135704402927727 0 0)
(0.001106394808976088 0 0)
(0.001064771398075313 0 0)
(0.001011763667590376 0 0)
(0.0009491469117839879 0 0)
(0.0008808868649933286 0 0)
(0.0008106080558945105 0 0)
(0.0007402472978222422 0 0)
(0.000669822049135006 0 0)
(0.0005996475118093032 0 0)
(0.0005297884858337602 0 0)
(0.0004608108395325798 0 0)
(0.0003931119309018538 0 0)
(0.0003275934230910121 0 0)
(0.0002649888194584386 0 0)
(0.0002065152037883806 0 0)
(0.0001531693643582664 0 0)
(0.0001063659184225934 0 0)
(6.719506384182029e-05 0 0)
(3.705937005483184e-05 0 0)
(1.691181547677648e-05 0 0)
(7.923384108426069e-06 0 0)
(1.072554170071817e-05 0 0)
(2.612281739121201e-05 0 0)
(5.430761429008594e-05 0 0)
(9.546772103975718e-05 0 0)
(0.0001485971253160766 0 0)
(0.0002115030260892631 0 0)
(0.0002798162348022785 0 0)
(0.0003498579571711501 0 0)
(0.0004199350165637841 0 0)
(0.0004900715537457619 0 0)
(0.0005599201053687739 0 0)
(0.0006294705398061212 0 0)
(0.000698080493425988 0 0)
(0.0007654430266238612 0 0)
(0.0008305914124008376 0 0)
(0.0008929083719260078 0 0)
(0.0009511352918557674 0 0)
(0.001004418572085267 0 0)
(0.001051327054443227 0 0)
(0.001090928312560854 0 0)
(0.001121808671518557 0 0)
(0.001143162261408327 0 0)
(0.001153792573533527 0 0)
(0.001153180672787065 0 0)
(0.001140456470831211 0 0)
(0.00111546953974922 0 0)
(0.001077840641592237 0 0)
(0.001028301873045965 0 0)
(0.0009683086548568444 0 0)
(0.0009016667357994414 0 0)
(0.0008322964510994446 0 0)
(0.0007626811197179175 0 0)
(0.0006929679250882447 0 0)
(0.0006234798829146518 0 0)
(0.0005542084128647837 0 0)
(0.0004856922630790151 0 0)
(0.0004182346705853237 0 0)
(0.0003526824758610528 0 0)
(0.0002896636464996304 0 0)
(0.0002303281376461935 0 0)
(0.0001755823259892776 0 0)
(0.0001267940674250757 0 0)
(8.502036090805458e-05 0 0)
(5.16817916571866e-05 0 0)
(2.779514032847e-05 0 0)
(1.463570814875228e-05 0 0)
(1.299426436755248e-05 0 0)
(2.383985834930507e-05 0 0)
(4.757592648944082e-05 0 0)
(8.458410013033535e-05 0 0)
(0.0001341578186323799 0 0)
(0.0001944283061169804 0 0)
(0.0002612212168623487 0 0)
(0.0003303960817248092 0 0)
(0.0003997659911505684 0 0)
(0.0004691880624852397 0 0)
(0.0005383968458241509 0 0)
(0.0006073583470348564 0 0)
(0.0006755498105854584 0 0)
(0.0007426547689549796 0 0)
(0.0008078483925086219 0 0)
(0.0008705141474963872 0 0)
(0.0009295446816923567 0 0)
(0.0009840780256838147 0 0)
(0.001032814320865092 0 0)
(0.001074770630030332 0 0)
(0.001108608248308732 0 0)
(0.001133398661822669 0 0)
(0.001147942306341357 0 0)
(0.001151524289973511 0 0)
(0.001143212855376354 0 0)
(0.001122623378457209 0 0)
(0.001089273667801789 0 0)
(0.001043575478966935 0 0)
(0.0009866911687311786 0 0)
(0.0009220004459768001 0 0)
(0.0008536777631010717 0 0)
(0.0007847666475181026 0 0)
(0.0007157578144497558 0 0)
(0.0006469143131537581 0 0)
(0.0005782401607183601 0 0)
(0.0005101754011478183 0 0)
(0.0004430103111287837 0 0)
(0.000377478775571744 0 0)
(0.0003141761750453652 0 0)
(0.0002541368517003312 0 0)
(0.0001982325236782314 0 0)
(0.0001477369618893819 0 0)
(0.0001037016689940449 0 0)
(6.75092846620978e-05 0 0)
(4.02343572279286e-05 0 0)
(2.319570720520131e-05 0 0)
(1.731524848688201e-05 0 0)
(2.367765782196978e-05 0 0)
(4.287209143468727e-05 0 0)
(7.546432491243026e-05 0 0)
(0.0001210585172492463 0 0)
(0.0001782063505852332 0 0)
(0.0002431112119796931 0 0)
(0.0003113243777210343 0 0)
(0.0003800018437763441 0 0)
(0.0004487449711703078 0 0)
(0.0005173131046489221 0 0)
(0.000585697912921512 0 0)
(0.000653434459363733 0 0)
(0.0007202534446069052 0 0)
(0.000785406117715602 0 0)
(0.0008483349211779731 0 0)
(0.0009080148062444213 0 0)
(0.0009636356313876349 0 0)
(0.001013961983297416 0 0)
(0.001058028301082695 0 0)
(0.001094514906921975 0 0)
(0.001122447600549168 0 0)
(0.001140589254537183 0 0)
(0.001148113527497398 0 0)
(0.001144020051955916 0 0)
(0.001127788740868211 0 0)
(0.001098784811653034 0 0)
(0.001057190751488189 0 0)
(0.001003840320007756 0 0)
(0.0009415549268811077 0 0)
(0.0008745923042349577 0 0)
(0.0008065692444976304 0 0)
(0.0007383755992142953 0 0)
(0.0006702934487767613 0 0)
(0.0006022763270681714 0 0)
(0.0005347231401187221 0 0)
(0.0004678120747993825 0 0)
(0.0004022424209474998 0 0)
(0.0003385763473510048 0 0)
(0.0002777328161301916 0 0)
(0.0002205871515037204 0 0)
(0.0001684441944819244 0 0)
(0.0001222718150662126 0 0)
(8.34656658960474e-05 0 0)
(5.317275341023579e-05 0 0)
(3.276022243620659e-05 0 0)
(2.301743400444665e-05 0 0)
(2.521642615415719e-05 0 0)
(4.011270714242214e-05 0 0)
(6.838822474263541e-05 0 0)
(0.0001097871086657204 0 0)
(0.0001634681429248338 0 0)
(0.0002259861501962739 0 0)
(0.0002929685048091828 0 0)
(0.0003610778449937758 0 0)
(0.0004294596519233265 0 0)
(0.0004977994896580678 0 0)
(0.0005661125986223829 0 0)
(0.0006341355090235162 0 0)
(0.0007014328507151097 0 0)
(0.0007674205532351747 0 0)
(0.0008314848758397351 0 0)
(0.0008928155793440485 0 0)
(0.0009502733692178148 0 0)
(0.001002710599940344 0 0)
(0.001049268841265903 0 0)
(0.001088250051865627 0 0)
(0.001119029146722656 0 0)
(0.001140130918076498 0 0)
(0.001151092975858939 0 0)
(0.001150230828142304 0 0)
(0.001137369644550268 0 0)
(0.001111749989672108 0 0)
(0.001073307056946621 0 0)
(0.001022469926344456 0 0)
(0.0009620345784420373 0 0)
(0.0008953719178102254 0 0)
(0.0008265588017713188 0 0)
(0.0007574320103753169 0 0)
(0.0006882795009626493 0 0)
(0.0006191390995602021 0 0)
(0.0005503126561789866 0 0)
(0.0004822122127715487 0 0)
(0.0004152078057726115 0 0)
(0.0003497694623560268 0 0)
(0.0002870201863840917 0 0)
(0.0002276169638783932 0 0)
(0.0001726275920547279 0 0)
(0.0001235534139923614 0 0)
(8.134458658228489e-05 0 0)
(4.736259232180077e-05 0 0)
(2.297102502015049e-05 0 0)
(9.056748730633433e-06 0 0)
(6.947012251291223e-06 0 0)
(1.742575949629099e-05 0 0)
(4.130899294918427e-05 0 0)
(7.86810645585837e-05 0 0)
(0.0001287360464682152 0 0)
(0.0001889445570781854 0 0)
(0.0002550297472988663 0 0)
(0.0003231012331349141 0 0)
(0.0003917340673121758 0 0)
(0.0004601840423944629 0 0)
(0.0005286593484842912 0 0)
(0.0005965902064450889 0 0)
(0.000664126004589682 0 0)
(0.000730254518021888 0 0)
(0.0007947557644083617 0 0)
(0.0008566845328090146 0 0)
(0.0009154317398993209 0 0)
(0.0009693546392921123 0 0)
(0.001018045748668322 0 0)
(0.001059752395497398 0 0)
(0.001093588734242748 0 0)
(0.001118365867037857 0 0)
(0.001133159158548023 0 0)
(0.001136912669360202 0 0)
(0.001128668377645167 0 0)
(0.001107884814976202 0 0)
(0.001074397688719307 0 0)
(0.001028263016410538 0 0)
(0.0009714612922603659 0 0)
(0.0009073614831187996 0 0)
(0.0008396191789433978 0 0)
(0.0007713555532972773 0 0)
(0.0007030329888323623 0 0)
(0.0006347827516029536 0 0)
(0.000566597134472774 0 0)
(0.0004992395747618487 0 0)
(0.0004327586443788163 0 0)
(0.0003677151742045954 0 0)
(0.0003048438573050241 0 0)
(0.0002451994475166178 0 0)
(0.0001893563736716836 0 0)
(0.0001387430861499785 0 0)
(9.472176335741012e-05 0 0)
(5.811894657969753e-05 0 0)
(3.073454394284385e-05 0 0)
(1.325795328620389e-05 0 0)
(7.379630810022939e-06 0 0)
(1.349485828685107e-05 0 0)
(3.283780553339602e-05 0 0)
(6.559792658544173e-05 0 0)
(0.0001115399099780238 0 0)
(0.0001684300612609275 0 0)
(0.0002329305659887446 0 0)
(0.0003001705015354449 0 0)
(0.0003684420916668548 0 0)
(0.000436633441411044 0 0)
(0.0005047278203802699 0 0)
(0.0005723808141671562 0 0)
(0.0006396255013843974 0 0)
(0.000705720557627788 0 0)
(0.0007702719205708503 0 0)
(0.0008324664870908293 0 0)
(0.0008918053601365758 0 0)
(0.0009469501775001945 0 0)
(0.0009969206711494282 0 0)
(0.001040983891105359 0 0)
(0.001077273701492045 0 0)
(0.001105145606136397 0 0)
(0.001123316925713702 0 0)
(0.001131069455051761 0 0)
(0.001126999812409231 0 0)
(0.001110666677391142 0 0)
(0.001081747682136117 0 0)
(0.001040192332665125 0 0)
(0.0009869732505409586 0 0)
(0.0009253868274841461 0 0)
(0.0008589825832361555 0 0)
(0.0007911536665880603 0 0)
(0.0007234487930822011 0 0)
(0.0006556906463923752 0 0)
(0.0005880602006993548 0 0)
(0.0005209795777625039 0 0)
(0.0004549100016377583 0 0)
(0.0003899604263088548 0 0)
(0.0003269798862197698 0 0)
(0.0002667000480532013 0 0)
(0.0002102836302924086 0 0)
(0.0001579723313249772 0 0)
(0.0001122830411585662 0 0)
(7.32190495472855e-05 0 0)
(4.275182533805668e-05 0 0)
(2.193513413574027e-05 0 0)
(1.192928783887153e-05 0 0)
(1.37965104847082e-05 0 0)
(2.85072438678535e-05 0 0)
(5.64485458548758e-05 0 0)
(9.78304503510058e-05 0 0)
(0.0001509968035161919 0 0)
(0.0002130002327156264 0 0)
(0.0002793720729064609 0 0)
(0.0003467616230830035 0 0)
(0.0004145220252501621 0 0)
(0.0004821871382762397 0 0)
(0.0005493398962422662 0 0)
(0.0006162346766502225 0 0)
(0.0006821036144554938 0 0)
(0.0007465822180652392 0 0)
(0.0008088982671946932 0 0)
(0.0008685284470693795 0 0)
(0.0009246362093596368 0 0)
(0.0009756790050902421 0 0)
(0.001021425190357572 0 0)
(0.001060154250147321 0 0)
(0.001090568273858353 0 0)
(0.001112038957507062 0 0)
(0.001123231187015811 0 0)
(0.001123373455427674 0 0)
(0.001111264396218614 0 0)
(0.001086821131741938 0 0)
(0.001049668433223713 0 0)
(0.001000592735963568 0 0)
(0.0009415461543477681 0 0)
(0.0008770311736155626 0 0)
(0.0008095229382856513 0 0)
(0.0007422736205921277 0 0)
(0.0006749917180307515 0 0)
(0.00060779275133848 0 0)
(0.0005409681560284622 0 0)
(0.0004750668940550442 0 0)
(0.0004102643296215787 0 0)
(0.0003471625966193195 0 0)
(0.0002863541326900135 0 0)
(0.0002291448253297814 0 0)
(0.0001757279600906801 0 0)
(0.0001280668841481643 0 0)
(8.710385487401627e-05 0 0)
(5.360816277125968e-05 0 0)
(2.952482389258515e-05 0 0)
(1.571917443912205e-05 0 0)
(1.34251401822403e-05 0 0)
(2.342166795470298e-05 0 0)
(4.65820050979082e-05 0 0)
(8.309467596281577e-05 0 0)
(0.0001322216079608059 0 0)
(0.0001910853263535252 0 0)
(0.000256053360669455 0 0)
(0.0003227138918917384 0 0)
(0.0003896473775428028 0 0)
(0.0004568680016295258 0 0)
(0.000523644603755754 0 0)
(0.0005898145316006901 0 0)
(0.0006554602819190256 0 0)
(0.0007198250302461005 0 0)
(0.0007821800262527807 0 0)
(0.0008420460635427847 0 0)
(0.0008986549715300312 0 0)
(0.0009509437674396431 0 0)
(0.0009978304217089795 0 0)
(0.001038734806435123 0 0)
(0.001071500281115437 0 0)
(0.001095957221441647 0 0)
(0.001110510089620034 0 0)
(0.00111441320895354 0 0)
(0.001106489200785682 0 0)
(0.001086414362572306 0 0)
(0.001053677774162589 0 0)
(0.001008806643887384 0 0)
(0.0009530141324657389 0 0)
(0.0008902431780122033 0 0)
(0.00082386532791434 0 0)
(0.0007566039108371058 0 0)
(0.0006897426594903365 0 0)
(0.0006230974532494763 0 0)
(0.0005562213152871478 0 0)
(0.0004907135192530894 0 0)
(0.0004259703648182402 0 0)
(0.0003627245373701305 0 0)
(0.0003015637570976296 0 0)
(0.0002434281277034292 0 0)
(0.0001893142529588409 0 0)
(0.0001395748644768494 0 0)
(9.668246199439246e-05 0 0)
(6.078285892786782e-05 0 0)
(3.344038734072357e-05 0 0)
(1.609526340594256e-05 0 0)
(9.542108705875679e-06 0 0)
(1.513288340998264e-05 0 0)
(3.344630907206191e-05 0 0)
(6.509066392058512e-05 0 0)
(0.0001096065175505809 0 0)
(0.0001652182754972888 0 0)
(0.0002278779747617381 0 0)
(0.0002938441520948499 0 0)
(0.0003599706206648871 0 0)
(0.0004264535030620394 0 0)
(0.0004928866931354242 0 0)
(0.0005583473609086834 0 0)
(0.0006238493183079857 0 0)
(0.0006877756837858523 0 0)
(0.0007501752988743534 0 0)
(0.000810199291961635 0 0)
(0.0008671442165271641 0 0)
(0.0009204478009116121 0 0)
(0.0009682803853461557 0 0)
(0.001010886449226147 0 0)
(0.001046167241470956 0 0)
(0.001073060495531329 0 0)
(0.001090737547213561 0 0)
(0.001098302881066262 0 0)
(0.001094392829837122 0 0)
(0.001078444113550171 0 0)
(0.001050128721377958 0 0)
(0.001009439907795051 0 0)
(0.0009574172821858658 0 0)
(0.0008966814972031509 0 0)
(0.0008316450322705944 0 0)
(0.0007649022744768558 0 0)
(0.000697920162450083 0 0)
(0.0006317097786850988 0 0)
(0.000565292714626781 0 0)
(0.0004997153051469381 0 0)
(0.0004350192780478552 0 0)
(0.000371830418421095 0 0)
(0.0003103121615019704 0 0)
(0.0002514825436716386 0 0)
(0.0001963975350979222 0 0)
(0.0001453175661308014 0 0)
(0.0001004032604816338 0 0)
(6.233419392649452e-05 0 0)
(3.176834864665141e-05 0 0)
(1.098625046799613e-05 0 0)
(7.092402399779444e-07 0 0)
(1.765348920079729e-06 0 0)
(1.534287411596681e-05 0 0)
(4.206563513395485e-05 0 0)
(8.177911090724312e-05 0 0)
(0.0001334827314015393 0 0)
(0.0001935504953971295 0 0)
(0.0002582267798942812 0 0)
(0.0003239361131098223 0 0)
(0.0003893155797222007 0 0)
(0.0004552714860739591 0 0)
(0.0005206196100828853 0 0)
(0.0005849528028932381 0 0)
(0.0006489953181852198 0 0)
(0.000711274567828504 0 0)
(0.0007713441774621179 0 0)
(0.0008286127099848567 0 0)
(0.000882508817915152 0 0)
(0.0009315124598769114 0 0)
(0.0009755086756494453 0 0)
(0.001012723751475179 0 0)
(0.001042004058828196 0 0)
(0.001062649580606669 0 0)
(0.001073587556466475 0 0)
(0.001073307281097772 0 0)
(0.001061590107597506 0 0)
(0.001037603261755254 0 0)
(0.001001244034902524 0 0)
(0.0009530749770044588 0 0)
(0.0008952437936166799 0 0)
(0.0008314618278222449 0 0)
(0.0007654351570423931 0 0)
(0.0006987759245865594 0 0)
(0.0006323806667283049 0 0)
(0.000566688039664209 0 0)
(0.0005005992880193173 0 0)
(0.0004365083593805425 0 0)
(0.0003730355091535194 0 0)
(0.000311309923933403 0 0)
(0.0002519344444883158 0 0)
(0.0001957760499509106 0 0)
(0.0001438811662094999 0 0)
(9.660599880120475e-05 0 0)
(5.645114523341739e-05 0 0)
(2.35697564392553e-05 0 0)
(-6.744859418952298e-07 0 0)
(-1.47427949728809e-05 0 0)
(-1.776709944590092e-05 0 0)
(-8.831504691281209e-06 0 0)
(1.300912919046896e-05 0 0)
(4.785247321263621e-05 0 0)
(9.50849421575136e-05 0 0)
(0.0001523055187041483 0 0)
(0.0002149863141920502 0 0)
(0.000280082730659535 0 0)
(0.0003451039538518453 0 0)
(0.000409729574943686 0 0)
(0.0004750006732432478 0 0)
(0.0005385829843836181 0 0)
(0.0006025913096844414 0 0)
(0.0006643575395545029 0 0)
(0.000724628873102296 0 0)
(0.000782058160340978 0 0)
(0.0008363344444806293 0 0)
(0.0008865772875414895 0 0)
(0.0009312151102694205 0 0)
(0.000970424333253175 0 0)
(0.001002196770007851 0 0)
(0.001025112609920724 0 0)
(0.001039130990621655 0 0)
(0.001042920542912276 0 0)
(0.001034884855221727 0 0)
(0.001015111679657859 0 0)
(0.0009830764921344528 0 0)
(0.0009389532560419617 0 0)
(0.0008843797114244047 0 0)
(0.0008223834076320855 0 0)
(0.0007571660134230371 0 0)
(0.0006910121939071369 0 0)
(0.0006244455599829145 0 0)
(0.0005589163285766696 0 0)
(0.0004933845551821592 0 0)
(0.0004286170313663522 0 0)
(0.0003653842077240646 0 0)
(0.0003035259505838454 0 0)
(0.0002436094618111145 0 0)
(0.0001866128083741454 0 0)
(0.0001336646245841574 0 0)
(8.479781562623586e-05 0 0)
(4.263315997471657e-05 0 0)
(7.225891924205945e-06 0 0)
(-2.02006217170702e-05 0 0)
(-3.782214598651523e-05 0 0)
(-4.457321575068238e-05 0 0)
(-4.040755151073069e-05 0 0)
(-2.331689833142419e-05 0 0)
(6.625909428006658e-06 0 0)
(4.920050243618188e-05 0 0)
(0.0001026848542183081 0 0)
(0.0001634357427567714 0 0)
(0.0002271206291341345 0 0)
(0.0002918200078587669 0 0)
(0.0003559140535293419 0 0)
(0.0004199741856777517 0 0)
(0.000484088330583745 0 0)
(0.0005462613164382422 0 0)
(0.0006088606953563055 0 0)
(0.0006687601553205661 0 0)
(0.0007263781516231181 0 0)
(0.0007809499669363714 0 0)
(0.000831953875010975 0 0)
(0.0008777782744042416 0 0)
(0.0009184769409749202 0 0)
(0.0009521223549932231 0 0)
(0.0009777843639275918 0 0)
(0.000994414869827576 0 0)
(0.001001427161072442 0 0)
(0.0009973083781388203 0 0)
(0.0009815252918804909 0 0)
(0.0009538177739044375 0 0)
(0.0009139175565194087 0 0)
(0.0008628165390247253 0 0)
(0.0008033652155792029 0 0)
(0.0007388964529688673 0 0)
(0.0006733600392113963 0 0)
(0.0006074222900160949 0 0)
(0.0005410035053600362 0 0)
(0.000476323102199076 0 0)
(0.000410660014917164 0 0)
(0.0003482371621137894 0 0)
(0.0002857479100891117 0 0)
(0.0002256406508922483 0 0)
(0.0001678744752023446 0 0)
(0.0001136956431724667 0 0)
(6.400930388751849e-05 0 0)
(1.910563970607526e-05 0 0)
(-1.845115153129443e-05 0 0)
(-4.825807123009041e-05 0 0)
(-6.987785310404916e-05 0 0)
(-8.041929060034937e-05 0 0)
(-7.976653110086746e-05 0 0)
(-6.780695559982298e-05 0 0)
(-4.275240251443201e-05 0 0)
(-4.984104853162629e-06 0 0)
(4.42956660688979e-05 0 0)
(0.0001024112971993512 0 0)
(0.0001645467179142112 0 0)
(0.0002286843645724473 0 0)
(0.0002924069682027845 0 0)
(0.0003554705116003977 0 0)
(0.0004191032319862264 0 0)
(0.0004815192565405798 0 0)
(0.0005428520841178324 0 0)
(0.0006031302732954122 0 0)
(0.0006607714340859001 0 0)
(0.0007155418734175028 0 0)
(0.0007669330239340656 0 0)
(0.0008141880798428441 0 0)
(0.0008555110514027852 0 0)
(0.0008914151855881776 0 0)
(0.0009193958903384423 0 0)
(0.0009385754870791755 0 0)
(0.0009487004298695342 0 0)
(0.0009484747794679747 0 0)
(0.0009362556400545006 0 0)
(0.0009126091187582204 0 0)
(0.000877040862893658 0 0)
(0.0008298324249668854 0 0)
(0.0007729753360285382 0 0)
(0.000710439820949921 0 0)
(0.0006448409438330149 0 0)
(0.0005794428854810557 0 0)
(0.0005137405395026566 0 0)
(0.0004475945753637716 0 0)
(0.0003837500660980815 0 0)
(0.0003184659565542741 0 0)
(0.000257844559717623 0 0)
(0.0001968425734046835 0 0)
(0.0001385474395858593 0 0)
(8.342029046718466e-05 0 0)
(3.239854613815523e-05 0 0)
(-1.381789466480054e-05 0 0)
(-5.381535988881411e-05 0 0)
(-8.657163197706551e-05 0 0)
(-0.0001106043749681763 0 0)
(-0.0001259310164336082 0 0)
(-0.0001291008820110603 0 0)
(-0.0001210682655118838 0 0)
(-0.0001011029127814617 0 0)
(-6.809835645676918e-05 0 0)
(-2.321757017117386e-05 0 0)
(3.137122306454081e-05 0 0)
(9.210020282654872e-05 0 0)
(0.000154405048715786 0 0)
(0.0002181180318085949 0 0)
(0.0002812528668599596 0 0)
(0.0003428825352140554 0 0)
(0.0004061617032320876 0 0)
(0.0004660364829535941 0 0)
(0.0005276667117967403 0 0)
(0.0005843377669723326 0 0)
(0.0006395012294049875 0 0)
(0.0006911134473574385 0 0)
(0.000738794223925617 0 0)
(0.0007820271466976988 0 0)
(0.0008186114982523799 0 0)
(0.0008490602709420762 0 0)
(0.0008711921865660193 0 0)
(0.0008835792546188401 0 0)
(0.0008868150764035486 0 0)
(0.0008790948791050535 0 0)
(0.0008589296894896544 0 0)
(0.0008273155357652518 0 0)
(0.0007842086185368375 0 0)
(0.000730588515362 0 0)
(0.00066972846358614 0 0)
(0.0006055290910854052 0 0)
(0.0005397358633522887 0 0)
(0.0004746266721051006 0 0)
(0.0004094485037857991 0 0)
(0.0003431379627166018 0 0)
(0.0002806341812455922 0 0)
(0.0002156006548282312 0 0)
(0.0001575808251749726 0 0)
(9.748783554999283e-05 0 0)
(4.179408658305494e-05 0 0)
(-1.055643731258597e-05 0 0)
(-5.766467762164445e-05 0 0)
(-0.0001000209065821258 0 0)
(-0.000135093224682612 0 0)
(-0.0001625985033401564 0 0)
(-0.0001806058593658742 0 0)
(-0.0001890047189092654 0 0)
(-0.0001845521715762111 0 0)
(-0.0001694707508492517 0 0)
(-0.0001413681740192966 0 0)
(-0.0001007533062819698 0 0)
(-4.993144410084445e-05 0 0)
(8.214418298705779e-06 0 0)
(6.981051722233729e-05 0 0)
(0.0001317285195610604 0 0)
(0.0001944543429925135 0 0)
(0.0002570705914478668 0 0)
(0.0003173315999974732 0 0)
(0.0003796932405630013 0 0)
(0.0004374317402070446 0 0)
(0.0004993435583500921 0 0)
(0.0005511590446162814 0 0)
(0.0006036435442704187 0 0)
(0.0006514067294797636 0 0)
(0.0006961384743105684 0 0)
(0.0007335822613601543 0 0)
(0.0007661636049815915 0 0)
(0.0007905055267672239 0 0)
(0.0008068220474447175 0 0)
(0.0008117826775939625 0 0)
(0.0008087997072006297 0 0)
(0.0007915438907794395 0 0)
(0.0007662039785844777 0 0)
)
;

boundaryField
{
    inlet
    {
        type            calculated;
        value           uniform (-2.97178972966003e-05 0 0);
    }
    outlet
    {
        type            calculated;
        value           uniform (0.0007466897095115627 0 0);
    }
    frontAndBack
    {
        type            empty;
    }
}


// ************************************************************************* //
