/*--------------------------------*- C++ -*----------------------------------*\
| =========                 |                                                 |
| \\      /  F ield         | OpenFOAM: The Open Source CFD Toolbox           |
|  \\    /   O peration     | Version:  v2012                                 |
|   \\  /    A nd           | Website:  www.openfoam.com                      |
|    \\/     M anipulation  |                                                 |
\*---------------------------------------------------------------------------*/
FoamFile
{
    version     2.0;
    format      ascii;
    class       volScalarField;
    location    "0.003";
    object      pMean;
}
// * * * * * * * * * * * * * * * * * * * * * * * * * * * * * * * * * * * * * //

dimensions      [1 -1 -2 0 0 0 0];


internalField   nonuniform List<scalar> 
1000
(
101325.0344805297
101325.0087929078
101325.0522055491
101325.0901439435
101325.1487166554
101325.2229531828
101325.3062653491
101325.4045521519
101325.5112794093
101325.6280195541
101325.7440657436
101325.8652209667
101325.9821823273
101326.1012969977
101326.2179735312
101326.328469223
101326.4336123833
101326.5268902293
101326.6087675708
101326.6757959217
101326.7304296174
101326.7678658404
101326.7919938534
101326.801577873
101326.788979632
101326.7626911761
101326.7170058073
101326.6562699591
101326.5854248261
101326.4980328934
101326.3923176823
101326.2755068529
101326.1572583259
101326.0360234595
101325.9158716417
101325.7956844734
101325.676316227
101325.5602648286
101325.444458405
101325.3330886464
101325.2291564867
101325.1363114364
101325.0580724945
101324.999520372
101324.9576836739
101324.9311646152
101324.9227417451
101324.9297168055
101324.9540896997
101324.9935872138
101325.0494298475
101325.1264846675
101325.2270706149
101325.3437551485
101325.463857804
101325.5858615118
101325.7057531745
101325.824834589
101325.9436897637
101326.0623986388
101326.1808867523
101326.2996390714
101326.4153232688
101326.5267708579
101326.6275606236
101326.7144415801
101326.7834600928
101326.8324190639
101326.8592711565
101326.8713921811
101326.8665160409
101326.8456028299
101326.8101149695
101326.7536612643
101326.6661641035
101326.5537822499
101326.4324769783
101326.3102105276
101326.1897538748
101326.0678548814
101325.946395949
101325.8268025319
101325.7054992091
101325.5849417132
101325.4668256513
101325.3486666903
101325.2338570788
101325.1242425398
101325.0229675174
101324.9388972311
101324.8777016937
101324.8426787943
101324.8338394322
101324.8406085527
101324.8597387323
101324.8965271278
101324.961256138
101325.0617641148
101325.1816694932
101325.303808065
101325.4251315446
101325.5476131645
101325.6687460252
101325.7900271107
101325.9121051578
101326.0329964095
101326.153478131
101326.2739204538
101326.3926017675
101326.5100753951
101326.6247653064
101326.7332543565
101326.829617355
101326.906243915
101326.9524525515
101326.9694495154
101326.9632268147
101326.940552127
101326.8973750581
101326.820935066
101326.7122038711
101326.5919111654
101326.4704167594
101326.3483186126
101326.2268687371
101326.1058167807
101325.9848331538
101325.864474982
101325.7436269481
101325.6235142219
101325.5029806063
101325.3829537023
101325.2640222549
101325.1464576999
101325.032297239
101324.9236265643
101324.8295044364
101324.7563561228
101324.7141598743
101324.7038286426
101324.7297768895
101324.7975685448
101324.9038718096
101325.0228082888
101325.1438049297
101325.263876598
101325.3850115544
101325.5047156271
101325.6264182659
101325.7454770252
101325.8670944266
101325.9863523469
101326.1080037919
101326.2267658229
101326.3478436867
101326.4660911594
101326.5861290021
101326.7015057564
101326.8160681024
101326.919780398
101327.0141761665
101327.08169261
101327.1123608238
101327.0723209979
101326.9745127916
101326.8533674556
101326.7354949923
101326.6129238926
101326.4949406402
101326.3724892546
101326.2547672298
101326.1322314737
101326.0149434372
101325.8924695968
101325.775392213
101325.6530668062
101325.5363359026
101325.4144252045
101325.2983731214
101325.1771759449
101325.0623141154
101324.9437537314
101324.8335783039
101324.7259270643
101324.6430472839
101324.6063322393
101324.6596225882
101324.7677911813
101324.8896110526
101325.0084896457
101325.1304121087
101325.2493667193
101325.3708956662
101325.489999747
101325.6113456512
101325.7304552628
101325.8514829014
101325.970505078
101326.0912537493
101326.2102346498
101326.3305118606
101326.4491982948
101326.5688858148
101326.6870549272
101326.804951048
101326.9201341352
101327.0298743075
101327.1217406805
101327.1655470401
101327.1222700149
101327.0147100399
101326.8955571564
101326.7753081605
101326.6559674539
101326.5356795802
101326.4166075201
101326.296247666
101326.1773194891
101326.0569700534
101325.9382509634
101325.817801892
101325.6991915948
101325.5789805734
101325.4605056149
101325.3402501123
101325.2218494046
101325.1022762137
101324.9845506461
101324.8663552815
101324.7553381794
101324.6564096964
101324.6049133691
101324.6370810909
101324.7422245024
101324.860145064
101324.9806281192
101325.0994603443
101325.2194652491
101325.3386828997
101325.458145152
101325.5779197483
101325.6968867384
101325.8169679658
101325.9355706214
101326.0561814224
101326.1747588404
101326.2950598144
101326.4132768879
101326.5340722373
101326.65242962
101326.7703052853
101326.8867495984
101327.0025421919
101327.101308162
101327.1682976939
101327.1456386587
101327.0512742093
101326.9300404004
101326.8134340668
101326.6916994056
101326.5743714504
101326.4532374523
101326.3354615312
101326.2149353765
101326.096364327
101325.9761668673
101325.8575223357
101325.7379026551
101325.6183795957
101325.4983226092
101325.3796963743
101325.2609472627
101325.1414577798
101325.0224038611
101324.9095256913
101324.7979465856
101324.6911975158
101324.6229454471
101324.6200834523
101324.712576837
101324.8259140771
101324.9496054825
101325.0655042311
101325.1885538509
101325.304707126
101325.4272495769
101325.5438248965
101325.6658467143
101325.7826241763
101325.9042932183
101326.0217239443
101326.1430174872
101326.2601986878
101326.3809831303
101326.4985345688
101326.6179841534
101326.7338864014
101326.851695248
101326.9652708175
101327.0691312418
101327.1501717872
101327.1609774934
101327.0874496371
101326.9691767465
101326.8517542148
101326.729385215
101326.6118838313
101326.489759641
101326.3728019269
101326.2509198605
101326.133983334
101326.0120881808
101325.8954300175
101325.7738099814
101325.6566896204
101325.5349624389
101325.4189189169
101325.2984835157
101325.1820665056
101325.0620987569
101324.949257215
101324.8345207098
101324.7265830167
101324.6431833244
101324.6133077263
101324.6797108979
101324.7907147376
101324.9134207368
101325.030876383
101325.1535042069
101325.2707810674
101325.3931451769
101325.5100168021
101325.6319493155
101325.7486501678
101325.8708106813
101325.987762816
101326.1092950971
101326.2257649677
101326.3475162332
101326.4637827499
101326.5835916812
101326.6982976091
101326.8178626756
101326.9299892057
101327.0383774419
101327.1305501971
101327.1689414024
101327.1217783148
101327.0103287651
101326.8920028343
101326.7697148232
101326.6509705111
101326.5290858551
101326.4111251869
101326.2897059418
101326.1720732545
101326.0509276023
101325.9337297047
101325.8124980732
101325.6948464591
101325.5739617344
101325.4576478759
101325.3374226124
101325.2208242484
101325.1015962572
101324.9882306139
101324.8720323014
101324.7621471142
101324.6687052101
101324.6141457662
101324.6505264427
101324.7527395048
101324.8755362452
101324.9939655163
101325.1172629611
101325.2356817838
101325.358445085
101325.475690041
101325.5975457748
101325.7144207922
101325.8362825953
101325.9528360267
101326.0739580092
101326.1904224361
101326.3118045241
101326.4271020092
101326.5464372117
101326.6610157539
101326.7804492765
101326.8915514084
101327.0024748372
101327.1026921799
101327.1645343952
101327.1517179043
101327.0540774947
101326.9355081433
101326.8115732343
101326.6913500212
101326.5678913181
101326.4486925248
101326.3261318365
101326.2085032557
101326.0879708
101325.9716830668
101325.8516606419
101325.7352084641
101325.6155422587
101325.5004719582
101325.3819031574
101325.2680723674
101325.1583708316
101325.0663378023
101325.0133646999
101325.0006625688
101325.0000032851
101325.0000000012
101325.0000000006
101325.0000000006
101325.0000000006
101325.0000000006
101325.0000000006
101325.0000000006
101325.0000000006
101325.0000000006
101325.0000000007
101325.0000000007
101325.0000000007
101325.0000000007
101325.0000000007
101325.0000000006
101325.0000000006
101325.0000000006
101325.0000000007
101325.0000000007
101325.0000000007
101325.0000000008
101325.0000000007
101325.0000000007
101325.0000000007
101325.0000000007
101325.0000000008
101325.0000000007
101325.0000000007
101325.0000000007
101325.0000000007
101325.0000000007
101325.0000000007
101325.0000000007
101325.0000000007
101325.0000000007
101325.0000000007
101325.0000000007
101325.0000000007
101325.0000000008
101325.0000000008
101325.0000000007
101325.0000000007
101325.0000000007
101325.0000000007
101325.0000000007
101325.0000000007
101325.0000000007
101325.0000000008
101325.0000000007
101325.0000000007
101325.0000000007
101325.0000000007
101325.0000000007
101325.0000000007
101325.0000000007
101325.0000000007
101325.0000000008
101325.0000000007
101325.0000000008
101325.0000000007
101325.0000000007
101325.0000000008
101325.0000000008
101325.0000000008
101325.0000000007
101325.0000000007
101325.0000000007
101325.0000000007
101325.0000000008
101325.0000000007
101325.0000000007
101325.0000000008
101325.0000000007
101325.0000000008
101325.0000000008
101325.0000000008
101325.0000000007
101325.0000000008
101325.0000000008
101325.0000000008
101325.0000000007
101325.0000000008
101325.0000000007
101325.0000000007
101325.0000000007
101325.0000000008
101325.0000000007
101325.0000000007
101325.0000000008
101325.0000000008
101325.0000000008
101325.0000000007
101325.0000000007
101325.0000000007
101325.0000000008
101325.0000000008
101325.0000000008
101325.0000000008
101325.0000000008
101325.0000000008
101325.0000000008
101325.0000000007
101325.0000000007
101325.0000000007
101325.0000000008
101325.0000000008
101325.0000000008
101325.0000000008
101325.0000000008
101325.0000000008
101325.0000000008
101325.0000000007
101325.0000000008
101325.0000000007
101325.0000000007
101325.0000000007
101325.0000000008
101325.0000000007
101325.0000000008
101325.0000000007
101325.0000000008
101325.0000000008
101325.0000000008
101325.0000000008
101325.0000000008
101325.0000000008
101325.0000000007
101325.0000000008
101325.0000000008
101325.0000000008
101325.0000000008
101325.0000000007
101325.0000000007
101325.0000000007
101325.0000000007
101325.0000000008
101325.0000000007
101325.0000000007
101325.0000000008
101325.0000000008
101325.0000000008
101325.0000000007
101325.0000000008
101325.0000000008
101325.0000000008
101325.0000000007
101325.0000000007
101325.0000000007
101325.0000000007
101325.0000000007
101325.0000000008
101325.0000000008
101325.0000000008
101325.0000000007
101325.0000000008
101325.0000000008
101325.0000000008
101325.0000000008
101325.0000000008
101325.0000000008
101325.0000000008
101325.0000000008
101325.0000000008
101325.0000000008
101325.0000000008
101325.0000000008
101325.0000000008
101325.0000000008
101325.0000000008
101325.0000000008
101325.0000000008
101325.0000000008
101325.0000000008
101325.0000000008
101325.0000000008
101325.0000000008
101325.0000000008
101325.0000000008
101325.0000000008
101325.0000000008
101325.0000000008
101325.0000000008
101325.0000000008
101325.0000000008
101325.0000000007
101325.0000000007
101325.0000000008
101325.0000000008
101325.0000000008
101325.0000000008
101325.0000000008
101325.0000000008
101325.0000000008
101325.0000000008
101325.0000000008
101325.0000000008
101325.0000000008
101325.0000000008
101325.0000000008
101325.0000000008
101325.0000000008
101325.0000000008
101325.0000000008
101325.0000000008
101325.0000000007
101325.0000000008
101325.0000000008
101325.0000000008
101325.0000000008
101325.0000000008
101325.0000000008
101325.0000000008
101325.0000000008
101325.0000000008
101325.0000000008
101325.0000000008
101325.0000000008
101325.0000000008
101325.0000000008
101325.0000000008
101325.0000000008
101325.0000000008
101325.0000000008
101325.0000000008
101325.0000000008
101325.0000000008
101325.0000000008
101325.0000000008
101325.0000000008
101325.0000000008
101325.0000000008
101325.0000000008
101325.0000000008
101325.0000000008
101325.0000000008
101325.0000000008
101325.0000000008
101325.0000000008
101325.0000000008
101325.0000000008
101325.0000000008
101325.0000000008
101325.0000000008
101325.0000000008
101325.0000000008
101325.0000000008
101325.0000000008
101325.0000000008
101325.0000000007
101325.0000000008
101325.0000000007
101325.0000000007
101325.0000000007
101325.0000000007
101325.0000000007
101325.0000000008
101325.0000000008
101325.0000000008
101325.0000000008
101325.0000000008
101325.0000000008
101325.0000000008
101325.0000000008
101325.0000000008
101325.0000000008
101325.0000000008
101325.0000000008
101325.0000000008
101325.0000000008
101325.0000000008
101325.0000000008
101325.0000000008
101325.0000000008
101325.0000000008
101325.0000000008
101325.0000000008
101325.0000000008
101325.0000000008
101325.0000000008
101325.0000000008
101325.0000000007
101325.0000000007
101325.0000000008
101325.0000000007
101325.0000000007
101325.0000000007
101325.0000000008
101325.0000000008
101325.0000000007
101325.0000000008
101325.0000000007
101325.0000000008
101325.0000000008
101325.0000000008
101325.0000000008
101325.0000000008
101325.0000000008
101325.0000000008
101325.0000000008
101325.0000000008
101325.0000000008
101325.0000000008
101325.0000000008
101325.0000000008
101325.0000000008
101325.0000000008
101325.0000000008
101325.0000000008
101325.0000000008
101325.0000000008
101325.0000000008
101325.0000000008
101325.0000000008
101325.0000000008
101325.0000000008
101325.0000000008
101325.0000000008
101325.0000000008
101325.0000000008
101325.0000000008
101325.0000000009
101325.0000000009
101325.0000000008
101325.0000000008
101325.0000000008
101325.0000000008
101325.0000000008
101325.0000000008
101325.0000000008
101325.0000000008
101325.0000000008
101325.0000000008
101325.0000000008
101325.0000000008
101325.0000000008
101325.0000000008
101325.0000000008
101325.0000000008
101325.0000000008
101325.0000000009
101325.0000000008
101325.0000000009
101325.0000000009
101325.0000000009
101325.0000000009
101325.0000000009
101325.0000000009
101325.0000000009
101325.0000000009
101325.0000000009
101325.0000000009
101325.0000000009
101325.0000000009
101325.0000000009
101325.0000000009
101325.0000000009
101325.0000000009
101325.0000000008
101325.0000000008
101325.0000000008
101325.0000000008
101325.0000000008
101325.0000000008
101325.0000000008
101325.0000000009
101325.0000000008
101325.0000000008
101325.0000000008
101325.0000000008
101325.0000000008
101325.0000000008
101325.0000000008
101325.0000000008
101325.0000000008
101325.0000000008
101325.0000000008
101325.0000000008
101325.0000000008
101325.0000000008
101325.0000000008
101325.0000000008
101325.0000000008
101325.0000000008
101325.0000000008
101325.0000000008
101325.0000000008
101325.0000000008
101325.0000000009
101325.0000000008
101325.0000000008
101325.0000000008
101325.0000000009
101325.0000000009
101325.0000000008
101325.0000000009
101325.0000000008
101325.0000000009
101325.0000000009
101325.0000000009
101325.0000000009
101325.0000000009
101325.0000000008
101325.0000000009
101325.0000000009
101325.0000000009
101325.0000000009
101325.0000000009
101325.0000000009
101325.0000000009
101325.0000000009
101325.0000000009
101325.0000000009
101325.0000000009
101325.0000000009
101325.0000000009
101325.0000000009
101325.0000000009
101325.0000000009
101325.0000000009
101325.0000000009
101325.0000000009
101325.0000000009
101325.0000000009
101325.0000000009
101325.0000000009
101325.0000000009
101325.0000000009
101325.000000001
101325.000000001
101325.0000000009
101325.0000000009
101325.0000000009
101325.0000000009
101325.0000000009
101325.0000000009
101325.0000000009
101325.0000000009
101325.0000000009
101325.0000000009
101325.0000000009
101325.0000000009
101325.0000000009
101325.0000000009
101325.0000000009
101325.000000001
101325.0000000009
101325.0000000009
101325.0000000009
101325.0000000009
101325.0000000009
101325.0000000009
101325.0000000009
101325.000000001
101325.000000001
101325.0000000009
101325.0000000009
101325.0000000009
101325.0000000009
101325.0000000009
101325.0000000009
101325.0000000009
101325.0000000009
101325.0000000009
101325.000000001
101325.000000001
101325.000000001
101325.000000001
101325.000000001
101325.000000001
101325.000000001
101325.000000001
101325.000000001
101325.000000001
101325.000000001
101325.000000001
101325.000000001
101325.000000001
101325.000000001
101325.000000001
101325.000000001
101325.000000001
101325.000000001
101325.000000001
101325.000000001
101325.000000001
101325.000000001
101325.000000001
101325.000000001
101325.000000001
101325.000000001
101325.000000001
101325.000000001
101325.000000001
101325.000000001
101325.000000001
101325.000000001
101325.000000001
101325.0000000011
101325.000000001
101325.000000001
101325.000000001
101325.0000000011
101325.0000000011
101325.0000000011
101325.000000001
101325.000000001
101325.0000000011
101325.0000000011
101325.0000000011
101325.0000000011
101325.0000000011
101325.0000000011
101325.0000000011
101325.000000001
101325.0000000011
101325.000000001
101325.000000001
101325.0000000011
101325.0000000011
101325.0000000011
101325.0000000011
101325.0000000011
101325.0000000011
101325.0000000011
101325.0000000011
101325.0000000011
101325.0000000011
101325.0000000011
101325.0000000011
101325.0000000011
101325.0000000011
101325.0000000011
101325.0000000011
101325.0000000011
101325.0000000012
101325.0000000012
101325.0000000012
101325.0000000012
101325.0000000012
101325.0000000012
101325.0000000011
101325.0000000011
101325.0000000011
101325.0000000012
101325.0000000012
101325.0000000012
101325.0000000012
101325.0000000012
101325.0000000012
101325.0000000012
101325.0000000012
101325.0000000012
101325.0000000012
101325.0000000012
101325.0000000012
101325.0000000012
101325.0000000012
101325.0000000012
101325.0000000012
101325.0000000012
101325.0000000012
101325.0000000012
101325.0000000012
101325.0000000012
101325.0000000012
101325.0000000012
101325.0000000012
101325.0000000012
101325.0000000012
101325.0000000012
101325.0000000012
101325.0000000013
101325.0000000013
101325.0000000012
101325.0000000013
101325.0000000013
101325.0000000013
101325.0000000013
101325.0000000013
101325.0000000013
101325.0000000013
101325.0000000012
101325.0000000012
101325.0000000012
)
;

boundaryField
{
    inlet
    {
        type            calculated;
        value           uniform 101324.9999999998;
    }
    outlet
    {
        type            calculated;
        value           uniform 101325.0000000012;
    }
    frontAndBack
    {
        type            empty;
    }
}


// ************************************************************************* //
