/*--------------------------------*- C++ -*----------------------------------*\
| =========                 |                                                 |
| \\      /  F ield         | OpenFOAM: The Open Source CFD Toolbox           |
|  \\    /   O peration     | Version:  v2012                                 |
|   \\  /    A nd           | Website:  www.openfoam.com                      |
|    \\/     M anipulation  |                                                 |
\*---------------------------------------------------------------------------*/
FoamFile
{
    version     2.0;
    format      ascii;
    class       volVectorField;
    location    "0.003";
    object      UMean;
}
// * * * * * * * * * * * * * * * * * * * * * * * * * * * * * * * * * * * * * //

dimensions      [0 1 -1 0 0 0 0];


internalField   nonuniform List<vector> 
1000
(
(-8.410957995726918e-05 0 0)
(4.135982217130246e-05 0 0)
(9.368221507441546e-05 0 0)
(0.0002143551174338226 0 0)
(0.0003568102047780842 0 0)
(0.0005314553030878312 0 0)
(0.000736051908010611 0 0)
(0.0009728029582484861 0 0)
(0.001232666410460713 0 0)
(0.001517563434155344 0 0)
(0.001809112085857235 0 0)
(0.002103533401431255 0 0)
(0.002393827035404947 0 0)
(0.002683815941336507 0 0)
(0.002965951761093282 0 0)
(0.003236532130418941 0 0)
(0.003493071725691765 0 0)
(0.003720596637679087 0 0)
(0.003924332448849444 0 0)
(0.004086878447324383 0 0)
(0.004221146968300109 0 0)
(0.004316810807949312 0 0)
(0.004374353536423604 0 0)
(0.004392786931820566 0 0)
(0.004364304679750467 0 0)
(0.004295693247939819 0 0)
(0.004184222484193687 0 0)
(0.004042778600155329 0 0)
(0.00386941086866562 0 0)
(0.003651479199240652 0 0)
(0.003395790224777788 0 0)
(0.003105319908273378 0 0)
(0.002812801824326099 0 0)
(0.002518964362780361 0 0)
(0.002229685102739676 0 0)
(0.001937706526794649 0 0)
(0.001644854056086768 0 0)
(0.001354485660450425 0 0)
(0.001067749882488827 0 0)
(0.0007968183240676038 0 0)
(0.0005438903191758602 0 0)
(0.0003219315440143418 0 0)
(0.0001346111278217042 0 0)
(-1.111525340421185e-05 0 0)
(-0.0001180590667712239 0 0)
(-0.0001845790233545608 0 0)
(-0.0002080289786523898 0 0)
(-0.000193197068643001 0 0)
(-0.0001299777893152409 0 0)
(-2.907791446938673e-05 0 0)
(0.0001101442223047708 0 0)
(0.0002985670617409814 0 0)
(0.0005431864001353171 0 0)
(0.0008295501610348956 0 0)
(0.001120662533141077 0 0)
(0.00141364211309743 0 0)
(0.001706877587353565 0 0)
(0.002002967065536272 0 0)
(0.002297446844101844 0 0)
(0.002590542812298697 0 0)
(0.002880004734124094 0 0)
(0.003165993778697 0 0)
(0.003444785385588783 0 0)
(0.003717735191454674 0 0)
(0.003969798367184646 0 0)
(0.004186870836869562 0 0)
(0.004352700171332506 0 0)
(0.004470058551529352 0 0)
(0.004537363514628199 0 0)
(0.004563219248250237 0 0)
(0.004550822594054782 0 0)
(0.004505690348285018 0 0)
(0.004418989242537061 0 0)
(0.004277981574374709 0 0)
(0.004063171081666179 0 0)
(0.003786461347772626 0 0)
(0.00349196238724363 0 0)
(0.003193636344257269 0 0)
(0.002895147053603109 0 0)
(0.002600018784926932 0 0)
(0.002302757425132612 0 0)
(0.00200642575416783 0 0)
(0.001713372302364864 0 0)
(0.001420455346122021 0 0)
(0.001127943871825457 0 0)
(0.0008380937450748392 0 0)
(0.0005557870539464945 0 0)
(0.0002883632292663329 0 0)
(4.463827610465321e-05 0 0)
(-0.0001643363422648554 0 0)
(-0.0003149289328493472 0 0)
(-0.0003967294526154396 0 0)
(-0.0004226498052135464 0 0)
(-0.0004068248773302146 0 0)
(-0.0003548266597900948 0 0)
(-0.0002664107110011551 0 0)
(-0.0001099226670654257 0 0)
(0.0001369582760676735 0 0)
(0.0004278145495502042 0 0)
(0.0007280656823702201 0 0)
(0.001026895899879076 0 0)
(0.001325185681764389 0 0)
(0.001625170001171067 0 0)
(0.001922694404389631 0 0)
(0.002216697410310239 0 0)
(0.002512519485811266 0 0)
(0.002808057661690709 0 0)
(0.003101681316347717 0 0)
(0.003395393578991566 0 0)
(0.003684682314420423 0 0)
(0.003964229576961567 0 0)
(0.004229641899904288 0 0)
(0.004463623857499272 0 0)
(0.004649540592060552 0 0)
(0.004763614662151296 0 0)
(0.004806015468234814 0 0)
(0.004792701315115245 0 0)
(0.004738677433463583 0 0)
(0.004630839912520345 0 0)
(0.004442794551840466 0 0)
(0.004176462263385429 0 0)
(0.003880083324215755 0 0)
(0.003583903675711489 0 0)
(0.003287552864753143 0 0)
(0.002990259340482957 0 0)
(0.002693907862566079 0 0)
(0.002397038022682503 0 0)
(0.002101218716379096 0 0)
(0.001805145536664528 0 0)
(0.001511731643963894 0 0)
(0.001217160883661369 0 0)
(0.0009254653705309437 0 0)
(0.0006328246162563678 0 0)
(0.0003440148399911041 0 0)
(6.48623242102911e-05 0 0)
(-0.0001998550103776753 0 0)
(-0.0004320061674131541 0 0)
(-0.0006093466223700527 0 0)
(-0.0007137863140645438 0 0)
(-0.0007381809942402761 0 0)
(-0.0006760142037033984 0 0)
(-0.0005084814612794791 0 0)
(-0.0002503030801063187 0 0)
(4.382223669002051e-05 0 0)
(0.0003362826497289636 0 0)
(0.0006333866210667331 0 0)
(0.0009270704714643378 0 0)
(0.001223709334422889 0 0)
(0.00151748291042127 0 0)
(0.0018140334118302 0 0)
(0.002106614130279093 0 0)
(0.002403609909014323 0 0)
(0.002694852106361456 0 0)
(0.002992020675766847 0 0)
(0.003282442598794868 0 0)
(0.003579292365591228 0 0)
(0.003865277937681049 0 0)
(0.00415582153072203 0 0)
(0.004427405524261193 0 0)
(0.004689932154846024 0 0)
(0.00491200175419022 0 0)
(0.005087358258774312 0 0)
(0.005152674472544779 0 0)
(0.005064201751779095 0 0)
(0.004814498087969589 0 0)
(0.004528605611185593 0 0)
(0.004228947646764214 0 0)
(0.003940197985902103 0 0)
(0.003640618475252639 0 0)
(0.003352797608102763 0 0)
(0.00305237622212798 0 0)
(0.002764445023808248 0 0)
(0.002464866419141288 0 0)
(0.002177833502105815 0 0)
(0.001878279731070047 0 0)
(0.001592660872808939 0 0)
(0.001293681305754715 0 0)
(0.001008818013749455 0 0)
(0.0007109178083300757 0 0)
(0.0004275016592617108 0 0)
(0.0001332687754002859 0 0)
(-0.0001438133905362025 0 0)
(-0.0004256565237942966 0 0)
(-0.0006773527582591089 0 0)
(-0.0008915646571514563 0 0)
(-0.0009710069200668565 0 0)
(-0.0008502625093357109 0 0)
(-0.0005763395972950094 0 0)
(-0.0002863853730645004 0 0)
(1.232922257496132e-05 0 0)
(0.0003035126624568235 0 0)
(0.0006015419241201488 0 0)
(0.0008929442490897432 0 0)
(0.001190284769989352 0 0)
(0.001481827880219979 0 0)
(0.0017785003921456 0 0)
(0.002070168022322239 0 0)
(0.002366131176832812 0 0)
(0.002657429672945058 0 0)
(0.002952465735296237 0 0)
(0.003243488836873504 0 0)
(0.003537417195240711 0 0)
(0.003827550256675495 0 0)
(0.004118888512850647 0 0)
(0.004406178413635681 0 0)
(0.00468931221762761 0 0)
(0.004956891000364143 0 0)
(0.005182512186211528 0 0)
(0.005289709238862457 0 0)
(0.005183177365165801 0 0)
(0.004921014850077474 0 0)
(0.004627901475980296 0 0)
(0.004335691657015651 0 0)
(0.004041190858925696 0 0)
(0.003749387000224366 0 0)
(0.003455112342187677 0 0)
(0.003163927699389721 0 0)
(0.002869252343025098 0 0)
(0.002578469853133425 0 0)
(0.00228385685679596 0 0)
(0.001993585126960775 0 0)
(0.001699061749500132 0 0)
(0.001408748735256878 0 0)
(0.001114416503059329 0 0)
(0.0008248689952748996 0 0)
(0.0005312735868613945 0 0)
(0.0002415436208434289 0 0)
(-5.01727808687582e-05 0 0)
(-0.0003338044021860277 0 0)
(-0.0006126325637191539 0 0)
(-0.0008471462809029739 0 0)
(-0.0009805671882795674 0 0)
(-0.0008950097064453661 0 0)
(-0.0006437710575800704 0 0)
(-0.0003496015452383775 0 0)
(-5.919859698341984e-05 0 0)
(0.0002352047726682703 0 0)
(0.0005265614908053968 0 0)
(0.0008198950439925041 0 0)
(0.001112350469785406 0 0)
(0.001404063984602287 0 0)
(0.001697661832272779 0 0)
(0.001988733205639936 0 0)
(0.002283367014712672 0 0)
(0.002573293031256257 0 0)
(0.002868233549522475 0 0)
(0.003158863648462855 0 0)
(0.003454234042273918 0 0)
(0.003742512266934084 0 0)
(0.00403535135113656 0 0)
(0.004325827572692045 0 0)
(0.004612616468722059 0 0)
(0.004885905413283495 0 0)
(0.005143271027272709 0 0)
(0.005290282860563281 0 0)
(0.005251290339087366 0 0)
(0.005005050819677702 0 0)
(0.004722662154159705 0 0)
(0.004424006597401892 0 0)
(0.004137781732800469 0 0)
(0.003840772144824426 0 0)
(0.003553069570711457 0 0)
(0.003257168011510048 0 0)
(0.002967898647135289 0 0)
(0.00267376846468257 0 0)
(0.002383571833068119 0 0)
(0.002089552950674023 0 0)
(0.001797690881823753 0 0)
(0.001505707730564034 0 0)
(0.001214871594957695 0 0)
(0.0009206341451858274 0 0)
(0.0006271148479677822 0 0)
(0.0003393138145402916 0 0)
(5.476137737187949e-05 0 0)
(-0.0002335715370284778 0 0)
(-0.000507808186896142 0 0)
(-0.0007519051992364353 0 0)
(-0.0009423478487118642 0 0)
(-0.0009259914687852936 0 0)
(-0.0007215536746347055 0 0)
(-0.0004230661539349718 0 0)
(-0.0001401755604140741 0 0)
(0.0001619416682877608 0 0)
(0.0004461351756668432 0 0)
(0.0007468525818166201 0 0)
(0.001031550088645204 0 0)
(0.001330759873859293 0 0)
(0.001616564256899843 0 0)
(0.001915186710896672 0 0)
(0.002201615235607612 0 0)
(0.002498517936354973 0 0)
(0.002786208822636669 0 0)
(0.00308348834738017 0 0)
(0.003370421959225835 0 0)
(0.0036638532035992 0 0)
(0.003950098821203056 0 0)
(0.004242638577404285 0 0)
(0.004524293778244357 0 0)
(0.00480229610482147 0 0)
(0.005063089264938233 0 0)
(0.005251476227155106 0 0)
(0.005289042121864788 0 0)
(0.005097927691270502 0 0)
(0.004819909831560403 0 0)
(0.004520587627725701 0 0)
(0.004232990801719937 0 0)
(0.00393393006373341 0 0)
(0.003646980285273761 0 0)
(0.00334825609083931 0 0)
(0.003062131530464025 0 0)
(0.002764178695621639 0 0)
(0.002478491576376977 0 0)
(0.00217999784823076 0 0)
(0.001893611094086653 0 0)
(0.001596703040981829 0 0)
(0.001311519514337551 0 0)
(0.001013916101963606 0 0)
(0.0007284623277899055 0 0)
(0.000436217191661278 0 0)
(0.0001555416851996643 0 0)
(-0.000136049407100016 0 0)
(-0.0004099515458570835 0 0)
(-0.0006692173120141981 0 0)
(-0.0008848450493608167 0 0)
(-0.0009446961213711289 0 0)
(-0.0007952001415173072 0 0)
(-0.0005104619718130481 0 0)
(-0.0002233948381438592 0 0)
(7.73130744295126e-05 0 0)
(0.0003649955087396427 0 0)
(0.0006648500085181994 0 0)
(0.0009511660087402042 0 0)
(0.001250174937557552 0 0)
(0.001536376378188365 0 0)
(0.001835108048879587 0 0)
(0.002120619866929244 0 0)
(0.002419048269139264 0 0)
(0.002705566242857814 0 0)
(0.003003783787837867 0 0)
(0.003287571507260445 0 0)
(0.003583191419843192 0 0)
(0.003867494428312355 0 0)
(0.004161539294073501 0 0)
(0.004438578040679341 0 0)
(0.004722435095334929 0 0)
(0.004988306357032041 0 0)
(0.005207171421462797 0 0)
(0.005309949336763073 0 0)
(0.00518587357818803 0 0)
(0.004921527205086043 0 0)
(0.00462310234511108 0 0)
(0.004332715461458607 0 0)
(0.004033897733275148 0 0)
(0.00374390466152725 0 0)
(0.003446067908667033 0 0)
(0.003158146371881309 0 0)
(0.002861691814336581 0 0)
(0.002574354988524021 0 0)
(0.002277303359516048 0 0)
(0.001989884562042382 0 0)
(0.001694337319087775 0 0)
(0.001407791077365383 0 0)
(0.001111397423389443 0 0)
(0.0008265282020881854 0 0)
(0.000535012978407479 0 0)
(0.0002530549058018784 0 0)
(-3.891610001737592e-05 0 0)
(-0.0003134177730218475 0 0)
(-0.0005811857254734279 0 0)
(-0.0008192055015378041 0 0)
(-0.0009403702409933243 0 0)
(-0.0008637303868424653 0 0)
(-0.0006015733294256055 0 0)
(-0.0003131701740004563 0 0)
(-1.086130731247401e-05 0 0)
(0.0002794589756330688 0 0)
(0.0005806093149543408 0 0)
(0.0008690375804967391 0 0)
(0.001168604201872287 0 0)
(0.001455260198509387 0 0)
(0.001753139843696409 0 0)
(0.002038440739277213 0 0)
(0.002336346458438644 0 0)
(0.002622546647703753 0 0)
(0.00291876498928421 0 0)
(0.003201682437700543 0 0)
(0.003497032247064919 0 0)
(0.003780391272299233 0 0)
(0.00407163720304814 0 0)
(0.00434733864363136 0 0)
(0.004633843622249541 0 0)
(0.004901926170686998 0 0)
(0.005141122286727966 0 0)
(0.005302155309186404 0 0)
(0.005261447245968354 0 0)
(0.0050313701094167 0 0)
(0.004731718328709218 0 0)
(0.004437866570956925 0 0)
(0.004135129668679876 0 0)
(0.003841715880851498 0 0)
(0.00353998787719499 0 0)
(0.003250201636361173 0 0)
(0.002953368821763688 0 0)
(0.002667401254167773 0 0)
(0.002372790160935532 0 0)
(0.002088246377265797 0 0)
(0.001795621919061115 0 0)
(0.001511921542507082 0 0)
(0.001218678857958969 0 0)
(0.0009383946203998998 0 0)
(0.0006548906225016016 0 0)
(0.0003877805566954204 0 0)
(0.000162356868431962 0 0)
(3.271269328738765e-05 0 0)
(1.621798957873363e-06 0 0)
(8.039323016716169e-09 0 0)
(1.319117628313878e-12 0 0)
(-1.059493898291487e-13 0 0)
(-1.012185759711644e-13 0 0)
(-8.228698430336464e-14 0 0)
(-6.57520604490721e-14 0 0)
(-1.251143961014133e-13 0 0)
(-8.825156107056334e-14 0 0)
(-1.237680940078904e-13 0 0)
(-1.413700560539421e-13 0 0)
(-1.320293037581374e-13 0 0)
(-1.140938922771529e-13 0 0)
(-1.316875180873343e-13 0 0)
(-1.244850102929732e-13 0 0)
(-1.259271790990265e-13 0 0)
(-1.384440372624653e-13 0 0)
(-1.146899331420933e-13 0 0)
(-1.172366532013232e-13 0 0)
(-1.359931839157959e-13 0 0)
(-1.44371100968263e-13 0 0)
(-1.914499930615813e-13 0 0)
(-1.337799132914985e-13 0 0)
(-2.644795874278769e-13 0 0)
(-1.851603030953184e-13 0 0)
(-2.802767544073574e-13 0 0)
(-2.00711551116574e-13 0 0)
(-2.685226618262736e-13 0 0)
(-2.4200509551396e-13 0 0)
(-2.860787745750413e-13 0 0)
(-2.99254195372454e-13 0 0)
(-3.128589323173813e-13 0 0)
(-2.942607900844661e-13 0 0)
(-2.956654458290878e-13 0 0)
(-3.140926952265423e-13 0 0)
(-3.358627752091751e-13 0 0)
(-3.436488195146348e-13 0 0)
(-3.496884224047046e-13 0 0)
(-3.381510719563327e-13 0 0)
(-3.498259702966387e-13 0 0)
(-3.227707167704668e-13 0 0)
(-3.688617649128254e-13 0 0)
(-3.019426314415569e-13 0 0)
(-3.903900940551389e-13 0 0)
(-3.761518031838885e-13 0 0)
(-4.098718772905475e-13 0 0)
(-4.064831974081333e-13 0 0)
(-3.971091001688629e-13 0 0)
(-3.930493532986141e-13 0 0)
(-3.698912900431442e-13 0 0)
(-3.851174248653478e-13 0 0)
(-3.640851017575395e-13 0 0)
(-3.342997309829525e-13 0 0)
(-3.227206993552219e-13 0 0)
(-2.960780895048362e-13 0 0)
(-2.885296279217301e-13 0 0)
(-2.401919642115514e-13 0 0)
(-2.333770913853165e-13 0 0)
(-2.27333320377319e-13 0 0)
(-2.07080435323613e-13 0 0)
(-1.89078333955677e-13 0 0)
(-1.907122361868077e-13 0 0)
(-2.104732833239853e-13 0 0)
(-1.971061291014676e-13 0 0)
(-1.791373726769856e-13 0 0)
(-1.660994997714793e-13 0 0)
(-1.553957729104221e-13 0 0)
(-1.513235216864037e-13 0 0)
(-1.430456394644234e-13 0 0)
(-1.682502486267316e-13 0 0)
(-1.926795878528393e-13 0 0)
(-1.841016011394208e-13 0 0)
(-1.663829317911367e-13 0 0)
(-1.801043760382675e-13 0 0)
(-2.014117949299087e-13 0 0)
(-1.997903970525819e-13 0 0)
(-1.869984431053294e-13 0 0)
(-1.662037027198819e-13 0 0)
(-1.634319042920785e-13 0 0)
(-1.558125847040666e-13 0 0)
(-1.444502952090235e-13 0 0)
(-1.557709035246992e-13 0 0)
(-1.597014387388673e-13 0 0)
(-1.5432039848277e-13 0 0)
(-1.793916278711277e-13 0 0)
(-2.331936941960929e-13 0 0)
(-2.724948782198098e-13 0 0)
(-2.959280372590948e-13 0 0)
(-2.898467531896534e-13 0 0)
(-2.873167056021996e-13 0 0)
(-2.89713373415702e-13 0 0)
(-2.974619046597172e-13 0 0)
(-2.908137565509556e-13 0 0)
(-2.850909306240637e-13 0 0)
(-2.935063607379591e-13 0 0)
(-2.897717270668141e-13 0 0)
(-2.804893284220942e-13 0 0)
(-2.469943326840144e-13 0 0)
(-2.369116553954964e-13 0 0)
(-2.556056643408912e-13 0 0)
(-2.434180874944526e-13 0 0)
(-2.351193646827804e-13 0 0)
(-2.473194458830526e-13 0 0)
(-2.663885854427656e-13 0 0)
(-2.659801098849583e-13 0 0)
(-2.606365826903253e-13 0 0)
(-2.662051882535515e-13 0 0)
(-2.73949551379633e-13 0 0)
(-2.544344232007229e-13 0 0)
(-2.41334028526144e-13 0 0)
(-2.652048399487559e-13 0 0)
(-2.578231030831463e-13 0 0)
(-2.270999057728281e-13 0 0)
(-2.006448612295867e-13 0 0)
(-1.871234866434136e-13 0 0)
(-1.906872274791436e-13 0 0)
(-1.564127936869246e-13 0 0)
(-1.324086024903331e-13 0 0)
(-1.139271675596761e-13 0 0)
(-1.135853818888685e-13 0 0)
(-1.054533837946521e-13 0 0)
(-1.053116677848153e-13 0 0)
(-1.082877039915196e-13 0 0)
(-9.281148209310888e-14 0 0)
(-7.618485964423107e-14 0 0)
(-9.069407818135869e-14 0 0)
(-9.854264425587965e-14 0 0)
(-9.325747071232756e-14 0 0)
(-1.066496336424463e-13 0 0)
(-8.655930518829509e-14 0 0)
(-7.001604509813071e-14 0 0)
(-6.576873292077688e-14 0 0)
(-4.608271190646834e-14 0 0)
(-4.770827790172407e-14 0 0)
(-7.023695534876681e-14 0 0)
(-8.090316914838869e-14 0 0)
(-7.802299965422575e-14 0 0)
(-8.604245856416386e-14 0 0)
(-9.885942121904354e-14 0 0)
(-9.914702135666301e-14 0 0)
(-9.659613317950132e-14 0 0)
(-7.512615768834341e-14 0 0)
(-6.109627271391208e-14 0 0)
(-8.610081221527272e-14 0 0)
(-8.203272910919835e-14 0 0)
(-1.083252170529618e-13 0 0)
(-1.091880174658241e-13 0 0)
(-1.135978862426835e-13 0 0)
(-8.561314241670941e-14 0 0)
(-1.459674901379127e-13 0 0)
(-1.0321510446274e-13 0 0)
(-8.94186340927662e-14 0 0)
(-8.901849477084196e-14 0 0)
(-7.159992991401394e-14 0 0)
(-7.702265134946513e-14 0 0)
(-8.702613439719914e-14 0 0)
(-1.096965278540867e-13 0 0)
(-8.76846970311664e-14 0 0)
(-1.618521875941135e-13 0 0)
(-1.386274344516732e-13 0 0)
(-1.680793557913025e-13 0 0)
(-1.77515974799668e-13 0 0)
(-1.75490269482498e-13 0 0)
(-1.942968176122229e-13 0 0)
(-1.577049102472594e-13 0 0)
(-2.019828270871904e-13 0 0)
(-1.922627760591868e-13 0 0)
(-1.900745141425025e-13 0 0)
(-1.930380459953736e-13 0 0)
(-2.098522337514259e-13 0 0)
(-2.229859733694963e-13 0 0)
(-2.357654229629504e-13 0 0)
(-2.502538009104067e-13 0 0)
(-2.015451747038735e-13 0 0)
(-2.142287575848065e-13 0 0)
(-1.527323455489552e-13 0 0)
(-1.498896891162134e-13 0 0)
(-1.374061758962536e-13 0 0)
(-1.319542776352567e-13 0 0)
(-1.296826533598402e-13 0 0)
(-1.053158359027797e-13 0 0)
(-9.307407352313087e-14 0 0)
(-6.147973956409761e-14 0 0)
(-1.205961562581689e-13 0 0)
(-9.428282772473039e-14 0 0)
(-8.610914845116629e-14 0 0)
(-3.905109694752389e-14 0 0)
(-2.80556018309113e-14 0 0)
(-3.782567027418091e-14 0 0)
(5.918727469897131e-15 0 0)
(-5.203061620194307e-14 0 0)
(-2.208268882783492e-14 0 0)
(-2.93727270988623e-14 0 0)
(-8.006954556124449e-15 0 0)
(-2.049046777608775e-14 0 0)
(-1.739355614923871e-14 0 0)
(1.43966793528226e-14 0 0)
(1.395485885155204e-14 0 0)
(6.171732228646038e-14 0 0)
(1.141230691025708e-14 0 0)
(6.907821856240263e-14 0 0)
(6.409731762823447e-14 0 0)
(3.801323558130721e-14 0 0)
(2.433764063149025e-14 0 0)
(2.297466606623641e-14 0 0)
(-2.42167652114577e-15 0 0)
(-4.037239033342271e-14 0 0)
(2.822649466629955e-14 0 0)
(-7.173330968801529e-14 0 0)
(5.835365109708169e-17 0 0)
(-1.074123992250046e-14 0 0)
(-2.031957494069003e-14 0 0)
(-3.682115385148682e-14 0 0)
(-2.705942164408848e-14 0 0)
(-3.686283503085116e-14 0 0)
(-4.626194097777588e-14 0 0)
(-4.133939369470505e-14 0 0)
(-5.473155662484042e-14 0 0)
(-4.942137437368155e-14 0 0)
(-3.10441423914274e-14 0 0)
(-1.522196670428953e-14 0 0)
(7.606815234188081e-15 0 0)
(4.063914988121711e-15 0 0)
(3.304900711888734e-14 0 0)
(-1.682252399192279e-14 0 0)
(4.001393219077519e-15 0 0)
(-1.780203170700254e-14 0 0)
(-9.303239234381254e-15 0 0)
(-1.811047243431656e-14 0 0)
(-1.709761977573684e-14 0 0)
(4.093091813679173e-15 0 0)
(1.218757684645715e-14 0 0)
(6.732760902904719e-14 0 0)
(-2.319557631691312e-14 0 0)
(5.998338522485594e-14 0 0)
(6.292607648806552e-14 0 0)
(7.307127554562169e-14 0 0)
(3.913029118829783e-14 0 0)
(4.080170648085887e-14 0 0)
(5.078434893889357e-14 0 0)
(2.46335770049905e-14 0 0)
(2.929353285806183e-14 0 0)
(3.956377545371678e-14 0 0)
(4.655787735123932e-14 0 0)
(4.979233686999535e-14 0 0)
(1.989025879319566e-14 0 0)
(1.561793790823122e-14 0 0)
(1.729768943666193e-14 0 0)
(2.397501437101237e-14 0 0)
(-3.338245655382734e-14 0 0)
(4.618274673690591e-15 0 0)
(1.053283402565027e-14 0 0)
(2.981454760012798e-14 0 0)
(2.283711817433502e-14 0 0)
(7.623487705940184e-15 0 0)
(9.815917740571147e-15 0 0)
(1.500105645364209e-14 0 0)
(8.61591658663942e-14 0 0)
(-2.279126887705613e-14 0 0)
(4.036822221546398e-14 0 0)
(6.122965248780564e-15 0 0)
(9.232381229445195e-15 0 0)
(-8.819737553745025e-15 0 0)
(-2.599238345233201e-14 0 0)
(-4.005978148817305e-14 0 0)
(-3.299482158572226e-14 0 0)
(-6.589794457683579e-15 0 0)
(-1.492186221282215e-15 0 0)
(9.044815922288803e-16 0 0)
(1.376729354441579e-14 0 0)
(4.235224635327076e-14 0 0)
(4.594933213250624e-14 0 0)
(3.470374993969511e-14 0 0)
(2.301217912768208e-14 0 0)
(1.510942751998262e-14 0 0)
(2.496702643992255e-14 0 0)
(1.167073022232833e-14 0 0)
(7.573470290691823e-15 0 0)
(4.40570065891514e-15 0 0)
(3.390347129587398e-14 0 0)
(5.14595840446229e-14 0 0)
(5.0655137282868e-14 0 0)
(4.741234152823461e-14 0 0)
(5.373954455591217e-14 0 0)
(1.14560721486031e-13 0 0)
(6.570204303380725e-14 0 0)
(1.016645645903618e-13 0 0)
(1.03198431991007e-13 0 0)
(1.18707998832909e-13 0 0)
(1.421036448107607e-13 0 0)
(1.349928356109868e-13 0 0)
(1.133144542230185e-13 0 0)
(7.619736399805225e-14 0 0)
(1.062286537308831e-13 0 0)
(-5.510251912111124e-15 0 0)
(7.781042563949889e-14 0 0)
(9.395771452569281e-14 0 0)
(1.326670258024225e-13 0 0)
(1.320209675222401e-13 0 0)
(1.252894570547272e-13 0 0)
(1.033068030573729e-13 0 0)
(6.012926935265257e-14 0 0)
(5.257247153369711e-14 0 0)
(6.752351057209807e-14 0 0)
(9.698376814762372e-14 0 0)
(1.202585387053108e-13 0 0)
(1.282863338510818e-13 0 0)
(1.134728427046076e-13 0 0)
(6.89823518498897e-14 0 0)
(9.289484445187141e-14 0 0)
(8.144919259811926e-14 0 0)
(1.262773010056945e-13 0 0)
(1.267482983325219e-13 0 0)
(1.329963071194006e-13 0 0)
(1.489560306984511e-13 0 0)
(1.49347833784477e-13 0 0)
(9.767567572509517e-14 0 0)
(4.233557388153576e-14 0 0)
(1.165947630390963e-13 0 0)
(1.558459296477183e-14 0 0)
(7.32338321451795e-14 0 0)
(4.187708090852153e-14 0 0)
(3.454952957606403e-14 0 0)
(2.046962718640931e-14 0 0)
(-8.069476325137763e-15 0 0)
(-2.482531043007454e-14 0 0)
(-2.374159976657688e-14 0 0)
(-2.943941698584444e-14 0 0)
(-3.922615790086181e-14 0 0)
(-6.208828478283418e-14 0 0)
(-7.076630632672977e-14 0 0)
(-5.501498864451796e-14 0 0)
(-4.097676743422301e-14 0 0)
(-7.394241219437562e-14 0 0)
(-5.949154730836736e-14 0 0)
(-1.263356546568017e-13 0 0)
(-9.155687859423624e-14 0 0)
(-1.073498774558179e-13 0 0)
(-1.242599319243776e-13 0 0)
(-1.584093221785346e-13 0 0)
(-1.65057470287323e-13 0 0)
(-1.36510030539899e-13 0 0)
(-1.642988728228834e-13 0 0)
(-1.060369203058142e-13 0 0)
(-1.858021932575456e-13 0 0)
(-8.080730243588319e-14 0 0)
(-1.043363281876987e-13 0 0)
(-1.31629164436213e-13 0 0)
(-1.273401710795141e-13 0 0)
(-1.161195975942989e-13 0 0)
(-1.036402524922882e-13 0 0)
(-1.051574474211916e-13 0 0)
(-1.146982693779496e-13 0 0)
(-1.345468469918062e-13 0 0)
(-1.441918718969557e-13 0 0)
(-1.372727961223244e-13 0 0)
(-1.487309523298744e-13 0 0)
(-1.419869375085503e-13 0 0)
(-1.610644133041308e-13 0 0)
(-1.467636006638245e-13 0 0)
(-2.473444545906949e-13 0 0)
(-2.178300114819845e-13 0 0)
(-2.398376741869527e-13 0 0)
(-2.62712305422725e-13 0 0)
(-2.269290129374854e-13 0 0)
(-1.936257506244213e-13 0 0)
(-2.043461499572492e-13 0 0)
(-2.343941121618414e-13 0 0)
(-1.940925798333538e-13 0 0)
(-3.144428171332521e-13 0 0)
(-2.394291986291573e-13 0 0)
(-2.60411504321805e-13 0 0)
(-2.542551941294877e-13 0 0)
(-2.296883070114829e-13 0 0)
(-2.146580737322866e-13 0 0)
(-2.358029360244084e-13 0 0)
(-2.695771956642459e-13 0 0)
(-2.233527677479316e-13 0 0)
(-3.58353939594807e-13 0 0)
(-2.934271664971653e-13 0 0)
(-3.014216166995157e-13 0 0)
(-2.79684881660354e-13 0 0)
(-2.738245078415989e-13 0 0)
(-2.637084856095943e-13 0 0)
(-2.254951803673095e-13 0 0)
(-3.122087059192748e-13 0 0)
(-2.056257621637911e-13 0 0)
(-2.982371745959711e-13 0 0)
(-2.442933922611224e-13 0 0)
(-2.636918131378638e-13 0 0)
(-2.537008344439481e-13 0 0)
(-2.585316831323977e-13 0 0)
(-2.891006600790511e-13 0 0)
(-2.06847020719195e-13 0 0)
(-2.985331109694593e-13 0 0)
(-2.329352708840096e-13 0 0)
(-2.73391023576204e-13 0 0)
(-2.631833027496012e-13 0 0)
(-2.800850209823546e-13 0 0)
(-2.988748966402489e-13 0 0)
(-3.081697996387764e-13 0 0)
(-3.277849626481007e-13 0 0)
(-3.355918475433167e-13 0 0)
(-3.396432581776519e-13 0 0)
(-2.893507471552594e-13 0 0)
(-4.036488772112814e-13 0 0)
(-3.496259006356628e-13 0 0)
(-3.796738628402573e-13 0 0)
(-3.800406572186003e-13 0 0)
(-3.78956946555172e-13 0 0)
(-3.823831394990236e-13 0 0)
(-3.987930198152273e-13 0 0)
(-4.384318213917777e-13 0 0)
(-3.917530686203673e-13 0 0)
(-5.076684284358139e-13 0 0)
(-4.468805964491843e-13 0 0)
(-4.515947378354153e-13 0 0)
(-4.743526617688935e-13 0 0)
(-5.139206053406424e-13 0 0)
(-5.585986615024786e-13 0 0)
(-5.255329819118616e-13 0 0)
(-5.728244480199476e-13 0 0)
(-5.329480637209863e-13 0 0)
(-5.121950045149102e-13 0 0)
(-5.058719696050663e-13 0 0)
(-5.26133190894757e-13 0 0)
(-5.382582459721413e-13 0 0)
(-5.335899538832103e-13 0 0)
(-5.448021911325188e-13 0 0)
(-4.795628091896508e-13 0 0)
(-5.714989865161202e-13 0 0)
(-5.074558544210184e-13 0 0)
(-5.435225789260116e-13 0 0)
(-5.542096333151889e-13 0 0)
(-5.61799776077764e-13 0 0)
(-5.571231477529422e-13 0 0)
(-5.551224511434332e-13 0 0)
(-5.797893730918922e-13 0 0)
(-5.242783784129212e-13 0 0)
(-6.368509076432569e-13 0 0)
(-5.74283289297623e-13 0 0)
(-5.702985685503669e-13 0 0)
(-5.422971522526306e-13 0 0)
(-5.182554479946158e-13 0 0)
(-5.19985216938279e-13 0 0)
(-4.95772619844864e-13 0 0)
(-5.506042113001703e-13 0 0)
(-5.515086928924155e-13 0 0)
(-5.765174005116932e-13 0 0)
(-5.67322532343557e-13 0 0)
(-6.034934597970765e-13 0 0)
(-6.228960487916576e-13 0 0)
(-6.396810597221594e-13 0 0)
(-6.894817328280261e-13 0 0)
(-6.634518363142727e-13 0 0)
(-7.783043260559186e-13 0 0)
(-7.298916362227832e-13 0 0)
(-7.713477372198065e-13 0 0)
(-7.765537165225526e-13 0 0)
(-7.784001927684652e-13 0 0)
(-7.966857261560736e-13 0 0)
(-7.936013188830009e-13 0 0)
(-8.294888143167396e-13 0 0)
(-7.916506396886974e-13 0 0)
(-9.244468771471728e-13 0 0)
(-8.770845530340101e-13 0 0)
(-8.790560728181504e-13 0 0)
(-8.617417109096999e-13 0 0)
(-8.782599622922283e-13 0 0)
(-9.103586385215818e-13 0 0)
(-8.880091901458392e-13 0 0)
(-9.346337573840723e-13 0 0)
(-9.011387616458014e-13 0 0)
(-8.995965580094186e-13 0 0)
(-8.778848316779207e-13 0 0)
(-8.517215553902207e-13 0 0)
(-8.779390172111327e-13 0 0)
(-9.115340477796824e-13 0 0)
(-9.412485605493456e-13 0 0)
(-9.051943403981868e-13 0 0)
(-1.018988128183948e-12 0 0)
(-9.790158771722603e-13 0 0)
(-1.037181962976982e-12 0 0)
(-1.032897137738216e-12 0 0)
(-1.047568912874833e-12 0 0)
(-1.103525896172988e-12 0 0)
(-1.102492202924758e-12 0 0)
(-1.125029216607692e-12 0 0)
(-1.077191727049782e-12 0 0)
(-1.158561725407216e-12 0 0)
(-1.080196940082163e-12 0 0)
(-1.075920451079262e-12 0 0)
(-1.05750570603548e-12 0 0)
(-1.044976343518319e-12 0 0)
(-1.041829414476224e-12 0 0)
(-1.020180209913799e-12 0 0)
(-1.134686745866494e-12 0 0)
(-1.153393259165909e-12 0 0)
(-1.196725013234208e-12 0 0)
(-1.226752134849174e-12 0 0)
(-1.285485084692889e-12 0 0)
(-1.302382634807845e-12 0 0)
(-1.310839746101112e-12 0 0)
(-1.378388265380747e-12 0 0)
(-1.314282611516602e-12 0 0)
(-1.439601245396897e-12 0 0)
(-1.389792236055199e-12 0 0)
(-1.388671012330264e-12 0 0)
(-1.370560539895821e-12 0 0)
(-1.365033615512081e-12 0 0)
(-1.350874518881618e-12 0 0)
(-1.33055077582301e-12 0 0)
(-1.32342329415152e-12 0 0)
(-1.26162260950619e-12 0 0)
(-1.356301408435028e-12 0 0)
(-1.311452459437771e-12 0 0)
(-1.379667877587247e-12 0 0)
(-1.390950972841471e-12 0 0)
(-1.406002046710365e-12 0 0)
(-1.454627310558212e-12 0 0)
(-1.377242032948247e-12 0 0)
(-1.481465821951498e-12 0 0)
(-1.400508467270062e-12 0 0)
(-1.411366414494778e-12 0 0)
(-1.324923816608697e-12 0 0)
(-1.430306342398319e-12 0 0)
(-1.359477514302684e-12 0 0)
(-1.352408386282308e-12 0 0)
(-1.365913088396725e-12 0 0)
(-1.379463639808302e-12 0 0)
(-1.400216699014442e-12 0 0)
(-1.36488773138433e-12 0 0)
(-1.513647860539663e-12 0 0)
(-1.46211325037211e-12 0 0)
(-1.488618312330782e-12 0 0)
(-1.480427960585459e-12 0 0)
(-1.466256359601182e-12 0 0)
(-1.469703393134716e-12 0 0)
(-1.452355686282716e-12 0 0)
(-1.486517580890687e-12 0 0)
(-1.46351373799895e-12 0 0)
(-1.592275237294726e-12 0 0)
(-1.529861839312774e-12 0 0)
(-1.562760794186108e-12 0 0)
(-1.615608361503536e-12 0 0)
(-1.63762019232653e-12 0 0)
(-1.606947012431303e-12 0 0)
(-1.587065089874137e-12 0 0)
(-1.569646525017291e-12 0 0)
(-1.494887161707357e-12 0 0)
(-1.594976177717535e-12 0 0)
(-1.52876979241356e-12 0 0)
(-1.525943808452572e-12 0 0)
(-1.494391155672903e-12 0 0)
(-1.476839211042011e-12 0 0)
(-1.518795486191327e-12 0 0)
(-1.471537365026816e-12 0 0)
(-1.54322065729958e-12 0 0)
(-1.47398821837342e-12 0 0)
(-1.51828697580307e-12 0 0)
(-1.536705888964755e-12 0 0)
(-1.519316500933473e-12 0 0)
(-1.506128575782226e-12 0 0)
(-1.492227902463693e-12 0 0)
(-1.494028529412419e-12 0 0)
(-1.435966646556311e-12 0 0)
(-1.585122746915629e-12 0 0)
(-1.524326578693061e-12 0 0)
(-1.562977536318839e-12 0 0)
(-1.579333231101853e-12 0 0)
(-1.572818462766948e-12 0 0)
(-1.62151875273743e-12 0 0)
(-1.6622579374495e-12 0 0)
(-1.685491026827824e-12 0 0)
(-1.5741272517991e-12 0 0)
(-1.662954013144801e-12 0 0)
(-1.62869208370639e-12 0 0)
(-1.650157891079698e-12 0 0)
(-1.652066889094646e-12 0 0)
(-1.678284350915359e-12 0 0)
(-1.714226031882299e-12 0 0)
(-1.667513934167484e-12 0 0)
(-1.790031592794322e-12 0 0)
(-1.778615117766102e-12 0 0)
(-1.791415407949341e-12 0 0)
(-1.806249739685427e-12 0 0)
)
;

boundaryField
{
    inlet
    {
        type            calculated;
        value           uniform (-8.410957995726918e-05 0 0);
    }
    outlet
    {
        type            calculated;
        value           uniform (-1.806249739685427e-12 0 0);
    }
    frontAndBack
    {
        type            empty;
    }
}


// ************************************************************************* //
