/*--------------------------------*- C++ -*----------------------------------*\
| =========                 |                                                 |
| \\      /  F ield         | OpenFOAM: The Open Source CFD Toolbox           |
|  \\    /   O peration     | Version:  v2012                                 |
|   \\  /    A nd           | Website:  www.openfoam.com                      |
|    \\/     M anipulation  |                                                 |
\*---------------------------------------------------------------------------*/
FoamFile
{
    version     2.0;
    format      ascii;
    class       volScalarField;
    location    "0.007";
    object      p;
}
// * * * * * * * * * * * * * * * * * * * * * * * * * * * * * * * * * * * * * //

dimensions      [1 -1 -2 0 0 0 0];


internalField   nonuniform List<scalar> 
1000
(
101310.9415445524
101313.5788033454
101306.8382886686
101301.539901971
101295.7016198351
101290.4594826744
101285.9447127639
101282.0816545585
101278.7664919264
101276.5395585944
101275.9433611298
101275.962422952
101276.330684828
101277.349064375
101279.3291990862
101282.3339881387
101286.2508040333
101290.903921504
101296.1470745833
101301.8781600951
101308.0130075512
101314.4609009781
101321.1154830444
101327.8547890024
101334.5450760965
101341.0508148571
101347.2544451721
101353.0839571899
101358.5317845079
101363.6143399073
101368.178074899
101371.5686411692
101373.0173706598
101373.1816240526
101373.1159978633
101372.8498988782
101372.109886373
101370.6562674317
101368.2817721092
101364.8915200455
101360.5259964015
101355.3386422918
101349.5332171357
101343.3006055977
101336.7892505631
101330.1124636138
101323.3706342331
101316.6667005104
101310.1059175803
101303.777524991
101297.7257986172
101291.9483575887
101286.4966654578
101281.7444181257
101278.5840566698
101277.5083396575
101277.4354236127
101277.4770255892
101277.7369380146
101278.3791366624
101279.6283401149
101281.6764078051
101284.6598267056
101288.6220295652
101293.5012518947
101299.1449664033
101305.3485561309
101311.902771537
101318.6288911757
101325.3893925088
101332.081641784
101338.6336356252
101345.0093376425
101351.2072763577
101357.2216305289
101362.9243192842
101367.8265850051
101370.9818125965
101372.0182981185
101372.093738699
101372.0375235055
101371.8322150353
101371.2859320002
101370.2239826739
101368.4610594601
101365.8460737506
101362.2885539617
101357.782488902
101352.412451585
101346.3392869463
101339.7703970594
101332.9231533009
101325.9896196269
101319.1110937528
101312.3691302042
101305.7922554159
101299.3752688986
101293.1298536905
101287.2275946977
101282.2688714074
101279.2676709115
101278.3936764856
101278.3493630457
101278.3856958823
101278.5937617911
101279.0990658469
101280.0778780231
101281.6957290504
101284.0980749224
101287.3845111082
101291.5892198441
101296.6679754826
101302.49894464
101308.9010378613
101315.6653938932
101322.5898544717
101329.5089674263
101336.3162716962
101342.97225309
101349.4841170942
101355.8391952632
101361.8618261765
101366.9729787559
101370.177129238
101371.2024084957
101371.2806958948
101371.2381841373
101371.0802068024
101370.653280557
101369.813714308
101368.4015404118
101366.2702455276
101363.303883951
101359.4378398382
101354.6739701599
101349.086882561
101342.8190578412
101336.0623787245
101329.0259170864
101321.8977140386
101314.8145855352
101307.8512301481
101301.0359661999
101294.4132568932
101288.2028828795
101283.0633230373
101280.0137137133
101279.1360568043
101279.0864790175
101279.1138337618
101279.2778622611
101279.685320773
101280.4838521734
101281.8177950309
101283.8239135863
101286.6134818434
101290.2563640333
101294.7657765353
101300.0894402795
101306.1120621055
101312.6696930542
101319.5730718875
101326.6374439539
101333.7144547967
101340.7135042138
101347.5928903094
101354.2998061287
101360.6290458789
101365.9847503238
101369.3689327608
101370.4947053952
101370.5949431174
101370.5641280652
101370.4458260985
101370.1091147344
101369.4312244813
101368.2705402546
101366.4908858768
101363.9727535365
101360.6291745953
101356.4195025289
101351.3598833293
101345.528204426
101339.0592627896
101332.1264130559
101324.9124845566
101317.5796984922
101310.2497534056
101303.0071868128
101295.9538324402
101289.3654985673
101283.9473662419
101280.7315937306
101279.7790285098
101279.7138030116
101279.7343695893
101279.8652096971
101280.197464763
101280.859280421
101281.9789528716
101283.6836193803
101286.0853885527
101289.2688315621
101293.2775963869
101298.104182042
101303.6865400882
101309.9125525775
101316.6322038972
101323.6784432962
101330.8950081892
101338.1600386851
101345.3858583397
101352.4715508387
101359.1738265857
101364.876323785
101368.5595797107
101369.8623983757
101370.0011769512
101369.9795580191
101369.890156119
101369.6213512441
101369.0665152659
101368.0995602154
101366.5948645886
101364.4350291181
101361.5235033387
101357.7962272881
101353.2321939817
101347.8614631835
101341.7667304511
101335.0744678763
101327.9365597445
101320.5082329579
101312.9295175976
101305.3230040631
101297.8396144221
101290.8076027196
101284.9838975717
101281.4604114936
101280.3603762174
101280.2691407171
101280.2824380694
101280.3848906838
101280.65561054
101281.2089689882
101282.1597712397
101283.6250626299
101285.7132200476
101288.5144227311
101292.0894542491
101296.4599873885
101301.6029948637
101307.4500908499
101313.8925553606
101320.7944427821
101328.0135173447
101335.4211619636
101342.904698612
101350.3299184502
101357.4262061707
101363.5632728513
101367.6795026718
101369.262576913
101369.4679699217
101369.4542928058
101369.3897120007
101369.1764597059
101368.720874705
101367.9089932844
101366.6254650817
101364.7581184397
101362.2077615291
101358.897562822
101354.7826333156
101349.8586440976
101344.1662793197
101337.7882888468
101330.8392818159
101323.4513598025
101315.7601171238
101307.9025826275
101300.0580779702
101292.5863715084
101286.2728826851
101282.2838806981
101280.9158323079
101280.7714628031
101280.7795355563
101280.8584841949
101281.0782881941
101281.5414457868
101282.3522782819
101283.6193311578
101285.4464721691
101287.9251697063
101291.1253162894
101295.0869831681
101299.8146212376
101305.2739573918
101311.3927216709
101318.0681622658
101325.1815974416
101332.6129872233
101340.2427550291
101347.9220190947
101355.3732620382
101361.977779491
101366.6455841774
101368.6475105359
101368.9741520483
101368.9689922004
101368.9258779476
101368.7591705571
101368.387008391
101367.7046200913
101366.605362643
101364.9828279913
101362.7385334964
101359.789299896
101356.0754118727
101351.5686306395
101346.277598886
101340.2483137433
101333.5596264488
101326.3152095743
101318.6345108661
101310.6523160709
101302.5545974047
101294.7017592212
101287.8657646408
101283.2712173495
101281.4875261021
101281.2430703417
101281.2446401455
101281.3023725179
101281.4770556143
101281.8620130445
101282.5532406501
101283.6519052307
101285.2569394128
101287.4588719319
101290.3323404625
101293.9292428186
101298.2732280105
101303.3555192441
101309.1334129665
101315.5342356792
101322.4647851105
101329.8208131966
101337.4876404278
101345.317030661
101353.0443726979
101360.0933548974
101365.3884222957
101367.9634254114
101368.4998943381
101368.5128871275
101368.4862165403
101368.3592191836
101368.0584823039
101367.4871222112
101366.5456841408
101365.1330519243
101363.1527109484
101360.5186478247
101357.1621687362
101353.0387157602
101348.1332371583
101342.4627609921
101336.075666183
101329.0477891879
101321.4772225403
101313.486032003
101305.2512228788
101297.1093552901
101289.7773493428
101284.4875837595
101282.1244663033
101281.699468119
101281.6927731897
101281.7293847899
101281.863823245
101282.1785461324
101282.7637542853
101283.7148561163
101285.1263599939
101287.08685568
101289.6730206854
101292.9440882106
101296.9368733943
101301.6612669354
101307.0976925043
101313.1988223867
101319.8951419419
101327.1003617881
101334.7111461902
101342.5898529528
101350.4979871333
101357.9246294403
101363.8601362574
101367.1452933268
101368.0221561693
101368.0768547581
101368.0616885263
101367.9683748869
101367.729999849
101367.2557443111
101366.4524172796
101365.2234442929
101363.4747255077
101361.1192566974
101358.08280289
101354.3097960816
101349.7683082392
101344.4533358748
101338.3882554759
101331.6241435241
101324.237634457
101316.3335550989
101308.0704102025
101299.7461815409
101291.9943064115
101285.9882744641
101282.8866973746
101282.1553379771
101282.1205819813
101282.1438955438
101282.2431317733
101282.4964792303
101282.9877789011
101283.8078022213
101285.0473153838
101286.7929481747
101289.1224359851
101292.0998304721
101295.770829379
101300.1587219073
101305.2618817296
101311.0536592399
101317.4845961758
101324.4855712494
101331.968116388
101339.8112708559
101347.8079938931
101355.5213874791
101362.0486404478
101366.1290946913
101367.5026975901
101367.6466444868
101367.6383496038
101367.5758549146
101367.3930539428
101367.0065899285
101366.3273343894
101365.2626948051
101363.7208450653
101361.6147016557
101358.8668261139
101355.4145560728
101351.2141540735
101346.24405811
101340.5078898011
101334.036157084
101326.8857153731
101319.1422608271
101310.9414142932
101302.5377894893
101294.4697297013
101287.7953971958
101283.8435014675
101282.6408676783
101282.5361313175
101282.5519111162
101282.6202485143
101282.8197783901
101283.2269573713
101283.9291820935
101285.0140103855
101286.5663164182
101288.6639216492
101291.3739165746
101294.748601924
101298.8212600488
101303.6033749767
101309.0842987281
101315.2320414444
101321.9936067905
101329.2942151066
101337.0290769741
101345.0242372723
101352.9202361341
101359.9477724156
101364.8538147434
101366.9036027728
101367.2309943125
101367.2359386468
101367.1929837773
101367.0567988231
101366.7447395683
101366.1738104302
101365.2544955622
101363.8973327221
101362.0158864352
101359.5309441724
101356.3746613388
101352.4944215054
101347.8564951801
101342.4493809869
101336.285975325
101329.4046746139
101321.8732559283
101313.8055018604
101305.4129594173
101297.1380844776
101289.8932509725
101285.054666768
101283.2060808352
101282.9558336005
101282.9601914864
101283.0050680398
101283.1559127289
101283.4865736325
101284.0808579034
101285.0237095653
101286.3985278013
101288.2833536545
101290.7474233469
101293.8474683027
101297.6241237362
101302.0993322792
101307.2750227898
101313.1325276039
101319.6324602524
101326.7142961675
101334.289923931
101342.2140579422
101350.1957111467
101357.6048419256
101363.2872911239
101366.1562326
101366.8053455445
101366.8328804087
101366.8094452654
101366.7119502341
101366.4659307564
101365.9919501859
101365.2036404647
101364.0137405352
101362.336882247
101360.0929601941
101357.210660821
101353.6311247623
101349.3115368962
101344.2283646987
101338.3800292545
101331.7893551629
101324.5078313726
101316.6281477545
101308.3226420721
101299.9477691907
101292.2605392661
101286.5676998348
101283.9012657858
101283.3740545955
101283.3595288235
101283.386495799
101283.4967469436
101283.760818467
101284.2583793447
101285.072441423
101286.2851853996
101287.9746880126
101290.2117192009
101293.0563402551
101296.5547123752
101300.7367030216
101305.6142431497
101311.1800206366
101317.4067118627
101324.2464891867
101331.6263255619
101339.4261647442
101347.412388356
101355.0799025764
101361.4258894948
101365.1857473246
101366.3302711597
101366.4296293978
101366.4161463364
101366.3507058125
101366.1620695862
101365.7754332366
101365.1072825038
101364.0722193802
101362.5854584693
101360.5661921959
101357.9406023291
101354.64501575
101350.6294744903
101345.8612760538
101340.3277164063
101334.0385508724
101327.0304275206
101319.3774201076
101311.2191280916
101302.8385478464
101294.8438585033
101288.3948374632
101284.7980621011
101283.820613211
101283.7536140841
101283.7669355243
101283.8439716236
101284.0489596709
101284.4599165843
101285.157136832
101286.2216454632
101287.7312498573
101289.7576280098
101292.3632940447
101295.5987843797
101299.500282208
101304.0876247522
101309.3627218969
101315.3086597962
101321.8889347215
101329.0435723204
101336.6736144813
101344.5934607476
101352.4079201475
101359.2873030594
101363.9468732418
101365.7770955432
101366.0378103872
101366.0353709426
101365.9940469247
101365.8540910322
101365.5438106612
101364.9822964398
101364.0860503708
101362.7713942423
101360.9574551773
101358.5689688975
101355.5392035421
101351.8130508959
101347.3501857924
101342.1281695908
101336.1456098399
101329.4262372798
101322.0269349264
101314.0589256508
101305.7465281059
101297.571936674
101290.5149996989
101285.9672999638
101284.3462317606
101284.1524859741
101284.1578334301
101284.2078814093
101284.3625549811
101284.6952729307
101285.2845594088
101286.2102402002
101287.5502139627
101289.3773283331
101291.7563835337
101294.7415437592
101298.3741768483
101302.6807368797
101307.6708012951
101313.3360294393
101319.6496690152
101326.5635213379
101333.9962227944
101341.7990367163
101349.6642061478
101356.9278833397
101362.4048832905
101365.0685452909
101365.6309009011
101365.6493587756
101365.6278163143
101365.5271914921
101365.2835296488
101364.8181786955
101364.0496895137
101362.8952585959
101361.2739555275
101359.1092370885
101356.331713678
101352.8820944662
101348.7142017102
101343.7979724715
101338.1226406898
101331.7006801751
101324.5743896313
101316.8315625099
101308.6485953887
101300.4019802765
101292.8887660118
101287.4410685796
101284.9991493734
101284.5527009373
101284.5436805713
101284.5726495357
101284.6847187938
101284.948667785
101285.4405919905
101286.239530691
101287.4232233827
101289.0652260164
101291.2321267139
101293.9810589833
101297.357455507
101301.3929994004
101306.1039227403
101311.4897937391
101317.5323931969
101324.1931893725
101331.4055208643
101339.0505965074
101346.8893103281
101354.4010844389
101360.5636583867
101364.1374331329
101365.18224498
101365.2659434898
101365.254143702
101365.1863541608
101364.9997320836
101364.6197550926
101363.9670979105
101362.9601721141
101361.5182232228
101359.5638526971
101357.025664231
101353.8410691674
101349.9590470839
101345.3429408581
101339.9737051534
101333.8538976481
101327.0132070137
101319.5199807533
101311.512637444
101303.2833475567
101295.4631533849
101289.2325248416
101285.8512632599
101284.9762033158
101284.9218307289
101284.9382580876
101285.0149756652
101285.2198221482
101285.6254003704
101286.3093397401
101287.3489078569
101288.8180569816
101290.7847269549
101293.3086050452
101296.4389042949
101300.2120648748
101304.6499291516
101309.7587222085
101315.5279806819
101321.9280338078
101328.9041877562
101336.3605817229
101344.1116138755
101351.7561460848
101358.4547367296
101362.9357124415
101364.6532185229
101364.8873486715
101364.8862054707
101364.8426033931
101364.7048311744
101364.400028017
101363.8516375053
101362.9793980605
101361.7030623001
101359.9447687405
101357.6316017463
101354.6981767483
101351.0893587397
101346.763129189
101341.6936636421
101335.8748420512
101329.3250929951
101322.0966784872
101314.2987048021
101306.1582370776
101298.1671734875
101291.3166549666
101286.9752518793
101285.4762380943
101285.3071047495
101285.3134518202
101285.3642351987
101285.5184287153
101285.8467102126
101286.4247317188
101287.3291590631
101288.6345029643
101290.4102919247
101292.7186439268
101295.6119739794
101299.1308612717
101303.3023349353
101308.1386002512
101313.6357506628
101319.7718147439
101326.5027475695
101333.7510033512
101341.3706771593
101349.0533360663
101356.132300128
101361.4327817031
101363.973255865
101364.4968664857
101364.5140812315
101364.4897553028
101364.3916870688
101364.1521929272
101363.6975058536
101362.9487736269
101361.8264005045
101360.2523236965
101358.1524938431
101355.4593406863
101352.1142961994
101348.0705818262
101343.2963192896
101337.7778730786
101331.5239682656
101324.5730048311
101317.0101592088
101309.0117790972
101300.9572911068
101293.6473148715
101288.4006282271
101286.0976268349
101285.6927085625
101285.686438023
101285.7149570711
101285.8265900445
101286.0866066022
101286.5691763155
101287.3503028381
101288.5045477848
101290.1023300904
101292.2075182995
101294.8751892742
101298.1495904629
101302.0624145702
101306.6313303489
101311.8585468996
101317.7291549472
101324.2082427842
101331.2327983931
101338.6869774454
101346.3333250142
101353.6535080686
101359.6362275139
101363.0755550929
101364.0650749029
101364.1418960523
101364.129298555
101364.0630130032
101363.8799458976
101363.5088388368
101362.8727444218
101361.8928564808
101360.4911455226
101358.5928020449
101356.1285488319
101353.0370553924
101349.2675737363
101344.782841703
101339.5622732842
101333.6058341494
101326.9401206872
101319.6310820814
101311.8160488407
101303.7868757599
101296.1732863697
101290.1440777884
101286.9151517604
101286.0997511947
101286.0521146809
101286.0675660348
101286.1448972556
101286.3467851731
101286.7447023918
101287.4132453895
101288.4268111477
101289.8566424497
101291.7684190774
101294.219818891
101297.2583933997
101300.9199857474
101305.2272506165
101310.1879041714
101315.7931111203
101322.0157505256
101328.80500131
101336.0683895176
101343.6218741997
101351.0674813771
101357.5780959347
101361.9112376586
101363.5554204744
101363.7754831104
101363.7709827494
101363.7304738989
101363.594395819
101363.2968817672
101362.7622902182
101361.9131734784
101360.6717632519
101358.9626473076
101356.7150636435
101353.8652693041
101350.3590631819
101346.1545280053
101341.225073516
101335.5630472443
101329.1848423489
101322.1405383468
101314.5372052457
101306.6000234938
101298.8180010006
101292.1722725837
101287.9979976493
101286.5808284478
101286.4258634689
101286.4324497525
101286.4829488871
101286.6346691119
101286.9563505384
101287.5212045636
101288.403341411
101289.6747058588
101291.4023566267
101293.6461025672
101296.4564350128
101299.8727102947
101303.9214905058
101308.615030738
101313.949890731
101319.9051146577
101326.4380864451
101333.4730011852
101340.8683197266
101348.330941824
101355.2358308291
101360.4752826315
101363.0710481265
101363.6459655529
101363.6708128124
101363.6548284614
101363.5814466756
101363.3971997795
101363.0416027583
101362.4521664957
101361.5679861857
101360.3331636668
101358.7000050057
101356.6323425795
101354.108978962
101351.127332608
101347.7076269921
101343.8989582364
101339.791472113
101335.5454326133
101331.4549695624
101328.0311141787
101325.8901989923
101325.118736277
101325.0047907008
101325.0000381694
101325.0000000083
101324.9999999678
101324.999999968
101324.9999999688
101324.9999999696
101324.9999999706
101324.9999999714
101324.9999999721
101324.9999999727
101324.9999999733
101324.9999999737
101324.999999974
101324.9999999744
101324.9999999748
101324.9999999751
101324.9999999754
101324.9999999758
101324.9999999761
101324.9999999767
101324.9999999774
)
;

boundaryField
{
    inlet
    {
        type            uniformFixedValue;
        uniformValue    sine;
        uniformValueCoeffs
        {
            frequency       constant 3000;
            scale           constant 50;
            level           constant 101325;
        }
        value           uniform 101323.6421297957;
    }
    outlet
    {
        type            pressureOutletNSCBC;
        pInf            101325;
        gamma           1.4;
        etaAc           1;
        fieldInf        1;
        lInf            2.25;
        value           uniform 101324.9999999773;
    }
    frontAndBack
    {
        type            empty;
    }
}


// ************************************************************************* //
