/*--------------------------------*- C++ -*----------------------------------*\
| =========                 |                                                 |
| \\      /  F ield         | OpenFOAM: The Open Source CFD Toolbox           |
|  \\    /   O peration     | Version:  v2012                                 |
|   \\  /    A nd           | Website:  www.openfoam.com                      |
|    \\/     M anipulation  |                                                 |
\*---------------------------------------------------------------------------*/
FoamFile
{
    version     2.0;
    format      ascii;
    class       volScalarField;
    location    "0.007";
    object      pMean;
}
// * * * * * * * * * * * * * * * * * * * * * * * * * * * * * * * * * * * * * //

dimensions      [1 -1 -2 0 0 0 0];


internalField   nonuniform List<scalar> 
1000
(
101325.0306088645
101325.0055277229
101325.0252769045
101325.0439419515
101325.070574803
101325.1027084144
101325.1387903731
101325.1811044517
101325.2263480085
101325.275451812
101325.3257803559
101325.3762983405
101325.4265201546
101325.4761840573
101325.5242973244
101325.5700384856
101325.6122205437
101325.6501821528
101325.6830173644
101325.7103743871
101325.7315775658
101325.7464295181
101325.7544736255
101325.7557283401
101325.7499891698
101325.7375274061
101325.718415864
101325.6931739412
101325.66202252
101325.6254923365
101325.5838154928
101325.5378864069
101325.4891759741
101325.4397106724
101325.3901729664
101325.340829444
101325.2919528174
101325.2441502665
101325.1982191565
101325.1551559282
101325.115975978
101325.0816223843
101325.0528472248
101325.0302140123
101325.01409057
101325.0047256131
101325.0022501332
101325.006696233
101325.0179790022
101325.0359067036
101325.0602217624
101325.090653399
101325.1269225164
101325.1685794732
101325.2145656455
101325.2629272852
101325.311854087
101325.3607717953
101325.4095121102
101325.4578732293
101325.505258986
101325.5510827716
101325.5943494553
101325.6342038235
101325.669541044
101325.6996076868
101325.7235827496
101325.7411001525
101325.7517530027
101325.7555377528
101325.7523454438
101325.7423917147
101325.7257184901
101325.7026195481
101325.6731658656
101325.6376831659
101325.5965279408
101325.5510012944
101325.503096487
101325.4547179523
101325.4063001834
101325.3580359483
101325.3101188849
101325.2629876101
101325.2172336218
101325.1736543397
101325.1331472872
101325.0966983151
101325.0652301512
101325.0395813767
101325.0203679567
101325.008026449
101325.0027449955
101325.0045756004
101325.0134074822
101325.0291072656
101325.0514923945
101325.0804325344
101325.1156891172
101325.1567260637
101325.2021263479
101325.2496851023
101325.2976669145
101325.3456513018
101325.3934797321
101325.4410204174
101325.4877860089
101325.5333310588
101325.5768329145
101325.6175485771
101325.6544485689
101325.6867154711
101325.713394228
101325.7338965721
101325.7476122522
101325.7543672966
101325.7539550864
101325.746540211
101325.7321356557
101325.7110033952
101325.6831789629
101325.6489743654
101325.6088125812
101325.5641349799
101325.5170690752
101325.4695272752
101325.4219382993
101325.3744794959
101325.3272761549
101325.2807061643
101325.2352163667
101325.1915001309
101325.1502990057
101325.112543809
101325.0791124888
101325.050941499
101325.0287743358
101325.0132699703
101325.0048048376
101325.0036275892
101325.0097352116
101325.0230881037
101325.0435183009
101325.0709156129
101325.1049790872
101325.1451023561
101325.1897042066
101325.2365026934
101325.2837162403
101325.33094953
101325.3780486915
101325.4249259909
101325.4711660795
101325.5164145161
101325.5599585008
101325.6011658745
101325.6390969044
101325.6729739527
101325.7018242874
101325.7249616393
101325.741631663
101325.7514713832
101325.7540972554
101325.7495164811
101325.7376397078
101325.7186737266
101325.6926429618
101325.6598914706
101325.6208902949
101325.5771560282
101325.5308728948
101325.4840472701
101325.4371546539
101325.3903740608
101325.3437811626
101325.2977034402
101325.252499029
101325.208770281
101325.1671524624
101325.128489974
101325.0935984683
101325.0634131022
101325.0387220357
101325.0203153638
101325.008722222
101325.0043989793
101325.0075091076
101325.0181807067
101325.0363228915
101325.061881298
101325.0945185161
101325.133570435
101325.1773351373
101325.2234330457
101325.2699901403
101325.3165825698
101325.3630573496
101325.4093644341
101325.4551358201
101325.5000903639
101325.5435951323
101325.5851103809
101325.6237766488
101325.658880651
101325.6894683875
101325.7148341717
101325.734136536
101325.7468902854
101325.7525462306
101325.7509472045
101325.7418541492
101325.7253656959
101325.7014424466
101325.6704130159
101325.6327636538
101325.5900436909
101325.5445093907
101325.4983089247
101325.4520215948
101325.4058303264
101325.3597779506
101325.3141501187
101325.2692380332
101325.2255701727
101325.1836932535
101325.144375877
101325.1083610864
101325.0765540702
101325.0497430546
101325.0287823649
101325.0143034631
101325.0069191326
101325.0069601457
101325.0147275993
101325.0302696185
101325.0536296605
101325.0845155319
101325.1222568276
101325.1650934472
101325.2105165429
101325.2564930686
101325.3025161843
101325.3484426058
101325.3942400252
101325.4395879889
101325.4842531785
101325.5276738636
101325.5693814475
101325.6085922386
101325.644654028
101325.6766561131
101325.7038962211
101325.7255017841
101325.7409029812
101325.7494380551
101325.7508011147
101325.7446111902
101325.7308285628
101325.7093146194
101325.6803223793
101325.6442926949
101325.6027416643
101325.5579786403
101325.5123546082
101325.4666090819
101325.4209494283
101325.3753848442
101325.330175412
101325.2855502493
101325.2419890011
101325.1999559383
101325.1601586202
101325.1232644877
101325.0901399803
101325.061547182
101325.0383668418
101325.021289307
101325.0110372273
101325.0080771566
101325.0128678381
101325.0256065117
101325.0464666652
101325.0752533193
101325.1113666192
101325.1530788374
101325.1977875794
101325.2432254878
101325.2887337732
101325.3341622677
101325.3794923007
101325.4244470935
101325.4688268785
101325.5121361898
101325.5539562706
101325.5935799619
101325.6304020824
101325.6635707548
101325.6923939505
101325.7160053105
101325.7337770988
101325.7449813244
101325.7491879337
101325.7459030193
101325.7349425743
101325.7160637245
101325.6893984069
101325.6552976272
101325.6151477399
101325.5712569554
101325.5261906862
101325.4809499623
101325.4357769837
101325.3906729838
101325.3458542072
101325.3015218973
101325.2580904554
101325.2159797829
101325.1758208154
101325.1382342344
101325.104022999
101325.0739300766
101325.048822299
101325.0294309714
101325.0165397703
101325.0107244303
101325.0125666909
101325.0224034813
101325.0405414494
101325.0669135314
101325.1010602017
101325.1413858146
101325.1852816419
101325.2301900441
101325.275219255
101325.3201790102
101325.3650728273
101325.4096501871
101325.4537517912
101325.4969240851
101325.5388051981
101325.5787382308
101325.6161786384
101325.6503134349
101325.6804901663
101325.7058422973
101325.7257324276
101325.7393720803
101325.746263235
101325.7458002052
101325.7376983069
101325.7215874091
101325.6974939048
101325.6656136636
101325.6271572611
101325.5842979904
101325.5398211367
101325.4950500071
101325.4503437134
101325.4056701735
101325.3612370624
101325.3171919371
101325.2739224603
101325.2317820627
101325.1913627554
101325.1532160868
101325.1181095749
101325.0867373259
101325.0599605359
101325.0385102221
101325.023218501
101325.0147251024
101325.0137140637
101325.0206316978
101325.0359109127
101325.0596219006
101325.0914826532
101325.1301235084
101325.173036276
101325.2173935231
101325.2619592004
101325.3064729719
101325.3509393043
101325.3951549367
101325.4389693837
101325.4819936131
101325.5238841893
101325.5640594871
101325.6019953287
101325.6369515907
101325.6682806358
101325.6951644041
101325.7169318323
101325.7327976914
101325.7421799006
101325.7444299407
101325.7391408149
101325.725873276
101325.704506788
101325.6751130586
101325.6386345583
101325.5970471896
101325.5532231217
101325.508921315
101325.4646524978
101325.4204063591
101325.376342988
101325.3326006138
101325.2895060478
101325.2473905316
101325.2067769922
101325.1681886934
101325.1323270054
101325.0998674618
101325.0716281078
101325.0483535964
101325.03087721
101325.0199008443
101325.0161605648
101325.0202076896
101325.0325643895
101325.0534466977
101325.0827457654
101325.1193870542
101325.1610803384
101325.2048233183
101325.2489375187
101325.2930211411
101325.3370735541
101325.3809281722
101325.4244519786
101325.4673037085
101325.5091672854
101325.5495167911
101325.5878582812
101325.6235065567
101325.6558343951
101325.6840615045
101325.7075088156
101325.7253951098
101325.737089685
101325.7419080419
101325.7393560742
101325.72892889
101325.7103845528
101325.6836611063
101325.6494295749
101325.609377855
101325.5663437633
101325.5225251028
101325.4786916059
101325.4348671802
101325.3911839857
101325.3477509038
101325.3048611543
101325.2628057068
101325.2220661916
101325.1831214865
101325.1466308314
101325.1132321194
101325.0837153624
101325.0588115729
101325.0393574652
101325.0260804056
101325.0197618079
101325.0210197877
101325.0304600033
101325.0484138911
101325.0749508587
101325.1092955166
101325.1494901999
101325.1924911591
101325.2361508939
101325.2798108363
101325.3234601668
101325.3669459089
101325.4101766675
101325.4528272268
101325.4946345788
101325.5350943293
101325.573769798
101325.6099961601
101325.6431981471
101325.6726029729
101325.6975641675
101325.7172802669
101325.7311220163
101325.7383509924
101325.7384425983
101325.7308059409
101325.7151326588
101325.6912062814
101325.6594784797
101325.6212559482
101325.5792181273
101325.5358993576
101325.4924896873
101325.4490680663
101325.4057584892
101325.3626400988
101325.3199738324
101325.2780161561
101325.2372080971
101325.1979889054
101325.1609764759
101325.1267725263
101325.0961359187
101325.0697779666
101325.0485293683
101325.033128435
101325.0243854216
101325.0229643849
101325.0295385029
101325.0445349112
101325.0681826622
101325.0999860914
101325.1383799056
101325.1804475747
101325.2236176651
101325.2668540247
101325.3100909567
101325.3532052248
101325.3961187031
101325.4385506705
101325.4802575319
101325.520784433
101325.5597172604
101325.5964405226
101325.6303974965
101325.6608554733
101325.6871714224
101325.7085645666
101325.7243838409
101325.733884281
101325.736490061
101325.7315772608
101325.7187508005
101325.6976973335
101325.6686360728
101325.6325320996
101325.59173485
101325.5490139873
101325.5060180268
101325.4630036645
101325.4200701016
101325.3772798567
101325.3348580205
101325.2930346299
101325.2522074843
101325.2127857634
101325.1753413007
101325.1404483518
101325.1088253076
101325.0811690584
101325.0582877374
101325.040929928
101325.0299107028
101325.0259360292
101325.0297183873
101325.041773149
101325.062450556
101325.0915169475
101325.1278009635
101325.1686890697
101325.2112989539
101325.2541229909
101325.2969529923
101325.3396975878
101325.3822830255
101325.4244786229
101325.4660510988
101325.5066001993
101325.545725342
101325.5828649349
101325.61747392
101325.6488653031
101325.6763981513
101325.6993200561
101325.7169643237
101325.7285891573
101325.7335807465
101325.7312897936
101325.7212547138
101325.7030786331
101325.676795945
101325.6430480478
101325.6037889994
101325.561810908
101325.5192556619
101325.4766494552
101325.4341065126
101325.391662306
101325.3495171367
101325.3078647121
101325.2670739497
101325.2275112057
101325.189720238
101325.1542318541
101325.121743536
101325.0929161093
101325.0685522479
101325.0493818135
101325.0362385245
101325.0298342063
101325.0309305042
101325.0400882189
101325.0577794681
101325.0839668495
101325.117875122
101325.1572801213
101325.1992100349
101325.2416089638
101325.284044001
101325.3264068146
101325.3686652178
101325.4105954024
101325.4520137566
101325.4925326033
101325.5318016246
101325.5692749507
101325.6044533108
101325.6366630743
101325.6652977957
101325.6896090868
101325.7089456242
101325.7225537807
101325.729811064
101325.7300377219
101325.7227317261
101325.7074218725
101325.6839965942
101325.6528128187
101325.6153928626
101325.574360612
101325.5322716098
101325.4900629335
101325.4478989014
101325.4058018805
101325.3639394514
101325.322482906
101325.2817605727
101325.2421150572
101325.2040450486
101325.1680596232
101325.1348117966
101325.1049489248
101325.0792381673
101325.058412061
101325.0432863356
101325.0345996925
101325.0331222768
101325.0394777634
101325.0542053025
101325.0774553675
101325.1087667683
101325.1463833151
101325.1874245296
101325.2293661204
101325.2713912817
101325.3133696212
101325.3552694197
101325.3969153131
101325.4381313354
101325.4785815027
101325.5179279918
101325.5556740154
101325.5913335974
101325.6242743699
101325.6538990599
101325.6794867956
101325.700386192
101325.7158519687
101325.7252468474
101325.727876702
101325.723203836
101325.7107018419
101325.6901452548
101325.6616556197
101325.6263523807
101325.5865294261
101325.5450010371
101325.5031914541
101325.4614151159
101325.4196782079
101325.378122559
101325.3368943339
101325.2962863542
101325.2566127807
101325.2183343298
101325.1819320997
101325.1480230664
101325.1172324203
101325.0902988083
101325.0679454674
101325.0509736763
101325.040132901
101325.0362005088
101325.039842936
101325.0516549904
101325.0719329289
101325.1004819306
101325.136007934
101325.17591011
101325.2173299053
101325.2589512202
101325.3005464162
101325.3420851154
101325.3834325848
101325.4244240751
101325.4647707738
101325.504147014
101325.5421051431
101325.5781681582
101325.6117510229
101325.6422581587
101325.6690095295
101325.6913426248
101325.7085410266
101325.7199405428
101325.724858844
101325.7227097215
101325.7129466799
101325.6952336193
101325.6695296074
101325.6365717693
101325.5982608779
101325.557431786
101325.5160447424
101325.4746538156
101325.4332884793
101325.3920569996
101325.35108621
101325.3106324805
101325.2709836703
101325.2325630407
101325.1958234285
101325.16134722
101325.1297339535
101325.1016957389
101325.0779386221
101325.0592515864
101325.0463821877
101325.0401168716
101325.0411460442
101325.0501152378
101325.0674245775
101325.0931040859
101325.1262698501
101325.1647387282
101325.2055118534
101325.2467298819
101325.2879412852
101325.3291209534
101325.3701517215
101325.4109021966
101325.4511045273
101325.4904705265
101325.5285746514
101325.5649766081
101325.5991107691
101325.6304129557
101325.6582157549
101325.6818779661
101325.7006845978
101325.7139785318
101325.7210647685
101325.7213447798
101325.7142338626
101325.6993326678
101325.6764518921
101325.64603068
101325.6095249728
101325.5696044344
101325.5286673333
101325.4876588114
101325.4466618786
101325.4057608186
101325.3650636201
101325.3247901595
101325.2852061696
101325.2466951005
101325.2096861529
101325.1747233749
101325.1423850808
101325.1133511328
101325.0883134834
101325.068040846
101325.0532796349
101325.0448146407
101325.0433562596
101325.0495840376
101325.0639802446
101325.0867469957
101325.1173477834
101325.1540653954
101325.1939932463
101325.2347713039
101325.2755921526
101325.3163963695
101325.3570906895
101325.3975649846
101325.4375849015
101325.4768868643
101325.5150803486
101325.5517485512
101325.5863581587
101325.6183636206
101325.6471232642
101325.67200589
101325.6923122976
101325.7073833814
101325.7165261656
101325.7191236321
101325.7145715022
101325.7024131113
101325.6823540889
101325.654587042
101325.6201596012
101325.5814093945
101325.5410101157
101325.5003859687
101325.4597633485
101325.4192066472
101325.3788051485
101325.3387457156
101325.2992705494
101325.2607251418
101325.2235153399
101325.1881456507
101325.1551749564
101325.1252466097
101325.0990413054
101325.0772991994
101325.0607689828
101325.0502211565
101325.0463895164
101325.0499667321
101325.0615108321
101325.0813438923
101325.1092310175
101325.1438984221
101325.182739412
101325.2230114089
101325.2634507637
101325.3038773911
101325.3442329544
101325.3844148235
101325.4242316013
101325.4634320041
101325.50167011
101325.5385414432
101325.5735556266
101325.6061759495
101325.6357982398
101325.6617927862
101325.6834886756
101325.7002173338
101325.711301328
101325.7160995859
101325.7140045494
101325.7045047119
101325.687237032
101325.6621916351
101325.6300703606
101325.5927814498
101325.5530652779
101325.5128398757
101325.472596741
101325.4323939462
101325.3923084095
101325.3524917204
101325.3131654167
101325.2746373095
101325.2372892308
101325.2015893871
101325.1680725384
101325.1373504336
101325.110083792
101325.0869907012
101325.0688092856
101325.0563031553
101325.0502121279
101325.0512480778
101325.0600147912
101325.0769375479
101325.1020058158
101325.1343633084
101325.1718148405
101325.211468375
101325.2515180995
101325.2915755491
101325.3315825514
101325.3714624879
101325.4110457545
101325.4501135788
101325.4883438571
101325.525366032
101325.5607112252
101325.5938741775
101325.6242662023
101325.6512828782
101325.6742596528
101325.692544405
101325.7054541696
101325.712351704
101325.7126068726
101325.7056878481
101325.691158551
101325.6688749438
101325.6392288095
101325.6036998345
101325.5648596829
101325.525072537
101325.4851974887
101325.4453524607
101325.4055879279
101325.3660342036
101325.3268830362
101325.288414482
101325.2509787106
101325.2150150681
101325.1810281532
101325.1496031976
101325.1213761705
101325.0970449334
101325.0773329827
101325.0629949417
101325.0547723565
101325.0533885746
101325.0594834208
101325.0735571001
101325.0957753246
101325.1256270941
101325.1613819771
101325.2002224689
101325.2398474531
101325.2795239686
101325.3191694618
101325.3587209244
101325.3980421437
101325.4369329777
101325.4751089603
101325.512218243
101325.5478292054
101325.5814516748
101325.6125305775
101325.640470427
101325.6646339056
101325.6843687961
101325.6990104071
101325.7079107511
101325.7104460957
101325.706054566
101325.694269402
101325.6748263996
101325.6478752986
101325.6144137914
101325.5766272958
101325.5371369415
101325.4973762505
101325.4576206837
101325.4179076067
101325.3783176554
101325.338989032
101325.3001233151
101325.2619857567
101325.2249022357
101325.1892527876
101325.1554617999
101325.1239847521
101325.0952913596
101325.0698448152
101325.0480761657
101325.030350532
101325.0169152088
101325.0078051625
101325.0026695416
101325.0005617102
101325.0000546568
101325.0000016782
101324.9999999939
101324.9999999828
101324.9999999827
101324.9999999827
101324.9999999826
101324.9999999825
101324.9999999825
101324.9999999825
101324.9999999825
101324.9999999825
101324.9999999824
101324.9999999824
101324.9999999824
101324.9999999824
101324.9999999823
101324.9999999823
101324.9999999823
101324.9999999823
101324.9999999822
101324.9999999821
101324.9999999821
)
;

boundaryField
{
    inlet
    {
        type            calculated;
        value           uniform 101324.9999999999;
    }
    outlet
    {
        type            calculated;
        value           uniform 101324.9999999821;
    }
    frontAndBack
    {
        type            empty;
    }
}


// ************************************************************************* //
