/*--------------------------------*- C++ -*----------------------------------*\
| =========                 |                                                 |
| \\      /  F ield         | OpenFOAM: The Open Source CFD Toolbox           |
|  \\    /   O peration     | Version:  v2012                                 |
|   \\  /    A nd           | Website:  www.openfoam.com                      |
|    \\/     M anipulation  |                                                 |
\*---------------------------------------------------------------------------*/
FoamFile
{
    version     2.0;
    format      ascii;
    class       volScalarField;
    location    "0.007";
    object      rho;
}
// * * * * * * * * * * * * * * * * * * * * * * * * * * * * * * * * * * * * * //

dimensions      [1 -3 0 0 0 0 0];


internalField   nonuniform List<scalar> 
1000
(
1.176297533575527
1.176321237880071
1.176267740522638
1.176224427260701
1.176173971438068
1.176128090684256
1.176089317307421
1.17605676588659
1.176028982716136
1.176010158073754
1.176004892221658
1.176004659397808
1.176007333964185
1.176015711984146
1.176032235593686
1.176057297958882
1.176089931615739
1.176128672650371
1.176172301698812
1.176219961438674
1.176270941639844
1.176324481096694
1.176379695267487
1.176435576565782
1.176491024162962
1.176544924342233
1.176596312187124
1.176644599023692
1.176689728512192
1.176731840529498
1.176769662920472
1.176797769644354
1.176809787355528
1.176811159239995
1.176810630396613
1.176808443204234
1.176802320035339
1.176790275057679
1.176770591765654
1.176742483584053
1.176706286455272
1.176663273340743
1.176615134502382
1.176563453335775
1.176509461117843
1.176454097560443
1.176398194965991
1.176342606589396
1.17628820484137
1.176235729378819
1.176185547115186
1.176137638199129
1.176092429427828
1.176053019929647
1.176026811034511
1.176017889817279
1.176017284752945
1.176017629192284
1.176019784210072
1.176025109838098
1.176035469451143
1.176052453995414
1.176077195197473
1.176110053004293
1.176150514920635
1.176197315783175
1.176248758532453
1.17630310779645
1.176358881464581
1.176414939152223
1.176470429846671
1.176524756568317
1.176577620592671
1.176629009797683
1.176678875993681
1.176726157340029
1.176766801737268
1.176792961264284
1.176801554562536
1.176802180018644
1.176801713939911
1.176800011755637
1.176795482623036
1.176786678192094
1.176772062064356
1.17675038148923
1.176720886209682
1.176683526150307
1.176639002225399
1.176588647735352
1.176534182061584
1.176477407352522
1.176419916041292
1.176362879729323
1.176306974707992
1.176252437592957
1.176199225336219
1.176147434895119
1.176098489264227
1.176057367472902
1.176032478798983
1.176025230805765
1.176024863311565
1.176025164611764
1.176026890089282
1.176031080551054
1.176039197780367
1.176052614474165
1.176072536803552
1.176099790557819
1.176134658994601
1.176176775099441
1.176225128268408
1.176278216553091
1.176334307798625
1.176391725549458
1.176449097835593
1.176505541925457
1.176560730242488
1.176614722601449
1.176667414034738
1.176717348206052
1.17675972457997
1.176786289777666
1.176794790185515
1.176795439247244
1.176795086785673
1.176793777021023
1.17679023745308
1.176783276754356
1.176771568630675
1.176753898296405
1.176729304340394
1.176697250854133
1.176657752989944
1.176611429043114
1.176559460065033
1.176503436775034
1.176445092520377
1.176385986390631
1.176327252833727
1.176269511293727
1.176212996658165
1.176158077716289
1.176106577148913
1.176063955822745
1.176038665756197
1.176031387406288
1.176030976256392
1.176031203101148
1.176032563374892
1.176035942401081
1.176042564562369
1.176053626821229
1.176070263292731
1.176093396653223
1.176123606112021
1.176161001048831
1.176205147666901
1.176255089613665
1.176309467100997
1.176366710526937
1.176425287767441
1.176483968635412
1.176542001911999
1.176599041871441
1.176654650741509
1.176707127238774
1.176751531321335
1.176779589210693
1.176788922809999
1.176789753857716
1.176789498368864
1.176788517540897
1.176785725920758
1.176780105639637
1.176770482569429
1.176755727647206
1.176734849960571
1.176707128318147
1.176672225520043
1.176630275180991
1.176581922794899
1.176528285721661
1.17647080107879
1.176410984639631
1.176350181408509
1.176289400475921
1.176229342862582
1.176170853078332
1.176116218424049
1.176071287082889
1.176044619103638
1.176036719557309
1.176036178641261
1.176036349190434
1.17603743423021
1.176040189592223
1.176045677970503
1.176054963295746
1.176069099862623
1.176089017294722
1.176115416799403
1.1761486601582
1.176188684936747
1.17623497632861
1.176286604329311
1.176342324716587
1.176400752087509
1.176460590591326
1.176520829731718
1.17658074252407
1.176639492269764
1.176695061911255
1.176742341418962
1.176772878975966
1.176783680456997
1.176784831041621
1.176784651795207
1.176783910569414
1.176781681945092
1.176777081879765
1.176769064982583
1.176756589710064
1.176738682653528
1.176714543211499
1.176683640102122
1.176645798938512
1.176601268688484
1.176550734717123
1.176495245376252
1.176436059780848
1.176374464846564
1.176311621574137
1.176248546445663
1.176186490973024
1.17612817733531
1.176079882841096
1.176050663107969
1.176041540622638
1.176040784008372
1.176040894273566
1.176041743895958
1.176043988947306
1.176048577892883
1.176056462788008
1.176068614246142
1.176085930962527
1.176109160678459
1.176138807310681
1.176175050387578
1.176217698712855
1.176266184932329
1.176319607235511
1.176376838094911
1.176436697895913
1.176498120031779
1.176560170139745
1.176621735418344
1.176680572200097
1.17673145495132
1.17676558236364
1.176778707433132
1.176780410311102
1.176780296909755
1.17677976147107
1.176777993421892
1.17677421622723
1.176767485019357
1.176756843419494
1.176741361376019
1.176720216412239
1.176692771389191
1.176658653947515
1.176617827962533
1.17657063048446
1.176517747333403
1.176460128511837
1.176398869116285
1.176335093280236
1.17626993712222
1.176204887571953
1.176142928074329
1.176090572157636
1.176057492072947
1.176046147006459
1.176044949759552
1.176045016699213
1.176045671404985
1.176047494213715
1.176051335128653
1.176058059265524
1.176068566756415
1.176083718916249
1.176104274197671
1.176130812083239
1.176163664704954
1.176202868759876
1.17624813978937
1.176298878236039
1.176354231794163
1.176413216108583
1.176474835624982
1.176538098706138
1.176601770818122
1.176663550996845
1.176718309688599
1.17675701031763
1.176773608080275
1.176776316218263
1.176776273433896
1.176775915972395
1.176774533819431
1.176771448269348
1.176765790668938
1.176756676836442
1.176743224516841
1.176724617131486
1.176700164937857
1.176669372681347
1.176632006027635
1.17658813638576
1.176538144850701
1.176482684919138
1.176422615918713
1.176358928031011
1.176292738693943
1.17622558989835
1.176160470271967
1.176103781664008
1.176065680039037
1.176050888131705
1.176048860884323
1.1760488738977
1.176049352660184
1.176050801285064
1.176053993692061
1.176059725956465
1.1760688370248
1.176082147295504
1.176100407444674
1.176124236327378
1.176154064176404
1.176190086918616
1.176232231545556
1.17628014368512
1.17633322043903
1.176390688699728
1.176451683808898
1.176515254672154
1.176580172038243
1.176644241872649
1.17670268601032
1.176746587447742
1.176767936592171
1.176772384390962
1.176772492109345
1.176772270982404
1.176771218059798
1.176768724685973
1.176763987604488
1.176756182234416
1.176744470203475
1.176728051263721
1.176706212195206
1.176678383328031
1.176644195052408
1.176603522347353
1.176556506131286
1.176503547239349
1.17644527416981
1.176382499986185
1.176316236588147
1.176247951530571
1.17618043561556
1.176119634119766
1.176075767384895
1.17605617043041
1.176052645972024
1.176052590448768
1.176052894061113
1.17605400894119
1.176056618899564
1.176061471955237
1.176069359304787
1.176081064664367
1.176097322642838
1.176118769028907
1.176145894908107
1.176179005414081
1.176218182362399
1.176263263177567
1.17631385513896
1.176369381546466
1.17642912662341
1.176492233288783
1.176557560071478
1.176623129398729
1.176684705178068
1.176733916754118
1.176761153818439
1.176768423799664
1.176768877297582
1.176768751553597
1.176767977899006
1.176766001558465
1.176762069557613
1.17675540925049
1.176745219925871
1.176730721367333
1.17671119215617
1.176686016702211
1.176654734135339
1.176617079535673
1.176573011172243
1.176522722584195
1.176466636964299
1.176405389425607
1.176339848878517
1.176271329402791
1.176202301801069
1.176138018928121
1.176088212625785
1.176062491826085
1.176056426765834
1.17605613853743
1.176056331872169
1.176057154824518
1.176059255802592
1.176063330085175
1.176070130417597
1.176080409488481
1.176094885662782
1.176114203516438
1.176138894112055
1.176169336265728
1.176205722923516
1.176248040378487
1.176296067390311
1.17634939356829
1.176407445477665
1.176469489286381
1.176534521792661
1.176600826154888
1.176664779902568
1.1767188979892
1.176752728951767
1.176764117382425
1.176765310830723
1.17676524205772
1.176764723920033
1.176763208336829
1.176760004204039
1.176754372559621
1.176745545710973
1.176732762301581
1.176715300268512
1.176692517479429
1.17666389426646
1.176629067820099
1.176587859141001
1.17654029798941
1.176486637018585
1.17642734733017
1.17636313917781
1.176295136836862
1.176225451408577
1.176158547048252
1.176103199045917
1.176070426836326
1.176060453587336
1.176059585022983
1.17605971588224
1.176060282594781
1.176061937269489
1.176065313948467
1.176071137392319
1.176080133687675
1.176093006648383
1.176110401576022
1.176132874749556
1.176160859760958
1.176194632446441
1.176234287836365
1.176279737396787
1.17633071559543
1.176386782701576
1.176447318367643
1.17651145344642
1.17657774537132
1.176643213640521
1.176701480002464
1.176742156084299
1.176759150757282
1.176761865131591
1.176761906124354
1.176761549989794
1.176760420894358
1.176757833642065
1.176753100119629
1.176745478146466
1.176734225971486
1.176718626915407
1.176698024152356
1.176671855067782
1.176639683257812
1.176601228862509
1.176556396271947
1.176505292126219
1.176448234472717
1.176385784969223
1.176318886774335
1.17624929380682
1.176180674964448
1.176120596382188
1.17608047123723
1.176065141250686
1.176063065989133
1.176063102128559
1.176063474283735
1.176064725217902
1.176067467341249
1.176072395648891
1.176080214555138
1.17609161564846
1.17610724606135
1.176127679880401
1.176153387457026
1.176184705621222
1.176221816151037
1.176264734821657
1.176313306583346
1.176367204562946
1.176425926607463
1.176488741838062
1.17655444536182
1.176620624332294
1.176682054982584
1.176729168515899
1.176752954817562
1.176758336566062
1.176758564855585
1.176758370557397
1.176757562235813
1.176755522511393
1.176751592778773
1.176745056958149
1.176735191553678
1.176721288744077
1.176702684313534
1.176678786903178
1.176649108368625
1.176613293541314
1.176571147078672
1.176522655616636
1.176468008096369
1.176407631115379
1.176342292912605
1.176273422230709
1.176203974718419
1.176140227970492
1.176093018951075
1.176070906766246
1.176066534693467
1.176066414234018
1.176066637867777
1.17606755216483
1.176069742070499
1.176073868263757
1.176080619138447
1.176090676183584
1.176104686835984
1.176123237912692
1.176146827393739
1.176175837951711
1.176210517100433
1.176250963574673
1.176297116502657
1.176348749046472
1.176405464335434
1.176466656555422
1.176531329976582
1.176597547359966
1.176661120790238
1.176713736068695
1.176744909047279
1.176754398231936
1.1767552220043
1.17675511021804
1.176754567657098
1.176753003690707
1.176749798119557
1.176744258526553
1.176735676866615
1.176723350157436
1.176706608372545
1.176684839401589
1.176657515207265
1.176624221419196
1.176584686685348
1.176538805418125
1.176486658208236
1.176428548601884
1.176365090466243
1.176297441043346
1.176227946767558
1.176161650899761
1.176108171410592
1.176078344206929
1.176070238405861
1.176069682794025
1.176069793267327
1.176070432116538
1.176072132050547
1.176075540048787
1.176081321972482
1.176090149731281
1.176102668535204
1.176119472741683
1.176141080684672
1.176167911334961
1.17620026459782
1.17623830478843
1.176282047523162
1.176331352295932
1.176385916139623
1.176445241467061
1.176508507468962
1.176574175001934
1.176638967290325
1.176696005389051
1.176734638055689
1.176749812366933
1.17675197393837
1.17675195371386
1.17675161110066
1.176750450737886
1.17674787822633
1.176743222747374
1.176735792012176
1.176724892224037
1.176709852824325
1.176690049726356
1.17666492954904
1.176634035239994
1.176597032266843
1.176553734349379
1.176504129663744
1.176448414660657
1.176387060663972
1.176320989596721
1.176252061268691
1.176184274096819
1.176125753758889
1.176088040930123
1.176074597746428
1.176072991048406
1.17607303539475
1.176073450435376
1.176074733118269
1.176077492291652
1.176082379137427
1.176090055623395
1.176101167722433
1.17611631950031
1.176136048260744
1.176160803072995
1.176190926853027
1.176226638803611
1.176268018139887
1.176314995460447
1.176367348666659
1.176424677815415
1.176486307975875
1.176551005631171
1.176616218878297
1.176676443647546
1.176721853891187
1.176743938289693
1.176748600754508
1.176748753788378
1.176748575182262
1.176747740909657
1.176745720725854
1.176741862528286
1.1767354910179
1.176725919655092
1.17671247741211
1.176694529609845
1.176671500846485
1.176642899408919
1.176608342259851
1.176567579924197
1.176520522876235
1.17646727424304
1.176408184424443
1.176343981058333
1.176276126538708
1.17620774266345
1.176145439046855
1.176100263015306
1.176080012742412
1.176076310433397
1.176076235629904
1.176076475865403
1.176077405237007
1.176079594119454
1.176083673555305
1.176090298992762
1.176100115089676
1.176113731793195
1.176131701243947
1.176154497147844
1.176182496144365
1.176215960814912
1.176255025574376
1.176299686618953
1.176349792618899
1.176405023794489
1.17646482711877
1.176528217350851
1.17659321174703
1.176655494000643
1.176706588694278
1.17673621893848
1.176744881443185
1.176745575384221
1.176745477553639
1.176744915515523
1.176743368243311
1.176740217874188
1.176734806719768
1.176726458318675
1.176714503108514
1.176698299328571
1.176677254952575
1.176650850941242
1.176618664124775
1.176580390374234
1.17653587153689
1.176485128536425
1.176428407224069
1.176366273992188
1.176299876293033
1.176231636633704
1.17616678786355
1.176115119535202
1.17608707961122
1.176079822924831
1.176079372024257
1.176079508254033
1.176080144459692
1.176081843214111
1.176085206596662
1.176090878365848
1.176099499270172
1.176111682549714
1.176127991563702
1.176148921207482
1.17617487948393
1.176206168438494
1.176242969025598
1.176285332658041
1.176333172331965
1.176386241751446
1.176444087123714
1.176505913326781
1.176570181207005
1.176633564674049
1.176689103910954
1.176726255940937
1.176740495768103
1.176742436933472
1.176742427455922
1.176742065954179
1.176740923692206
1.176738396583532
1.176733849897716
1.176726618177381
1.176716036070041
1.176701457985195
1.176682279311459
1.176657957843295
1.176628036313911
1.176592166161112
1.176550133043961
1.176501885952932
1.176447577387782
1.17638764036666
1.176322979269702
1.176255476685616
1.176189211498677
1.176132403018407
1.176096401043151
1.17608397006833
1.176082567481088
1.176082620116697
1.17608304125424
1.176084319951751
1.176087042325344
1.176091835737055
1.176099335948316
1.176110160835895
1.176124886941463
1.176144029328264
1.176168022565085
1.176197203035494
1.176231794721028
1.176271898640145
1.176317482173438
1.17636836287883
1.176424175267645
1.17648427607496
1.176547455269232
1.176611155342284
1.176669848730019
1.176713795554863
1.176734858664588
1.176739199909655
1.176739342637071
1.176739140952457
1.176738327873399
1.176736342237125
1.176732572440924
1.17672636471486
1.176717059113793
1.176704008385504
1.176686598529237
1.176664269231309
1.176636534777788
1.1766030071588
1.176563421858944
1.176517665573556
1.176465810360398
1.176408174305247
1.176345463357361
1.176279139514161
1.176212348911875
1.17615173076669
1.176108221759145
1.176089123554143
1.17608576565679
1.176085713656978
1.176085950160236
1.176086875910471
1.176089032174701
1.176093034022375
1.176099511726237
1.176109083589688
1.176122333545499
1.176139791183354
1.176161913157909
1.17618906628622
1.176221513237974
1.176259400352601
1.17630274573797
1.176351425524118
1.176405149961711
1.176463396295547
1.176525203727812
1.176588603208456
1.176649297037338
1.176698900650625
1.176727416269332
1.176735620373795
1.176736257296638
1.176736152851591
1.176735603280767
1.176734085477467
1.176731008638443
1.176725734788482
1.176717610532537
1.176705988900679
1.176690249598904
1.17666981817325
1.17664418602111
1.176612932239064
1.176575747691718
1.176532461464318
1.176483073002662
1.176427802532092
1.176367196572195
1.176302393564905
1.176235813407496
1.176172678010096
1.176122680097667
1.176095903526329
1.176089141602555
1.1760887465638
1.176088874698971
1.176089515990911
1.176091190204771
1.176094490045251
1.176100034117681
1.176108439364013
1.176120296555037
1.176136150309039
1.17615647886087
1.176181676440016
1.176212040148511
1.17624775768663
1.176288892843347
1.176335372128086
1.176386970401874
1.176443265997568
1.176503491887041
1.176566121866003
1.176627856078684
1.176681836889893
1.176717763314706
1.176731395259051
1.176733219796455
1.1767331824843
1.176732846626726
1.176731718406839
1.176729251723721
1.176724819430483
1.176717779398215
1.176707486827794
1.176693316435902
1.176674681469024
1.176651053336439
1.176621982520883
1.176587121308678
1.176546249020696
1.17649930195473
1.176446415748258
1.176388005337637
1.176324958232378
1.176259141403731
1.176194609770404
1.176139499644971
1.176104883704649
1.176093131482212
1.17609184639389
1.176091901012643
1.176092319791125
1.176093577973711
1.176096245605441
1.176100929806964
1.176108245145329
1.176118788217968
1.176133115085849
1.176151721665447
1.176175026577338
1.17620335607091
1.176236930263661
1.17627585059829
1.176320088335272
1.176369469468806
1.176423640373827
1.176481972235796
1.176543291235486
1.176605166998852
1.176662417216753
1.176705858147107
1.176727379731661
1.176732146371407
1.176732352379796
1.176732219853969
1.176731611447312
1.176730083860027
1.176727135610083
1.17672224859575
1.176714917844164
1.17670467988244
1.17669113924546
1.176673996016774
1.176653074381272
1.17662835285399
1.176599999018951
1.176568419848593
1.176534362686061
1.176499156296604
1.176465239486722
1.176436849679789
1.176419097579604
1.176412700718395
1.176411755896107
1.176411716488694
1.176411716172267
1.176411716171931
1.176411716171933
1.176411716171939
1.176411716171946
1.176411716171953
1.17641171617196
1.176411716171965
1.176411716171969
1.176411716171975
1.176411716171979
1.176411716171983
1.176411716171986
1.176411716171989
1.176411716171992
1.176411716171996
1.176411716172
1.176411716172004
1.176411716172008
1.176411716172009
)
;

boundaryField
{
    inlet
    {
        type            calculated;
        value           uniform 1.176395950917642;
    }
    outlet
    {
        type            calculated;
        value           uniform 1.17641171617199;
    }
    frontAndBack
    {
        type            empty;
    }
}


// ************************************************************************* //
