/*--------------------------------*- C++ -*----------------------------------*\
| =========                 |                                                 |
| \\      /  F ield         | OpenFOAM: The Open Source CFD Toolbox           |
|  \\    /   O peration     | Version:  v2012                                 |
|   \\  /    A nd           | Website:  www.openfoam.com                      |
|    \\/     M anipulation  |                                                 |
\*---------------------------------------------------------------------------*/
FoamFile
{
    version     2.0;
    format      ascii;
    class       volScalarField;
    location    "0.007";
    object      T;
}
// * * * * * * * * * * * * * * * * * * * * * * * * * * * * * * * * * * * * * //

dimensions      [0 0 0 1 0 0 0];


internalField   nonuniform List<scalar> 
1000
(
299.9874929549914
299.9892567586953
299.9829408937174
299.9782976576112
299.9738769026159
299.9700543785328
299.9665729489397
299.963434478697
299.960702355873
299.9589082016982
299.9584855276296
299.9586013702173
299.9590098948481
299.9598891681524
299.9615392555762
299.9640460959166
299.9673227808231
299.9712221465897
299.9756219144534
299.98043827019
299.9856030051504
299.9910415470669
299.9966644880437
300.0023676201914
300.0080356816119
300.0135514501796
300.0188129976865
300.0237573303201
300.0283764944579
300.0326834813732
300.0365482310343
300.0394175291869
300.0406413972003
300.0407777719398
300.040718368186
300.0404884255634
300.0398593247141
300.0386279210269
300.0366183369846
300.0337502074099
300.0300575896838
300.0256699586163
300.020759348757
300.0154869697661
300.0099782194902
300.0043288770807
299.9986238873552
299.9929504299324
299.9873976929634
299.9820413284647
299.9769189265255
299.9720285592584
299.967413840042
299.9633911364263
299.9607159455042
299.9598054165759
299.9597437867422
299.959779147823
299.9599992786637
299.9605429376655
299.9616003936595
299.9633340589322
299.9658594424974
299.9692132665966
299.9733431915757
299.9781200449321
299.9833705726012
299.9889176201398
299.9946098959937
300.0003309996371
300.0059940757239
300.0115382043911
300.0169329102809
300.0221769686838
300.0272654749197
300.032090091488
300.0362373713194
300.038906589844
300.0397834094017
300.0398472299709
300.0397996772998
300.0396259998058
300.0391638714162
300.0382655056139
300.0367741271406
300.0345618943334
300.0315522273656
300.0277399807617
300.0231966331451
300.0180581939492
300.0125000796746
300.0067061692613
300.0008389587971
299.9950180135513
299.9893123605816
299.9837461595254
299.9783150279453
299.9730288723968
299.9680329503461
299.9638355119972
299.9612949935693
299.9605551465041
299.9605176356632
299.9605483936515
299.9607245256055
299.9611522716687
299.9619808425612
299.9633503505373
299.9653839023817
299.9681657678208
299.9717248278748
299.9760235807753
299.9809588312865
299.9863772396511
299.9921019835302
299.9979619431743
300.0038170920931
300.0095773472311
300.0152092881374
300.0207190290577
300.0260958680032
300.0311912093856
300.0355152367623
300.0382258592691
300.0390932040137
300.0391594327856
300.0391234709081
300.0389898300464
300.0386286682257
300.0379184257177
300.0367237676546
300.0349207309175
300.0324111973075
300.029140455654
300.0251100149056
300.0203829235184
300.0150796564329
300.009362502699
300.0034083223209
299.9973762106682
299.991381942855
299.985488744697
299.979720598806
299.974115156838
299.9688584742358
299.964507988432
299.9619265053386
299.9611835616267
299.9611415945347
299.9611647523111
299.9613036054315
299.9616485228131
299.9623244828304
299.963453661371
299.9651518137873
299.9675131053015
299.9705966327891
299.9744135271561
299.9789194704047
299.9840168070654
299.9895667107191
299.9954089533629
300.0013871486277
300.0073757414399
300.0132980697429
300.0191188591369
300.0247934458702
300.0301482406966
300.0346791942196
300.0375421371626
300.0384945006251
300.0385792992294
300.03855323262
300.0384531555761
300.0381683113056
300.0375948396527
300.0366129335264
300.035107379518
300.0329770540479
300.030148346488
300.026586818628
300.0223060660668
300.0173719134738
300.0118983390075
300.0060319604318
299.9999274370115
299.9937220169982
299.9875186810508
299.9813889789655
299.9754191141196
299.9698425658699
299.9652563096928
299.9625341855449
299.9617278357121
299.9616726232992
299.9616900350981
299.9618007941217
299.9620820507055
299.9626422792343
299.9635900774699
299.9650330554127
299.9670660913818
299.9697607404759
299.9731539028384
299.9772391704797
299.9819639574051
299.9872333000735
299.9929201710912
299.9988831459219
300.0049899543357
300.0111374620007
300.0172514783361
300.0232466255218
300.0289170895771
300.0337414752259
300.0368574489218
300.0379595926814
300.0380769959723
300.0380587090128
300.0379830805103
300.0377556822663
300.0372863094289
300.0364682917813
300.0351953480033
300.0333681438802
300.0309049708043
300.0277515924221
300.0238901810786
300.0193461020239
300.0141892494044
300.0085265618616
300.0024864950947
299.9962003548811
299.9897866110539
299.9833489976578
299.9770152500896
299.9710632300843
299.9661337136715
299.9631511307682
299.962219950962
299.9621427212913
299.9621539797562
299.962240708419
299.9624698745437
299.9629382928333
299.9637431420031
299.9649834918648
299.9667510665633
299.9691221752273
299.9721482311842
299.9758475288731
299.9802005164049
299.9851492451522
299.990601631766
299.9964425625176
300.002551618617
300.0088199270197
300.0151521226811
300.0214346431042
300.0274385431547
300.0326306360068
300.0361129252188
300.0374521627191
300.0376259198541
300.0376143511045
300.0375597201161
300.0373793168825
300.0369939061879
300.0363070754848
300.0352212346921
300.0336414759964
300.0314838623591
300.0286833606677
300.0252019472901
300.0210359003855
300.0162195724284
300.010822904745
300.0049428014391
299.9986909817765
299.9921821398707
299.9855322063582
299.9788929320308
299.9725688351426
299.9672247953143
299.9638481840964
299.9626901359648
299.9625679282635
299.9625747636204
299.9626415956619
299.9628276607094
299.9632197228684
299.963906087089
299.9649786299497
299.9665252620535
299.9686233890148
299.9713321415013
299.9746853950094
299.9786868627268
299.9833074727691
299.9884859905333
299.9941353875723
300.0001551651025
300.0064436909896
300.0128997439914
300.0193973281384
300.0257016410258
300.0312892790866
300.0352382315627
300.0369318152304
300.0372081451503
300.0372037812935
300.0371673097557
300.0370262813543
300.0367114428864
300.0361341588214
300.0352042067831
300.0338315577211
300.0319328792002
300.0294377743581
300.0262956839157
300.022482664929
300.0180059661562
300.012904433602
300.0072447103279
300.0011144480066
299.9946146599962
299.9878593581097
299.9810058997043
299.9743593183778
299.9685730803554
299.964683922245
299.9631740410333
299.9629671104665
299.9629684405371
299.9630173123829
299.9631651818946
299.9634910467519
299.9640761649654
299.9650061684665
299.9663647928628
299.9682286524159
299.9706609000045
299.9737054284238
299.9773822074828
299.9816837507598
299.9865738498905
299.9919909301138
299.9978560478101
300.0040809220852
300.0105684597396
300.0171931933016
300.0237312201986
300.029694978872
300.0341746444209
300.0363530517939
300.0368068907563
300.0368178831112
300.0367953216692
300.036687886196
300.0364334706358
300.0359501126046
300.0351536719028
300.0339585984592
300.0322832283229
300.0300547721071
300.027215081109
300.0237264129618
300.0195759758892
300.0147781092614
300.0093736722435
300.0034267566027
299.997020293148
299.9902575129193
299.9832881641465
299.97639707449
299.9701910893062
299.9657134980981
299.9637131490568
299.9633533906116
299.9633477241465
299.9633787165566
299.963492518537
299.9637589292761
299.9642543017636
299.9650593945115
299.9662541999805
299.9679136942826
299.9701027614609
299.9728715090498
299.9762510573509
299.9802497260252
299.984850884988
299.9900144113491
299.9956814048167
300.0017787741885
300.0082190136089
300.0148856045361
300.0215767220665
300.0278601033737
300.0328816520522
300.0356608600885
300.036402665821
300.0364489399129
300.036436110302
300.036357169758
300.0361555100134
300.0357542992651
300.0350746971331
300.034034997376
300.0325555816839
300.0305628265617
300.0279939008968
300.0248017538565
300.0209593218551
300.0164623089384
300.0113304217181
300.0056067995043
299.9993562087771
299.9926672807018
299.9856740899152
299.9786287896609
299.9720675305131
299.9669837145886
299.9643582897273
299.9637391999463
299.9637097795883
299.9637295147803
299.9638135177514
299.96402797391
299.9644438528288
299.9651379886486
299.9661872076369
299.9676648293378
299.9696366369388
299.9721568213811
299.9752640271063
299.9789779201213
299.9832970676985
299.9881988505186
299.9936413417632
299.9995659749189
300.0058978175559
300.0125344546186
300.0193006580606
300.0258267659515
300.0313490266589
300.0348010829833
300.0359631248223
300.0360849008148
300.0360778837874
300.0360250148757
300.0358703689534
300.0355434272134
300.0349687866481
300.0340681109267
300.0327637074811
300.0309818890897
300.0286571190346
300.0257363500841
300.0221825334386
300.0179773691164
300.0131238531065
300.0076477220447
300.0015970031528
299.9950441315859
299.9881038033209
299.980991447471
299.9741626947404
299.9685132823508
299.9651681128638
299.9641500975617
299.9640614392953
299.9640747968606
299.9641326438225
299.964301543354
299.9646462143116
299.9652406346621
299.9661589160272
299.9674728938819
299.9692484273025
299.9715422835595
299.9743987010619
299.9778458095312
299.9818932777474
299.9865320333178
299.9917349349528
299.9974570610688
300.0036350582287
300.0101801870516
300.0169452009765
300.0236259341841
300.0295715508938
300.0337221045959
300.0354561973149
300.0357331639649
300.0357373468326
300.0357010078349
300.035585797695
300.0353218003631
300.0348388015253
300.034061068622
300.0329129106342
300.0313211913293
300.029218876999
300.0265485410771
300.0232656284552
300.0193415504295
300.0147665124857
300.0095513527448
300.0037284791868
299.99735515995
299.9905276015877
299.9834247691617
299.9764211075019
299.9702889067428
299.9661932301449
299.9646284334041
299.9644166019501
299.9644202908184
299.9644582781439
299.9645859658238
299.9648658646482
299.965368914515
299.9661670154397
299.9673307560076
299.9689261837001
299.9710118855318
299.9736358545803
299.9768324491102
299.9806201949999
299.985000668784
299.9899580070656
299.9954588069677
300.001451776449
300.0078622837034
300.014567330754
300.0213206677788
300.0275892448312
300.0323967143959
300.0348238201469
300.0353729584964
300.0353962524168
300.035376426558
300.0352939470878
300.0350858178246
300.0346848354814
300.0340179311989
300.0330112775285
300.0315926434541
300.0296942431736
300.0272557196347
300.0242272411517
300.0205725376601
300.0162716406485
300.0113231446836
300.0057462837508
299.9995845421662
299.9929162717861
299.9858872431346
299.9787990894784
299.9722925550957
299.9674738531167
299.9652167797678
299.9647705029324
299.9647582069459
299.9647810338852
299.9648743594032
299.965097890869
299.9655190655259
299.9662081485578
299.9672346984763
299.9686647950976
299.9705583266486
299.9729661085813
299.9759271809889
299.9794667821358
299.9835949586293
299.9883054613994
299.9935750985005
299.9993633227105
300.0056082638678
300.0122082650792
300.0189656023999
300.0254529107137
300.0308218329464
300.0340026814856
300.0349709335924
300.0350549889662
300.0350435823086
300.0349882202423
300.0348286359994
300.0345015452264
300.033936293869
300.0330606317253
300.0318028226772
300.0300944896907
300.0278731604996
300.0250849354962
300.021687506667
300.0176531523903
300.0129710590423
300.0076494056248
300.0017191195143
299.9952427967246
299.9883384939889
299.9812456553782
299.974479017664
299.9690203344645
299.9659757799206
299.9651483868735
299.9650916730408
299.9651029492125
299.9651681585358
299.9653416765108
299.9656895420986
299.9662797208085
299.96718079401
299.9684586152894
299.9701738440762
299.9723793754002
299.9751179567638
299.9784201766625
299.9823027780111
299.9867673209037
299.9917994263807
299.9973681317007
300.0034226112608
300.0098790565532
300.0165803624182
300.023192127051
300.0290124221863
300.0329544790388
300.034502832883
300.034723394029
300.0347213300969
300.0346863701436
300.0345679685844
300.0343054737071
300.0338304355233
300.0330722120909
300.0319600055046
300.0304253858462
300.0284046607526
300.0258413470291
300.0226887842627
300.0189128068686
300.0144943699754
300.0094322244171
300.0037463699236
299.9974848552322
299.9907417179948
299.9837067284262
299.9767879623627
299.9708148228153
299.9669653886456
299.9655931915391
299.9654291891517
299.9654337154604
299.9654760797264
299.9656070072071
299.9658886447215
299.966387459638
299.9671710190655
299.968305255366
299.9698518202616
299.9718655468491
299.9743922570066
299.9774669318097
299.9811119190402
299.9853352725165
299.9901298724877
299.995473010959
300.0013238277459
300.0076134002112
300.0142158078672
300.0208706088961
300.0270161488968
300.0316498289121
300.0339032849445
300.0343790318191
300.0343946468011
300.0343764218115
300.0342912937315
300.0340851571666
300.0336914720025
300.033041330306
300.0320646754435
300.0306930308415
300.028861625015
300.026511730014
300.0235931513073
300.0200667767567
300.0159071158876
300.0111049931176
300.0056708866341
299.9996405053399
299.9930880574038
299.9861627470165
299.9791831643758
299.972823941912
299.9682127640127
299.9661457513859
299.9657678420949
299.9657602063586
299.9657847276558
299.9658795913002
299.9661030171085
299.9665194168975
299.9671956927044
299.9681976434139
299.9695875222221
299.971421678233
299.9737484500012
299.9766062630808
299.9800218953601
299.9840090372097
299.9885672662739
299.993681098992
299.999317857296
300.0054210588524
300.0118901170755
300.0185226636307
300.024878230451
300.0300920069998
300.0331154490369
300.0339993529861
300.0340701610361
300.0340601782933
300.0340028284746
300.033844946855
300.0335234871837
300.0329713387796
300.032119473997
300.0308995668137
300.0292461246465
300.0270987252007
300.0244043880554
300.021119908743
300.0172142227607
300.0126711543705
300.0074927954864
300.0017041871228
299.9953630811924
299.9885865355899
299.9816217583694
299.9750028364267
299.9697290351643
299.9668669250985
299.9661262083213
299.9660801830225
299.9660940881733
299.9661590273379
299.9663324240517
299.9666757338734
299.9672546659378
299.9681346207079
299.9693781884811
299.9710428648604
299.973179153037
299.9758286819943
299.9790222600723
299.9827783302766
299.9871021082699
299.9919846776771
299.9974008613618
300.0033043045502
300.0096138209985
300.0161723046778
300.022640320752
300.0283076862996
300.0320986745294
300.0335516824042
300.0337497548905
300.0337487875761
300.0337119001483
300.0335953450536
300.0333374818056
300.0328735425286
300.0321356229014
300.0310558273331
300.0295682737482
300.0276112574509
300.0251294363852
300.02207612944
300.0184157409404
300.0141263643937
300.009202753793
300.0036604255342
299.9975435207178
299.9909442878027
299.9840548225492
299.9772914137064
299.9714930194747
299.967818230077
299.9665493589802
299.9664061917874
299.9664115642566
299.9664545507364
299.9665850708467
299.9668629508006
299.9673522263247
299.9681177893397
299.9692227042665
299.9707258134982
299.9726796804188
299.9751286475983
299.9781070305118
299.9816376662442
299.985730835839
299.990383175643
299.995576026997
300.001272047816
300.0074055485222
300.0138530061926
300.0203534070205
300.026342697501
300.030827066554
300.0329763216487
300.0334192942671
300.0334338577437
300.0334132778786
300.0333303120765
300.0331276998112
300.0327430332648
300.0321096010642
300.0311600600908
300.0298283598257
300.0280518390663
300.025773310056
300.0229431913997
300.0195218649013
300.0154823070035
300.010812917509
300.005521006052
299.9996389857816
299.9932388531498
299.9864697732231
299.9796528208837
299.9734656487802
299.9690246424971
299.9670752340914
299.9667324820289
299.966727174079
299.9667513144406
299.96684580811
299.9670659035266
299.9674743818221
299.9681355750615
299.969112591916
299.9704650302658
299.9722469376816
299.974504912878
299.9772763797993
299.9805881266837
299.9844550626706
299.9888790037136
299.9938472708586
299.9993302528734
300.0052745585863
300.0115820972435
300.0180518985974
300.0242453924884
300.0293070352026
300.0322167545332
300.033053888407
300.033118878868
300.0331082212782
300.0330521434976
300.0328972682342
300.0325833101242
300.0320451697465
300.0312161729256
300.0300302989017
300.0284242457025
300.0263393845541
300.0237238007897
300.0205345223687
300.0167399754462
300.0123226838361
300.0072825497564
300.0016420012316
299.9954567641561
299.988842978693
299.9820475877721
299.9756035614084
299.9705002777248
299.9677671332714
299.9670769222245
299.967036599271
299.9670496782489
299.9671151364535
299.9672860275648
299.9676228500056
299.9681887452186
299.9690466834912
299.9702569615978
299.9718751623991
299.9739500889845
299.9765219652704
299.9796210961752
299.983266614718
299.9874650014999
299.992208721317
299.9974747583777
300.003220038528
300.0093662442781
300.0157575922294
300.0220573247256
300.0275656830536
300.0312316258847
300.0326226130526
300.0328087860629
300.0328049786866
300.0327707079934
300.032655585336
300.0324038867991
300.03195161808
300.0312332550507
300.0301829992613
300.0287370408411
300.0268354976275
300.0244244174574
300.0214579109837
300.017900470485
300.013729544416
300.0089385935423
300.0035414156835
299.9975803089125
299.9911458020719
299.9844283986658
299.9778419417778
299.9722169154139
299.9686836156966
299.9674840329098
299.9673528600154
299.967358435037
299.967401180718
299.9675296063575
299.9678018975252
299.968280023618
299.9690267129847
299.9701028579278
299.9715652104285
299.9734643798737
299.9758430816378
299.9787345978036
299.9821613724214
299.9861337315437
299.9906487095308
299.9956885109916
300.0012170069976
300.0071699850619
300.0134276198316
300.0197418721249
300.025583917102
300.0300166831045
300.032212730096
300.0326991112855
300.0327201320775
300.0327066092408
300.0326445279238
300.0324886541021
300.032187816621
300.0316891478996
300.0309411190055
300.0298964341018
300.0285147347779
300.0267654099324
300.0246305091861
300.0221078277858
300.0192144523577
300.0159918974007
300.0125164128883
300.0089235875777
300.005462302198
300.002565011351
300.0007533164804
300.0001004788532
300.0000040540569
300.0000000322991
300.0000000000057
299.9999999999713
299.9999999999715
299.9999999999723
299.9999999999731
299.9999999999741
299.9999999999748
299.9999999999756
299.9999999999761
299.9999999999764
299.9999999999765
299.9999999999766
299.9999999999768
299.9999999999771
299.9999999999773
299.9999999999774
299.9999999999774
299.9999999999774
299.999999999978
299.99999999998
)
;

boundaryField
{
    inlet
    {
        type            fixedValue;
        value           uniform 300;
    }
    outlet
    {
        type            temperatureOutletNSCBC;
        pInf            101325;
        gamma           1.4;
        etaAc           1;
        fieldInf        1;
        lInf            2.25;
        value           uniform 299.9999999999843;
    }
    frontAndBack
    {
        type            empty;
    }
}


// ************************************************************************* //
