/*--------------------------------*- C++ -*----------------------------------*\
| =========                 |                                                 |
| \\      /  F ield         | OpenFOAM: The Open Source CFD Toolbox           |
|  \\    /   O peration     | Version:  v2012                                 |
|   \\  /    A nd           | Website:  www.openfoam.com                      |
|    \\/     M anipulation  |                                                 |
\*---------------------------------------------------------------------------*/
FoamFile
{
    version     2.0;
    format      ascii;
    class       volVectorField;
    location    "0.007";
    object      U;
}
// * * * * * * * * * * * * * * * * * * * * * * * * * * * * * * * * * * * * * //

dimensions      [0 1 -1 0 0 0 0];


internalField   nonuniform List<vector> 
1000
(
(-0.002783872055933597 0 0)
(-0.03443434158349507 0 0)
(-0.04262314175935435 0 0)
(-0.057791888546146 0 0)
(-0.07167159500423595 0 0)
(-0.08459076548518113 0 0)
(-0.09561547249770586 0 0)
(-0.105043534963806 0 0)
(-0.1131714508468766 0 0)
(-0.1186737782825738 0 0)
(-0.1201448645294916 0 0)
(-0.1199946440266197 0 0)
(-0.1191737607182538 0 0)
(-0.1166562531294511 0 0)
(-0.1118118750390736 0 0)
(-0.1044546706875068 0 0)
(-0.09486390010697453 0 0)
(-0.08346904436166976 0 0)
(-0.07063163736283073 0 0)
(-0.05660286996572905 0 0)
(-0.04158442059083568 0 0)
(-0.02579587052128513 0 0)
(-0.009504056991557276 0 0)
(0.00698670962097574 0 0)
(0.02335722673186627 0 0)
(0.03928683150694092 0 0)
(0.05447885591798818 0 0)
(0.06873764822989983 0 0)
(0.08205183015403926 0 0)
(0.09449413979627989 0 0)
(0.1056889244423041 0 0)
(0.1139861092136027 0 0)
(0.1174973318519708 0 0)
(0.1178823708918923 0 0)
(0.1177830366403985 0 0)
(0.1170908493447585 0 0)
(0.1152932737148921 0 0)
(0.1117345629148956 0 0)
(0.1059235732243153 0 0)
(0.09762758530274129 0 0)
(0.08694721031137617 0 0)
(0.07425418222909032 0 0)
(0.06004452330857965 0 0)
(0.04478968485227402 0 0)
(0.02885732165307652 0 0)
(0.01251896652983802 0 0)
(-0.003987997643901999 0 0)
(-0.02040507441738953 0 0)
(-0.03646024149431844 0 0)
(-0.05194084897508279 0 0)
(-0.06676191636233554 0 0)
(-0.08092740708575885 0 0)
(-0.09427481902765975 0 0)
(-0.1058814726089854 0 0)
(-0.1136117363476613 0 0)
(-0.1162811691781713 0 0)
(-0.1164828943912453 0 0)
(-0.1163185296809427 0 0)
(-0.1157201407327231 0 0)
(-0.114136143129927 0 0)
(-0.1110788991705965 0 0)
(-0.1060646815699987 0 0)
(-0.09875986936792196 0 0)
(-0.08905658377107661 0 0)
(-0.07710929825693394 0 0)
(-0.06329387327542818 0 0)
(-0.04810760648481084 0 0)
(-0.03205906315235805 0 0)
(-0.01559078257704746 0 0)
(0.0009534905872857702 0 0)
(0.01732810488911899 0 0)
(0.03336912533423689 0 0)
(0.04898337088860964 0 0)
(0.06414702338117695 0 0)
(0.07884778941638551 0 0)
(0.09280379245687155 0 0)
(0.1048245454441186 0 0)
(0.112551232959639 0 0)
(0.1150573340851539 0 0)
(0.115223013590018 0 0)
(0.1151382198540256 0 0)
(0.1146033662252224 0 0)
(0.113276544313906 0 0)
(0.1106767996972614 0 0)
(0.1063625168332518 0 0)
(0.09996340593012804 0 0)
(0.09125980036060923 0 0)
(0.0802342456720172 0 0)
(0.06709107264696881 0 0)
(0.05222687366176446 0 0)
(0.0361530396533933 0 0)
(0.01939749344513773 0 0)
(0.00242325484122449 0 0)
(-0.01441981599425914 0 0)
(-0.03092031487360275 0 0)
(-0.04701104870644751 0 0)
(-0.06272361512259222 0 0)
(-0.07803067871522368 0 0)
(-0.0924835674425183 0 0)
(-0.1046031795899759 0 0)
(-0.1119422017421734 0 0)
(-0.1141070619531192 0 0)
(-0.1142388298999549 0 0)
(-0.1141012493237246 0 0)
(-0.1136192633654772 0 0)
(-0.1123738848341119 0 0)
(-0.1099782044653737 0 0)
(-0.1060172513800219 0 0)
(-0.100135173744192 0 0)
(-0.09208687587924344 0 0)
(-0.08179113805354671 0 0)
(-0.06935814773671467 0 0)
(-0.05508339725684395 0 0)
(-0.0394075835013951 0 0)
(-0.02284616512815098 0 0)
(-0.005899287298223103 0 0)
(0.01103264644472691 0 0)
(0.02769805960404562 0 0)
(0.04399576668047769 0 0)
(0.05992835735969027 0 0)
(0.07546758617047833 0 0)
(0.0902074651663773 0 0)
(0.1027330545530085 0 0)
(0.1105761590070874 0 0)
(0.1130631721469308 0 0)
(0.1132406444499854 0 0)
(0.1131769691122758 0 0)
(0.11276503590765 0 0)
(0.1117281830509568 0 0)
(0.1096727937176527 0 0)
(0.1062169808645443 0 0)
(0.1010015630025781 0 0)
(0.09374412383374343 0 0)
(0.08428453122942034 0 0)
(0.07262544847226847 0 0)
(0.05895167592435326 0 0)
(0.04361442271812184 0 0)
(0.02707986487092506 0 0)
(0.009854729641651249 0 0)
(-0.007597145178397833 0 0)
(-0.02493267983515187 0 0)
(-0.04197231990068621 0 0)
(-0.05866024861699606 0 0)
(-0.07488623332059709 0 0)
(-0.09009114380461361 0 0)
(-0.1026590795542913 0 0)
(-0.110121757585938 0 0)
(-0.1122904013370817 0 0)
(-0.1124250684132679 0 0)
(-0.1123234090666871 0 0)
(-0.1119426610469818 0 0)
(-0.110938575394502 0 0)
(-0.1089842129399507 0 0)
(-0.1057183826701137 0 0)
(-0.1008063141294607 0 0)
(-0.09397477193393368 0 0)
(-0.08505488294222378 0 0)
(-0.07401551014921842 0 0)
(-0.06098204568336767 0 0)
(-0.04623509891929044 0 0)
(-0.03018017220312292 0 0)
(-0.01328441177486002 0 0)
(0.004004804298921623 0 0)
(0.02133105617257455 0 0)
(0.03846684350586334 0 0)
(0.05529814802220564 0 0)
(0.07170123858120482 0 0)
(0.08719389577037526 0 0)
(0.1003150665133781 0 0)
(0.1085947289442681 0 0)
(0.1113303485114526 0 0)
(0.1115666554643576 0 0)
(0.111526459620251 0 0)
(0.1112129085759737 0 0)
(0.1103967180561855 0 0)
(0.1087367956378038 0 0)
(0.1058964579981665 0 0)
(0.1015415553090704 0 0)
(0.09538074985567889 0 0)
(0.08719952598890759 0 0)
(0.0768969814472701 0 0)
(0.06451454367734907 0 0)
(0.05024467936121337 0 0)
(0.03441416637926635 0 0)
(0.01744338030368812 0 0)
(-0.0002168692781087325 0 0)
(-0.01816327110916931 0 0)
(-0.03610160821419039 0 0)
(-0.05383554652720482 0 0)
(-0.07111306538972885 0 0)
(-0.0872420423025678 0 0)
(-0.1004953146975318 0 0)
(-0.1083677525510616 0 0)
(-0.1107156335681142 0 0)
(-0.1108850182931441 0 0)
(-0.1108062196627424 0 0)
(-0.1105038689299859 0 0)
(-0.1096846106873497 0 0)
(-0.1080650135933853 0 0)
(-0.1053237415784152 0 0)
(-0.1011497159817469 0 0)
(-0.09526791709700558 0 0)
(-0.08747309903236401 0 0)
(-0.07765912815498256 0 0)
(-0.06584215391765294 0 0)
(-0.0521731927853484 0 0)
(-0.03693040753070152 0 0)
(-0.02048357215241035 0 0)
(-0.003237129931567638 0 0)
(0.01443081852085244 0 0)
(0.03221600463570061 0 0)
(0.04989539804796125 0 0)
(0.06722887422326984 0 0)
(0.08363578061177025 0 0)
(0.09760139008374234 0 0)
(0.1066101055497352 0 0)
(0.1097836279058734 0 0)
(0.1101182036172286 0 0)
(0.1100937873459136 0 0)
(0.109853687455214 0 0)
(0.1092032295143103 0 0)
(0.107844324006999 0 0)
(0.1054780521601134 0 0)
(0.101796065403369 0 0)
(0.09651192491422514 0 0)
(0.08938775807521845 0 0)
(0.08026583580847001 0 0)
(0.069096671158672 0 0)
(0.05595504032950074 0 0)
(0.04104010980428286 0 0)
(0.02465850873907358 0 0)
(0.007185690224377241 0 0)
(-0.01099375953129332 0 0)
(-0.02954201055189644 0 0)
(-0.04816752174724855 0 0)
(-0.06649567243521826 0 0)
(-0.08370860057811948 0 0)
(-0.09795680721964119 0 0)
(-0.1065863801277044 0 0)
(-0.1092934030209174 0 0)
(-0.1095221652257056 0 0)
(-0.1094647893607168 0 0)
(-0.109231439129508 0 0)
(-0.1085627071580407 0 0)
(-0.1072088719476419 0 0)
(-0.1048809922233597 0 0)
(-0.1012929834079696 0 0)
(-0.09617923063600366 0 0)
(-0.08932050834338222 0 0)
(-0.08056823090813381 0 0)
(-0.06986736503960282 0 0)
(-0.05727410804857514 0 0)
(-0.04295927784376668 0 0)
(-0.02719037872354211 0 0)
(-0.01029587171040771 0 0)
(0.007378524356156797 0 0)
(0.02551155747223472 0 0)
(0.0438218011960772 0 0)
(0.0619890422777117 0 0)
(0.07936166303335607 0 0)
(0.09438755513837306 0 0)
(0.1044534072138852 0 0)
(0.1083159088767523 0 0)
(0.1088160567580532 0 0)
(0.108808185227466 0 0)
(0.1086288564773601 0 0)
(0.1081147741592119 0 0)
(0.1069984446843022 0 0)
(0.1050117773229424 0 0)
(0.1018710596170282 0 0)
(0.09730242472996879 0 0)
(0.09106187878219144 0 0)
(0.08296090757652989 0 0)
(0.07289116225266343 0 0)
(0.06084258022693181 0 0)
(0.0469121036701432 0 0)
(0.03130053926291186 0 0)
(0.01429145363465115 0 0)
(-0.003789212655844321 0 0)
(-0.02261413695814569 0 0)
(-0.04185332343264963 0 0)
(-0.06106244562643399 0 0)
(-0.07935133536924535 0 0)
(-0.09480249085815097 0 0)
(-0.1045733187669815 0 0)
(-0.1079323072240897 0 0)
(-0.1082885476780134 0 0)
(-0.1082499665952559 0 0)
(-0.1080712197049435 0 0)
(-0.1075277974361084 0 0)
(-0.1063948499740672 0 0)
(-0.104409632078822 0 0)
(-0.10130691794454 0 0)
(-0.09683241983622169 0 0)
(-0.09076352773760508 0 0)
(-0.08292889344207514 0 0)
(-0.07322868237364352 0 0)
(-0.0616524838020048 0 0)
(-0.04828727527601379 0 0)
(-0.03331019945557122 0 0)
(-0.01696871645293348 0 0)
(0.0004472469230523984 0 0)
(0.01863727549489114 0 0)
(0.03730584680016368 0 0)
(0.05609769793562111 0 0)
(0.07433997778230084 0 0)
(0.0905065926504382 0 0)
(0.1019207501502191 0 0)
(0.106810898066861 0 0)
(0.1076096791993686 0 0)
(0.1076212759277835 0 0)
(0.1074931047250292 0 0)
(0.107094010648862 0 0)
(0.1061813452325914 0 0)
(0.104511714760276 0 0)
(0.1018219668900353 0 0)
(0.09785220004136191 0 0)
(0.09236044441348491 0 0)
(0.08514304819339588 0 0)
(0.0760550173587498 0 0)
(0.0650272190570335 0 0)
(0.05207869781859885 0 0)
(0.03732128419850152 0 0)
(0.02095047205481355 0 0)
(0.003221002007817774 0 0)
(-0.01557896128718526 0 0)
(-0.0351224663592352 0 0)
(-0.05494893310314825 0 0)
(-0.07417052125406734 0 0)
(-0.09090378473200153 0 0)
(-0.1021580758738296 0 0)
(-0.1065317547441037 0 0)
(-0.1071314213308366 0 0)
(-0.1071122914044711 0 0)
(-0.1069841661355575 0 0)
(-0.1065513602403031 0 0)
(-0.1056100058844614 0 0)
(-0.1039175417651924 0 0)
(-0.1012270754492775 0 0)
(-0.09729659312722261 0 0)
(-0.09190547533583025 0 0)
(-0.08487041067194558 0 0)
(-0.0760630151162975 0 0)
(-0.06542638713937866 0 0)
(-0.0529844704318234 0 0)
(-0.03884108578343815 0 0)
(-0.02317081205224518 0 0)
(-0.006202840879747937 0 0)
(0.01180182326615812 0 0)
(0.03056232446224958 0 0)
(0.0497243161552143 0 0)
(0.06864207119244799 0 0)
(0.08589335215959627 0 0)
(0.09884137467543341 0 0)
(0.1051363367741586 0 0)
(0.1064570041761389 0 0)
(0.1065018192362152 0 0)
(0.1064165913517195 0 0)
(0.1061156926852284 0 0)
(0.1053772851272794 0 0)
(0.1039796095219736 0 0)
(0.1016760188110643 0 0)
(0.09821959913755168 0 0)
(0.09337371845778884 0 0)
(0.08692798511043365 0 0)
(0.0787146737743034 0 0)
(0.06862441448958952 0 0)
(0.05661943900891028 0 0)
(0.04274136269573683 0 0)
(0.02710945851449652 0 0)
(0.009908980090005957 0 0)
(-0.008621976702697785 0 0)
(-0.02818507694502862 0 0)
(-0.04834460695654613 0 0)
(-0.06827581315852473 0 0)
(-0.08622683970923341 0 0)
(-0.09918123608686509 0 0)
(-0.1049701693709578 0 0)
(-0.1060083224430628 0 0)
(-0.106020711883431 0 0)
(-0.1059367675907085 0 0)
(-0.1056047415716771 0 0)
(-0.1048349640086667 0 0)
(-0.1034020532464559 0 0)
(-0.1010728699925167 0 0)
(-0.09761645615574598 0 0)
(-0.09281654826201487 0 0)
(-0.08648462493715021 0 0)
(-0.0784748609332889 0 0)
(-0.06869844776332465 0 0)
(-0.05713282398667311 0 0)
(-0.04382452022154145 0 0)
(-0.02888715186026029 0 0)
(-0.01249316305447658 0 0)
(0.00514180397918593 0 0)
(0.02376685220573765 0 0)
(0.04305181180640406 0 0)
(0.06241102032681693 0 0)
(0.08058358348074358 0 0)
(0.09509949121485614 0 0)
(0.1031370127877739 0 0)
(0.1052920815586281 0 0)
(0.1054318421265248 0 0)
(0.1053772250735869 0 0)
(0.1051598411042895 0 0)
(0.1045733538431545 0 0)
(0.103413426409704 0 0)
(0.1014478026722458 0 0)
(0.09844077681227889 0 0)
(0.09416158527296722 0 0)
(0.08839760813195856 0 0)
(0.08096758822407035 0 0)
(0.07173497223655421 0 0)
(0.06062069872763306 0 0)
(0.04761288881907894 0 0)
(0.03276969073907722 0 0)
(0.01621513052382267 0 0)
(-0.001865399594402202 0 0)
(-0.02121484951260362 0 0)
(-0.04144246974909956 0 0)
(-0.06181941098146571 0 0)
(-0.08079913138455179 0 0)
(-0.09550821739861122 0 0)
(-0.1031034169656082 0 0)
(-0.104890611300087 0 0)
(-0.1049731962663233 0 0)
(-0.1049226590774383 0 0)
(-0.1046757609838265 0 0)
(-0.1040565582721004 0 0)
(-0.1028533342192121 0 0)
(-0.100845376206148 0 0)
(-0.09781031339831037 0 0)
(-0.09353612991815803 0 0)
(-0.08783232490843851 0 0)
(-0.08054211633437075 0 0)
(-0.07155405534014203 0 0)
(-0.06081137177312006 0 0)
(-0.04831777704748859 0 0)
(-0.03413853798267602 0 0)
(-0.01839564933350044 0 0)
(-0.001258983401836303 0 0)
(0.01705562859061826 0 0)
(0.03625275860257163 0 0)
(0.05582427032154002 0 0)
(0.07469940001810545 0 0)
(0.09067068174368886 0 0)
(0.1006562517371071 0 0)
(0.1040188408631463 0 0)
(0.1043712761960917 0 0)
(0.1043474899968842 0 0)
(0.1041976553364677 0 0)
(0.1037491492105417 0 0)
(0.1028036016171683 0 0)
(0.1011418243468909 0 0)
(0.09853689651003869 0 0)
(0.09476361516105848 0 0)
(0.08960974862056678 0 0)
(0.082886373092839 0 0)
(0.07443873426060725 0 0)
(0.06415857586285201 0 0)
(0.05199479561208679 0 0)
(0.03795788390334472 0 0)
(0.02211966697242331 0 0)
(0.004615733107112 0 0)
(-0.01434110642031516 0 0)
(-0.03441346271872715 0 0)
(-0.05498213026670949 0 0)
(-0.07473842396860364 0 0)
(-0.09108749353977824 0 0)
(-0.1007621540326313 0 0)
(-0.1036983036426952 0 0)
(-0.1039513180932086 0 0)
(-0.1039295114627018 0 0)
(-0.1037500717596164 0 0)
(-0.1032655753590711 0 0)
(-0.1022676816378445 0 0)
(-0.1005480234996774 0 0)
(-0.09789183919671768 0 0)
(-0.09409137426857946 0 0)
(-0.08895512223891844 0 0)
(-0.08231905931579286 0 0)
(-0.07405670265143868 0 0)
(-0.06408657563591896 0 0)
(-0.05237850447440662 0 0)
(-0.03895867016514629 0 0)
(-0.02390902257271669 0 0)
(-0.007360272462770701 0 0)
(0.01050937133876999 0 0)
(0.02944532526800849 0 0)
(0.04901430458797183 0 0)
(0.06833178790734254 0 0)
(0.08552510311980614 0 0)
(0.09753601653181881 0 0)
(0.1025583226217352 0 0)
(0.1033589664656155 0 0)
(0.1033527820782891 0 0)
(0.1032652825300117 0 0)
(0.1029251741204721 0 0)
(0.1021631980281555 0 0)
(0.1007660622280454 0 0)
(0.09851660854117521 0 0)
(0.09519550472021206 0 0)
(0.09059171440680143 0 0)
(0.08451136422300032 0 0)
(0.07678768455075312 0 0)
(0.06729170249837638 0 0)
(0.05594166782747986 0 0)
(0.04270943079370719 0 0)
(0.02762486316205902 0 0)
(0.01078112808888554 0 0)
(-0.007654093170964344 0 0)
(-0.02740142095179998 0 0)
(-0.047946160535227 0 0)
(-0.06820743803146762 0 0)
(-0.08594742414843787 0 0)
(-0.09779257219226299 0 0)
(-0.1023165617765286 0 0)
(-0.1029291108822324 0 0)
(-0.1029252895434871 0 0)
(-0.1028091695969656 0 0)
(-0.102442255597076 0 0)
(-0.1016319643328426 0 0)
(-0.1001767777430288 0 0)
(-0.09786823879740525 0 0)
(-0.09450205863274441 0 0)
(-0.08988680048965964 0 0)
(-0.08385332893411328 0 0)
(-0.07626337847594906 0 0)
(-0.06701713726072453 0 0)
(-0.05606019324301289 0 0)
(-0.04338859687495066 0 0)
(-0.02904962144532392 0 0)
(-0.01313924947710869 0 0)
(0.004196253242515957 0 0)
(0.02274030821199096 0 0)
(0.04213377202753902 0 0)
(0.06166472888940813 0 0)
(0.07979621270661283 0 0)
(0.09370484239595718 0 0)
(0.1007259638219643 0 0)
(0.1023100201274198 0 0)
(0.102374839752649 0 0)
(0.1023243975457776 0 0)
(0.1020818127574886 0 0)
(0.1014809478389416 0 0)
(0.1003209545439363 0 0)
(0.09839206295676155 0 0)
(0.09548044884572536 0 0)
(0.09137725288350221 0 0)
(0.08588639029846051 0 0)
(0.07883324479473869 0 0)
(0.07007367530104854 0 0)
(0.0595027911200516 0 0)
(0.04706278878585804 0 0)
(0.03274949430081614 0 0)
(0.01661850328470607 0 0)
(-0.00120435103952697 0 0)
(-0.02049248047971285 0 0)
(-0.04082444481377303 0 0)
(-0.06132781409073266 0 0)
(-0.08014891245682212 0 0)
(-0.09408764246169256 0 0)
(-0.1006165009935163 0 0)
(-0.1019075781677432 0 0)
(-0.1019433961118324 0 0)
(-0.1018769643924221 0 0)
(-0.1016072871206383 0 0)
(-0.1009605142824432 0 0)
(-0.09974216024299105 0 0)
(-0.0977490069884227 0 0)
(-0.09477956505977986 0 0)
(-0.09064252428501456 0 0)
(-0.08516508849994749 0 0)
(-0.07820055308571319 0 0)
(-0.06963536852736978 0 0)
(-0.05939605541437886 0 0)
(-0.04745450970846789 0 0)
(-0.03382977156623997 0 0)
(-0.01858767406618005 0 0)
(-0.001843833064652034 0 0)
(0.0162210705578441 0 0)
(0.03530989761234979 0 0)
(0.05485262064873797 0 0)
(0.07361822346335523 0 0)
(0.0891513143095977 0 0)
(0.09835073508848625 0 0)
(0.101146300427481 0 0)
(0.1013872578208317 0 0)
(0.1013639262443182 0 0)
(0.1011969993493568 0 0)
(0.1007375821221609 0 0)
(0.09979118955539586 0 0)
(0.09815621083374572 0 0)
(0.09562337410560288 0 0)
(0.09198554852291874 0 0)
(0.08704456097787763 0 0)
(0.08061932417864071 0 0)
(0.07255446852398025 0 0)
(0.06272819276155582 0 0)
(0.05105951844251676 0 0)
(0.03751617080076003 0 0)
(0.02212279949731298 0 0)
(0.004970383496910629 0 0)
(-0.01376139885473592 0 0)
(-0.03373366566233013 0 0)
(-0.05425230597958209 0 0)
(-0.07382444457865119 0 0)
(-0.08961155650951967 0 0)
(-0.09841914587342039 0 0)
(-0.1008159905101699 0 0)
(-0.1009811062841018 0 0)
(-0.1009424620901525 0 0)
(-0.1007581111550846 0 0)
(-0.1002547862530182 0 0)
(-0.09924880096671278 0 0)
(-0.09754163294769259 0 0)
(-0.09493509912674296 0 0)
(-0.09123866007520155 0 0)
(-0.0862770988899588 0 0)
(-0.07989740761340212 0 0)
(-0.07197560781007423 0 0)
(-0.06242323319952745 0 0)
(-0.05119238332668102 0 0)
(-0.03827864320045634 0 0)
(-0.02372290101725487 0 0)
(-0.007614555478561508 0 0)
(0.009898257194362053 0 0)
(0.02857258783230288 0 0)
(0.04795549784622797 0 0)
(0.06708072400937212 0 0)
(0.08391605496915022 0 0)
(0.09531679193516877 0 0)
(0.09979402832604424 0 0)
(0.1004318601107328 0 0)
(0.1004293976652175 0 0)
(0.1003250692859746 0 0)
(0.09998382616778312 0 0)
(0.09922431245232953 0 0)
(0.09785038022592457 0 0)
(0.09565731963044932 0 0)
(0.09244042730441113 0 0)
(0.08800174491095378 0 0)
(0.08215703543773792 0 0)
(0.07474293986439248 0 0)
(0.06562448923999584 0 0)
(0.05470279573293334 0 0)
(0.04192271547927091 0 0)
(0.02728065071828755 0 0)
(0.01083444707765911 0 0)
(-0.007277045740755075 0 0)
(-0.0267819556468337 0 0)
(-0.04713130016931952 0 0)
(-0.06714455417813014 0 0)
(-0.08442263446647191 0 0)
(-0.09555783562159083 0 0)
(-0.09952729337648521 0 0)
(-0.1000017333500057 0 0)
(-0.09998830046844746 0 0)
(-0.09986608267250821 0 0)
(-0.09948712152045244 0 0)
(-0.09867253533665456 0 0)
(-0.09722972518802714 0 0)
(-0.09496301681270217 0 0)
(-0.09168187571994352 0 0)
(-0.0872083529944334 0 0)
(-0.08138357565037585 0 0)
(-0.07407441045519891 0 0)
(-0.0651800447678591 0 0)
(-0.05463683447750074 0 0)
(-0.04242109503777768 0 0)
(-0.02855186418767353 0 0)
(-0.0130952453388624 0 0)
(0.003827959127265093 0 0)
(0.02201843058597071 0 0)
(0.04111593251152044 0 0)
(0.06036783394155606 0 0)
(0.07814383836323201 0 0)
(0.09154197087426029 0 0)
(0.09805710661542101 0 0)
(0.09943749307375219 0 0)
(0.09948836064195588 0 0)
(0.09942613623267922 0 0)
(0.0991846931104389 0 0)
(0.09858724659445704 0 0)
(0.09744876781700801 0 0)
(0.09556830536747657 0 0)
(0.09274351041548008 0 0)
(0.0887761889389358 0 0)
(0.08347902383587391 0 0)
(0.07668225926359801 0 0)
(0.0682406576504723 0 0)
(0.05804088697099117 0 0)
(0.0460092269429871 0 0)
(0.03211936935018925 0 0)
(0.01640154882998207 0 0)
(-0.001041404624216028 0 0)
(-0.0199949144483309 0 0)
(-0.04002684649984611 0 0)
(-0.06021555519503963 0 0)
(-0.07861035731820831 0 0)
(-0.09194952641352803 0 0)
(-0.09792900858884138 0 0)
(-0.09902175258184152 0 0)
(-0.09904299110756172 0 0)
(-0.09897329067358052 0 0)
(-0.09869826260981662 0 0)
(-0.09805214033819604 0 0)
(-0.09684761089222876 0 0)
(-0.09489132815046367 0 0)
(-0.09199299014841734 0 0)
(-0.08797257744526184 0 0)
(-0.08266700007376179 0 0)
(-0.07593636942390238 0 0)
(-0.06766969225574054 0 0)
(-0.0577896565431595 0 0)
(-0.04625648889218122 0 0)
(-0.03307122815311868 0 0)
(-0.01827897360595052 0 0)
(-0.001974666593043597 0 0)
(0.01567862620828301 0 0)
(0.03439056283660123 0 0)
(0.05357536393875422 0 0)
(0.07195796286593008 0 0)
(0.0870374157130977 0 0)
(0.09578250503216101 0 0)
(0.09834004925972423 0 0)
(0.09854526054398571 0 0)
(0.09851452179966648 0 0)
(0.09834998612333953 0 0)
(0.09789289157071367 0 0)
(0.09696316386448418 0 0)
(0.09536620529899172 0 0)
(0.09290235533019037 0 0)
(0.08937383435537929 0 0)
(0.08459138264420953 0 0)
(0.07838044327699632 0 0)
(0.07058750979472421 0 0)
(0.06108722184554445 0 0)
(0.04979004659860199 0 0)
(0.03664980994037189 0 0)
(0.02167207318640155 0 0)
(0.004928100207572931 0 0)
(-0.0134146132941108 0 0)
(-0.03301564519647429 0 0)
(-0.05316035391206399 0 0)
(-0.07230676674494969 0 0)
(-0.08756437208730583 0 0)
(-0.09584387746861932 0 0)
(-0.09798383478852662 0 0)
(-0.09811518270385917 0 0)
(-0.0980799405969347 0 0)
(-0.0978890031178582 0 0)
(-0.09738840407531626 0 0)
(-0.09639514352553662 0 0)
(-0.0947203499219212 0 0)
(-0.09217494885449812 0 0)
(-0.08857793277639704 0 0)
(-0.08376253099188177 0 0)
(-0.07758264644767994 0 0)
(-0.06991854643138282 0 0)
(-0.06068120983220029 0 0)
(-0.0498163165209567 0 0)
(-0.03730858477475631 0 0)
(-0.02318531924717663 0 0)
(-0.00751993886883918 0 0)
(0.00955558443229681 0 0)
(0.02780757305836455 0 0)
(0.04677853115443648 0 0)
(0.06548435456152092 0 0)
(0.08187492079766409 0 0)
(0.09284226475545382 0 0)
(0.09704741301159862 0 0)
(0.09762052367880868 0 0)
(0.09761069593741938 0 0)
(0.09751035216363572 0 0)
(0.09717086857716879 0 0)
(0.09642558837782107 0 0)
(0.09508361678103747 0 0)
(0.09294930250187057 0 0)
(0.08982612946305511 0 0)
(0.08552357143752239 0 0)
(0.07986315016307124 0 0)
(0.07268475846816073 0 0)
(0.06385334535252823 0 0)
(0.05326596103086466 0 0)
(0.04085923008481052 0 0)
(0.02661789114050887 0 0)
(0.01058674197844216 0 0)
(-0.00710652201310135 0 0)
(-0.02619505232351214 0 0)
(-0.04612333330706431 0 0)
(-0.06568734420642336 0 0)
(-0.08246013114382665 0 0)
(-0.09308999245505199 0 0)
(-0.09676029747808251 0 0)
(-0.09717440510964966 0 0)
(-0.0971591250483204 0 0)
(-0.09703454757457199 0 0)
(-0.09665711731474734 0 0)
(-0.09585325030009875 0 0)
(-0.09443789200788401 0 0)
(-0.092223410500453 0 0)
(-0.08902731467531795 0 0)
(-0.08467924533284092 0 0)
(-0.07902726753414525 0 0)
(-0.07194337030230395 0 0)
(-0.06332817293051962 0 0)
(-0.05311523746074019 0 0)
(-0.04127500697605433 0 0)
(-0.02781791082345206 0 0)
(-0.01279784071361321 0 0)
(0.0036782356699657 0 0)
(0.02142031752091434 0 0)
(0.04006936652112621 0 0)
(0.05886992294197849 0 0)
(0.0761929751504908 0 0)
(0.08916528043510849 0 0)
(0.09538312213413627 0 0)
(0.09666270113700494 0 0)
(0.09670181065391026 0 0)
(0.09664667724510378 0 0)
(0.09640460879158565 0 0)
(0.09581910367842612 0 0)
(0.09470646539424916 0 0)
(0.09287434075978647 0 0)
(0.09012785594975808 0 0)
(0.08627612435235663 0 0)
(0.08113784766400065 0 0)
(0.07454740260233689 0 0)
(0.06636142693149633 0 0)
(0.05646560670810588 0 0)
(0.04478167868489947 0 0)
(0.03127559832521511 0 0)
(0.01596851478120729 0 0)
(-0.001045179515192958 0 0)
(-0.01955725461688435 0 0)
(-0.0391373034620601 0 0)
(-0.05885682335855779 0 0)
(-0.07675422369432151 0 0)
(-0.08959970943121011 0 0)
(-0.09523777043066708 0 0)
(-0.09623049713992848 0 0)
(-0.09624686940873582 0 0)
(-0.09617514953929131 0 0)
(-0.09590276747676064 0 0)
(-0.09526583819860417 0 0)
(-0.09408426736792319 0 0)
(-0.09217168232745065 0 0)
(-0.08934551132248893 0 0)
(-0.08543329373085341 0 0)
(-0.0802788087490663 0 0)
(-0.07374736280000843 0 0)
(-0.06573055812440677 0 0)
(-0.05615078155480228 0 0)
(-0.04496515710635084 0 0)
(-0.03216871083373245 0 0)
(-0.01779784950418805 0 0)
(-0.001937841752284622 0 0)
(0.01525644762279864 0 0)
(0.03350054271628567 0 0)
(0.05221355938151161 0 0)
(0.07012808811734952 0 0)
(0.08476920117890138 0 0)
(0.09318502912269493 0 0)
(0.09560533109634102 0 0)
(0.09579287369918177 0 0)
(0.09576399006832494 0 0)
(0.09560043243022763 0 0)
(0.09515290815269009 0 0)
(0.09424475080174784 0 0)
(0.09268825280881469 0 0)
(0.09029047543751836 0 0)
(0.08686051382486291 0 0)
(0.0822152249620359 0 0)
(0.07618496533015533 0 0)
(0.06861962163805593 0 0)
(0.0593949759656138 0 0)
(0.04841959510032161 0 0)
(0.03564273331064539 0 0)
(0.02106416938819838 0 0)
(0.004749008461960994 0 0)
(-0.01314171802161762 0 0)
(-0.03227258140614864 0 0)
(-0.05192925396492483 0 0)
(-0.07056934867375854 0 0)
(-0.08533079615452457 0 0)
(-0.09323670764403874 0 0)
(-0.09523390945052075 0 0)
(-0.09535105994622553 0 0)
(-0.09531195537543243 0 0)
(-0.09512342965866191 0 0)
(-0.09462875727652957 0 0)
(-0.0936544864513903 0 0)
(-0.0920176768928417 0 0)
(-0.08953591560801315 0 0)
(-0.08603476180293615 0 0)
(-0.08135389223305532 0 0)
(-0.07535218318003793 0 0)
(-0.06791262504479981 0 0)
(-0.05894746486939902 0 0)
(-0.04840238738236319 0 0)
(-0.03625896902141536 0 0)
(-0.02253754318080561 0 0)
(-0.00730404130372135 0 0)
(0.009314722758217483 0 0)
(0.02709074373021024 0 0)
(0.04557644172154685 0 0)
(0.06380045925763242 0 0)
(0.07973488683127691 0 0)
(0.09033581644677402 0 0)
(0.09435615537375082 0 0)
(0.09489424552427402 0 0)
(0.0948909558663019 0 0)
(0.09478507080645183 0 0)
(0.0944545553978897 0 0)
(0.0937259857255833 0 0)
(0.09241795852431368 0 0)
(0.09034017508869638 0 0)
(0.08730245108658957 0 0)
(0.08312019628451341 0 0)
(0.07762020069663116 0 0)
(0.07064640676204038 0 0)
(0.06206606887102771 0 0)
(0.05177645038364947 0 0)
(0.03971228598995753 0 0)
(0.02585463662702128 0 0)
(0.01024337848598037 0 0)
(-0.006999207039932905 0 0)
(-0.02561132896150073 0 0)
(-0.04504196254512256 0 0)
(-0.06409401335339433 0 0)
(-0.08036517838854632 0 0)
(-0.09058582193846469 0 0)
(-0.09405583899558366 0 0)
(-0.09443528473562716 0 0)
(-0.09441908825826373 0 0)
(-0.09429550832023126 0 0)
(-0.09392396484343378 0 0)
(-0.09313633697017004 0 0)
(-0.09175329226465263 0 0)
(-0.08959333846063046 0 0)
(-0.08648037983978646 0 0)
(-0.08225032273599696 0 0)
(-0.07675671811200893 0 0)
(-0.06987592279133559 0 0)
(-0.06151176506996072 0 0)
(-0.05159949026905829 0 0)
(-0.04010914618547192 0 0)
(-0.0270491145015025 0 0)
(-0.01247103804083802 0 0)
(0.003520181810926205 0 0)
(0.02073891103978766 0 0)
(0.03883907336237508 0 0)
(0.05710309594089379 0 0)
(0.0740006099247512 0 0)
(0.08682129230654487 0 0)
(0.09317300546771219 0 0)
(0.09458039565515809 0 0)
(0.09464167782027581 0 0)
(0.09460139818326022 0 0)
(0.09442251948779233 0 0)
(0.09397148310296521 0 0)
(0.09310138984951684 0 0)
(0.09165905195314437 0 0)
(0.08949547822364116 0 0)
(0.0864738609771994 0 0)
(0.08247746490693243 0 0)
(0.07741774389688838 0 0)
(0.07124276886404894 0 0)
(0.06394615059937146 0 0)
(0.05557729634777328 0 0)
(0.04625626823646756 0 0)
(0.0362035998959704 0 0)
(0.02581146481431258 0 0)
(0.01579974297657451 0 0)
(0.00741932406252991 0 0)
(0.002178978180800533 0 0)
(0.0002906368346384824 0 0)
(1.172658985138194e-05 0 0)
(9.357681984262538e-08 0 0)
(1.661934097508262e-10 0 0)
(6.53685955508286e-11 0 0)
(6.412405964832592e-11 0 0)
(6.418498098620722e-11 0 0)
(6.471586693063615e-11 0 0)
(6.538600164736683e-11 0 0)
(6.568190528853186e-11 0 0)
(6.554265651621819e-11 0 0)
(6.538600164737135e-11 0 0)
(6.486381875120848e-11 0 0)
(6.435904195159119e-11 0 0)
(6.348003407638999e-11 0 0)
(6.274027497350227e-11 0 0)
(6.18438610017517e-11 0 0)
(6.107799275405911e-11 0 0)
(6.05122946165525e-11 0 0)
(5.972031722404623e-11 0 0)
(5.918943127961783e-11 0 0)
(5.834523559749238e-11 0 0)
(5.75010399153702e-11 0 0)
)
;

boundaryField
{
    inlet
    {
        type            zeroGradient;
    }
    outlet
    {
        type            velocityOutletNSCBCx;
        pInf            101325;
        gamma           1.4;
        etaAc           1;
        fieldInf        (-1 0 0);
        lInf            2.25;
        value           uniform (5.724807399565358e-11 0 0);
    }
    frontAndBack
    {
        type            empty;
    }
}


// ************************************************************************* //
