/*--------------------------------*- C++ -*----------------------------------*\
| =========                 |                                                 |
| \\      /  F ield         | OpenFOAM: The Open Source CFD Toolbox           |
|  \\    /   O peration     | Version:  v2012                                 |
|   \\  /    A nd           | Website:  www.openfoam.com                      |
|    \\/     M anipulation  |                                                 |
\*---------------------------------------------------------------------------*/
FoamFile
{
    version     2.0;
    format      ascii;
    class       volVectorField;
    location    "0.007";
    object      UMean;
}
// * * * * * * * * * * * * * * * * * * * * * * * * * * * * * * * * * * * * * //

dimensions      [0 1 -1 0 0 0 0];


internalField   nonuniform List<vector> 
1000
(
(-3.992622634957152e-05 0 0)
(1.411800339047161e-05 0 0)
(4.200366448220027e-05 0 0)
(9.746654780174726e-05 0 0)
(0.0001622333094509112 0 0)
(0.0002376892703316771 0 0)
(0.0003292032781620826 0 0)
(0.0004292950158822747 0 0)
(0.0005421587517559737 0 0)
(0.000661486256992915 0 0)
(0.0007851846949429433 0 0)
(0.0009086411598401631 0 0)
(0.001031794496245277 0 0)
(0.001153146062277968 0 0)
(0.001271150708522071 0 0)
(0.001382949538017781 0 0)
(0.001486425212118954 0 0)
(0.001579126488876592 0 0)
(0.001659748291917895 0 0)
(0.001726487296223365 0 0)
(0.001778621582751459 0 0)
(0.001814759676447028 0 0)
(0.001834668927307455 0 0)
(0.001837535961275338 0 0)
(0.001823688801864359 0 0)
(0.001792987750582401 0 0)
(0.00174641343439689 0 0)
(0.001684450218697188 0 0)
(0.00160839398189413 0 0)
(0.001518799899665761 0 0)
(0.001416980603403251 0 0)
(0.001304433387650324 0 0)
(0.001185388787873614 0 0)
(0.001064167603366023 0 0)
(0.0009430590085585007 0 0)
(0.0008222466956903153 0 0)
(0.0007026617312901148 0 0)
(0.0005856632111404099 0 0)
(0.0004732686926223829 0 0)
(0.0003678719260107749 0 0)
(0.0002719967128717308 0 0)
(0.0001879114422361077 0 0)
(0.0001175009063538042 0 0)
(6.209446975199088e-05 0 0)
(2.26397557642947e-05 0 0)
(-2.832503803936504e-07 0 0)
(-6.33363494485634e-06 0 0)
(4.546548542764842e-06 0 0)
(3.216168206238072e-05 0 0)
(7.605624203863347e-05 0 0)
(0.0001355852650742362 0 0)
(0.0002100903453909168 0 0)
(0.0002988605966604055 0 0)
(0.0004008525138118564 0 0)
(0.0005134550589611864 0 0)
(0.0006318636794565844 0 0)
(0.0007516370093640562 0 0)
(0.0008713611171336305 0 0)
(0.0009907935900142909 0 0)
(0.001109065281656891 0 0)
(0.001225215902096326 0 0)
(0.001337264690258049 0 0)
(0.001443335679824246 0 0)
(0.001540758810255936 0 0)
(0.001627420797491515 0 0)
(0.001700879441110567 0 0)
(0.001759719592335894 0 0)
(0.001802454437707872 0 0)
(0.001828679898438209 0 0)
(0.00183780818234117 0 0)
(0.001830132471907903 0 0)
(0.001805627905511067 0 0)
(0.001764962677523311 0 0)
(0.001708301807405891 0 0)
(0.001636348526567748 0 0)
(0.001549365917981391 0 0)
(0.001448778043581675 0 0)
(0.001337251754658248 0 0)
(0.001220148029897938 0 0)
(0.001101619205187664 0 0)
(0.000983221577382351 0 0)
(0.0008650656355824454 0 0)
(0.0007478241991492308 0 0)
(0.0006324664925690795 0 0)
(0.000520512465043801 0 0)
(0.0004138445091414241 0 0)
(0.0003147302245977298 0 0)
(0.0002255094993241921 0 0)
(0.0001485166446597591 0 0)
(8.572096170455089e-05 0 0)
(3.871811054668806e-05 0 0)
(8.491775710769524e-06 0 0)
(-4.40711151245117e-06 0 0)
(4.996581181329236e-08 0 0)
(2.169078945525998e-05 0 0)
(6.010220719125152e-05 0 0)
(0.0001149358848551758 0 0)
(0.0001857569294203448 0 0)
(0.0002720871416070357 0 0)
(0.0003725241221881996 0 0)
(0.0004837208469510641 0 0)
(0.0006001313338170413 0 0)
(0.0007176294709444394 0 0)
(0.0008350383825824638 0 0)
(0.0009522508236830549 0 0)
(0.001068512267819678 0 0)
(0.001183138625047435 0 0)
(0.001294516987681099 0 0)
(0.001401146321291378 0 0)
(0.001500698746536667 0 0)
(0.001591167757284582 0 0)
(0.001670030561230171 0 0)
(0.001735474591904419 0 0)
(0.00178553050921148 0 0)
(0.001819244987217381 0 0)
(0.001835646581365176 0 0)
(0.001834776356256219 0 0)
(0.001816486867403239 0 0)
(0.001781372767431359 0 0)
(0.001729524863373522 0 0)
(0.001661554663119106 0 0)
(0.001577709726031944 0 0)
(0.001479545390848271 0 0)
(0.001370099607871261 0 0)
(0.001255042168222898 0 0)
(0.001138564220826857 0 0)
(0.001022206133896524 0 0)
(0.0009059960524952542 0 0)
(0.0007905320526678607 0 0)
(0.0006765127447022167 0 0)
(0.0005652424542306136 0 0)
(0.0004582008930652833 0 0)
(0.0003574269118828507 0 0)
(0.0002649731722872981 0 0)
(0.000183209229568972 0 0)
(0.0001142116542063756 0 0)
(6.000712221257916e-05 0 0)
(2.201538331180894e-05 0 0)
(1.345614481533435e-06 0 0)
(-1.581386155340764e-06 0 0)
(1.341405243636965e-05 0 0)
(4.605737678638029e-05 0 0)
(9.612723766286783e-05 0 0)
(0.0001631437201724421 0 0)
(0.0002465847081050792 0 0)
(0.000344755625334706 0 0)
(0.0004540249201342079 0 0)
(0.0005685396488586846 0 0)
(0.0006841870634776723 0 0)
(0.0007997430266424699 0 0)
(0.0009151696649236747 0 0)
(0.001029810460104692 0 0)
(0.001143148173910418 0 0)
(0.001253799188539383 0 0)
(0.001360533146978108 0 0)
(0.001461289968525471 0 0)
(0.001554280693142432 0 0)
(0.001637090151950304 0 0)
(0.001707845013385803 0 0)
(0.001764359342916018 0 0)
(0.001805298719092115 0 0)
(0.001829257517531361 0 0)
(0.001835817934146217 0 0)
(0.001824470517893427 0 0)
(0.00179554185919421 0 0)
(0.001748991692520902 0 0)
(0.001685416584377435 0 0)
(0.001605119601766621 0 0)
(0.00150980887459837 0 0)
(0.001402656317730807 0 0)
(0.00128952436599165 0 0)
(0.001174788549141363 0 0)
(0.001060148653673265 0 0)
(0.0009455830604833491 0 0)
(0.0008316249862988249 0 0)
(0.0007188007374540788 0 0)
(0.0006082353952790009 0 0)
(0.0005011586188594094 0 0)
(0.0003993689276256084 0 0)
(0.0003046895324550596 0 0)
(0.0002193611820848918 0 0)
(0.0001454214845757114 0 0)
(8.505653511184406e-05 0 0)
(3.994278704927454e-05 0 0)
(1.163739769824989e-05 0 0)
(9.873268623983296e-07 0 0)
(8.670355165645378e-06 0 0)
(3.47255648115e-05 0 0)
(7.921552291785773e-05 0 0)
(0.0001417089751419278 0 0)
(0.0002216779883960428 0 0)
(0.0003172104167931146 0 0)
(0.000424441728319174 0 0)
(0.0005372264656594647 0 0)
(0.0006512807613962208 0 0)
(0.0007652588646335477 0 0)
(0.000879160934247183 0 0)
(0.0009924013857936385 0 0)
(0.001104595834991332 0 0)
(0.001214523026861368 0 0)
(0.001321164479983709 0 0)
(0.001422671778952678 0 0)
(0.001517466792654626 0 0)
(0.001603274765481216 0 0)
(0.001678290601884289 0 0)
(0.001740252611176339 0 0)
(0.001787644482256838 0 0)
(0.001818728835045963 0 0)
(0.001832712203749724 0 0)
(0.001828660442643209 0 0)
(0.001806546996388738 0 0)
(0.001766057553867524 0 0)
(0.001707640738432254 0 0)
(0.001631559191726378 0 0)
(0.001539557837330999 0 0)
(0.001434884575563308 0 0)
(0.001323581715488773 0 0)
(0.001210380202522821 0 0)
(0.001097222655680468 0 0)
(0.0009840932985349647 0 0)
(0.0008714638261468046 0 0)
(0.0007597349623399034 0 0)
(0.0006498900062776586 0 0)
(0.0005429566321229779 0 0)
(0.0004405396051127631 0 0)
(0.0003442501451379552 0 0)
(0.0002561805753113776 0 0)
(0.0001782648588358842 0 0)
(0.0001127202792511425 0 0)
(6.134748961442698e-05 0 0)
(2.598686714611917e-05 0 0)
(7.837479198740216e-06 0 0)
(8.013596681104426e-06 0 0)
(2.695675469869548e-05 0 0)
(6.508209143613787e-05 0 0)
(0.0001221917998127443 0 0)
(0.000197874078461571 0 0)
(0.0002901997990962075 0 0)
(0.0003951555668103086 0 0)
(0.0005062880870902466 0 0)
(0.0006189183812093763 0 0)
(0.0007315101386075051 0 0)
(0.0008440597404298154 0 0)
(0.0009560610516313332 0 0)
(0.001067211449014591 0 0)
(0.001176435111785054 0 0)
(0.001282867489828491 0 0)
(0.001384848147084327 0 0)
(0.001480974009597429 0 0)
(0.001569129897144108 0 0)
(0.001647604659972721 0 0)
(0.00171416106568949 0 0)
(0.001767185030946877 0 0)
(0.001804756972557239 0 0)
(0.001825781079734068 0 0)
(0.001828987455866112 0 0)
(0.00181397329637851 0 0)
(0.001780110498246357 0 0)
(0.001727585250519425 0 0)
(0.001656493719859803 0 0)
(0.001568454953113275 0 0)
(0.001466640765472109 0 0)
(0.00135722369767591 0 0)
(0.001245431578567828 0 0)
(0.001133608175028403 0 0)
(0.001021766845250582 0 0)
(0.0009103446655275163 0 0)
(0.0007996251205288479 0 0)
(0.0006904968671548618 0 0)
(0.0005838098838068139 0 0)
(0.0004810246195414441 0 0)
(0.0003835480762028295 0 0)
(0.0002933376170604041 0 0)
(0.0002121887096950553 0 0)
(0.0001422915797576419 0 0)
(8.548043219802496e-05 0 0)
(4.376379598624031e-05 0 0)
(1.859236884089638e-05 0 0)
(1.142612459821713e-05 0 0)
(2.307996196330694e-05 0 0)
(5.434268217318043e-05 0 0)
(0.0001053319932164089 0 0)
(0.0001758758481410456 0 0)
(0.000264217017486596 0 0)
(0.0003664157920044395 0 0)
(0.000475799222623733 0 0)
(0.000587111173038367 0 0)
(0.0006984477882802092 0 0)
(0.0008097671125425915 0 0)
(0.0009206368162957526 0 0)
(0.001030810911169289 0 0)
(0.001139349577129024 0 0)
(0.001245494899891004 0 0)
(0.001347765860229322 0 0)
(0.001444887359001791 0 0)
(0.001534920403598985 0 0)
(0.001616235444274048 0 0)
(0.001686684479011186 0 0)
(0.001744602004821967 0 0)
(0.001787993984919457 0 0)
(0.001815534877458231 0 0)
(0.00182572000103702 0 0)
(0.001817798206448323 0 0)
(0.001790859820146431 0 0)
(0.001744764532542437 0 0)
(0.001679388591097153 0 0)
(0.001596050677084979 0 0)
(0.001497683055387321 0 0)
(0.001390378506898327 0 0)
(0.001279972200356789 0 0)
(0.001169368252357801 0 0)
(0.001058731603964503 0 0)
(0.000948420863001721 0 0)
(0.0008386739041639225 0 0)
(0.0007302447087093266 0 0)
(0.000623892914799558 0 0)
(0.0005209004910845107 0 0)
(0.0004225555372389889 0 0)
(0.0003306346873758464 0 0)
(0.0002468412079396964 0 0)
(0.0001732600823083708 0 0)
(0.0001117430834965655 0 0)
(6.435381693426382e-05 0 0)
(3.273082062964524e-05 0 0)
(1.857105714093928e-05 0 0)
(2.301045813530331e-05 0 0)
(4.71675371289569e-05 0 0)
(9.149115625162832e-05 0 0)
(0.0001561286751211838 0 0)
(0.0002396490173685981 0 0)
(0.0003384578817302892 0 0)
(0.0004458416616072097 0 0)
(0.000555867060352118 0 0)
(0.0006660245799340043 0 0)
(0.0007761989751624878 0 0)
(0.0008859976669997392 0 0)
(0.0009952510860197483 0 0)
(0.00110310389165938 0 0)
(0.001208919309103122 0 0)
(0.001311333024151322 0 0)
(0.001409219666274485 0 0)
(0.001500757239905743 0 0)
(0.00158444824918018 0 0)
(0.001658200046336757 0 0)
(0.001720391055255413 0 0)
(0.001768955956404767 0 0)
(0.001802472413172203 0 0)
(0.001819215540256275 0 0)
(0.001818214808634669 0 0)
(0.001798256817598287 0 0)
(0.001758951654377703 0 0)
(0.001699855336046121 0 0)
(0.001621967232278254 0 0)
(0.001527724470332806 0 0)
(0.001422960006306331 0 0)
(0.00131398135300968 0 0)
(0.001204545929007778 0 0)
(0.001095027490416725 0 0)
(0.0009857931382648401 0 0)
(0.0008769678333823239 0 0)
(0.0007692621510914779 0 0)
(0.000663286691547377 0 0)
(0.0005602404952795226 0 0)
(0.0004612403042637699 0 0)
(0.000367965454662779 0 0)
(0.0002819662452437898 0 0)
(0.0002052680269055063 0 0)
(0.0001396540274122394 0 0)
(8.723577397323754e-05 0 0)
(4.972967332721598e-05 0 0)
(2.902216936732449e-05 0 0)
(2.647121539838244e-05 0 0)
(4.348481177339652e-05 0 0)
(8.08096799259399e-05 0 0)
(0.0001389335571341152 0 0)
(0.0002168570915905871 0 0)
(0.0003115349446393308 0 0)
(0.0004165170862488155 0 0)
(0.0005251894972174989 0 0)
(0.0006342219109035018 0 0)
(0.0007432832527131944 0 0)
(0.0008520623258521682 0 0)
(0.0009604001718020018 0 0)
(0.001067580703118221 0 0)
(0.001173001463339625 0 0)
(0.001275471476339135 0 0)
(0.001373916783384642 0 0)
(0.001466702562903522 0 0)
(0.001552368883854907 0 0)
(0.001628978828808275 0 0)
(0.001694881761700971 0 0)
(0.001748080354042427 0 0)
(0.001787008627595687 0 0)
(0.001809888681303675 0 0)
(0.001815489168656598 0 0)
(0.001802453939491091 0 0)
(0.00177006949617341 0 0)
(0.00171768725494377 0 0)
(0.001645844172039502 0 0)
(0.001556477471623201 0 0)
(0.00145478741103381 0 0)
(0.00134744604631388 0 0)
(0.001239123768723443 0 0)
(0.001130704555772044 0 0)
(0.001022488300552819 0 0)
(0.000914595445952149 0 0)
(0.0008076029342852348 0 0)
(0.000702082132849765 0 0)
(0.0005990707060568492 0 0)
(0.0004996204229083778 0 0)
(0.0004052401503536772 0 0)
(0.0003174167816377737 0 0)
(0.0002380346199840444 0 0)
(0.0001688638363152603 0 0)
(0.0001119590811513228 0 0)
(6.912733083523577e-05 0 0)
(4.232213123287467e-05 0 0)
(3.311074609937732e-05 0 0)
(4.307770574904403e-05 0 0)
(7.326701911037263e-05 0 0)
(0.0001244476318840222 0 0)
(0.000196117378229073 0 0)
(0.000285880767822421 0 0)
(0.0003878934558347757 0 0)
(0.0004950456634842332 0 0)
(0.0006029894218262097 0 0)
(0.000710980551114308 0 0)
(0.0008187614930028057 0 0)
(0.000926200169534649 0 0)
(0.001032684041628941 0 0)
(0.001137667062796908 0 0)
(0.001240086401281036 0 0)
(0.001338941732239053 0 0)
(0.001432737683617884 0 0)
(0.001520081164130824 0 0)
(0.001599153948774698 0 0)
(0.001668326631370394 0 0)
(0.001725657594672772 0 0)
(0.001769512889985207 0 0)
(0.001798073135222239 0 0)
(0.00180993777967713 0 0)
(0.001803624696462196 0 0)
(0.001778171877035846 0 0)
(0.001732718481662356 0 0)
(0.001667382735618216 0 0)
(0.001583538647436205 0 0)
(0.001485585772298481 0 0)
(0.001380203728384293 0 0)
(0.001273034879139933 0 0)
(0.00116569723557298 0 0)
(0.001058508737557562 0 0)
(0.0009515451795073754 0 0)
(0.0008453108998169554 0 0)
(0.0007402895900663365 0 0)
(0.0006374263575708249 0 0)
(0.0005376668198236367 0 0)
(0.0004424145814038514 0 0)
(0.0003530517728680376 0 0)
(0.0002713715111487321 0 0)
(0.0001990749568868159 0 0)
(0.0001381816424261326 0 0)
(9.051021839393466e-05 0 0)
(5.807369087260915e-05 0 0)
(4.255295082133077e-05 0 0)
(4.568989512362139e-05 0 0)
(6.874029517074674e-05 0 0)
(0.0001127515590881638 0 0)
(0.0001776621054127556 0 0)
(0.0002617983527179226 0 0)
(0.0003601408318428488 0 0)
(0.0004654752154219401 0 0)
(0.000572310774395746 0 0)
(0.0006792652574086906 0 0)
(0.000786047315569761 0 0)
(0.0008926007262698886 0 0)
(0.0009983465297914505 0 0)
(0.001102857772837356 0 0)
(0.00120511821400149 0 0)
(0.00130426478876057 0 0)
(0.001398856197269047 0 0)
(0.001487637334546584 0 0)
(0.00156882808865385 0 0)
(0.001640906797659471 0 0)
(0.001701919999117786 0 0)
(0.001750278604237225 0 0)
(0.001784072077994458 0 0)
(0.001801861652987142 0 0)
(0.001801992819870019 0 0)
(0.001783394717169969 0 0)
(0.001744945030865087 0 0)
(0.001686480652225751 0 0)
(0.00160873380305134 0 0)
(0.001515281085828096 0 0)
(0.001412313480654267 0 0)
(0.001306397833965535 0 0)
(0.001200069788703273 0 0)
(0.001093879577733171 0 0)
(0.000987827828059386 0 0)
(0.0008823622166976298 0 0)
(0.000777889494017171 0 0)
(0.0006752635111115298 0 0)
(0.0005753374175895802 0 0)
(0.0004794123870898445 0 0)
(0.0003887737561776819 0 0)
(0.0003051218633294551 0 0)
(0.0002300848270557891 0 0)
(0.0001656329856247417 0 0)
(0.0001135700904674328 0 0)
(7.593512723334568e-05 0 0)
(5.447851327305787e-05 0 0)
(5.105958451845647e-05 0 0)
(6.709416376782949e-05 0 0)
(0.000103866026320231 0 0)
(0.0001616980215764065 0 0)
(0.0002396151310328824 0 0)
(0.0003335484566006233 0 0)
(0.0004366011661894159 0 0)
(0.0005422319181954366 0 0)
(0.0006481457499627672 0 0)
(0.0007539307566088538 0 0)
(0.0008595576713897726 0 0)
(0.0009645438879257579 0 0)
(0.001068502462888137 0 0)
(0.001170533528194338 0 0)
(0.00126982757995635 0 0)
(0.001365065913464718 0 0)
(0.00145504680102887 0 0)
(0.001538102422428333 0 0)
(0.001612742320296796 0 0)
(0.001677090189184328 0 0)
(0.001729536541095167 0 0)
(0.00176818847445881 0 0)
(0.001791518852193874 0 0)
(0.001797825083082253 0 0)
(0.001785874036059567 0 0)
(0.001754411273730799 0 0)
(0.00170295351534891 0 0)
(0.001631757514130414 0 0)
(0.001543467208258563 0 0)
(0.001443558784901187 0 0)
(0.00133907571012415 0 0)
(0.001233785430721356 0 0)
(0.001128577263820126 0 0)
(0.001023453815179438 0 0)
(0.0009187834118078351 0 0)
(0.0008149167206035041 0 0)
(0.000712610291854053 0 0)
(0.0006126467112988343 0 0)
(0.0005162161610963956 0 0)
(0.0004245305955632418 0 0)
(0.0003391813512927808 0 0)
(0.00026174161299668 0 0)
(0.0001941009807781096 0 0)
(0.0001380543240647323 0 0)
(9.561681819594507e-05 0 0)
(6.860166184407751e-05 0 0)
(5.891970216757163e-05 0 0)
(6.81340139619297e-05 0 0)
(9.768960345185606e-05 0 0)
(0.0001482627415399717 0 0)
(0.0002194657240987869 0 0)
(0.0003082485473170637 0 0)
(0.0004083971372581377 0 0)
(0.0005126686546734512 0 0)
(0.0006175580782851709 0 0)
(0.0007223674340877018 0 0)
(0.0008270638937048479 0 0)
(0.0009312729070297994 0 0)
(0.001034626390762525 0 0)
(0.001136354019225215 0 0)
(0.001235676841675176 0 0)
(0.001331410762882342 0 0)
(0.001422386878552563 0 0)
(0.001507061722610172 0 0)
(0.001583964651584433 0 0)
(0.001651312754073681 0 0)
(0.001707482120632347 0 0)
(0.001750619671147273 0 0)
(0.001779133379910249 0 0)
(0.001791294724684215 0 0)
(0.001785748205080494 0 0)
(0.001761128233697686 0 0)
(0.00171670246882317 0 0)
(0.001652312953353631 0 0)
(0.001569784202762157 0 0)
(0.001473642126339652 0 0)
(0.001370975664697597 0 0)
(0.001266760140490787 0 0)
(0.001162555732541744 0 0)
(0.001058383590589822 0 0)
(0.0009545638933650032 0 0)
(0.0008513686728217396 0 0)
(0.0007494873864022283 0 0)
(0.0006496041230555589 0 0)
(0.0005528380823962784 0 0)
(0.0004602934978977677 0 0)
(0.0003734993970585874 0 0)
(0.0002939285201753813 0 0)
(0.0002234357158521541 0 0)
(0.0001637459793585086 0 0)
(0.0001168881748287277 0 0)
(8.465729744412632e-05 0 0)
(6.904474546361183e-05 0 0)
(7.166715864118045e-05 0 0)
(9.414932830954014e-05 0 0)
(0.0001373928822836614 0 0)
(0.0002015639398492428 0 0)
(0.0002845120836490462 0 0)
(0.0003810491534751025 0 0)
(0.0004836369763527044 0 0)
(0.0005875014800121367 0 0)
(0.000691324357054091 0 0)
(0.0007951095480855752 0 0)
(0.0008984923887978847 0 0)
(0.001001220345972216 0 0)
(0.001102547112778914 0 0)
(0.001201817554681678 0 0)
(0.00129788336331508 0 0)
(0.001389695013111833 0 0)
(0.001475746714851374 0 0)
(0.001554668563139275 0 0)
(0.001624700965499732 0 0)
(0.001684282985749284 0 0)
(0.001731553429196419 0 0)
(0.001764929915789202 0 0)
(0.001782632524202349 0 0)
(0.001783250773504224 0 0)
(0.001765308714903419 0 0)
(0.001727896315929673 0 0)
(0.001670505173400127 0 0)
(0.00159424405413755 0 0)
(0.001502608982249126 0 0)
(0.001402244851334367 0 0)
(0.001299185401613784 0 0)
(0.001195941463631903 0 0)
(0.001092704416101586 0 0)
(0.0009897264766819389 0 0)
(0.0008872317762432951 0 0)
(0.0007858190694467074 0 0)
(0.0006861151481529101 0 0)
(0.000589133109272636 0 0)
(0.0004959200312470778 0 0)
(0.000407893536141828 0 0)
(0.0003264810395691576 0 0)
(0.0002534364684203631 0 0)
(0.0001904687529586531 0 0)
(0.0001395390324874617 0 0)
(0.0001024765706471407 0 0)
(8.125753774677322e-05 0 0)
(7.760038966856216e-05 0 0)
(9.320061711905212e-05 0 0)
(0.0001292108514610159 0 0)
(0.0001861702580744878 0 0)
(0.0002627808104107506 0 0)
(0.0003549155389396965 0 0)
(0.0004553483233533409 0 0)
(0.0005580739720037448 0 0)
(0.0006609149820314148 0 0)
(0.0007637322056225378 0 0)
(0.0008662644344704197 0 0)
(0.0009682693976641486 0 0)
(0.001069125728734657 0 0)
(0.001168204247854869 0 0)
(0.001264481449632953 0 0)
(0.001356940710846163 0 0)
(0.001444188368867177 0 0)
(0.001524883830282374 0 0)
(0.001597353821812098 0 0)
(0.001660049250454623 0 0)
(0.001711154900763316 0 0)
(0.001749070925426037 0 0)
(0.001772012032300453 0 0)
(0.001778509225770061 0 0)
(0.001767013835537288 0 0)
(0.001736471642891524 0 0)
(0.001686100613075955 0 0)
(0.00161643586062368 0 0)
(0.0015299769558177 0 0)
(0.00143257412341633 0 0)
(0.001330880115990456 0 0)
(0.001228620481453258 0 0)
(0.001126328914267842 0 0)
(0.001024229507783484 0 0)
(0.0009224899540245838 0 0)
(0.0008216305597502877 0 0)
(0.0007222116481520471 0 0)
(0.0006251551881645491 0 0)
(0.0005314377803566928 0 0)
(0.0004423849225025398 0 0)
(0.0003593608957873692 0 0)
(0.0002840385250771474 0 0)
(0.0002180859989517756 0 0)
(0.0001634098121446195 0 0)
(0.0001218384396441785 0 0)
(9.533658459174236e-05 0 0)
(8.568162539544067e-05 0 0)
(9.462825876650559e-05 0 0)
(0.0001235141145368718 0 0)
(0.0001731829404637235 0 0)
(0.0002430453946409117 0 0)
(0.0003300450996653013 0 0)
(0.0004277056177973258 0 0)
(0.0005291351051292028 0 0)
(0.0006310064087194389 0 0)
(0.0007328658729382992 0 0)
(0.0008345333954896204 0 0)
(0.0009357870218709813 0 0)
(0.00103611477466527 0 0)
(0.001134917512938815 0 0)
(0.001231290641403002 0 0)
(0.001324244638977785 0 0)
(0.001412505343518213 0 0)
(0.001494746602198286 0 0)
(0.001569404140479797 0 0)
(0.00163491974109349 0 0)
(0.001689564349840317 0 0)
(0.001731692875852922 0 0)
(0.001759570558802721 0 0)
(0.001771638787223543 0 0)
(0.001766350152948392 0 0)
(0.001742483561365074 0 0)
(0.001699100660254291 0 0)
(0.0016362220089753 0 0)
(0.001555529842506267 0 0)
(0.001461801220263495 0 0)
(0.001361847015754914 0 0)
(0.001260593422407857 0 0)
(0.001159264046411991 0 0)
(0.00105806153309018 0 0)
(0.0009571241216172944 0 0)
(0.0008568867024771208 0 0)
(0.0007578518491447292 0 0)
(0.0006608499383788628 0 0)
(0.000566789515092003 0 0)
(0.0004769066143615748 0 0)
(0.000392497888170201 0 0)
(0.0003151597867303469 0 0)
(0.0002465058152618259 0 0)
(0.0001883927054588115 0 0)
(0.0001426237060218123 0 0)
(0.0001111568369211106 0 0)
(9.579134479170675e-05 0 0)
(9.834148790824408e-05 0 0)
(0.0001202666527686463 0 0)
(0.0001626691277952771 0 0)
(0.000225505732620107 0 0)
(0.0003067273001311754 0 0)
(0.0004008757115763072 0 0)
(0.0005007228951731906 0 0)
(0.0006016062324337133 0 0)
(0.0007025289374479653 0 0)
(0.0008033102505719682 0 0)
(0.0009037970696506517 0 0)
(0.001003525038507051 0 0)
(0.001101983675680802 0 0)
(0.00119832210263333 0 0)
(0.001291642824103159 0 0)
(0.001380723813132048 0 0)
(0.001464323860696589 0 0)
(0.001540919186488171 0 0)
(0.001609017236435864 0 0)
(0.001666907290989064 0 0)
(0.001712980384164483 0 0)
(0.001745488951981567 0 0)
(0.001762870082546305 0 0)
(0.001763520878883815 0 0)
(0.001746150176591142 0 0)
(0.00170964589483356 0 0)
(0.001653679897023311 0 0)
(0.001579190961836861 0 0)
(0.001489880578543044 0 0)
(0.001392149571817369 0 0)
(0.001291998771794595 0 0)
(0.001191604185509857 0 0)
(0.001091298244366401 0 0)
(0.000991177886028066 0 0)
(0.000891599730809326 0 0)
(0.0007930161019050786 0 0)
(0.0006961624376954013 0 0)
(0.0006018903874987927 0 0)
(0.0005113388190966529 0 0)
(0.0004257483758392028 0 0)
(0.0003466272415325222 0 0)
(0.0002755442118993396 0 0)
(0.0002142899977196835 0 0)
(0.0001646470859066488 0 0)
(0.0001285439172695901 0 0)
(0.0001077987470007792 0 0)
(0.0001042563285707836 0 0)
(0.0001194740177185814 0 0)
(0.0001547427651822772 0 0)
(0.0002104477111594509 0 0)
(0.0002853893217800222 0 0)
(0.0003752500568665584 0 0)
(0.0004730293269563747 0 0)
(0.0005728318113377645 0 0)
(0.0006727980373880251 0 0)
(0.0007726639539916968 0 0)
(0.0008723208962998692 0 0)
(0.0009713787757319899 0 0)
(0.001069384260090755 0 0)
(0.001165572050547196 0 0)
(0.001259104900897214 0 0)
(0.001348844315668573 0 0)
(0.001433601662773672 0 0)
(0.001511925292802948 0 0)
(0.00158235895276764 0 0)
(0.001643243868178631 0 0)
(0.001692981584529948 0 0)
(0.001729847246188656 0 0)
(0.001752255085437314 0 0)
(0.00175858607773455 0 0)
(0.001747471176740133 0 0)
(0.001717686630439321 0 0)
(0.001668617874394394 0 0)
(0.001600632355374099 0 0)
(0.001516400274615009 0 0)
(0.001421540931856921 0 0)
(0.001322696258476458 0 0)
(0.001223250402094266 0 0)
(0.001123853991973141 0 0)
(0.001024581991462029 0 0)
(0.0009257205699472407 0 0)
(0.0008276680884299847 0 0)
(0.0007310719825793034 0 0)
(0.0006367253457512578 0 0)
(0.0005456714124895744 0 0)
(0.0004590967867930058 0 0)
(0.0003784154049067484 0 0)
(0.0003051568738151517 0 0)
(0.0002410306361360601 0 0)
(0.0001878063770187013 0 0)
(0.0001473578763333473 0 0)
(0.0001215311681906164 0 0)
(0.0001121620599107899 0 0)
(0.0001209094744781919 0 0)
(0.0001491777354941769 0 0)
(0.0001977196144806464 0 0)
(0.0002659966605262964 0 0)
(0.000350857756061739 0 0)
(0.0004459551801982666 0 0)
(0.000544540183005193 0 0)
(0.0006435498163159546 0 0)
(0.0007425120724243227 0 0)
(0.0008413195099760948 0 0)
(0.000939680727462486 0 0)
(0.001037169154412594 0 0)
(0.001133127599032234 0 0)
(0.001226750035131316 0 0)
(0.001317006195408597 0 0)
(0.001402734453492516 0 0)
(0.001482582781324433 0 0)
(0.001555108859807286 0 0)
(0.001618735472262143 0 0)
(0.001671855247310072 0 0)
(0.001712797873055416 0 0)
(0.001739938140854744 0 0)
(0.001751675745329318 0 0)
(0.001746555707687663 0 0)
(0.001723296606953546 0 0)
(0.001681039846461172 0 0)
(0.001619734167442427 0 0)
(0.001541127152279506 0 0)
(0.00144986120682661 0 0)
(0.001352668899560319 0 0)
(0.001254216451766775 0 0)
(0.001155733973417473 0 0)
(0.001057339848024311 0 0)
(0.0009592405397759188 0 0)
(0.0008617918690443571 0 0)
(0.0007655507347736248 0 0)
(0.0006712544474324688 0 0)
(0.0005798548008916567 0 0)
(0.000492478420001636 0 0)
(0.0004104548857307232 0 0)
(0.0003352583997565221 0 0)
(0.0002685309635946704 0 0)
(0.0002120032327725059 0 0)
(0.000167511203297765 0 0)
(0.0001368926548661962 0 0)
(0.0001219928224056001 0 0)
(0.000124519432901643 0 0)
(0.0001459892533777158 0 0)
(0.0001874046152389299 0 0)
(0.0002487825026795515 0 0)
(0.000327985274351516 0 0)
(0.0004196834731012216 0 0)
(0.0005167498425951854 0 0)
(0.0006148097820870453 0 0)
(0.0007128636707112365 0 0)
(0.0008108218680550804 0 0)
(0.0009084386667894163 0 0)
(0.001005360778284942 0 0)
(0.001100988319007895 0 0)
(0.001194597971303163 0 0)
(0.00128521621635547 0 0)
(0.001371762537306993 0 0)
(0.001452931103737714 0 0)
(0.001527350037642824 0 0)
(0.00159346993300998 0 0)
(0.001649735254909982 0 0)
(0.001694477197197366 0 0)
(0.001726096647554646 0 0)
(0.001742962150056042 0 0)
(0.0017436064465008 0 0)
(0.001726652640010028 0 0)
(0.001691108377252201 0 0)
(0.001636548975633521 0 0)
(0.001564012462103686 0 0)
(0.001477041425467702 0 0)
(0.001382003850678896 0 0)
(0.001284609203168241 0 0)
(0.001187040589169939 0 0)
(0.001089514027729469 0 0)
(0.0009922037352714779 0 0)
(0.0008953960162396321 0 0)
(0.0007995852358888718 0 0)
(0.0007054327809067038 0 0)
(0.0006138199187672952 0 0)
(0.0005257966000005643 0 0)
(0.0004426235323167567 0 0)
(0.0003657064080456367 0 0)
(0.0002966287203200251 0 0)
(0.0002370710767541979 0 0)
(0.000188832175010083 0 0)
(0.0001537313769244266 0 0)
(0.0001336123467133555 0 0)
(0.0001302182964848537 0 0)
(0.0001451443694803587 0 0)
(0.0001795883924077877 0 0)
(0.0002339848716571581 0 0)
(0.0003070569834827603 0 0)
(0.0003945954869233853 0 0)
(0.0004896763038579064 0 0)
(0.0005866903458547763 0 0)
(0.0006838186554168656 0 0)
(0.0007808825139878121 0 0)
(0.000877705005581242 0 0)
(0.000973974479447543 0 0)
(0.001069179804068585 0 0)
(0.001162644675925195 0 0)
(0.00125348827556675 0 0)
(0.001340672375858943 0 0)
(0.001422978919299823 0 0)
(0.001499066259899874 0 0)
(0.001567459986174857 0 0)
(0.001626616041274296 0 0)
(0.001674922275051225 0 0)
(0.001710767066697236 0 0)
(0.001732550232850344 0 0)
(0.001738759782420796 0 0)
(0.001728007177830919 0 0)
(0.00169916448259158 0 0)
(0.001651573572395867 0 0)
(0.001585614711117605 0 0)
(0.00150371753415947 0 0)
(0.001411242564922486 0 0)
(0.001314592882650913 0 0)
(0.001217287423267829 0 0)
(0.001119989889222526 0 0)
(0.001022798700372441 0 0)
(0.000925908025010568 0 0)
(0.0008296569789198003 0 0)
(0.0007345386179466233 0 0)
(0.0006412020467272497 0 0)
(0.0005504446956980597 0 0)
(0.0004631965462737254 0 0)
(0.0003804961417379151 0 0)
(0.0003034581611921449 0 0)
(0.0002332321847072626 0 0)
(0.0001709519086190707 0 0)
(0.0001176724486858892 0 0)
(7.428767303540813e-05 0 0)
(4.140316007123699e-05 0 0)
(1.91048662707314e-05 0 0)
(6.534409755379093e-06 0 0)
(1.375009272206492e-06 0 0)
(1.338717159251498e-07 0 0)
(4.19333624499499e-09 0 0)
(7.092655421742858e-11 0 0)
(4.37576081630167e-11 0 0)
(4.389607942956917e-11 0 0)
(4.395364710209065e-11 0 0)
(4.404470664109369e-11 0 0)
(4.412413046611864e-11 0 0)
(4.420812258531127e-11 0 0)
(4.428846186066417e-11 0 0)
(4.43368517406141e-11 0 0)
(4.448780967790688e-11 0 0)
(4.44412023284231e-11 0 0)
(4.459569845434123e-11 0 0)
(4.46463671069152e-11 0 0)
(4.471858198458942e-11 0 0)
(4.479448553586476e-11 0 0)
(4.484473318878294e-11 0 0)
(4.499473447153144e-11 0 0)
(4.494558858368185e-11 0 0)
(4.508977290518426e-11 0 0)
(4.514823273868055e-11 0 0)
(4.520386739574191e-11 0 0)
)
;

boundaryField
{
    inlet
    {
        type            calculated;
        value           uniform (-3.992622634957152e-05 0 0);
    }
    outlet
    {
        type            calculated;
        value           uniform (4.522765083090403e-11 0 0);
    }
    frontAndBack
    {
        type            empty;
    }
}


// ************************************************************************* //
