/*--------------------------------*- C++ -*----------------------------------*\
| =========                 |                                                 |
| \\      /  F ield         | OpenFOAM: The Open Source CFD Toolbox           |
|  \\    /   O peration     | Version:  v2012                                 |
|   \\  /    A nd           | Website:  www.openfoam.com                      |
|    \\/     M anipulation  |                                                 |
\*---------------------------------------------------------------------------*/
FoamFile
{
    version     2.0;
    format      ascii;
    class       volScalarField;
    location    "0.004";
    object      T;
}
// * * * * * * * * * * * * * * * * * * * * * * * * * * * * * * * * * * * * * //

dimensions      [0 0 0 1 0 0 0];


internalField   nonuniform List<scalar> 
1000
(
299.9895950956968
299.9909235846783
299.9843981485831
299.9785610154798
299.9736568584328
299.9705000657473
299.9675720163238
299.9639134737066
299.960256737505
299.9585683634488
299.9562552519102
299.9561110325043
299.9579612399629
299.9607873878039
299.9631285540798
299.964444530718
299.9638662215595
299.9654215515519
299.9716103704161
299.9809793452044
299.9890350992218
299.9940092475545
299.9964041753622
299.9980243417208
300.0025329424263
300.012023516733
300.0229500500225
300.0296479681115
300.0329142798475
300.0339296098455
300.0341998608895
300.0367299391065
300.0409380730352
300.0433418580029
300.0457698463152
300.0459973779105
300.0438478094023
300.0397126823251
300.0349615092812
300.031467655355
300.030213468758
300.0299968574154
300.0281425633759
300.02250471615
300.0127449094379
300.0019118207824
299.9945213348561
299.9909048492767
299.988587486659
299.9851090726775
299.9789178587857
299.9701580777346
299.961565115061
299.9571872914131
299.9560936142184
299.9562904836951
299.9566826009781
299.9569948243757
299.9569366466466
299.9570790674784
299.9577777001215
299.95919172905
299.9613776207852
299.9643562313862
299.9682332435387
299.9730666004621
299.9788400641315
299.9856338808746
299.9934392082264
300.0015189604625
300.0084321285253
300.0135439207404
300.0178769418972
300.0234905732109
300.0321833447374
300.0407814396888
300.0435755732873
300.0437156084404
300.0435527709021
300.0434279970676
300.0432772035228
300.0430534576412
300.0426219080219
300.0419589785017
300.0410658222745
300.0401540668569
300.0389116978563
300.0363924169403
300.0313738733732
300.023423141921
300.0143288278686
300.0068175884218
300.0013723014107
299.9967272513055
299.9914140994375
299.9839136535787
299.9729327734847
299.9611020626278
299.9557237426001
299.9550794608468
299.9549772763294
299.9550271382547
299.9552431119429
299.9556052902146
299.9560235888562
299.9565370424845
299.9572494368895
299.9581651029511
299.9592588467614
299.9605808041954
299.9622761026944
299.9649270152082
299.9697805541307
299.9783070185069
299.9901590369926
300.0011089136676
300.00798491757
300.0126863871517
300.018401280938
300.0283701559495
300.0399541996646
300.0443335124766
300.0446121556186
300.0446091106059
300.0445088268116
300.0443638376007
300.0440858109117
300.0435361849912
300.0427342003525
300.0419882570168
300.0414873008698
300.0411338724473
300.0408015620163
300.0401727266849
300.0386761738296
300.0353298201924
300.0287300808907
300.0182466073188
300.0061464575491
299.9952964831755
299.9847358083483
299.9718555665648
299.9598307495065
299.9559051817085
299.9556718553218
299.9556950602285
299.9557238014361
299.9557284600788
299.9558863296969
299.9562853465297
299.9569399997326
299.9577723724343
299.9584283184432
299.9587783224787
299.9590193073652
299.9592759731145
299.9595214936748
299.9602003651632
299.9619894424146
299.9657279620098
299.9723450076056
299.9829370273872
299.9995599276499
300.0226526730829
300.0400404020392
300.0437938484281
300.0439414375058
300.0439050773705
300.0438468168259
300.0438511911561
300.0438386074455
300.0437334260064
300.0434744097454
300.0429784752593
300.042164667985
300.0414751312546
300.0412543473499
300.0411956910189
300.0411387959305
300.0410374014485
300.0407298003109
300.040031051132
300.0384476963595
300.0344996785801
300.0240757688991
299.9997842767042
299.9687257055804
299.9571188593133
299.9564231871441
299.9564179379136
299.9564548464839
299.9564754366617
299.9564496986652
299.9564978074791
299.9566530847481
299.9568306789099
299.9572804448881
299.9580143151636
299.958451038032
299.9585351485488
299.9585350689911
299.9585163381705
299.9585754696178
299.95874707096
299.9590300341767
299.9601336297375
299.9632877057896
299.9727987152499
299.9968526756959
300.0295901885108
300.042664020731
300.0435046885111
300.0435293416734
300.0435378656015
300.0434718814474
300.0434162160914
300.0434588601653
300.0434103874981
300.0432272549376
300.043046477977
300.0427070546708
300.0421385272217
300.0418103266681
300.041689772325
300.0419836281992
300.0419729128678
300.0413036566762
300.0408205679174
300.0409442213212
300.0378825525177
300.0297524354408
300.0058535909355
299.9717180591608
299.9575499671426
299.9566137961312
299.9565982169083
299.956546104928
299.9565790841586
299.9567125290286
299.9568104340006
299.9566830006979
299.9567112045945
299.9570806735783
299.9574453249931
299.9573956021731
299.9575168897089
299.9578955555174
299.9583251375865
299.9580192690867
299.9577205992207
299.9589701506832
299.9607911365159
299.9613567328306
299.9690947732789
299.9898320023665
300.0241195178361
300.0415668926277
300.0431845506219
300.0432504742685
300.0431305159881
300.0430099329478
300.0430277736299
300.0430179553108
300.0428733765589
300.0426955633543
300.0427170270625
300.0427488929747
300.0425037054356
300.0421771041687
300.0421411345207
300.042219846018
300.0418441169815
300.0413059073146
300.0411174347129
300.0407559819358
300.038069778439
300.0321753770128
300.0136741578676
299.9804878795085
299.9596296302006
299.9571056126671
299.9570706403052
299.9570471217128
299.9571028060947
299.9572314643225
299.9573427317326
299.95732762508
299.9573077283086
299.9574411055439
299.957621860332
299.9576171876931
299.9575598464857
299.9578204658284
299.95817840777
299.9582353423033
299.9581220217901
299.9586101317814
299.9597360461577
299.960745494807
299.9665997799922
299.9827438160559
300.0148479323075
300.0389061189805
300.0427279811938
300.0428165919897
300.0427357808042
300.0426600588227
300.0426211150324
300.0425276139748
300.042414660272
300.0423364405225
300.0424178907165
300.0424213390607
300.0422139516141
300.04201214466
300.0421498574516
300.0421458759241
300.0417008755293
300.0412131346797
300.041365673339
300.0409257877295
300.0386999985261
300.0349721586478
300.0208977459184
299.9904661544188
299.9630993261868
299.957516395516
299.9573392921247
299.9572886803178
299.9573813240664
299.9575520571386
299.9576376446572
299.9576219390172
299.9576478479355
299.9577670939138
299.957839382682
299.957712279391
299.9577408355979
299.9580302810691
299.9582864630088
299.9581025267525
299.9582084873948
299.9588321303493
299.9596464029834
299.9601538655772
299.9644407258126
299.9758791419295
300.0037925889466
300.034099070476
300.0423549694837
300.0426632218752
300.0426203790493
300.0425915851408
300.0425139661493
300.0423278466238
300.042195324095
300.042153253139
300.0422326469168
300.0422183809747
300.0420369302852
300.0419331911184
300.042115954267
300.0419713865926
300.0415341546107
300.0412215701523
300.0415080749636
300.0409461867212
300.0391333928919
300.0369095448971
300.0267797034372
300.0014941424168
299.9692373021238
299.9580115427675
299.9573759666571
299.9573248988283
299.9574199422104
299.9575851078843
299.9576895211944
299.9577525459925
299.9578433849127
299.9579472249483
299.9579199800953
299.9577737669778
299.9578937666405
299.9581760809232
299.9583016590449
299.9581000024683
299.958370124113
299.958971383599
299.9593973190882
299.9597130133869
299.9629338740491
299.9707791452698
299.9933063143233
300.026618768897
300.0414791298048
300.0425761323655
300.0425757634162
300.0425904157558
300.0425045165576
300.0422818733934
300.0421145947118
300.0420908017148
300.042119385314
300.0420912050494
300.0419833184313
300.0419928707076
300.042130896412
300.0418711034847
300.0414459925753
300.0413771505568
300.0415895928611
300.0409318882865
300.039463693315
300.0382482349399
300.0309917460206
300.0114387286748
299.978038148177
299.9592954260626
299.9573094512548
299.957248375717
299.957345709893
299.9574740605902
299.9575539886573
299.9577486468008
299.9579706081248
299.9580824792257
299.9579740586389
299.9578332777047
299.9579976423439
299.9582386088413
299.9581836111739
299.9580958597436
299.9584960906678
299.9590442792371
299.9590797462598
299.959447810066
299.9619919428691
299.9670110152973
299.9839384333026
300.016373484313
300.0394336315707
300.0427828642914
300.042859040053
300.0429057214723
300.0428067190738
300.0425380403031
300.0422704659594
300.0420610350711
300.0419452018194
300.0418509383119
300.0418460385459
300.0419733707514
300.0420099317939
300.0416943800582
300.0413651508194
300.041513948727
300.0414943853639
300.0408109762191
300.0397575703555
300.0391479147339
300.0339924388247
300.0199920305774
299.9893163022179
299.962451760717
299.9571360987652
299.9569856723674
299.9570702147873
299.9571616073728
299.9572412743742
299.957586164655
299.9580153074867
299.9581748572672
299.9580958090836
299.9580097971962
299.9581772016118
299.9583067799852
299.9581380454429
299.958219028236
299.9586485076629
299.9590680809466
299.9588342457429
299.9593414893807
299.9613949304911
299.9644144720404
299.9765775246585
300.0047327984732
300.0347964034843
300.0428105751247
300.0431543317068
300.0432211641262
300.0431058117645
300.0428361416979
300.0425809051784
300.0421606346967
300.0418275686255
300.0416911050488
300.0417485292659
300.0419133788203
300.0418480086738
300.0415580722113
300.041385685419
300.041621955222
300.0413692272068
300.0406957534386
300.0401274049056
300.0397587559239
300.0359742991325
300.0265367739361
300.0011660359385
299.9686480488777
299.957201747364
299.9565929812537
299.9566348212702
299.9566567710096
299.9567620265771
299.9572147672912
299.9578293513165
299.9582109647928
299.9582804787117
299.9583147348894
299.9584395729433
299.9584263410086
299.9582457809647
299.9585385966054
299.9590232406938
299.9591197888396
299.9588806854921
299.9596146988891
299.9612879214401
299.9627170310831
299.9708893464488
299.99229104477
300.0257518837464
300.0421759223084
300.0436776071666
300.043796713567
300.0436256673477
300.0434063426393
300.0433306734974
300.0431943879278
300.0424924637748
300.0415105723301
300.0409677408522
300.0409136972236
300.0408159573697
300.0405135102173
300.0403928588879
300.0403248530267
300.038949830385
300.0357476422511
300.0257423382457
300.0093369374916
300.0007847671001
300.0000059684888
300.0000000014909
299.9999999999989
299.9999999999989
299.9999999999989
299.999999999999
299.9999999999994
299.9999999999997
299.9999999999999
300.0000000000001
300.0000000000001
300.0000000000002
300.0000000000003
300.0000000000003
300.0000000000004
300.0000000000006
300.0000000000006
300.0000000000007
300.0000000000006
300.0000000000006
300.0000000000005
300.0000000000005
300.0000000000003
300.0000000000002
300.0000000000002
300.0000000000001
300.0000000000001
300.0000000000001
300.0000000000001
299.9999999999999
299.9999999999998
299.9999999999999
299.9999999999997
299.9999999999995
299.9999999999995
299.9999999999996
299.9999999999997
299.9999999999997
299.9999999999998
299.9999999999998
300
300.0000000000002
300.0000000000003
300.0000000000004
300.0000000000003
300.0000000000002
300.0000000000003
300.0000000000003
300.0000000000004
300.0000000000006
300.0000000000007
300.0000000000008
300.0000000000009
300.000000000001
300.000000000001
300.0000000000007
300.0000000000008
300.0000000000007
300.0000000000008
300.0000000000009
300.0000000000008
300.0000000000008
300.0000000000008
300.0000000000008
300.0000000000007
300.0000000000005
300.0000000000003
300.0000000000004
300.0000000000004
300.0000000000003
300.0000000000003
300.0000000000002
300.0000000000003
300.0000000000003
300.0000000000001
300.0000000000002
300.0000000000001
300.0000000000002
300.0000000000001
300.0000000000001
300.0000000000002
300.0000000000003
300.0000000000005
300.0000000000005
300.0000000000005
300.0000000000006
300.0000000000006
300.0000000000006
300.0000000000006
300.0000000000006
300.0000000000005
300.0000000000004
300.0000000000005
300.0000000000005
300.0000000000006
300.0000000000006
300.0000000000007
300.0000000000007
300.0000000000007
300.0000000000005
300.0000000000003
300.0000000000002
300.0000000000003
300.0000000000004
300.0000000000004
300.0000000000003
300.0000000000003
300.0000000000003
300.0000000000003
300.0000000000005
300.0000000000005
300.0000000000005
300.0000000000006
300.0000000000005
300.0000000000005
300.0000000000004
300.0000000000005
300.0000000000006
300.0000000000006
300.0000000000006
300.0000000000006
300.0000000000006
300.0000000000006
300.0000000000006
300.0000000000007
300.0000000000006
300.0000000000004
300.0000000000004
300.0000000000003
300.0000000000005
300.0000000000006
300.0000000000008
300.0000000000009
300.0000000000009
300.0000000000008
300.0000000000007
300.0000000000007
300.0000000000006
300.0000000000006
300.0000000000006
300.0000000000007
300.0000000000006
300.0000000000006
300.0000000000006
300.0000000000006
300.0000000000006
300.0000000000005
300.0000000000006
300.0000000000006
300.0000000000007
300.0000000000007
300.0000000000007
300.0000000000008
300.0000000000009
300.0000000000007
300.0000000000006
300.0000000000005
300.0000000000006
300.0000000000007
300.0000000000006
300.0000000000006
300.0000000000006
300.0000000000006
300.0000000000005
300.0000000000005
300.0000000000005
300.0000000000005
300.0000000000005
300.0000000000005
300.0000000000005
300.0000000000005
300.0000000000005
300.0000000000005
300.0000000000006
300.0000000000006
300.0000000000006
300.0000000000006
300.0000000000006
300.0000000000006
300.0000000000006
300.0000000000005
300.0000000000003
300.0000000000005
300.0000000000005
300.0000000000006
300.0000000000007
300.0000000000006
300.0000000000006
300.0000000000006
300.0000000000004
300.0000000000004
300.0000000000004
300.0000000000005
300.0000000000005
300.0000000000006
300.0000000000005
300.0000000000005
300.0000000000005
300.0000000000005
300.0000000000007
300.0000000000007
300.0000000000007
300.0000000000008
300.000000000001
300.0000000000011
300.0000000000011
300.000000000001
300.0000000000009
300.0000000000007
300.0000000000008
300.0000000000007
300.0000000000007
300.0000000000007
300.0000000000007
300.0000000000008
300.0000000000009
300.0000000000011
300.0000000000013
300.0000000000013
300.0000000000013
300.0000000000013
300.0000000000012
300.0000000000011
300.0000000000012
300.0000000000013
300.0000000000013
300.0000000000013
300.0000000000013
300.0000000000012
300.0000000000013
300.0000000000012
300.0000000000011
300.0000000000012
300.0000000000011
300.0000000000012
300.0000000000011
300.000000000001
300.0000000000011
300.0000000000011
300.0000000000011
300.000000000001
300.0000000000009
300.0000000000009
300.000000000001
300.0000000000011
300.000000000001
300.000000000001
300.0000000000008
300.0000000000007
300.0000000000006
300.0000000000007
300.0000000000007
300.0000000000006
300.0000000000006
300.0000000000006
300.0000000000005
300.0000000000006
300.0000000000006
300.0000000000005
300.0000000000005
300.0000000000004
300.0000000000003
300.0000000000003
300.0000000000003
300.0000000000003
300.0000000000003
300.0000000000005
300.0000000000006
300.0000000000006
300.0000000000007
300.0000000000007
300.0000000000007
300.0000000000007
300.0000000000009
300.0000000000009
300.0000000000009
300.000000000001
300.000000000001
300.0000000000009
300.000000000001
300.0000000000011
300.0000000000011
300.0000000000011
300.0000000000012
300.0000000000012
300.0000000000013
300.0000000000013
300.0000000000013
300.0000000000013
300.0000000000013
300.0000000000013
300.0000000000013
300.0000000000012
300.000000000001
300.0000000000009
300.0000000000008
300.0000000000007
300.0000000000006
300.0000000000006
300.0000000000007
300.0000000000005
300.0000000000005
300.0000000000004
300.0000000000005
300.0000000000007
300.0000000000008
300.000000000001
300.0000000000011
300.000000000001
300.000000000001
300.0000000000011
300.0000000000011
300.0000000000011
300.0000000000011
300.0000000000011
300.000000000001
300.0000000000009
300.0000000000009
300.0000000000009
300.0000000000008
300.0000000000009
300.000000000001
300.000000000001
300.000000000001
300.0000000000009
300.0000000000008
300.0000000000007
300.0000000000008
300.0000000000009
300.0000000000009
300.0000000000012
300.0000000000013
300.0000000000011
300.0000000000012
300.0000000000013
300.0000000000013
300.0000000000013
300.0000000000015
300.0000000000016
300.0000000000018
300.0000000000018
300.0000000000017
300.0000000000017
300.0000000000017
300.0000000000018
300.0000000000018
300.0000000000018
300.0000000000016
300.0000000000016
300.0000000000016
300.0000000000016
300.0000000000018
300.0000000000019
300.0000000000019
300.0000000000019
300.000000000002
300.0000000000021
300.0000000000022
300.0000000000024
300.0000000000023
300.0000000000024
300.0000000000024
300.0000000000022
300.0000000000023
300.0000000000022
300.0000000000021
300.0000000000019
300.0000000000018
300.0000000000016
300.0000000000016
300.0000000000016
300.0000000000016
300.0000000000017
300.0000000000019
300.0000000000019
300.0000000000017
300.0000000000017
300.0000000000017
300.0000000000016
300.0000000000017
300.0000000000018
300.0000000000017
300.0000000000015
300.0000000000013
300.0000000000013
300.0000000000013
300.0000000000014
300.0000000000014
300.0000000000013
300.0000000000012
300.0000000000011
300.0000000000011
300.000000000001
300.0000000000009
300.0000000000009
300.000000000001
300.000000000001
300.000000000001
300.0000000000011
300.0000000000012
300.0000000000013
300.0000000000013
300.0000000000011
300.0000000000013
300.0000000000013
300.0000000000013
300.0000000000013
300.0000000000013
300.0000000000013
300.0000000000015
300.0000000000015
300.0000000000014
300.0000000000013
300.0000000000013
300.0000000000013
300.0000000000013
300.0000000000014
300.0000000000013
300.0000000000013
300.0000000000012
300.0000000000011
300.0000000000011
300.0000000000012
300.0000000000012
300.0000000000011
300.0000000000011
300.0000000000011
300.000000000001
300.000000000001
300.000000000001
300.000000000001
300.0000000000011
300.000000000001
300.0000000000011
300.000000000001
300.0000000000011
300.000000000001
300.0000000000011
300.0000000000011
300.0000000000013
300.0000000000013
300.0000000000014
300.0000000000014
300.0000000000014
300.0000000000013
300.0000000000007
)
;

boundaryField
{
    inlet
    {
        type            fixedValue;
        value           uniform 300;
    }
    outlet
    {
        type            inletOutlet;
        inletValue      uniform 300;
        value           uniform 300;
    }
    frontAndBack
    {
        type            empty;
    }
}


// ************************************************************************* //
