/*--------------------------------*- C++ -*----------------------------------*\
| =========                 |                                                 |
| \\      /  F ield         | OpenFOAM: The Open Source CFD Toolbox           |
|  \\    /   O peration     | Version:  v2012                                 |
|   \\  /    A nd           | Website:  www.openfoam.com                      |
|    \\/     M anipulation  |                                                 |
\*---------------------------------------------------------------------------*/
FoamFile
{
    version     2.0;
    format      ascii;
    class       volScalarField;
    location    "0.005";
    object      p;
}
// * * * * * * * * * * * * * * * * * * * * * * * * * * * * * * * * * * * * * //

dimensions      [1 -1 -2 0 0 0 0];


internalField   nonuniform List<scalar> 
100
(
100000
100000
100000
100000
100000
100000
100000
100000
100000
100000
100000
100000
100000
100000
100000
100000
100000
100000
100000
100000
100000
100000
100000
100000
100000
100000
100000
99998
99925.9
99288.7
97234.7
93742.5
89483.9
84977.8
80465.1
76045.6
71763.6
67639.9
63683.7
59897.6
56280.4
52828.1
49536.1
46399
43412.8
40576.2
37892.8
35382.5
33094.5
31208.3
30073.6
29908.6
30414.8
30356.1
30307.7
30296.5
30285.2
30279.9
30268.3
30261.1
30267.8
30275
30279.9
30294.3
30319.4
30313.3
30277.5
30355.5
30387.6
30266.8
30205.4
30198.4
30207.8
30260.2
30262.4
30121.6
29063.2
24024.7
14371.6
10238.9
10001.2
10000
10000
10000
10000
10000
10000
10000
10000
10000
10000
10000
10000
10000
10000
10000
10000
10000
10000
10000
)
;

boundaryField
{
    sides
    {
        type            zeroGradient;
    }
    empty
    {
        type            empty;
    }
}


// ************************************************************************* //
