/*--------------------------------*- C++ -*----------------------------------*\
| =========                 |                                                 |
| \\      /  F ield         | OpenFOAM: The Open Source CFD Toolbox           |
|  \\    /   O peration     | Version:  v2012                                 |
|   \\  /    A nd           | Website:  www.openfoam.com                      |
|    \\/     M anipulation  |                                                 |
\*---------------------------------------------------------------------------*/
FoamFile
{
    version     2.0;
    format      ascii;
    class       volScalarField;
    location    "0.005";
    object      rho;
}
// * * * * * * * * * * * * * * * * * * * * * * * * * * * * * * * * * * * * * //

dimensions      [1 -3 0 0 0 0 0];


internalField   nonuniform List<scalar> 
100
(
0.999645
0.999645
0.999645
0.999645
0.999645
0.999645
0.999645
0.999645
0.999645
0.999645
0.999645
0.999645
0.999645
0.999645
0.999645
0.999645
0.999645
0.999645
0.999645
0.999645
0.999645
0.999645
0.999645
0.999645
0.999645
0.999645
0.999645
0.999631
0.999116
0.994556
0.979804
0.954528
0.923349
0.889898
0.855886
0.822045
0.788716
0.756078
0.724226
0.69321
0.663048
0.633741
0.60528
0.57765
0.550848
0.524895
0.49986
0.47597
0.453754
0.435268
0.423616
0.421981
0.427166
0.42666
0.42643
0.426611
0.426553
0.426355
0.425649
0.42397
0.420329
0.412594
0.397834
0.373839
0.341997
0.30874
0.282755
0.269263
0.264779
0.263364
0.262954
0.263056
0.263353
0.26397
0.264272
0.263756
0.257429
0.224993
0.157976
0.126893
0.124966
0.124955
0.124955
0.124955
0.124955
0.124955
0.124955
0.124955
0.124955
0.124955
0.124955
0.124955
0.124955
0.124955
0.124955
0.124955
0.124955
0.124955
0.124955
0.124955
)
;

boundaryField
{
    sides
    {
        type            calculated;
        value           nonuniform List<scalar> 2(0.124955 0.999645);
    }
    empty
    {
        type            empty;
    }
}


// ************************************************************************* //
