/*--------------------------------*- C++ -*----------------------------------*\
| =========                 |                                                 |
| \\      /  F ield         | OpenFOAM: The Open Source CFD Toolbox           |
|  \\    /   O peration     | Version:  v2012                                 |
|   \\  /    A nd           | Website:  www.openfoam.com                      |
|    \\/     M anipulation  |                                                 |
\*---------------------------------------------------------------------------*/
FoamFile
{
    version     2.0;
    format      ascii;
    class       volVectorField;
    location    "0.005";
    object      U;
}
// * * * * * * * * * * * * * * * * * * * * * * * * * * * * * * * * * * * * * //

dimensions      [0 1 -1 0 0 0 0];


internalField   nonuniform List<vector> 
100
(
(1.00179e-12 0 0)
(7.10672e-13 0 0)
(-3.0999e-14 0 0)
(-5.46681e-13 0 0)
(-2.62506e-13 0 0)
(3.78906e-13 0 0)
(5.18696e-13 0 0)
(-3.89837e-14 0 0)
(-5.73667e-13 0 0)
(-4.92606e-13 0 0)
(-4.47725e-13 0 0)
(-1.18785e-12 0 0)
(-2.32413e-13 0 0)
(6.83275e-13 0 0)
(2.04385e-13 0 0)
(-3.72632e-13 0 0)
(-9.0114e-13 0 0)
(5.23512e-14 0 0)
(8.70374e-13 0 0)
(2.9897e-13 0 0)
(-3.28194e-13 0 0)
(-8.4453e-13 0 0)
(1.965e-13 0 0)
(1.26593e-12 0 0)
(1.94279e-12 0 0)
(1.55577e-08 0 0)
(2.63947e-05 0 0)
(0.00546768 0 0)
(0.198225 0 0)
(1.9062 0 0)
(7.47264 0 0)
(17.1692 0 0)
(29.4263 0 0)
(42.9581 0 0)
(57.1449 0 0)
(71.7172 0 0)
(86.5464 0 0)
(101.563 0 0)
(116.726 0 0)
(132.013 0 0)
(147.412 0 0)
(162.922 0 0)
(178.543 0 0)
(194.28 0 0)
(210.131 0 0)
(226.082 0 0)
(242.073 0 0)
(257.958 0 0)
(273.259 0 0)
(286.683 0 0)
(295.062 0 0)
(296.32 0 0)
(292.537 0 0)
(292.977 0 0)
(293.321 0 0)
(293.392 0 0)
(293.434 0 0)
(293.479 0 0)
(293.566 0 0)
(293.622 0 0)
(293.57 0 0)
(293.514 0 0)
(293.522 0 0)
(293.618 0 0)
(293.787 0 0)
(293.738 0 0)
(293.451 0 0)
(294.175 0 0)
(294.494 0 0)
(293.241 0 0)
(292.651 0 0)
(292.528 0 0)
(292.591 0 0)
(293.064 0 0)
(293.065 0 0)
(291.696 0 0)
(281.641 0 0)
(229.43 0 0)
(91.4433 0 0)
(5.67068 0 0)
(0.0292446 0 0)
(9.26382e-06 0 0)
(2.75003e-10 0 0)
(-3.35565e-13 0 0)
(7.82521e-14 0 0)
(3.91465e-13 0 0)
(-1.0973e-13 0 0)
(-5.71049e-13 0 0)
(-1.69921e-12 0 0)
(-2.96106e-12 0 0)
(-2.07537e-12 0 0)
(-1.01964e-12 0 0)
(-1.48667e-12 0 0)
(-3.82109e-13 0 0)
(9.52663e-13 0 0)
(7.85436e-13 0 0)
(2.80476e-13 0 0)
(-7.89543e-13 0 0)
(3.10289e-13 0 0)
(1.72292e-12 0 0)
)
;

boundaryField
{
    sides
    {
        type            zeroGradient;
    }
    empty
    {
        type            empty;
    }
}


// ************************************************************************* //
