/*--------------------------------*- C++ -*----------------------------------*\
| =========                 |                                                 |
| \\      /  F ield         | OpenFOAM: The Open Source CFD Toolbox           |
|  \\    /   O peration     | Version:  v2012                                 |
|   \\  /    A nd           | Website:  www.openfoam.com                      |
|    \\/     M anipulation  |                                                 |
\*---------------------------------------------------------------------------*/
FoamFile
{
    version     2.0;
    format      ascii;
    class       volScalarField;
    location    "0.005";
    object      p;
}
// * * * * * * * * * * * * * * * * * * * * * * * * * * * * * * * * * * * * * //

dimensions      [1 -1 -2 0 0 0 0];


internalField   nonuniform List<scalar> 
100
(
100000
100000
100000
100000
100000
100000
100000
100000
100000
100000
100000
100000
100000
100000
100000
100000
100000
100000
100000
100000
100000
100000
100000
100000
100000
100000
100000
99996.8
99903.5
99183.8
97059.5
93592.2
89404.3
84961.3
80490.9
76096.3
71827.2
67708.5
63752
59962.3
56339.3
52880.3
49580.9
46436.6
43443.2
40599.6
37909.5
35392.9
33098.9
31206.9
30068.7
29903.2
30411.9
30353.9
30304.9
30294.9
30286.2
30280.8
30272.3
30263.6
30266.9
30274.2
30281.6
30295.9
30319.3
30314.3
30289.3
30349.9
30369.7
30257
30212.6
30209.9
30225.7
30272.1
30260.4
30092.5
28980.9
24030.1
14493.2
10251.6
10001.2
10000
10000
10000
10000
10000
10000
10000
10000
10000
10000
10000
10000
10000
10000
10000
10000
10000
10000
10000
)
;

boundaryField
{
    sides
    {
        type            zeroGradient;
    }
    empty
    {
        type            empty;
    }
}


// ************************************************************************* //
