/*--------------------------------*- C++ -*----------------------------------*\
| =========                 |                                                 |
| \\      /  F ield         | OpenFOAM: The Open Source CFD Toolbox           |
|  \\    /   O peration     | Version:  v2012                                 |
|   \\  /    A nd           | Website:  www.openfoam.com                      |
|    \\/     M anipulation  |                                                 |
\*---------------------------------------------------------------------------*/
FoamFile
{
    version     2.0;
    format      ascii;
    class       volScalarField;
    location    "0.005";
    object      rho;
}
// * * * * * * * * * * * * * * * * * * * * * * * * * * * * * * * * * * * * * //

dimensions      [1 -3 0 0 0 0 0];


internalField   nonuniform List<scalar> 
100
(
0.999645
0.999645
0.999645
0.999645
0.999645
0.999645
0.999645
0.999645
0.999645
0.999645
0.999645
0.999645
0.999645
0.999645
0.999645
0.999645
0.999645
0.999645
0.999645
0.999645
0.999645
0.999645
0.999645
0.999645
0.999645
0.999645
0.999645
0.999623
0.998956
0.993805
0.978543
0.953435
0.922759
0.889767
0.856071
0.822421
0.789196
0.756602
0.724755
0.693715
0.663513
0.634156
0.605637
0.577949
0.551088
0.525076
0.499982
0.476034
0.453761
0.435218
0.423524
0.421889
0.427099
0.426602
0.426364
0.426542
0.426492
0.426283
0.425573
0.42381
0.42002
0.412132
0.397286
0.373376
0.34187
0.309026
0.283266
0.26953
0.264763
0.263354
0.263052
0.263159
0.263488
0.264065
0.264281
0.263596
0.256906
0.225087
0.158994
0.127004
0.124966
0.124955
0.124955
0.124955
0.124955
0.124955
0.124955
0.124955
0.124955
0.124955
0.124955
0.124955
0.124955
0.124955
0.124955
0.124955
0.124955
0.124955
0.124955
0.124955
)
;

boundaryField
{
    sides
    {
        type            calculated;
        value           nonuniform List<scalar> 2(0.124955 0.999645);
    }
    empty
    {
        type            empty;
    }
}


// ************************************************************************* //
