/*--------------------------------*- C++ -*----------------------------------*\
| =========                 |                                                 |
| \\      /  F ield         | OpenFOAM: The Open Source CFD Toolbox           |
|  \\    /   O peration     | Version:  v2012                                 |
|   \\  /    A nd           | Website:  www.openfoam.com                      |
|    \\/     M anipulation  |                                                 |
\*---------------------------------------------------------------------------*/
FoamFile
{
    version     2.0;
    format      ascii;
    class       volVectorField;
    location    "0.005";
    object      U;
}
// * * * * * * * * * * * * * * * * * * * * * * * * * * * * * * * * * * * * * //

dimensions      [0 1 -1 0 0 0 0];


internalField   nonuniform List<vector> 
100
(
(-3.76251e-13 0 0)
(-3.72749e-13 0 0)
(-3.91035e-13 0 0)
(-3.91625e-13 0 0)
(-3.47472e-13 0 0)
(-3.22237e-13 0 0)
(-2.49504e-13 0 0)
(-6.68111e-14 0 0)
(-3.66519e-14 0 0)
(2.11062e-14 0 0)
(-1.42818e-15 0 0)
(3.03621e-15 0 0)
(-1.3969e-14 0 0)
(-3.55846e-14 0 0)
(-7.9154e-14 0 0)
(-1.29694e-13 0 0)
(-1.40463e-13 0 0)
(-6.15846e-14 0 0)
(5.15802e-14 0 0)
(1.36664e-13 0 0)
(1.9798e-13 0 0)
(1.7861e-13 0 0)
(1.47773e-13 0 0)
(1.84151e-13 0 0)
(2.14727e-12 0 0)
(3.35037e-08 0 0)
(4.87931e-05 0 0)
(0.00842063 0 0)
(0.258005 0 0)
(2.18831 0 0)
(7.95216 0 0)
(17.5941 0 0)
(29.661 0 0)
(43.0093 0 0)
(57.0616 0 0)
(71.545 0 0)
(86.3193 0 0)
(101.305 0 0)
(116.456 0 0)
(131.743 0 0)
(147.153 0 0)
(162.679 0 0)
(178.322 0 0)
(194.085 0 0)
(209.964 0 0)
(225.945 0 0)
(241.969 0 0)
(257.89 0 0)
(273.229 0 0)
(286.693 0 0)
(295.104 0 0)
(296.362 0 0)
(292.559 0 0)
(292.992 0 0)
(293.341 0 0)
(293.399 0 0)
(293.434 0 0)
(293.476 0 0)
(293.538 0 0)
(293.604 0 0)
(293.576 0 0)
(293.517 0 0)
(293.506 0 0)
(293.602 0 0)
(293.769 0 0)
(293.737 0 0)
(293.545 0 0)
(294.109 0 0)
(294.312 0 0)
(293.15 0 0)
(292.713 0 0)
(292.64 0 0)
(292.757 0 0)
(293.191 0 0)
(293.036 0 0)
(291.424 0 0)
(280.826 0 0)
(229.418 0 0)
(93.5843 0 0)
(5.9665 0 0)
(0.0291054 0 0)
(7.22125e-06 0 0)
(1.78625e-10 0 0)
(-1.48498e-13 0 0)
(-1.85235e-13 0 0)
(-1.19207e-13 0 0)
(-1.39478e-13 0 0)
(-2.18956e-13 0 0)
(-2.43447e-13 0 0)
(-2.56722e-13 0 0)
(-2.42184e-13 0 0)
(-2.53823e-13 0 0)
(-2.82931e-13 0 0)
(-2.00089e-13 0 0)
(-1.28496e-13 0 0)
(-9.96686e-14 0 0)
(-1.3432e-13 0 0)
(-2.05057e-13 0 0)
(-2.823e-13 0 0)
(-2.4544e-13 0 0)
)
;

boundaryField
{
    sides
    {
        type            zeroGradient;
    }
    empty
    {
        type            empty;
    }
}


// ************************************************************************* //
