/*--------------------------------*- C++ -*----------------------------------*\
| =========                 |                                                 |
| \\      /  F ield         | OpenFOAM: The Open Source CFD Toolbox           |
|  \\    /   O peration     | Version:  v2012                                 |
|   \\  /    A nd           | Website:  www.openfoam.com                      |
|    \\/     M anipulation  |                                                 |
\*---------------------------------------------------------------------------*/
FoamFile
{
    version     2.0;
    format      ascii;
    class       volScalarField;
    location    "0.009";
    object      p;
}
// * * * * * * * * * * * * * * * * * * * * * * * * * * * * * * * * * * * * * //

dimensions      [1 -1 -2 0 0 0 0];


internalField   nonuniform List<scalar> 
1000
(
101310.9447797029
101313.5854001405
101306.8414801296
101301.5377486841
101295.6956092906
101290.4544085796
101285.9445909248
101282.0872976245
101278.7776616807
101276.5477007782
101275.9336860741
101275.954701641
101276.326440086
101277.3491058346
101279.3304114697
101282.3348933569
101286.251035216
101290.9040681585
101296.1474936488
101301.8786317598
101308.0132526847
101314.4608593931
101321.114983286
101327.8535843734
101334.5435753247
101341.050026534
101347.2542948086
101353.0824574143
101358.5274097955
101363.6081406397
101368.1734026953
101371.5680257981
101373.0183254029
101373.180738129
101373.1202735925
101372.851736765
101372.1125651552
101370.6582346868
101368.2829547135
101364.8920534043
101360.5264118807
101355.3394328819
101349.5345504448
101343.3024090574
101336.7913141421
101330.1143195341
101323.3716787417
101316.6668108877
101310.1057522069
101303.7778470572
101297.7267358073
101291.9497705344
101286.4985950742
101281.7460377059
101278.5839188427
101277.5068960552
101277.4341467658
101277.4768778784
101277.7351883511
101278.3771804315
101279.6260719695
101281.6744685549
101284.6588539272
101288.6223480058
101293.5026174314
101299.1467130989
101305.3500086779
101311.9035473925
101318.6288996756
101325.3886989102
101332.080381074
101338.6319138762
101345.0071035859
101351.2044190829
101357.2183691021
101362.9213674511
101367.8247267074
101370.9812678358
101372.0182993672
101372.093667494
101372.0379492277
101371.8326331558
101371.2869016794
101370.2255405984
101368.4631247097
101365.8483233598
101362.2906039207
101357.7840601961
101352.4134810584
101346.3399406251
101339.770953889
101332.9238138972
101325.9904081301
101319.1119265595
101312.3698935034
101305.7927652826
101299.3752666374
101293.1291886425
101287.2264439443
101282.2678830984
101279.2677678664
101278.3946437367
101278.3503425511
101278.3869349958
101278.5946066491
101279.0996633799
101280.0780508915
101281.6953928477
101284.097219122
101287.3833107245
101291.5880212285
101296.6671437843
101302.4986739163
101308.901255372
101315.6658083869
101322.5901003199
101329.5087554379
101336.3154917081
101342.9710317135
101349.4828247662
101355.838308494
101361.8615360402
101366.9727677917
101370.1762233017
101371.2009847227
101371.2792145905
101371.2367435452
101371.078884839
101370.6522896039
101369.8132608377
101368.4017527877
101366.2711260125
101363.3053348841
101359.4397134011
101354.6760973081
101349.0890748266
101342.821113814
101336.0641267079
101329.0272787826
101321.8987227041
101314.8153117104
101307.8516796094
101301.0360964277
101294.4131507758
101288.2028508893
101283.0635627128
101280.0138269609
101279.1358147113
101279.0862096253
101279.1136125745
101279.2777011477
101279.6852147974
101280.4836554404
101281.817364488
101283.8232238977
101286.612657441
101290.255600905
101294.7652415185
101300.0892192938
101306.1121425592
101312.6699507498
101319.5732998535
101326.6374565844
101333.7141671517
101340.712840555
101347.5916327221
101354.2977492475
101360.6264953074
101365.982664955
101369.3679691434
101370.4943287303
101370.5945901495
101370.5640055851
101370.4457127282
101370.1091233817
101369.4312782763
101368.2707025794
101366.4913272053
101363.9736498394
101360.6305665337
101356.4212571273
101351.3617739086
101345.5300245679
101339.0608869552
101332.1277909291
101324.9136173805
101317.580627076
101310.2505265779
101303.0077882713
101295.9541497145
101289.365463024
101283.9471632726
101280.7314693719
101279.7789133881
101279.7136583969
101279.7342007881
101279.8649773699
101280.1970955181
101280.858760011
101281.9783402663
101283.6830175796
101286.0848783409
101289.2684334562
101293.2772852048
101298.1039317083
101303.6863546519
101309.9124507301
101316.6321591975
101323.6783264997
101330.8945971567
101338.1591213291
101345.3843719099
101352.4696498423
101359.1718182597
101364.8745525868
101368.55838515
101369.8618334949
101370.000825625
101369.979203625
101369.8899425484
101369.6213699986
101369.0668717038
101368.1002501788
101366.5958060636
101364.4361233039
101361.5246981021
101357.797532257
101353.2336345243
101347.8630080957
101341.7682641386
101335.0758387728
101327.9376459009
101320.5089512015
101312.9298162625
101305.3229284157
101297.8394196403
101290.8076690656
101284.9841980472
101281.4605347438
101280.3603632447
101280.2691308669
101280.2824875905
101280.3849451036
101280.6557899813
101281.2092444608
101282.1600254611
101283.6251443879
101285.7130513322
101288.5140369871
101292.0889573915
101296.4594849216
101301.6025384869
101307.4496717447
101313.8921345116
101320.7939871219
101328.0130217328
101335.4206591187
101342.9042453008
101350.3295124508
101357.4256513871
101363.5622927637
101367.6782988667
101369.2616166763
101369.4671285093
101369.4534741216
101369.3888587663
101369.1756438331
101368.7202054892
101367.9086294134
101366.6255098825
101364.7585768249
101362.2085642006
101358.8986199559
101354.7838763325
101349.8600447129
101344.1678293257
101337.7899335051
101330.8408724168
101323.4527128446
101315.7611297126
101307.9032302013
101300.0582820232
101292.5860310841
101286.2722391491
101282.283540579
101280.9158666669
101280.771519159
101280.7794658413
101280.858478463
101281.0781952653
101281.5413321912
101282.3522121484
101283.6193761264
101285.4466048383
101287.9252815385
101291.1252910137
101295.0867766397
101299.8142700378
101305.2735277905
101311.3922636995
101318.0676978329
101325.1811254548
101332.6124927258
101340.2422052008
101347.9213111359
101355.3721921566
101361.9762948394
101366.6442282138
101368.6468095167
101368.9737329946
101368.9686057523
101368.9254100112
101368.758656915
101368.3864770345
101367.7042311611
101366.605292159
101364.9831951377
101362.7393494745
101359.7904640615
101356.0767599795
101351.5700244092
101346.2789864323
101340.2496998777
101333.5610055694
101326.3165591436
101318.6358190025
101310.6535346261
101302.5555675389
101294.702308954
101287.8659385975
101283.2711921815
101281.4872912895
101281.2426680143
101281.2440984515
101281.3019248691
101281.4765172968
101281.8614352588
101282.5526613116
101283.6514190073
101285.2566165308
101287.4587068353
101290.3322522918
101293.9291243959
101298.2729997856
101303.3551585998
101309.1329527386
101315.5337343517
101322.4642872659
101329.8203338553
101337.4871703819
101345.3165044645
101353.0436042028
101360.0921497754
101365.3870187075
101367.9624346027
101368.4992558547
101368.5122837425
101368.4855907499
101368.3585666927
101368.0578838758
101367.486755696
101366.5457030666
101365.1335581581
101363.153736139
101360.5200752667
101357.1637304209
101353.040189046
101348.1346068127
101342.464070875
101336.0768115323
101329.0486811929
101321.4780705634
101313.487119643
101305.2524622388
101297.1105611486
101289.7787518113
101284.4889586314
101282.1245530837
101281.698092983
101281.6903045297
101281.7282830218
101281.862686009
101282.1779469627
101282.7635767576
101283.715061681
101285.126827977
101287.0874049866
101289.673468446
101292.944305891
101296.9367863152
101301.6608568663
101307.0970357186
101313.1980680756
101319.8943959729
101327.0996525789
101334.7105837566
101342.5897281612
101350.4985122379
101357.9254911881
101363.8603863789
101367.1441978188
101368.0203039131
101368.0749312402
101368.0596157015
101367.9666801702
101367.7287348677
101367.2551517752
101366.4525105102
101365.2241384907
101363.4758685871
101361.1205837798
101358.0839978809
101354.3107414739
101349.7691597404
101344.4542152304
101338.3890535904
101331.6248375373
101324.2385140863
101316.3347146238
101308.0713185168
101299.746428128
101291.9944373107
101285.9889105104
101282.887268737
101282.1549018785
101282.1195831989
101282.1441751005
101282.2425692463
101282.4962324278
101282.9876677028
101283.8079063134
101285.0476220431
101286.7933864545
101289.1228032356
101292.099917302
101295.7706314922
101300.1583843987
101305.2614311325
101311.0530089901
101317.483815769
101324.4847582637
101331.9668439411
101339.808646388
101347.8036743597
101355.5162948079
101362.0446945382
101366.1282693763
101367.5045778329
101367.6492265088
101367.6421477914
101367.5786169469
101367.3958175924
101367.0086732758
101366.3286268625
101365.2630963035
101363.720434439
101361.6137463395
101358.8657209153
101355.413679492
101351.2137800609
101346.2443553536
101340.5088714636
101334.0375624529
101326.8870379402
101319.1429845186
101310.9411727634
101302.5363639232
101294.4673539951
101287.7934075422
101283.8436532817
101282.6428997176
101282.5386285181
101282.5540031369
101282.6224390036
101282.8215691253
101283.2282760053
101283.9298337242
101285.0138999661
101286.5654869732
101288.6625760945
101291.3723535125
101294.7471185309
101298.8200891664
101303.6026514626
101309.0840186416
101315.2320542703
101321.9936972942
101329.2941909677
101337.028729162
101345.0232818169
101352.9185479693
101359.9458924674
101364.8528754974
101366.9038605776
101367.2314564605
101367.2362035056
101367.1934321821
101367.0569345186
101366.7445584935
101366.1732687533
101365.253696428
101363.8964970426
101362.0153297376
101359.5309341736
101356.3752697341
101352.4955693363
101347.8581103609
101342.4513803591
101336.2881304191
101329.4067418769
101321.8752792246
101313.8076582335
101305.4149715833
101297.1392165458
101289.8932061626
101285.0540854895
101283.2057233627
101282.9557236998
101282.959167864
101283.0046105819
101283.1548228915
101283.4852131458
101284.0792835768
101285.0221302173
101286.3971869677
101288.2824928124
101290.7471527893
101293.8477094801
101297.6247157647
101302.1001323001
101307.2758453337
101313.1331323599
101319.6328048743
101326.7147364075
101334.2909492367
101342.2158955559
101350.1983149025
101357.6076597849
101363.2884477069
101366.1539667262
101366.8008957171
101366.8279525634
101366.8052684827
101366.7079376021
101366.4627915311
101365.9898176263
101365.2027525727
101364.0140773074
101362.3381169997
101360.0947420362
101357.2128439554
101353.6335003549
101349.3136068934
101344.2298210842
101338.3812006227
101331.7905328669
101324.5084460623
101316.6276383205
101308.3219008854
101299.94816181
101292.2616381248
101286.5680063424
101283.9008034975
101283.3746381299
101283.3620916927
101283.3859629659
101283.4975280919
101283.7610628109
101284.2585266382
101285.0724287904
101286.2849699389
101287.9741973596
101290.2110076193
101293.0555656081
101296.5539399487
101300.7358798647
101305.6134047
101311.1792642572
101317.4058209926
101324.2448899638
101331.6236516814
101339.4224860833
101347.407633575
101355.0740279046
101361.420775752
101365.1850368006
101366.3340078307
101366.4346248226
101366.4198048807
101366.3548957702
101366.1655004
101365.7783136326
101365.1094086067
101364.0735864173
101362.5861685958
101360.5663460954
101357.9402706506
101354.6443657626
101350.6287518066
101345.8605526978
101340.3268352101
101334.0374380359
101327.0291576636
101319.3757135005
101311.216209045
101302.8341420183
101294.8393370518
101288.3929789053
101284.8004255434
101283.824997237
101283.7581473224
101283.7724579218
101283.8484994031
101284.0530465031
101284.462939873
101285.1589300844
101286.2221763756
101287.7306805834
101289.7562445655
101292.3614276931
101295.5967428739
101299.4983168943
101304.0859237644
101309.3614071202
101315.3078019627
101321.8886125431
101329.0439166186
101336.6747132026
101344.5951301063
101352.4095556628
101359.2880355795
101363.9461639527
101365.7754047007
101366.0359031428
101366.0332699456
101365.9921406415
101365.8521079806
101365.5420007184
101364.9809355832
101364.0853273397
101362.7713635906
101360.9581648013
101358.5703568935
101355.5408896805
101351.814580712
101347.3515435873
101342.1296247209
101336.1469859783
101329.42701016
101322.0272859067
101314.0597289729
101305.7477972293
101297.5726780927
101290.5153691883
101285.9684079751
101284.3476288171
101284.1534390261
101284.1559718164
101284.2084907419
101284.3624194379
101284.6952965801
101285.2843666613
101286.2096970598
101287.5492454774
101289.3760275978
101291.7549340725
101294.7401440542
101298.373074559
101302.6802285383
101307.67106364
101313.3370168139
101319.6513178074
101326.5659311379
101333.9993390679
101341.8021594636
101349.6661161538
101356.9276112876
101362.402636407
101365.0658433357
101365.6283486933
101365.6466542503
101365.6254821076
101365.5241306417
101365.2802570829
101364.8148710264
101364.0468255438
101362.8932932355
101361.2731960203
101359.109748534
101356.3333213512
101352.8844716933
101348.716977822
101343.8007969258
101338.1252249578
101331.7028732309
101324.5762503271
101316.8333312986
101308.6505624431
101300.4042928933
101292.8910599479
101287.4421815483
101284.9984736491
101284.5513384067
101284.5423381663
101284.5714097612
101284.683285948
101284.9471451761
101285.4389753969
101286.2379693295
101287.4222146927
101289.0655660994
101291.2344550125
101293.9853697519
101297.362793783
101301.3972131087
101306.1037273117
101311.4818182749
101317.5149908773
101324.1682324712
101331.378721123
101339.0321323996
101346.8902982719
101354.4305606962
101360.6257507755
101364.1915074317
101365.260366529
101365.3324388013
101365.2735278105
101365.113138482
101364.838006838
101364.3808466467
101363.6829000649
101362.6851542001
101361.3254293147
101359.5331802038
101357.2254569721
101354.3098202363
101350.6942988403
101346.3003499513
101341.0710585141
101334.9667207477
101327.9724325936
101320.1158803154
101311.5380962326
101302.5691100003
101293.8000130041
101286.6520524035
101282.5905736346
101280.5093691111
101278.9560768465
101277.9071049922
101277.0788597574
101276.3743199345
101275.8701320111
101275.6871155103
101275.8553415444
101276.4219350384
101277.5683306865
101279.4256940097
101282.0808007271
101285.5996796596
101290.0455735831
101295.4679724369
101301.8771299118
101309.2395458696
101317.5020249922
101326.5226734895
101336.0007678689
101345.4623898795
101353.7821054903
101359.5928053936
101363.3092099996
101366.3121371771
101368.4801272624
101370.1722821764
101371.6286177551
101372.9377568494
101374.0782995163
101374.9351749579
101375.2785575305
101375.0139063607
101374.1049991301
101372.2832393235
101369.3461617646
101365.1810821135
101359.7484381517
101353.0601824462
101345.1654500576
101336.1224210402
101326.136675758
101315.6592841535
101305.3499470306
101296.5409023319
101290.332790404
101285.7888767774
101282.316472292
101279.9466821235
101278.3380981724
101277.2366695301
101276.4811861862
101276.0533452121
101276.012470752
101276.3998039569
101277.2789736416
101278.7498001095
101280.9194077848
101283.9048174432
101287.8163888982
101292.7350814444
101298.6973203834
101305.6803922224
101313.6020950527
101322.322124687
101331.5128022848
101340.6540794212
101349.153092407
101356.0054762254
101360.6185565657
101364.1335935421
101366.8662452286
101368.8630358354
101370.3652974171
101371.5570323707
101372.5393102087
101373.3041132673
101373.6909333377
101373.6192327869
101373.0274948113
101371.6637787338
101369.2901746172
101365.7465751041
101360.9373373815
101354.8062437619
101347.353688807
101338.6777092326
101329.0203257511
101318.8279833545
101308.6230329743
101299.2479917682
101291.9293632393
101286.7647486631
101282.6344326551
101279.6519741966
101277.626219218
101276.3166557031
101275.5386726588
101275.2028538028
101275.2797576169
101275.731455103
101276.5907970355
101277.9207131292
101279.8146948646
101282.4013039446
101285.8374052858
101290.2585434922
101295.7306785607
101302.2460025683
101309.7443430458
101318.1079273264
101327.0594257943
101336.0994292265
101344.7324220791
101352.2869508157
101357.9085328614
101361.8417564923
101365.0650699335
101367.4377920011
101369.1391623266
101370.3677942004
101371.2750734702
101371.9118949637
101372.2155545241
101372.188609704
101371.7848666815
101370.7730496555
101368.9092669511
101365.9746996006
101361.7935398279
101356.256471189
101349.3503672835
101341.1784988002
101331.9234352811
101321.9399897311
101311.7500448753
101301.9926287389
101293.7850081011
101287.7896721119
101283.1488410536
101279.5550203619
101277.0484281883
101275.4230838244
101274.4853664839
101274.108083227
101274.2235351745
101274.7347983186
101275.6112940015
101276.8979246693
101278.6558492688
101280.9892323758
101284.0398170747
101287.9603149794
101292.8797508823
101298.8673165295
101305.8980430284
101313.8417709359
101322.4835014366
101331.4258805762
101340.1495486879
101348.1666864499
101354.6718071809
101359.263529589
101362.9053041534
101365.711870954
101367.7020002922
101369.07292601
101370.0048486298
101370.5560927612
101370.7516329245
101370.6914893067
101370.352787096
101369.5523550293
101368.0755706496
101365.6880627553
101362.1728632068
101357.3632575491
101351.1631188956
101343.5759983827
101334.7325844381
101324.9647499568
101314.8139830586
101304.8027679428
101295.8191695628
101288.8605949755
101283.6840265751
101279.5414455336
101276.5802180156
101274.6027411126
101273.4013594135
101272.8476915524
101272.8783150469
101273.3831854852
101274.2707159452
101275.5708645073
101277.2954920094
101279.5044475361
101282.3032301157
101285.8397760387
101290.2649311902
101295.6792104976
101302.1115308423
101309.5214285932
101317.7847577943
101326.5810742095
101335.367228822
101343.7020517101
101350.9459447101
101356.3800237271
101360.3977330824
101363.6580615765
101365.9985110358
101367.6207397508
101368.7073192406
101369.2981353408
101369.4393951194
101369.2786672446
101368.8614466016
101368.1087358632
101366.8782817331
101364.9534584322
101362.0848489217
101358.035442474
101352.6142126616
101345.7220972239
101337.430333589
101327.9937976566
101317.8958281508
101307.6319440016
101297.9887385001
101290.1081654981
101284.2074254746
101279.5651489197
101276.0943792753
101273.7403941432
101272.2926304106
101271.5463463955
101271.4488242012
101271.8989001049
101272.7051592429
101273.9314232239
101275.5817426811
101277.7204310916
101280.420413429
101283.7670475865
101287.8579671513
101292.7889957651
101298.6361140217
101305.3940094451
101313.1639484541
101321.111461864
101332.6493427811
)
;

boundaryField
{
    inlet
    {
        type            uniformFixedValue;
        uniformValue    sine;
        uniformValueCoeffs
        {
            frequency       constant 3000;
            scale           constant 50;
            level           constant 101325;
        }
        value           uniform 101323.6440830864;
    }
    outlet
    {
        type            waveTransmissive;
        gamma           1.4;
        fieldInf        101325;
        lInf            2.25;
        value           uniform 101334.6473508893;
    }
    frontAndBack
    {
        type            empty;
    }
}


// ************************************************************************* //
