/*--------------------------------*- C++ -*----------------------------------*\
| =========                 |                                                 |
| \\      /  F ield         | OpenFOAM: The Open Source CFD Toolbox           |
|  \\    /   O peration     | Version:  v2012                                 |
|   \\  /    A nd           | Website:  www.openfoam.com                      |
|    \\/     M anipulation  |                                                 |
\*---------------------------------------------------------------------------*/
FoamFile
{
    version     2.0;
    format      ascii;
    class       volScalarField;
    location    "0.009";
    object      pMean;
}
// * * * * * * * * * * * * * * * * * * * * * * * * * * * * * * * * * * * * * //

dimensions      [1 -1 -2 0 0 0 0];


internalField   nonuniform List<scalar> 
1000
(
101325.0327261978
101325.0041472553
101325.0197354913
101325.0344902049
101325.0551919285
101325.0801748824
101325.107819942
101325.1408191864
101325.175980514
101325.2142506699
101325.2535070005
101325.2927775266
101325.3318846878
101325.3704733085
101325.4079261765
101325.4434827419
101325.4763109427
101325.5058275721
101325.5313683039
101325.5526404191
101325.5691376911
101325.5806807373
101325.5869457269
101325.5879143663
101325.5834593564
101325.5737563082
101325.5589024012
101325.5392604375
101325.5150414284
101325.4866201977
101325.4542198975
101325.4184926947
101325.3806127837
101325.3421280561
101325.3036026184
101325.2652242983
101325.2272069777
101325.1900229591
101325.1542955986
101325.1208030001
101325.0903306363
101325.0636121565
101325.0412322702
101325.0236232625
101325.0110816698
101325.0037973709
101325.0018723672
101325.0053312625
101325.0141061291
101325.0280501709
101325.0469606296
101325.0706287311
101325.0988356902
101325.1312366927
101325.1670032223
101325.2046211356
101325.2426748074
101325.2807205403
101325.3186320474
101325.3562429077
101325.3931034093
101325.4287411132
101325.4624007872
101325.4933941133
101325.5208800742
101325.5442591882
101325.5629070234
101325.5765273133
101325.5848098495
101325.5877527423
101325.585273899
101325.5775309605
101325.5645643808
101325.5465981051
101325.5236918969
101325.4960942931
101325.4640843814
101325.4286764302
101325.3914171031
101325.3537897374
101325.3161319927
101325.2785926499
101325.2413221032
101325.2046639274
101325.1690723398
101325.1351782622
101325.1036697878
101325.0753211899
101325.0508457365
101325.0308974876
101325.015952986
101325.0063543702
101325.0022446747
101325.0036684784
101325.0105352871
101325.0227496757
101325.0401587585
101325.0626706944
101325.0900944973
101325.1220143766
101325.1573265379
101325.1943153244
101325.2316321929
101325.2689527491
101325.3061499045
101325.343125454
101325.3794966641
101325.4149228136
101325.4487560693
101325.4804256819
101325.5091260609
101325.5342227127
101325.554970947
101325.5709167896
101325.5815816158
101325.5868362973
101325.5865142891
101325.5807475463
101325.5695428151
101325.5531076357
101325.5314640548
101325.504861817
101325.4736216803
101325.4388746284
101325.4022643001
101325.3652916927
101325.3282765184
101325.2913678931
101325.2546533764
101325.2184346086
101325.1830528649
101325.1490525354
101325.11700514
101325.0876398141
101325.0616338499
101325.0397233189
101325.0224780966
101325.0104210192
101325.003832936
101325.0029197105
101325.007666251
101325.0180556438
101325.0339428929
101325.0552556229
101325.0817475357
101325.1129571154
101325.1476456443
101325.1840456326
101325.2207672663
101325.2575053058
101325.2941363727
101325.3305971444
101325.3665586366
101325.4017542684
101325.4356177658
101325.4676713964
101325.497168336
101325.5235210614
101325.545953487
101325.5639534134
101325.5769152511
101325.5845712744
101325.5866120675
101325.5830492419
101325.5738086065
101325.5590583691
101325.5388088806
101325.5133394885
101325.4830017449
101325.4489906017
101325.41298736
101325.3765717002
101325.3400962369
101325.3037152242
101325.2674732684
101325.2316377663
101325.1964764513
101325.162467228
101325.1300932854
101325.100024869
101325.0728811914
101325.0494063063
101325.0301958911
101325.0158825785
101325.0068614085
101325.00350202
101325.0059180881
101325.0142202448
101325.0283291411
101325.0482097088
101325.0735937727
101325.1039689621
101325.1380056604
101325.1738610909
101325.210068211
101325.2463093907
101325.2824526331
101325.3184728088
101325.3540688826
101325.3890367227
101325.422870097
101325.4551634511
101325.4852336327
101325.5125400301
101325.5363267574
101325.5560585651
101325.571066867
101325.5809878214
101325.5853821346
101325.5841409257
101325.5770644204
101325.5642439396
101325.5456336685
101325.5215038565
101325.492217669
101325.4589956049
101325.4235757594
101325.3876463817
101325.3516402419
101325.3157180354
101325.2798944929
101325.2444103896
101325.2094719859
101325.1755122943
101325.1429353686
101325.1123594004
101325.0843422561
101325.0596071088
101325.0387487524
101325.0224494222
101325.0111831272
101325.005443405
101325.0054709652
101325.011516146
101325.0236009677
101325.0417746185
101325.0657939973
101325.0951518408
101325.1284650904
101325.1637976518
101325.19955247
101325.2353520124
101325.2710674135
101325.3066918252
101325.3419568675
101325.3767003109
101325.4104665017
101325.4429093412
101325.4734016149
101325.5014535985
101325.5263400565
101325.5475304332
101325.5643304728
101325.5763126596
101325.5829468911
101325.5840100262
101325.5791908692
101325.5684741474
101325.5517359256
101325.5291901489
101325.5011617976
101325.4688491917
101325.4340289599
101325.3985483225
101325.3629643583
101325.3274560602
101325.2920132326
101325.2568546765
101325.2221425586
101325.1882652458
101325.1555690966
101325.1246192797
101325.0959193998
101325.0701591758
101325.0479154715
101325.0298895325
101325.016601588
101325.0086316
101325.0063236681
101325.0100542783
101325.0199569457
101325.036186861
101325.0585723945
101325.0866662737
101325.1191051946
101325.1538832802
101325.1892192623
101325.2246187882
101325.25994736
101325.29520891
101325.3301688607
101325.3646914221
101325.3983707827
101325.4309025115
101325.4617147929
101325.4903595004
101325.5161509046
101325.5385740673
101325.5569320949
101325.5707598538
101325.5794680613
101325.5827449312
101325.5801839041
101325.5716639261
101325.5569743478
101325.5362397556
101325.5097114195
101325.4784900508
101325.4443469924
101325.4093022843
101325.3741084817
101325.338981375
101325.3038934074
101325.2690424378
101325.2345540298
101325.2007824037
101325.1680213679
101325.1367945131
101325.1075519448
101325.0809506561
101325.0575370209
101325.0380152066
101325.0229258758
101325.0129054153
101325.0083759306
101325.0098143915
101325.0174594887
101325.0315721485
101325.0520789119
101325.0786426294
101325.1100026239
101325.1441485511
101325.179073072
101325.2141005772
101325.2490652531
101325.2839874286
101325.3186547497
101325.352960878
101325.3865353696
101325.4191139014
101325.4501688283
101325.4792926875
101325.5058383738
101325.5293120553
101325.5490273541
101325.5644997741
101325.5751059683
101325.5804673991
101325.5801054169
101325.5738048506
101325.5612725382
101325.542533697
101325.5177371327
101325.4878278327
101325.4544928577
101325.4199010631
101325.3850788406
101325.3503085935
101325.315562062
101325.2810045255
101325.2467463371
101325.2130940331
101325.1803165616
101325.148880835
101325.1192085879
101325.0919051758
101325.0675013124
101325.046677117
101325.0299903406
101325.018099828
101325.0114906006
101325.010707858
101325.0160848564
101325.0279730173
101325.0464110041
101325.0711953711
101325.101244304
101325.1346253808
101325.1691219253
101325.2037901944
101325.2384081129
101325.2730001793
101325.3073848591
101325.3414693204
101325.3749267055
101325.4075139472
101325.4387552504
101325.4682659886
101325.4954481588
101325.5198202214
101325.5407243254
101325.5576596121
101325.5699946725
101325.5772967741
101325.5790419455
101325.5749325825
101325.5646081714
101325.5479935917
101325.5251258475
101325.4967572882
101325.4644067314
101325.4303274602
101325.3958674982
101325.3614431819
101325.3270259194
101325.2927613825
101325.2587349299
101325.2252232865
101325.1924609359
101325.1608783433
101325.130858682
101325.1029720623
101325.0777192219
101325.0557615565
101325.0376530318
101325.0240670466
101325.0155237535
101325.0126213188
101325.0157631962
101325.0253809714
101325.0416170648
101325.0644118813
101325.0929052108
101325.1253402234
101325.1593570269
101325.1936741998
101325.2279554236
101325.2622263142
101325.296328253
101325.3301881673
101325.3635099438
101325.3960778505
101325.427453358
101325.4572813339
101325.4850006241
101325.5101510738
101325.532098877
101325.5503422801
101325.5642476546
101325.573349533
101325.5770913009
101325.5751126307
101325.5669982148
101325.5525819474
101325.5317949315
101325.5051792352
101325.4740257537
101325.4405591554
101325.4064712172
101325.3723807725
101325.3382895722
101325.3043147443
101325.270529085
101325.2371722691
101325.2044592319
101325.1727764309
101325.1424840226
101325.114107006
101325.0881284963
101325.0651756743
101325.045803576
101325.030676575
101325.0203465829
101325.0154358515
101325.0164108361
101325.0237580056
101325.037720238
101325.0583669854
101325.0850784137
101325.1163466881
101325.1497874187
101325.1837479453
101325.2176999428
101325.2516520242
101325.2854690357
101325.3190959793
101325.3522639973
101325.3847849396
101325.4162499125
101325.4463360612
101325.4745089881
101325.5003383238
101325.5232053339
101325.5426245756
101325.5579551283
101325.5687251058
101325.5743429009
101325.5744178807
101325.5684736916
101325.5562874772
101325.5376745656
101325.5130023095
101325.4832708543
101325.4505790523
101325.4168830976
101325.3831236158
101325.3493477968
101325.3156662838
101325.2821268098
101325.248945965
101325.2163101942
101325.1845747819
101325.1540693493
101325.1252855777
101325.0986805942
101325.0748547927
101325.0543516779
101325.0378268973
101325.0258458606
101325.0190473907
101325.0179396904
101325.0230544538
101325.0347164511
101325.0531110921
101325.0778459635
101325.1077104776
101325.1404296083
101325.1740090153
101325.2076366495
101325.2412671158
101325.2748011389
101325.3081799468
101325.3411838102
101325.3736245146
101325.4051463116
101325.435429158
101325.46399147
101325.4904036381
101325.5140915077
101325.5345602981
101325.55119679
101325.5635019605
101325.570888008
101325.5729165703
101325.5690914918
101325.5591172594
101325.5427363432
101325.520134054
101325.4920466499
101325.4603205892
101325.427091468
101325.3936593158
101325.3602017756
101325.3268193868
101325.2935344462
101325.2605496248
101325.2280146511
101325.1962688032
101325.1655998593
101325.1364837936
101325.1093359963
101325.0847474998
101325.0632283932
101325.0454393435
101325.0319305886
101325.0233684401
101325.0202702571
101325.0232209576
101325.0325904631
101325.0486819211
101325.0712840307
101325.0995128021
101325.1313075102
101325.1644543294
101325.1977561052
101325.231076033
101325.2643124532
101325.2974444016
101325.330253888
101325.3625975199
101325.3941274933
101325.4245669802
101325.4534462714
101325.4803723661
101325.5047819606
101325.5262033019
101325.5440263079
101325.5577552013
101325.5667927629
101325.5706799279
101325.5688957561
101325.5610954327
101325.5469594083
101325.5265232812
101325.5002781472
101325.4697461235
101325.4370962147
101325.4039944301
101325.3708551959
101325.3377600353
101325.3047499333
101325.2719632191
101325.2395713046
101325.2078380795
101325.1770737125
101325.1476739378
101325.1200804969
101325.0948049526
101325.0723936506
101325.0534368995
101325.038537673
101325.0283075562
101325.0233384003
101325.024183787
101325.0313202343
101325.0450738247
101325.0654572945
101325.091824095
101325.1224850468
101325.1550840869
101325.1880684226
101325.2210585961
101325.2540160343
101325.2868683502
101325.3194905761
101325.3516912174
101325.3832171729
101325.4137483378
101325.4429067309
101325.470257947
101325.4953226365
101325.5175850983
101325.5365057162
101325.5515363725
101325.562130942
101325.5677664803
101325.5679514093
101325.5622594551
101325.5503585036
101325.5321292349
101325.5078811876
101325.4787694773
101325.446863441
101325.4141232043
101325.3813022215
101325.3485043037
101325.315769738
101325.2832068746
101325.2509695678
101325.2192936165
101325.1884633726
101325.1588498551
101325.130864716
101325.1050017899
101325.0817777063
101325.0617773906
101325.0455816235
101325.0338153751
101325.0270614467
101325.025911065
101325.0308563075
101325.0423112002
101325.0603967923
101325.0847492809
101325.1140064765
101325.1459269882
101325.1785494584
101325.2112366841
101325.2438843652
101325.2764778058
101325.308864774
101325.3409271273
101325.3723840214
101325.4029928884
101325.4323468764
101325.4600886956
101325.4857053346
101325.5087531316
101325.5286500907
101325.5449106971
101325.5569336671
101325.5642450885
101325.5662828697
101325.562651795
101325.5529194113
101325.5369344942
101325.514768319
101325.4873174445
101325.4563402496
101325.4240498633
101325.3915268982
101325.3590432579
101325.326577668
101325.2942659536
101325.2621962645
101325.2306220655
101325.1997605461
101325.1699974262
101325.1416781564
101325.1153121427
101325.0913553948
101325.0704141392
101325.0530187466
101325.0398261479
101325.0313849308
101325.0283351716
101325.031158774
101325.0403554116
101325.0561170203
101325.0783310795
101325.1059518475
101325.1369978832
101325.1692045229
101325.2015893919
101325.233932316
101325.2662530366
101325.2984020453
101325.3302961361
101325.3616651506
101325.3923020925
101325.4218134383
101325.4498754688
101325.475987054
101325.4997313155
101325.5205314389
101325.5379166856
101325.5512803884
101325.560151258
101325.5639491896
101325.5622706599
101325.5546617328
101325.5408868682
101325.5209176066
101325.4953201186
101325.465550304
101325.4338952034
101325.4017602887
101325.3695828138
101325.3373602601
101325.3051909643
101325.2731512174
101325.2414748828
101325.2104078903
101325.1803553023
101325.1516792784
101325.1249532495
101325.1006514255
101325.0793335366
101325.0615759344
101325.0480072616
101325.0387632322
101325.0347253584
101325.0360725876
101325.0433332181
101325.0561401425
101325.075498003
101325.0997084785
101325.1270213431
101325.1549152384
101325.182647588
101325.209725424
101325.2359090803
101325.261246167
101325.2853542034
101325.3083157902
101325.3296986329
101325.3498197443
101325.3677878888
101325.3833509295
101325.3964354224
101325.4064213865
101325.4132103173
101325.4163968107
101325.415648571
101325.4106915339
101325.4013846748
101325.3876065572
101325.3686677532
101325.3447226535
101325.3171319528
101325.2865185609
101325.2551497758
101325.2240247042
101325.1937196037
101325.1646792848
101325.1374523298
101325.1117163468
101325.0881706807
101325.0658003646
101325.0465085812
101325.0297896982
101325.0154078893
101325.0040182745
101324.9957097352
101324.9907388715
101324.9894406031
101324.991966564
101324.9983329933
101325.0089444638
101325.0239350479
101325.0433997754
101325.0679532958
101325.0961998002
101325.126264776
101325.1568085897
101325.1870814581
101325.216489783
101325.2445651958
101325.2711289828
101325.2960743522
101325.3195836637
101325.341138637
101325.3613731346
101325.3794169165
101325.39484749
101325.407988969
101325.4182695704
101325.4253608228
101325.4289589154
101325.428834795
101325.4243446114
101325.4154598836
101325.4018273014
101325.3840709358
101325.3610937681
101325.3350606824
101325.3050291618
101325.2736272137
101325.241948892
101325.2106864283
101325.1803090974
101325.1513243578
101325.1241460383
101325.0989145625
101325.0756486149
101325.0547541883
101325.0367984637
101325.0211818831
101325.0084017771
101324.9987359841
101324.9922590218
101324.9892640332
101324.9900477596
101324.9947838512
101325.0032580689
101325.0160957751
101325.0326543084
101325.0554132714
101325.0816801433
101325.1097960772
101325.1391081351
101325.1684280463
101325.1972384082
101325.2249666547
101325.251208492
101325.2758262203
101325.2990532749
101325.3204330944
101325.3404394362
101325.3584292564
101325.3732900199
101325.3861995463
101325.3964780856
101325.4037622839
101325.4076066124
101325.4078215585
101325.4041344317
101325.3957874257
101325.3825497411
101325.3649637936
101325.3438383966
101325.3190145422
101325.2897574141
101325.2584698258
101325.2265497594
101325.1947206057
101325.1634696939
101325.1332785988
101325.1044721252
101325.0776464072
101325.0531723986
101325.0308856438
101325.0115341863
101324.9942413251
101324.98004889
101324.9690469239
101324.9612059072
101324.9567404354
101324.9558374881
101324.9588105723
101324.9657230252
101324.9758933409
101324.9904468132
101325.0094736073
101325.0352504587
101325.0610420189
101325.0888251649
101325.1170220896
101325.1449923514
101325.1721623471
101325.1980423427
101325.2220874527
101325.2446716918
101325.266050622
101325.2853923188
101325.3031818389
101325.3180153724
101325.3303104126
101325.3404759384
101325.3477093645
101325.3517111924
101325.3521302058
101325.3486547806
101325.3412565754
101325.3280942157
101325.3110852818
101325.2892939356
101325.2677614734
101325.2384666629
101325.2074451179
101325.1751529514
101325.1428397357
101325.1108526834
101325.0796685357
101325.0495376378
101325.0207559336
101324.9947921982
101324.9710579406
101324.9499594857
101324.9313983602
101324.9151428924
101324.9025784216
101324.893186366
101324.8872226943
101324.8847932182
101324.885974044
101324.8913539791
101324.899514515
101324.9118962298
101324.9264603514
101324.9527111165
101324.9753745951
101325.0016394029
101325.0282466766
101325.0551200679
101325.081488243
101325.1068203206
101325.1305002887
101325.1520037437
101325.172795742
101325.1916360567
101325.2097283686
101325.2246449284
101325.2353810824
101325.2454799642
101325.2524511964
101325.2564259175
101325.2569833834
101325.253682772
101325.2466612081
101325.2340221444
101325.2169248046
101325.1954044975
101325.1743504824
101325.1468388829
101325.1156678157
101325.0830336076
101325.0501386504
101325.0173907733
101324.9852619281
101324.954246119
101324.9238984842
101324.895717868
101324.8706211103
101324.8483033546
101324.8280270225
101324.8092622815
101324.7950321738
101324.783787255
101324.7760957694
101324.7720750022
101324.7717920769
101324.7754357052
101324.7823190063
101324.7913780141
101324.8056167242
101324.8237619491
101324.8513897981
101324.8724430924
101324.8978972223
101324.9233782236
101324.948630106
101324.9729536201
101324.9962239156
101325.0173207358
101325.036768426
101325.0551984664
101325.0720093978
101325.0869883783
101325.0979460714
101325.1067661649
101325.1136491666
101325.1172037406
101325.1174900288
101325.1145177857
101325.1079998292
101325.0958066258
101325.0747656235
101325.0488532151
101325.0248156838
)
;

boundaryField
{
    inlet
    {
        type            calculated;
        value           uniform 101325.0000000003;
    }
    outlet
    {
        type            calculated;
        value           uniform 101325.0209490978;
    }
    frontAndBack
    {
        type            empty;
    }
}


// ************************************************************************* //
