/*--------------------------------*- C++ -*----------------------------------*\
| =========                 |                                                 |
| \\      /  F ield         | OpenFOAM: The Open Source CFD Toolbox           |
|  \\    /   O peration     | Version:  v2012                                 |
|   \\  /    A nd           | Website:  www.openfoam.com                      |
|    \\/     M anipulation  |                                                 |
\*---------------------------------------------------------------------------*/
FoamFile
{
    version     2.0;
    format      ascii;
    class       volScalarField;
    location    "0.009";
    object      rho;
}
// * * * * * * * * * * * * * * * * * * * * * * * * * * * * * * * * * * * * * //

dimensions      [1 -3 0 0 0 0 0];


internalField   nonuniform List<scalar> 
1000
(
1.176298771533956
1.176322544049998
1.176269037420812
1.176225631631292
1.176175043029611
1.176129047951024
1.176090178282692
1.176057516931243
1.176029607040317
1.176010574148396
1.176005009693617
1.176004637698677
1.176007176650039
1.176015486217186
1.176031951707241
1.176056969063996
1.176089587414632
1.176128350936368
1.176172032421488
1.176219761620189
1.176270818669376
1.176324435088254
1.176379717341071
1.176435650755616
1.176491135459748
1.176545060542129
1.176596452480542
1.176644709648701
1.176689784382126
1.176731843772293
1.176769641270846
1.176797749803699
1.176809755779848
1.176811096761714
1.176810603198642
1.176808399731781
1.17680229869782
1.176790264120262
1.176770589461698
1.176742489366889
1.176706301552108
1.176663297643684
1.176615165109573
1.176563485927
1.176509491267669
1.176454119997337
1.176398204586217
1.176342603337681
1.176288195800034
1.176235722715802
1.17618554558763
1.17613764195884
1.176092439540446
1.176053029771074
1.176026808449949
1.176017877722892
1.176017274804256
1.176017629143533
1.176019770528074
1.176025093489541
1.176035449618031
1.176052436159183
1.176077184833104
1.176110053046715
1.17615052359148
1.176197327751541
1.176248768309417
1.176303112240752
1.176358879791192
1.176414931828937
1.17647041790468
1.176524740805522
1.176577600522861
1.176628984467265
1.176678847212642
1.176726131041652
1.176766784449038
1.176792954841396
1.176801552670997
1.176802177542344
1.176801715612544
1.176800013403889
1.176795488866702
1.176786689319461
1.176772077395016
1.176750398339285
1.176720901391901
1.176683537351038
1.17663900892309
1.176588651309872
1.176534184829253
1.17647741097964
1.176419920729837
1.176362884786653
1.176306979189939
1.176252439973317
1.176199223468517
1.176147427528812
1.176098477867034
1.176057357419485
1.176032477742195
1.176025236963776
1.176024869569164
1.17602517301981
1.176026895225875
1.176031083635299
1.176039197341358
1.176052609811751
1.17607252783041
1.176099778725315
1.17613464717494
1.176176766320653
1.176225124139648
1.176278216471073
1.176334309348162
1.176391725698742
1.176449094186771
1.176505533565208
1.176560718220731
1.176614709989684
1.176667404783799
1.176717343899997
1.176759720928452
1.176786280362496
1.176794776475279
1.176795425058532
1.176795072932811
1.176793764149679
1.176790227324396
1.176783271080104
1.176771568474998
1.17675390367811
1.1767293144499
1.17669726446603
1.176657768702828
1.17661144529448
1.176559475184972
1.17650344933988
1.176445101880785
1.176385992822185
1.176327256921174
1.176269513084809
1.176212995800139
1.176158074896373
1.176106574941725
1.176063955866326
1.176038664749073
1.176031383450653
1.176030972072827
1.176031199314978
1.176032560084608
1.176035939566209
1.176042560972847
1.176053621290566
1.176070255610793
1.176093387851928
1.176123597816658
1.176160994642872
1.176205143862686
1.176255088306587
1.176309467261067
1.176366710437994
1.176425285890664
1.176483964266675
1.176541994423317
1.176599029455916
1.176654631696452
1.176707104098125
1.176751512035353
1.176779579222782
1.176788917685964
1.176789748927999
1.176789495347579
1.176788514592119
1.176785723981085
1.176780104071744
1.176770481898713
1.176755729287071
1.176734855370032
1.176707137834407
1.176672238040718
1.176630288826779
1.176581935854416
1.176528297154023
1.176470810466723
1.176410991993297
1.176350187066125
1.176289404842233
1.176229345802302
1.176170853658734
1.176116216075975
1.176071283343589
1.176044616013278
1.176036716540851
1.176036175378014
1.176036345723513
1.176037430232947
1.176040184456706
1.17604567157849
1.176054956136091
1.176069092789451
1.176089010977968
1.176115411409237
1.176148655485846
1.176188680766037
1.176234972693168
1.176286601384139
1.176342322242392
1.176400749012533
1.176460585073587
1.17652082001267
1.1765807280835
1.176639474388829
1.176695043137254
1.176742324607717
1.176772866942302
1.176783673640312
1.176784825992721
1.176784646717954
1.176783906656052
1.176781679955157
1.176777082686934
1.176769068552173
1.176756595362
1.176738689568573
1.176714550957322
1.176683648758502
1.176645808715815
1.176601279328076
1.176550745260598
1.176495254566835
1.176436066607365
1.176374468619459
1.176311621864999
1.176248543629619
1.176186487166037
1.176128175691059
1.17607988313565
1.176050661929556
1.176041538311415
1.176040781720419
1.176040892474348
1.176041742133447
1.176043988218573
1.176048577957354
1.176056462672874
1.17606861269744
1.176085927333406
1.176109155246345
1.176138800953976
1.176175043981259
1.176217692685687
1.176266179211207
1.176319601496919
1.176376832064647
1.176436691531324
1.176498113604088
1.17656016411954
1.17662172978709
1.176680565331787
1.17673144455337
1.176765570107524
1.176778697192757
1.176780401053326
1.176780287837742
1.176779752108803
1.17677798436634
1.176774208384811
1.176767479705569
1.176756841490996
1.176741362873589
1.17672022076135
1.176692777845133
1.17665866194174
1.176617837260601
1.176570641018397
1.176517758649413
1.176460139376908
1.176398878008844
1.17633509934702
1.176269940159458
1.176204886928536
1.176142922912971
1.176090564479666
1.176057486908023
1.176046144944048
1.17604494787735
1.176045013768519
1.176045669001248
1.17604749108416
1.176051331825063
1.176058056352715
1.176068564762126
1.176083717646416
1.176104272752198
1.176130809497913
1.176163660613706
1.176202863466079
1.176248133842579
1.176298872051126
1.176354225552787
1.176413209801678
1.176474829128535
1.176538091748057
1.17660176254611
1.176663539721279
1.176718294971495
1.176756996664775
1.176773599854424
1.176776310328106
1.176776267811923
1.17677590967149
1.176774527136833
1.176771441437477
1.176765785015381
1.176756673820534
1.176743225126793
1.176724621460243
1.176700172151051
1.176669381417278
1.176632015139881
1.176588145444168
1.176538153895206
1.176482693903326
1.176422624655737
1.176358936422365
1.176292746340369
1.17622559548267
1.176160472367966
1.176103780641519
1.176065677362758
1.176050883714382
1.176048855076129
1.176048866931491
1.176049346470891
1.17605079434168
1.176053986419315
1.176059718668633
1.176068830506915
1.176082142129948
1.176100403585351
1.176124233103708
1.176154060699572
1.176190082528952
1.17623222605554
1.176280137367095
1.176333213778015
1.176390682065448
1.176451677325925
1.176515248264158
1.176580165162584
1.176644232985929
1.176702673501446
1.176746573291347
1.17676792585572
1.176772376573834
1.176772484581592
1.176772263266489
1.176771210120338
1.176768717192931
1.176763982032407
1.17675617985612
1.176744471863566
1.176728057224646
1.176706221489433
1.17667839373358
1.17664420472341
1.176603531157567
1.176556514444414
1.176503554186773
1.176445279015116
1.176382504465332
1.176316243052771
1.176247959251913
1.176180443057732
1.176119643190882
1.176075776225585
1.1760561685874
1.176052632004127
1.176052567410836
1.176052882356692
1.176053996941031
1.176056611360063
1.176061467910851
1.176069358435762
1.176081065969965
1.176097324621258
1.176118770163645
1.176145894133273
1.176179002110417
1.176218176378781
1.176263255146549
1.176313846297726
1.176369372772902
1.176429118153157
1.176492226034058
1.17655755644396
1.176623131158149
1.176684709727057
1.176733916230532
1.176761142136854
1.176768405842697
1.176768858748763
1.176768731765471
1.176767961244152
1.176765988465282
1.176762062038373
1.176755407415603
1.176745223072319
1.176730728234257
1.176711200547539
1.176686023997329
1.176654739359971
1.17661708398084
1.176573015847412
1.176522726584846
1.176466640100898
1.176405394100459
1.176339855873491
1.176271334313951
1.176202301224137
1.176138017390941
1.176088215276702
1.176062493939601
1.176056420523645
1.176056127628085
1.176056331562831
1.176057147530739
1.176059251126181
1.176063326532387
1.176070128649207
1.176080409398965
1.176094886663781
1.176114203927411
1.176138892196591
1.17616933198824
1.176205717487255
1.176248034003513
1.17629605935885
1.176349384456673
1.176407436095057
1.176469476093216
1.176534497388416
1.176600787695765
1.176664735033007
1.176718862627205
1.176752719461802
1.176764130323121
1.176765329589202
1.176765270898577
1.176764744169316
1.176763228598859
1.176760018825152
1.176754380623038
1.176745546386751
1.176732756243434
1.176715289693686
1.176692505661244
1.176663884343105
1.176629062063013
1.17658785894897
1.176540303471772
1.176486646013841
1.176427355638627
1.176363142520193
1.176295132175171
1.17622543692796
1.176158524687888
1.176103179886264
1.176070425434925
1.176060467777849
1.176059603070609
1.176059730569314
1.176060298097856
1.176061949456997
1.176065322220464
1.176071140132491
1.176080130107835
1.176092997105375
1.176110387752645
1.176132859122095
1.176160844793828
1.176194620070489
1.17623427916983
1.176279732406894
1.176330713033968
1.176386780783739
1.176447315498724
1.176511447893265
1.176577734779536
1.176643196973387
1.176701461745057
1.176742145625999
1.176759150223356
1.176761866291621
1.176761905648437
1.176761551035346
1.176760419347014
1.176757829468214
1.176753092955851
1.176745468847917
1.176734216369738
1.176718619626506
1.176698021396002
1.176671857438504
1.176639690101082
1.176601239580792
1.176556410175903
1.176505307321629
1.176448248940205
1.17638579907253
1.176318901981554
1.176249307818699
1.176180681678542
1.176120593337036
1.176080463743285
1.176065135612684
1.176063062404161
1.176063090966166
1.176063467816408
1.176064713506304
1.176067453385178
1.176072379919473
1.176080198784086
1.17609160185538
1.176107236248745
1.176127674962852
1.176153386783074
1.176184707856637
1.17622182011109
1.176264738968311
1.176313308923877
1.176367204746268
1.176425927583492
1.176488747665098
1.176554457923824
1.176620643246211
1.176682075671209
1.176729175430592
1.176752933356922
1.17675829699856
1.176758521324945
1.17675833325386
1.17675752629337
1.176755493810384
1.17675157242404
1.176745046922982
1.176735191672295
1.176721296308041
1.176702696413704
1.176678802330844
1.176649125392417
1.176613308031811
1.176571156481973
1.176522662657189
1.176468015189942
1.176407633541029
1.176342286017406
1.176273413414016
1.176203975303997
1.17614023441311
1.176093018823381
1.17607090026339
1.176066536863684
1.176066432818718
1.176066630780544
1.176067555974555
1.176069741428822
1.176073866817495
1.176080616366201
1.176090671729587
1.17610468010015
1.176123229345044
1.176146818303409
1.1761758288801
1.176210507608453
1.176250953956201
1.176297107565059
1.176348738993991
1.176405448409708
1.176466631719403
1.176531296810067
1.176597505271832
1.176661069417936
1.176713691006332
1.176744900492454
1.17675442654894
1.176755260757846
1.176755137887925
1.176754599733392
1.176753029473441
1.176749819339232
1.176744273492891
1.176735685540055
1.176723353384931
1.176706606988838
1.176684833992397
1.176657507159394
1.176624212769039
1.176584678030074
1.176538795454581
1.176486646324457
1.176428535416528
1.176365073659735
1.176297414183357
1.176227907578676
1.176161610751954
1.17610815334553
1.176078361154567
1.1760702721104
1.176069717736374
1.176069836413146
1.176070467014777
1.176072163292541
1.176075562471436
1.176081334195137
1.176090151486089
1.176102661166933
1.176119458622266
1.176141062561257
1.176167891759693
1.176200245655036
1.176238288038209
1.176282033976161
1.176331342538578
1.17638591082446
1.176445241678656
1.176508513936299
1.17657418620089
1.176638978208814
1.176696008820947
1.176734629534024
1.176749795707899
1.176751955485601
1.176751933655223
1.176751592657124
1.176750431658451
1.176747860582657
1.176743208827616
1.176735783381192
1.176724889334168
1.176709856072744
1.17669005859991
1.176664940895306
1.176634045290981
1.176597040892401
1.176553743782867
1.176504138443194
1.17644841843899
1.176387060944831
1.176320993629297
1.176252069164794
1.176184277617962
1.176125754196649
1.176088047493125
1.176074606707173
1.176072996327505
1.176073017332915
1.176073452865565
1.176074729371962
1.176077489866091
1.176082374917959
1.176090048498844
1.176101157071263
1.176116306094569
1.176136033622377
1.176160788847958
1.176190915095038
1.176226631971586
1.176268017699266
1.176315001032436
1.176367359723558
1.176424695182773
1.176486331201221
1.176551028910183
1.176616232102093
1.176676438779841
1.176721832650756
1.176743913277099
1.176748576984096
1.176748728755681
1.176748553220659
1.176747712924284
1.176745690985787
1.176741832497825
1.176735464666793
1.176725900755003
1.176712468510453
1.176694531246476
1.176671511572903
1.176642916516802
1.176608362676054
1.17656760074237
1.176520541704101
1.176467289828322
1.176408197255059
1.176343993128055
1.176276140253711
1.176207759245255
1.176145455474991
1.176100269651101
1.17608000454582
1.176076296541889
1.17607622190594
1.176076462993412
1.176077390764739
1.176079578903502
1.176083657560702
1.176090283456962
1.17610010413782
1.176113732027093
1.176131717966163
1.17615453031048
1.176182537828024
1.176215993173378
1.176255021371069
1.176299617902723
1.176349645736415
1.176404814273499
1.17646460232229
1.176528061675091
1.1765932173596
1.176655735815519
1.176707100927137
1.176736664690581
1.17674552656858
1.176746124117577
1.176745635691486
1.176744305914939
1.176742024814999
1.176738234522375
1.176732447871766
1.176724175575758
1.176712902079379
1.176698042452645
1.176678908892877
1.176654734883549
1.176624757741971
1.176588326062348
1.176544967693349
1.176494353118837
1.176436358384339
1.176371212629014
1.176300084846377
1.176225711338117
1.176152993556657
1.176093717772214
1.176060036699856
1.17604277749704
1.176029896141011
1.176021197051942
1.176014328423498
1.176008485669219
1.176004304426825
1.176002786664208
1.176004181766385
1.176008880538751
1.176018387603531
1.176033790662504
1.176055809243466
1.176084990761017
1.176121859454742
1.176166825435059
1.176219973360362
1.176281024996877
1.176349538750943
1.176424337535795
1.176502927380851
1.176581378546282
1.17665035988713
1.176698537262981
1.176729350094142
1.176754247218502
1.176772221789632
1.176786251187133
1.176798325387362
1.17680917916494
1.176818635113149
1.176825739227379
1.176828586110392
1.176826391960841
1.176818856461342
1.176803752702555
1.176779401959999
1.176744869743961
1.176699827683494
1.176644374399095
1.176578916702067
1.176503936326351
1.176421137179392
1.17633425890557
1.176248771625537
1.176175723169282
1.17612424170342
1.176086560198142
1.176057764114891
1.176038111673049
1.176024771768249
1.176015637641371
1.176009372414422
1.176005824319037
1.176005485338425
1.176008697491511
1.176015988448857
1.176028185986848
1.176046178413936
1.176070936058388
1.176103373937479
1.176144163164194
1.176193605447355
1.176251512000848
1.176317200690187
1.176389507593689
1.176465715198223
1.176541511208816
1.17661198005465
1.176668794812226
1.176707042353865
1.17673618555798
1.176758841800562
1.176775396957216
1.1767878519693
1.176797732413133
1.176805876258839
1.176812217050049
1.176815424072301
1.176814829614225
1.176809923654258
1.176798617394116
1.176778938285614
1.176749558720984
1.176709685431399
1.176658851879543
1.176597060768724
1.176525124281439
1.176445048448629
1.176360534530139
1.176275913609233
1.176198172281281
1.176137482086796
1.176094653425373
1.176060401449394
1.176035668206871
1.176018868699037
1.176008008488009
1.176001556652229
1.175998771690784
1.175999409446743
1.176003155373933
1.176010281906393
1.176021310897351
1.176037017618641
1.176058468140237
1.176086963186949
1.176123626585986
1.176169005009449
1.17622303330401
1.176285212022622
1.17635456406463
1.176428789348365
1.176503746592608
1.176575327215902
1.176637964317233
1.176684573868594
1.176717184490173
1.176743908928327
1.176763580975079
1.176777686818363
1.176787873202011
1.17679539527546
1.17680067501849
1.176803192584427
1.176802969179559
1.176799621822209
1.176791233051285
1.176775780752247
1.176751450601332
1.176716784753011
1.176670876483429
1.176613616431077
1.176545860199646
1.176469120868434
1.176386339816641
1.176301844071003
1.176220932597553
1.176152870805388
1.176103153413204
1.176064667905604
1.176034864706763
1.176014077610559
1.176000598599003
1.175992822061653
1.175989693225815
1.175990650665491
1.175994890581842
1.176002159385243
1.176012829434715
1.176027407880537
1.17604675849091
1.176072056626073
1.176104568533785
1.176145363929753
1.176195016237112
1.17625331795024
1.176319189246683
1.176390846854183
1.176464995599278
1.176537329006078
1.176603802550674
1.176657738226897
1.176695808818192
1.176726002908119
1.176749272050042
1.17676577202941
1.176777138192387
1.17678486460787
1.176789434862252
1.176791056035047
1.176790557377961
1.17678774924345
1.176781112994496
1.176768869195987
1.176749074622836
1.176719930238075
1.176680053512878
1.176628646995263
1.176565739522639
1.176492413973285
1.176411421408997
1.176327251269123
1.176244235903076
1.176169739798137
1.176112034828488
1.17606910665053
1.176034752656772
1.176010195260953
1.175993795973779
1.175983832826264
1.175979241206427
1.175979495154875
1.175983682060725
1.175991042391503
1.176001824576985
1.176016126942391
1.176034445759037
1.176057655841759
1.176086983880949
1.176123680611745
1.17616857928151
1.176221919298851
1.176283364662835
1.176351885433427
1.176424824040849
1.176497676561298
1.17656678506551
1.176626846774462
1.17667190187134
1.176705213093681
1.176732244517257
1.176751649059552
1.176765098797763
1.176774107488364
1.176779005865156
1.176780177044149
1.176778844521
1.176775385488932
1.176769144927073
1.176758943312688
1.176742984443843
1.176719200206076
1.176685625364956
1.176640676047577
1.176583531007376
1.176514781044863
1.176436539468513
1.176352813767005
1.176267712301265
1.176187756636436
1.176122413750328
1.17607347940927
1.176034963164807
1.176006139568189
1.175986564401872
1.175974513972498
1.175968304718516
1.175967489898657
1.175971237073156
1.17597799247088
1.17598832292796
1.1760023367487
1.176020722261665
1.176044283206747
1.17607378133041
1.176109636504458
1.176151614643672
1.1761988930669
1.176250379885535
1.176307458517655
1.17636651786435
1.176465393852289
)
;

boundaryField
{
    inlet
    {
        type            calculated;
        value           uniform 1.176395973595895;
    }
    outlet
    {
        type            calculated;
        value           uniform 1.176487062854694;
    }
    frontAndBack
    {
        type            empty;
    }
}


// ************************************************************************* //
