/*--------------------------------*- C++ -*----------------------------------*\
| =========                 |                                                 |
| \\      /  F ield         | OpenFOAM: The Open Source CFD Toolbox           |
|  \\    /   O peration     | Version:  v2012                                 |
|   \\  /    A nd           | Website:  www.openfoam.com                      |
|    \\/     M anipulation  |                                                 |
\*---------------------------------------------------------------------------*/
FoamFile
{
    version     2.0;
    format      ascii;
    class       volScalarField;
    location    "0.009";
    object      T;
}
// * * * * * * * * * * * * * * * * * * * * * * * * * * * * * * * * * * * * * //

dimensions      [0 0 0 1 0 0 0];


internalField   nonuniform List<scalar> 
1000
(
299.9871868221005
299.988943188447
299.9826195971527
299.9779841249782
299.9735858024903
299.9697952021567
299.9663529928666
299.9632596312459
299.9605761961882
299.9588261910554
299.9584269090481
299.9585840359862
299.9590374482526
299.9599468760993
299.9616152550834
299.9641326645054
299.967411255642
299.9713046339748
299.9756918330292
299.9804906281644
299.9856350923109
299.991053157194
299.9966573791979
300.0023451345161
300.0080028575269
300.013514386057
300.0187767793271
300.0237246832726
300.0283492994756
300.0326643049428
300.0365399218462
300.0394207664376
300.0406522735871
300.0407910793308
300.0407379577647
300.040504949078
300.0398726935954
300.0386365323856
300.0366224247667
300.03375031167
300.0300549702067
300.025666102106
300.0207554912814
300.0154839981712
300.0099766405575
300.0043286502646
299.9986245266428
299.9929515860114
299.9873995090808
299.9820439814778
299.9769220914546
299.972031784732
299.9674169754762
299.9633934229443
299.9607161965222
299.9598042258129
299.9597425425773
299.9597787227735
299.959997586368
299.9605413137247
299.9615987347217
299.9633328648047
299.9658592050025
299.9692141988481
299.9733450240429
299.9781221650186
299.9833723803966
299.9889187840646
299.9946103479078
300.0003308135851
300.0059933885072
300.0115371266605
300.0169314143109
300.0221749693773
300.027263159311
300.0320880594717
300.0362362789093
300.0389066150557
300.0397838953684
300.0398476505815
300.0398005108894
300.0396268171135
300.0391651495734
300.0382672797218
300.0367763312012
300.0345642567543
300.0315544241782
300.0277417759934
300.0231979727912
300.0180592175847
300.0125010224005
300.0067072000951
300.0008400977233
299.9950191896866
299.9893134777215
299.983747062256
299.9783154975888
299.9730287816557
299.9680324492169
299.9638351491728
299.9612955502695
299.9605564405724
299.9605189406248
299.9605499190055
299.9607257177001
299.9611532547245
299.9619814665213
299.9633505440072
299.9653836564842
299.968165230738
299.9717242928042
299.9760233567873
299.9809590825954
299.9863779046403
299.9921028156642
299.9979626330165
300.003817394943
300.009577169918
300.0152087378491
300.0207184192602
300.0260956018544
300.0311914485094
300.0355155433492
300.0382255783842
300.0390924855244
300.0391586660099
300.0391227390022
300.0389891990055
300.0386283176308
300.0379185302532
300.0367244359505
300.0349219649086
300.0324129143915
300.0291425307942
300.0251123051018
300.0203852693265
300.0150818874437
300.0093644736256
300.0034099668925
299.9973775570098
299.9913830506508
299.9854896188275
299.9797212032754
299.9741155617886
299.9688589424446
299.96450868715
299.9619270976233
299.9611838535463
299.9611418637377
299.9611650629237
299.9613039674846
299.9616489320106
299.962324815713
299.9634537968916
299.9651517305185
299.9675129085821
299.9705964885222
299.9744135765671
299.9789197862278
299.9840173786503
299.9895674329409
299.9954096510259
300.0013876646221
300.0073760038841
300.0132980146022
300.0191183021181
300.0247922133071
300.0301465912096
300.0346779390254
300.0375418315724
300.0384946922071
300.0385795114067
300.0385536404192
300.0384535718515
300.0381688314471
300.0375953986351
300.0366135849962
300.0351082676952
300.0329783278116
300.0301500402602
300.0265888199318
300.0223081831347
300.0173739716607
300.0119002320864
300.0060336458217
299.999928915765
299.9937233236555
299.9875198569392
299.9813900102861
299.97541990566
299.9698430594871
299.9652566623081
299.9625346054615
299.961728264137
299.9616730273207
299.9616904194354
299.961801125583
299.9620822669816
299.9626423682895
299.9635900892721
299.9650330771647
299.9670661914654
299.9697609362478
299.9731541729633
299.9772394928639
299.9819643354562
299.9872337495989
299.9929206697116
299.9988835842736
300.0049901444725
300.0111372245161
300.0172507602041
300.0232455575358
300.0289159317363
300.0337405189485
300.036856981361
300.0379596587399
300.0380772433952
300.0380589545841
300.0379834461448
300.0377562451397
300.0372871586317
300.0364694238586
300.0351966936148
300.0333696194815
300.0309065323343
300.0277532480605
300.0238919523056
300.0193479624469
300.0141911012335
300.008528276866
300.0024879700601
299.9962015193477
299.9897874212301
299.9833494918392
299.9770156442166
299.9710638459325
299.9661345284337
299.9631517963613
299.9622205020434
299.9621432756859
299.9621545853333
299.962241319142
299.9624705918654
299.9629390922524
299.9637439242876
299.9649841290097
299.9667514925235
299.9691224183065
299.9721483810284
299.9758476747754
299.9802007021125
299.9851494631919
299.9906018491143
299.9964427511944
300.0025517742862
300.008820077392
300.0151523158133
300.0214348771359
300.02743865221
300.0326303861592
300.0361124870034
300.0374519315035
300.0376257898134
300.0376142409727
300.0375595817254
300.0373792108731
300.0369939249517
300.0363073533102
300.035221859003
300.0336424509538
300.0314851293568
300.028684843738
300.0252035884315
300.0210376756816
300.0162214749489
300.0108248881898
300.0049447399851
299.9986927201357
299.9921835909404
299.9855333493156
299.9788937003879
299.9725691433872
299.9672248477331
299.9638484941381
299.9626907637646
299.9625685752478
299.9625753046498
299.9626421917837
299.9628281837079
299.9632202290474
299.9639066341613
299.9649792717888
299.9665259788439
299.9686240888826
299.9713327260336
299.9746858268498
299.9786871728497
299.9833077172758
299.9884862117777
299.9941356041033
300.0001553760001
300.0064438835986
300.0128998905361
300.0193973416378
300.0257013490751
300.031288636983
300.0352376990843
300.0369318376225
300.0372084065989
300.0372040708724
300.0371675312455
300.0370264648798
300.0367116120379
300.0361344491042
300.0352047671174
300.0338324889316
300.0319341907691
300.0294393811532
300.0262974469942
300.0224844673095
300.0180077639435
300.0129062308704
300.0072465023405
300.0011162156936
299.9946163933011
299.9878610162816
299.9810073482944
299.974360411783
299.9685738563246
299.9646845303122
299.9631744722751
299.9629674003378
299.9629686130118
299.9630175652302
299.9631653585485
299.9634911905226
299.964076307988
299.9650063908855
299.9663651541197
299.9682291478063
299.9706614610851
299.9737059644776
299.9773826511812
299.9816840829644
299.9865740983944
299.9919911444111
299.9978562656246
300.0040811561212
300.0105687021988
300.0171933888083
300.0237312112698
300.0296946011151
300.034174099347
300.0363528565602
300.0368069940341
300.036818016495
300.036795436711
300.0366879792035
300.0364336098391
300.0359504484591
300.0351543343106
300.0339596736047
300.0322847429936
300.0300566275857
300.0272170506628
300.0237283082236
300.0195777839622
300.0147798672489
300.0093752914957
300.0034281619554
299.997021661755
299.9902590847906
299.9832898649119
299.9763987473889
299.9701929291286
299.9657153150654
299.9637138761475
299.9633528805518
299.9633462888235
299.963378438803
299.9634922111709
299.9637590777542
299.964254807543
299.9650602249694
299.9662552529598
299.9679148164844
299.9701037980914
299.9728723513165
299.9762516420552
299.9802500377547
299.9848509883186
299.990014432562
299.9956814335138
300.0017788344178
300.0082191984579
300.0148861600974
300.0215778278748
300.0278614943296
300.0328825259008
300.0356605959271
300.0364017618021
300.036447975872
300.0364350203134
300.0363564000402
300.0361551041485
300.035754462585
300.0350754409245
300.0340362499053
300.032557214293
300.0305646151677
300.0279955780766
300.0248032201845
300.0209607090587
300.0164637200214
300.0113317643692
300.0056080543713
299.9993576210203
299.9926689301248
299.9856755270478
299.9786296670194
299.9720683102209
299.966984922164
299.9643594428327
299.963739500495
299.9637096040559
299.963730421633
299.9638137120792
299.9640284357242
299.964444429666
299.9651387479717
299.9661881386718
299.9676658720243
299.9696376197389
299.9721575670599
299.9752645320372
299.9789783071226
299.9832973592343
299.9881989733353
299.9936413546883
299.9995659605365
300.0058974146451
300.0125329079891
300.0192976775936
300.0258231318018
300.0313463631266
300.0348010597652
300.0359653906712
300.0360877605012
300.0360817725066
300.0360280272678
300.0358733828893
300.0355458657913
300.034970556334
300.0340691270309
300.0327640366952
300.0309817576467
300.0286568609334
300.0257362855436
300.0221828942455
300.0179782980206
300.0131253612849
300.007649588936
300.0015988001718
299.9950454219864
299.9881042769974
299.9809909191222
299.9741613622215
299.9685122766239
299.9651689199184
299.964152496349
299.9640642319437
299.9640772466424
299.9641351771044
299.9643037383612
299.9646480097959
299.9652418656491
299.9661595020679
299.967472871405
299.9692479680833
299.9715416403638
299.9743981254368
299.9778454985535
299.9818933455426
299.9865324765253
299.9917356261623
299.9974578181142
300.0036357183587
300.0101805734009
300.0169450733035
300.0236251867304
300.0295706413545
300.0337219910364
300.0354570965238
300.0357342361021
300.0357382521286
300.0357020684821
300.0355865938612
300.0353223285976
300.0348390247472
300.0340610740858
300.0329128852233
300.0313214019776
300.0292195502051
300.0265497375133
300.0232672813416
300.0193435988029
300.0147688860141
300.0095538581361
300.0037309103614
299.9973575540255
299.9905301083975
299.9834271540404
299.9764227475725
299.9702895507063
299.9661934200027
299.9646288127148
299.9644171908392
299.9644201062684
299.9644585728594
299.9645857252493
299.964865394982
299.9653682638481
299.9661663605352
299.9673303030131
299.9689261370131
299.9710123384988
299.973636740697
299.9768336321832
299.9806215540981
299.9850020469225
299.9899592008633
299.9954597806019
300.0014528309845
300.0078638332886
300.0145695676071
300.0213235527548
300.0275923108108
300.0323983747987
300.0348225851466
300.0353698758977
300.0353927654078
300.0353735749058
300.0352912342655
300.0350838438578
300.0346837131045
300.0340178617603
300.0330122441156
300.0315943697076
300.029696432253
300.0272582482096
300.0242299325568
300.0205749705132
300.0162735543195
300.011324817179
300.0057479615949
299.9995857435545
299.9929165218064
299.9858872969211
299.9788001027931
299.972294166137
299.9674747934299
299.9652170692414
299.9647716776202
299.9647610570689
299.9647812634792
299.9648757011814
299.9650987781901
299.9655198706322
299.9662088182224
299.9672351963847
299.96866506
299.9705584044837
299.9729661329768
299.9759272072079
299.979466765365
299.9835949288675
299.9883055010508
299.9935750242911
299.9993626490307
300.0056066808174
300.0122058318871
300.0189622588055
300.0254486197765
300.0308181859253
300.0340027596023
300.0349747738572
300.035059894033
300.0350473563163
300.0349924436935
300.034832217121
300.0345046606103
300.033938771031
300.0330624666204
300.0318041017197
300.0300952980475
300.0278735579246
300.0250850634879
300.0216875730148
300.0176532180252
300.0129709909714
300.0076491413816
300.001718722219
299.9952420296294
299.9883367005635
299.9812426032991
299.9744758673492
299.9690194378165
299.965978456914
299.9651527741492
299.9650961865199
299.9651082998606
299.9651726670936
299.9653458116867
299.9656927768769
299.9662819142498
299.9671819187772
299.9684588086571
299.9701733481663
299.9723784706315
299.9751169036458
299.9784191879477
299.9823020129333
299.98676688261
299.9917993747114
299.9973685332362
300.0034235766606
300.0098806601744
300.0165824486823
300.0231941844683
300.0290137154355
300.0329545523489
300.0345020756598
300.0347224536253
300.0347202256482
300.0346854302304
300.0345669635743
300.0343046150048
300.0338299565915
300.0330722725993
300.0319606516119
300.0304266580847
300.0284065067688
300.0258434451535
300.0226907500005
300.018914626934
300.0144962722748
300.0094340597598
300.0037476946673
299.9974858228023
299.9907430682244
299.9837084727475
299.9767892599171
299.9708158054034
299.9669669961891
299.9655950435903
299.9654306652615
299.9654328088576
299.9654772645027
299.9656075613001
299.9658893334162
299.9663879649961
299.9671712276611
299.9683051037612
299.9698513872667
299.9718649878176
299.9743917399481
299.9774666663469
299.9811121561394
299.9853361617265
299.9901313751188
299.9954750731232
300.0013265336615
300.0076167036605
300.0142191164849
300.0208728911159
300.0270165847539
300.0316485938853
300.0339016647862
300.0343775382003
300.0343930241783
300.0343751122687
300.0342893692507
300.0340830534078
300.0336893383651
300.0330395718429
300.0320636770094
300.0306930523784
300.0288627216218
300.0265137539018
300.0235958261324
300.0200697889408
300.0159101688607
300.011107842753
300.0056734051274
299.9996427424713
299.993090216642
299.9861650739405
299.9791857836775
299.9728265453129
299.9682143676484
299.9661458407468
299.9657673499227
299.9657597310576
299.9657843390056
299.9658790390098
299.9661023886599
299.9665187087109
299.9671950310856
299.9681974494307
299.9695884697288
299.971424308443
299.973752757981
299.9766114404596
299.9800261206109
299.9840095304963
299.9885611750278
299.9936670301062
299.9992973959408
300.0053990389847
300.0118751514615
300.0185241571095
300.0249038265613
300.030145195896
300.0331618527484
300.0340661001164
300.0341270722685
300.0340772335875
300.0339415445779
300.0337087838766
300.0333220267289
300.0327315622062
300.0318874617857
300.030737114937
300.0292208296364
300.0272684129927
300.0248016345788
300.02174264762
300.0180249511196
300.0136003258648
300.0084350973361
300.0025165573816
299.9958680240574
299.988608733568
299.9810179033271
299.9735957823455
299.9675454320164
299.9641074746572
299.9623457450381
299.9610308753175
299.960142906924
299.9594417818024
299.9588453726103
299.9584185643165
299.9582636359228
299.9584060444543
299.9588856808186
299.9598561283192
299.9614284076685
299.9636759502224
299.9666546096327
299.9704178629821
299.9750075250903
299.9804321790769
299.9866633592421
299.9936559226027
300.0012896630649
300.0093099972804
300.0173158582158
300.0243550554403
300.0292711585867
300.0324152963546
300.0349557623035
300.036789840722
300.0382213520031
300.0394533540979
300.0405608236296
300.0415256606897
300.042250525962
300.0425410060364
300.0423171292395
300.0415482498548
300.0400071366722
300.0375224809206
300.0339988939258
300.0294028133073
300.0237442280433
300.0170645614019
300.0094128742889
300.0009629504866
299.9920963616518
299.9833713521246
299.9759155589338
299.970660861343
299.9668146409684
299.9638753226614
299.9618693024064
299.960507621314
299.9595752430178
299.9589357095554
299.958573531709
299.9585389323393
299.9588668223051
299.9596110594707
299.9608561349011
299.9626927146189
299.9652198272868
299.9685308436532
299.9726942246703
299.9777407117597
299.9836509704082
299.99035530641
299.9977348558083
300.0055122145726
300.0132472733363
300.0204384216628
300.0262360105204
300.0301388355261
300.0331125950727
300.0354243968275
300.0371136372117
300.0383845016449
300.0393926620505
300.0402236249121
300.0408706109719
300.041197840842
300.0411371880131
300.040636611478
300.0394829726789
300.0374749883646
300.0344771666524
300.0304085176178
300.0252213688728
300.018915909198
300.0115749175126
300.0034030068007
299.9947778241718
299.9861413573516
299.9782066930326
299.9720121244563
299.9676405476507
299.9641443374709
299.9616196961456
299.9599048701353
299.9587962958584
299.9581377120202
299.9578534315106
299.9579185357591
299.9583009155928
299.9590283733561
299.960154173049
299.9617574452627
299.9639469973501
299.9668555780909
299.9705978653564
299.9752296102884
299.9807441023464
299.9870902958576
299.9941683928134
300.0017435825954
300.0093931884049
300.0166979330757
300.0230897751013
300.0278459370961
300.0311735462361
300.0339004843711
300.0359077779851
300.0373470955068
300.0383864781084
300.0391540026815
300.0396927288361
300.0399496130231
300.0399268218722
300.0395852767923
300.0387293215452
300.0371526201002
300.034670026
300.0311327470424
300.0264482029372
300.0206051532439
300.0136908106879
300.0058594820797
299.9974112526631
299.9887876737262
299.9805295585394
299.9735826537781
299.9685079660038
299.9645796399972
299.9615374883925
299.9594156239429
299.9580397275542
299.9572459186018
299.9569265345092
299.9570242718518
299.9574570797947
299.9581990652962
299.9592882321826
299.9607763431713
299.9627515587792
299.9653338371058
299.9686524020383
299.9728164025659
299.9778843149701
299.9838348940632
299.9905578564779
299.9978711316948
300.0054383730327
300.0128200817546
300.0196035469544
300.0251073764551
300.0289921722286
300.0320731829003
300.0344475373045
300.0361311569931
300.0372909265103
300.0380793053267
300.03854564145
300.038711064649
300.0386601899545
300.0383736646825
300.0376965268545
300.0364472047507
300.0344274047201
300.0314535301295
300.0273844630705
300.0221387617352
300.0157192770704
300.0082364080163
299.9999708011059
299.9913805579437
299.9829078178111
299.9753042621098
299.9694143164791
299.9650325300686
299.9615258632399
299.9590191408378
299.9573451484837
299.9563281324318
299.9558594282416
299.9558853563188
299.9563127595597
299.9570640966724
299.9581647193853
299.9596246582646
299.9614945634504
299.963863719839
299.9668573211746
299.9706030032096
299.9751857732346
299.980630011411
299.9869013569117
299.9938946201597
300.0013385080784
300.0087733407636
300.0158258371642
300.0219549057426
300.0265524804424
300.0299516062914
300.0327098907173
300.0346899052065
300.0360622872621
300.0369815086153
300.0374813204595
300.0376008178152
300.037464835012
300.0371118573273
300.0364750673602
300.0354341413259
300.0338058370424
300.0313791465289
300.0279534923218
300.0233670890524
300.0175358230227
300.0105195769227
300.0025336348917
299.9939867464387
299.9852982094175
299.9771340591817
299.9704618555426
299.9654673394332
299.9615423734466
299.9586146568469
299.9566355620909
299.9554211847114
299.9547945770668
299.9547135638591
299.9550908431991
299.9557557813166
299.9567528156526
299.9580663007957
299.9597111264631
299.9616982385075
299.9640861002272
299.9670567017855
299.9709534182758
299.9762109066461
299.9830916683442
299.9915424588489
300.0000130795054
300.0089590408974
)
;

boundaryField
{
    inlet
    {
        type            fixedValue;
        value           uniform 300;
    }
    outlet
    {
        type            inletOutlet;
        inletValue      uniform 300;
        value           uniform 300.0093486208563;
    }
    frontAndBack
    {
        type            empty;
    }
}


// ************************************************************************* //
