/*--------------------------------*- C++ -*----------------------------------*\
| =========                 |                                                 |
| \\      /  F ield         | OpenFOAM: The Open Source CFD Toolbox           |
|  \\    /   O peration     | Version:  v2012                                 |
|   \\  /    A nd           | Website:  www.openfoam.com                      |
|    \\/     M anipulation  |                                                 |
\*---------------------------------------------------------------------------*/
FoamFile
{
    version     2.0;
    format      ascii;
    class       volVectorField;
    location    "0.009";
    object      U;
}
// * * * * * * * * * * * * * * * * * * * * * * * * * * * * * * * * * * * * * //

dimensions      [0 1 -1 0 0 0 0];


internalField   nonuniform List<vector> 
1000
(
(-0.002770450691592533 0 0)
(-0.03442630552148025 0 0)
(-0.04261615815962586 0 0)
(-0.05779804773164986 0 0)
(-0.0716861873921556 0 0)
(-0.0845988322193288 0 0)
(-0.095615396710239 0 0)
(-0.1050363846087002 0 0)
(-0.1131450272672152 0 0)
(-0.1186521272109967 0 0)
(-0.1201585723827146 0 0)
(-0.1200202805688928 0 0)
(-0.1191806371754255 0 0)
(-0.1166566792229963 0 0)
(-0.1118087400914722 0 0)
(-0.1044519907206647 0 0)
(-0.09486294617430105 0 0)
(-0.08346885910681368 0 0)
(-0.07063074048083297 0 0)
(-0.05660089797776036 0 0)
(-0.04158278513201435 0 0)
(-0.02579635617220082 0 0)
(-0.009506446999514169 0 0)
(0.006984508517670957 0 0)
(0.02335606538214026 0 0)
(0.03928501125726102 0 0)
(0.05447503126547532 0 0)
(0.06873290850197117 0 0)
(0.08204638690388887 0 0)
(0.09448280025257783 0 0)
(0.1056713877047324 0 0)
(0.1139775114219696 0 0)
(0.117504434585072 0 0)
(0.1178917459620654 0 0)
(0.1177828533591497 0 0)
(0.1170991763861754 0 0)
(0.1152992527435116 0 0)
(0.1117395314669145 0 0)
(0.1059267472449037 0 0)
(0.09762928190599729 0 0)
(0.0869482906524375 0 0)
(0.07425603253808681 0 0)
(0.06004815520245147 0 0)
(0.04479474754014513 0 0)
(0.02886239218169734 0 0)
(0.01252297925368116 0 0)
(-0.003985152250227184 0 0)
(-0.02040350147260851 0 0)
(-0.03646029237784831 0 0)
(-0.05194143569947005 0 0)
(-0.066760067263197 0 0)
(-0.08092162449092317 0 0)
(-0.09426836241255572 0 0)
(-0.1058796865762958 0 0)
(-0.1136146828408976 0 0)
(-0.1162830323896982 0 0)
(-0.1164816437287558 0 0)
(-0.1163224667322458 0 0)
(-0.1157229635629117 0 0)
(-0.1141410068767254 0 0)
(-0.111084250834689 0 0)
(-0.1060692112665324 0 0)
(-0.09876200210992969 0 0)
(-0.08905564668118635 0 0)
(-0.07710583403320199 0 0)
(-0.06328934701657289 0 0)
(-0.04810372951335174 0 0)
(-0.03205702159108652 0 0)
(-0.01559076563441689 0 0)
(0.0009520131192725832 0 0)
(0.01732550586863102 0 0)
(0.03336513970113551 0 0)
(0.04897768582532973 0 0)
(0.06414008770506097 0 0)
(0.07884058766714615 0 0)
(0.09279714412808004 0 0)
(0.104819524010278 0 0)
(0.1125493561507466 0 0)
(0.1150580191940347 0 0)
(0.1152240239516745 0 0)
(0.1151385161462683 0 0)
(0.1146049606974893 0 0)
(0.1132790334770721 0 0)
(0.1106807610771903 0 0)
(0.1063677533214737 0 0)
(0.09996915293336767 0 0)
(0.09126502204193046 0 0)
(0.08023823974873445 0 0)
(0.06709379370151579 0 0)
(0.05222875095447368 0 0)
(0.03615459914382719 0 0)
(0.01939917455314345 0 0)
(0.002425348726938543 0 0)
(-0.01441738381886725 0 0)
(-0.03091814945546931 0 0)
(-0.04700988487562142 0 0)
(-0.0627236544614712 0 0)
(-0.07803173930204092 0 0)
(-0.09248572589703503 0 0)
(-0.1046057514133814 0 0)
(-0.111942513139714 0 0)
(-0.1141043812809982 0 0)
(-0.1142351985515049 0 0)
(-0.1140987810401769 0 0)
(-0.1136167713874424 0 0)
(-0.1123722701820875 0 0)
(-0.1099775786422835 0 0)
(-0.1060178780159167 0 0)
(-0.1001370708979402 0 0)
(-0.09208962131210433 0 0)
(-0.08179388042466398 0 0)
(-0.06935998588303346 0 0)
(-0.05508386043241431 0 0)
(-0.03940685979279386 0 0)
(-0.02284496149268951 0 0)
(-0.005898483274106333 0 0)
(0.01103233685176041 0 0)
(0.0276963431911908 0 0)
(0.04399295597643888 0 0)
(0.05992539177448618 0 0)
(0.07546563772829872 0 0)
(0.09020695975753562 0 0)
(0.1027327012621481 0 0)
(0.110574112937469 0 0)
(0.1130599023441189 0 0)
(0.1132372589760035 0 0)
(0.1131736068977405 0 0)
(0.112762010154609 0 0)
(0.1117259440804121 0 0)
(0.1096718785246116 0 0)
(0.106217702189414 0 0)
(0.1010039146955899 0 0)
(0.09374786259462815 0 0)
(0.08428930875024819 0 0)
(0.0726308580540948 0 0)
(0.05895724037699152 0 0)
(0.04361963768697875 0 0)
(0.02708433050491733 0 0)
(0.009858275984138602 0 0)
(-0.007594459366040111 0 0)
(-0.02493072087648784 0 0)
(-0.04197105726646123 0 0)
(-0.05865972930578496 0 0)
(-0.07488625675355626 0 0)
(-0.09009101780440448 0 0)
(-0.1026583298279073 0 0)
(-0.1101213032996043 0 0)
(-0.1122907890093957 0 0)
(-0.1124254968064413 0 0)
(-0.1123238150652939 0 0)
(-0.1119428123298175 0 0)
(-0.1109386426437113 0 0)
(-0.1089845205708212 0 0)
(-0.1057192474459244 0 0)
(-0.1008077918467795 0 0)
(-0.09397659623033626 0 0)
(-0.08505657585907098 0 0)
(-0.07401661457895055 0 0)
(-0.0609823525389458 0 0)
(-0.04623471316514922 0 0)
(-0.03017940515790857 0 0)
(-0.01328366048799056 0 0)
(0.004005116333759777 0 0)
(0.02133056284020816 0 0)
(0.03846527979279193 0 0)
(0.05529520725338505 0 0)
(0.07169659503757141 0 0)
(0.08718799589004358 0 0)
(0.100309932883721 0 0)
(0.1085922911490141 0 0)
(0.1113297717906298 0 0)
(0.11156640738688 0 0)
(0.1115259726567173 0 0)
(0.1112129496545686 0 0)
(0.1103969070616179 0 0)
(0.1087371281048405 0 0)
(0.1058970480670202 0 0)
(0.1015428286365161 0 0)
(0.09538314011104723 0 0)
(0.08720312965610362 0 0)
(0.07690146801915901 0 0)
(0.06451936183547885 0 0)
(0.05024933018598169 0 0)
(0.03441833913777261 0 0)
(0.0174469445709347 0 0)
(-0.0002139060488343449 0 0)
(-0.01816079925630269 0 0)
(-0.03609951355012139 0 0)
(-0.05383388332810163 0 0)
(-0.07111210397985576 0 0)
(-0.08724193087458743 0 0)
(-0.1004956025847079 0 0)
(-0.1083678624082743 0 0)
(-0.1107157326784358 0 0)
(-0.1108851889699091 0 0)
(-0.1108064206615825 0 0)
(-0.1105042566304744 0 0)
(-0.1096853158929505 0 0)
(-0.1080660918819498 0 0)
(-0.1053250496958849 0 0)
(-0.1011509960620473 0 0)
(-0.09526896615934637 0 0)
(-0.08747387632707408 0 0)
(-0.07765970370277224 0 0)
(-0.06584257877601994 0 0)
(-0.05217344237191111 0 0)
(-0.0369304513973504 0 0)
(-0.02048349926796065 0 0)
(-0.003237240271002214 0 0)
(0.01443001984205976 0 0)
(0.03221398435973973 0 0)
(0.0498919427657117 0 0)
(0.0672243679742406 0 0)
(0.08363106394638015 0 0)
(0.09759731579163827 0 0)
(0.1066073965561361 0 0)
(0.1097823866719624 0 0)
(0.1101174706374419 0 0)
(0.1100932097328693 0 0)
(0.1098533278987834 0 0)
(0.1092034735008106 0 0)
(0.1078453788542413 0 0)
(0.1054799392322 0 0)
(0.1017985717171941 0 0)
(0.09651479193471071 0 0)
(0.08939087091143665 0 0)
(0.08026923431541265 0 0)
(0.06910039547486869 0 0)
(0.05595899239642887 0 0)
(0.0410440401059462 0 0)
(0.0246620855605531 0 0)
(0.007188580550145632 0 0)
(-0.0109918237501967 0 0)
(-0.02954114085747397 0 0)
(-0.04816752044731681 0 0)
(-0.06649588716606464 0 0)
(-0.08370820409877243 0 0)
(-0.0979559582802764 0 0)
(-0.1065859765556189 0 0)
(-0.1092931849232177 0 0)
(-0.1095218428913266 0 0)
(-0.1094646229142311 0 0)
(-0.1092310592869515 0 0)
(-0.108562088333445 0 0)
(-0.1072080030443559 0 0)
(-0.1048801761550304 0 0)
(-0.1012925907860019 0 0)
(-0.09617945221300529 0 0)
(-0.08932125639496427 0 0)
(-0.08056924779702251 0 0)
(-0.06986840399496319 0 0)
(-0.05727504339866859 0 0)
(-0.04296011269884949 0 0)
(-0.02719120046049617 0 0)
(-0.0102967863473546 0 0)
(0.007377482919491084 0 0)
(0.02551049953109724 0 0)
(0.04382090950530941 0 0)
(0.06198828190839831 0 0)
(0.07936047901063728 0 0)
(0.09438529025449875 0 0)
(0.104450652652228 0 0)
(0.1083138058716305 0 0)
(0.1088142390534486 0 0)
(0.1088062926002032 0 0)
(0.1086269879954645 0 0)
(0.1081129682330238 0 0)
(0.1069970095955247 0 0)
(0.1050110698414673 0 0)
(0.1018713525316915 0 0)
(0.09730375367929978 0 0)
(0.09106404946687645 0 0)
(0.08296366650666881 0 0)
(0.07289437475131173 0 0)
(0.06084622838663847 0 0)
(0.04691612621792757 0 0)
(0.03130472207056204 0 0)
(0.01429547883584489 0 0)
(-0.003785667924315541 0 0)
(-0.02261136495459285 0 0)
(-0.04185158075752449 0 0)
(-0.06106191534967979 0 0)
(-0.07935197711277429 0 0)
(-0.09480365087884665 0 0)
(-0.1045738583617024 0 0)
(-0.1079322146108164 0 0)
(-0.1082884823593677 0 0)
(-0.1082495999173715 0 0)
(-0.1080711721449697 0 0)
(-0.1075278084473056 0 0)
(-0.1063949414525164 0 0)
(-0.1044095921090123 0 0)
(-0.1013066160798403 0 0)
(-0.09683191609391252 0 0)
(-0.09076306302440409 0 0)
(-0.08292874464064237 0 0)
(-0.07322899169541398 0 0)
(-0.06165317718835484 0 0)
(-0.04828814465198095 0 0)
(-0.03331109331268698 0 0)
(-0.01696964170201912 0 0)
(0.0004462350396358855 0 0)
(0.01863621729170504 0 0)
(0.03730475393293155 0 0)
(0.05609622868545159 0 0)
(0.07433748511376287 0 0)
(0.09050303732797309 0 0)
(0.1019176475212887 0 0)
(0.106809523111938 0 0)
(0.1076088923333966 0 0)
(0.1076203275332086 0 0)
(0.1074922476742159 0 0)
(0.1070929238162779 0 0)
(0.1061802516799772 0 0)
(0.1045109413351761 0 0)
(0.1018219766654897 0 0)
(0.09785330864141047 0 0)
(0.0923626447230861 0 0)
(0.08514606116111707 0 0)
(0.07605848947399246 0 0)
(0.06503085991108046 0 0)
(0.05208231530670857 0 0)
(0.03732481530275825 0 0)
(0.02095398662785554 0 0)
(0.003224564991883761 0 0)
(-0.01557547792662007 0 0)
(-0.03511937295121527 0 0)
(-0.05494651742129039 0 0)
(-0.07416891020036946 0 0)
(-0.09090293920852999 0 0)
(-0.1021579264074357 0 0)
(-0.1065323529612869 0 0)
(-0.1071324586717729 0 0)
(-0.1071130170258817 0 0)
(-0.1069852448834696 0 0)
(-0.1065524467703596 0 0)
(-0.1056112402421141 0 0)
(-0.103918762852864 0 0)
(-0.101228074525167 0 0)
(-0.09729720046773692 0 0)
(-0.09190568918038987 0 0)
(-0.08487042422324474 0 0)
(-0.0760631122259724 0 0)
(-0.06542677058845767 0 0)
(-0.05298516743396494 0 0)
(-0.03884200199916719 0 0)
(-0.02317184013874143 0 0)
(-0.006203895174035343 0 0)
(0.01180082405569156 0 0)
(0.03056139654224855 0 0)
(0.0497232473839652 0 0)
(0.06864034681694731 0 0)
(0.08589054735068161 0 0)
(0.09883815375220681 0 0)
(0.1051341596812577 0 0)
(0.1064556391717868 0 0)
(0.1065004746137553 0 0)
(0.1064152431800993 0 0)
(0.1061143234566435 0 0)
(0.1053760415923611 0 0)
(0.1039788285990272 0 0)
(0.1016762333364408 0 0)
(0.09822113967892483 0 0)
(0.0933764456881537 0 0)
(0.08693149869643181 0 0)
(0.07871863368879707 0 0)
(0.06862846587953783 0 0)
(0.05662308978094774 0 0)
(0.04274437990066755 0 0)
(0.02711222230698057 0 0)
(0.009911894304932879 0 0)
(-0.008619247574062509 0 0)
(-0.02818295360447874 0 0)
(-0.04834226702702975 0 0)
(-0.06827182701255896 0 0)
(-0.0862216356456391 0 0)
(-0.09917804715761867 0 0)
(-0.1049717895434015 0 0)
(-0.1060124140012981 0 0)
(-0.1060234176084699 0 0)
(-0.1059409073335276 0 0)
(-0.1056069252343007 0 0)
(-0.1048363241019437 0 0)
(-0.103402259173866 0 0)
(-0.1010721843366616 0 0)
(-0.09761515789776326 0 0)
(-0.09281500441812887 0 0)
(-0.08648328460488806 0 0)
(-0.07847415048132329 0 0)
(-0.06869855287098114 0 0)
(-0.05713362835858238 0 0)
(-0.04382581759281221 0 0)
(-0.02888880835617897 0 0)
(-0.01249497859472903 0 0)
(0.005140227023424962 0 0)
(0.02376592180891431 0 0)
(0.0430517878925472 0 0)
(0.06241214188793719 0 0)
(0.08058565990878 0 0)
(0.09510068494992592 0 0)
(0.103134935934655 0 0)
(0.1052874984885781 0 0)
(0.1054267053876026 0 0)
(0.1053728606541818 0 0)
(0.1051557737698701 0 0)
(0.1045704903169211 0 0)
(0.1034120588376738 0 0)
(0.1014482393266149 0 0)
(0.09844281000539919 0 0)
(0.09416453600963572 0 0)
(0.08840082038381347 0 0)
(0.08097074640089355 0 0)
(0.07173782607577864 0 0)
(0.0606229385771826 0 0)
(0.04761467911739489 0 0)
(0.0327718004254951 0 0)
(0.01621786622176391 0 0)
(-0.001862850901189464 0 0)
(-0.0212130928475548 0 0)
(-0.04144065765323178 0 0)
(-0.0618168431002936 0 0)
(-0.08079715931288046 0 0)
(-0.09550834240038557 0 0)
(-0.1031045722856789 0 0)
(-0.104890296027343 0 0)
(-0.1049718332683248 0 0)
(-0.1049248205872463 0 0)
(-0.1046759566319947 0 0)
(-0.1040572061597329 0 0)
(-0.1028534604424611 0 0)
(-0.1008448607533967 0 0)
(-0.09780927856264174 0 0)
(-0.09353498869825566 0 0)
(-0.08783138065327882 0 0)
(-0.08054153912056113 0 0)
(-0.07155412294240165 0 0)
(-0.06081225764004076 0 0)
(-0.04831907041801673 0 0)
(-0.03413961713718158 0 0)
(-0.01839674445549009 0 0)
(-0.001261171678819748 0 0)
(0.01705167451690207 0 0)
(0.03624690057239648 0 0)
(0.05581552149399863 0 0)
(0.0746869933263121 0 0)
(0.0906589139208353 0 0)
(0.1006536549119504 0 0)
(0.104025559848311 0 0)
(0.1043802293190704 0 0)
(0.1043535649503562 0 0)
(0.1042059071617103 0 0)
(0.103755791531393 0 0)
(0.1028089729940326 0 0)
(0.1011451496026587 0 0)
(0.0985380275696591 0 0)
(0.09476282545637989 0 0)
(0.08960765614129973 0 0)
(0.08288381509612 0 0)
(0.07443668898980361 0 0)
(0.06415790327626586 0 0)
(0.05199584653903136 0 0)
(0.03796040628882585 0 0)
(0.02212308089747525 0 0)
(0.00461922608419642 0 0)
(-0.01433881823761394 0 0)
(-0.03441390746932556 0 0)
(-0.05498592848597665 0 0)
(-0.07474412184819369 0 0)
(-0.09109153099833804 0 0)
(-0.1007612626920884 0 0)
(-0.1036936433944442 0 0)
(-0.1039457680460336 0 0)
(-0.1039232788052115 0 0)
(-0.1037448734239664 0 0)
(-0.1032609141273175 0 0)
(-0.1022642756562491 0 0)
(-0.1005462544545032 0 0)
(-0.097891926934238 0 0)
(-0.09409319540665394 0 0)
(-0.08895822461741264 0 0)
(-0.08232273479790454 0 0)
(-0.07406015929803647 0 0)
(-0.0640892039113112 0 0)
(-0.05238006606884963 0 0)
(-0.03895924537199427 0 0)
(-0.02390885231662835 0 0)
(-0.007359756987772281 0 0)
(0.01050959167966761 0 0)
(0.02944451636001262 0 0)
(0.04901198036932553 0 0)
(0.06832800964879625 0 0)
(0.08552098337732732 0 0)
(0.09753385484842757 0 0)
(0.1025587284196436 0 0)
(0.1033601433879146 0 0)
(0.1033542087128606 0 0)
(0.1032662099312571 0 0)
(0.1029258051119698 0 0)
(0.1021629592525569 0 0)
(0.1007648752989485 0 0)
(0.09851479768251593 0 0)
(0.09519372504994787 0 0)
(0.09059059946923947 0 0)
(0.08451140467901266 0 0)
(0.07678925758231155 0 0)
(0.06729487782845479 0 0)
(0.05594598499872913 0 0)
(0.04271425093814404 0 0)
(0.02763000580769712 0 0)
(0.01078672459537143 0 0)
(-0.00764839628383491 0 0)
(-0.02739639035735828 0 0)
(-0.04794200340981002 0 0)
(-0.06820407355151126 0 0)
(-0.08594587430710598 0 0)
(-0.09779364366169153 0 0)
(-0.102318631630587 0 0)
(-0.1029307731696376 0 0)
(-0.1029249906234612 0 0)
(-0.1028112309437041 0 0)
(-0.1024444278074203 0 0)
(-0.1016351536600245 0 0)
(-0.1001804965686407 0 0)
(-0.09787192081317317 0 0)
(-0.09450507343773551 0 0)
(-0.08988872691319016 0 0)
(-0.08385393233135587 0 0)
(-0.07626260384236874 0 0)
(-0.0670153105411764 0 0)
(-0.05605802801140056 0 0)
(-0.04338668825227446 0 0)
(-0.02904802918121776 0 0)
(-0.01313779099508997 0 0)
(0.004197698110550411 0 0)
(0.02274238390099436 0 0)
(0.04213805730491668 0 0)
(0.06167211360545392 0 0)
(0.07980411371919117 0 0)
(0.09370704701932218 0 0)
(0.1007192529798111 0 0)
(0.1022996991876998 0 0)
(0.1023647154712179 0 0)
(0.1023131376955266 0 0)
(0.1020724387811969 0 0)
(0.1014733209365999 0 0)
(0.1003161330017542 0 0)
(0.09839010331124606 0 0)
(0.09548115392861778 0 0)
(0.09138042279839759 0 0)
(0.08589140815518574 0 0)
(0.07883885392426607 0 0)
(0.07007893687724806 0 0)
(0.05950782940841304 0 0)
(0.04706766831695691 0 0)
(0.03275305349267939 0 0)
(0.01661987846076521 0 0)
(-0.001203779043385829 0 0)
(-0.02049112463047565 0 0)
(-0.0408237875482058 0 0)
(-0.06132974495384256 0 0)
(-0.08015049105382696 0 0)
(-0.09408455233559879 0 0)
(-0.1006108102240323 0 0)
(-0.1019052348298451 0 0)
(-0.1019462616727028 0 0)
(-0.1018723715960248 0 0)
(-0.1016068126740566 0 0)
(-0.1009594078638887 0 0)
(-0.09974157752515299 0 0)
(-0.09774890367706789 0 0)
(-0.09478002787619549 0 0)
(-0.09064345394010244 0 0)
(-0.08516646798494411 0 0)
(-0.07820239230010496 0 0)
(-0.06963735882732461 0 0)
(-0.05939772247317223 0 0)
(-0.047455927950841 0 0)
(-0.0338316300120335 0 0)
(-0.01859038781619594 0 0)
(-0.001847392443187101 0 0)
(0.01621582896686609 0 0)
(0.03530103474064117 0 0)
(0.05483947661234544 0 0)
(0.07360365199254452 0 0)
(0.08914118222778078 0 0)
(0.09835050168365328 0 0)
(0.1011539460368367 0 0)
(0.1013969590623396 0 0)
(0.1013761665211621 0 0)
(0.10120637252754 0 0)
(0.1007464076691324 0 0)
(0.09979829350150192 0 0)
(0.09816163496265168 0 0)
(0.09562701747277706 0 0)
(0.09198741207997121 0 0)
(0.08704494593325025 0 0)
(0.08061877951303116 0 0)
(0.07255333211150299 0 0)
(0.0627264990740788 0 0)
(0.05105750458012563 0 0)
(0.03751431222979579 0 0)
(0.02212092606939708 0 0)
(0.004967380482649564 0 0)
(-0.01376642466388184 0 0)
(-0.03374070135292476 0 0)
(-0.0542613734552168 0 0)
(-0.07383481142432667 0 0)
(-0.08961787505778557 0 0)
(-0.09841455346434104 0 0)
(-0.1008035943859697 0 0)
(-0.1009674390303425 0 0)
(-0.1009313641207011 0 0)
(-0.1007459492744748 0 0)
(-0.1002447866027208 0 0)
(-0.09924118603061735 0 0)
(-0.09753706975627886 0 0)
(-0.09493361336827291 0 0)
(-0.09123986190404584 0 0)
(-0.08628030589519847 0 0)
(-0.07990181165301337 0 0)
(-0.07198042486236322 0 0)
(-0.06242783487966978 0 0)
(-0.05119635750549959 0 0)
(-0.0382817265037902 0 0)
(-0.02372484674439755 0 0)
(-0.007615091171525498 0 0)
(0.00989934866485016 0 0)
(0.02857535808625779 0 0)
(0.04795962340606615 0 0)
(0.06708502567418234 0 0)
(0.08391828849620345 0 0)
(0.09531521940628974 0 0)
(0.09978979482915498 0 0)
(0.1004270862223159 0 0)
(0.1004250500209393 0 0)
(0.1003202031871295 0 0)
(0.09997929382219753 0 0)
(0.09922017967370572 0 0)
(0.09784709135020843 0 0)
(0.09565557016521271 0 0)
(0.09244076191705003 0 0)
(0.08800390903865479 0 0)
(0.08216026333038021 0 0)
(0.07474683736061342 0 0)
(0.06562892648905978 0 0)
(0.05470700689720145 0 0)
(0.04192574973889124 0 0)
(0.02728297493931465 0 0)
(0.01083742053706986 0 0)
(-0.007273908182467683 0 0)
(-0.02678077759162988 0 0)
(-0.04713149644425463 0 0)
(-0.06714204952776756 0 0)
(-0.08441643018932247 0 0)
(-0.09555332305123579 0 0)
(-0.09952816870418656 0 0)
(-0.1000050694105511 0 0)
(-0.09998432900648736 0 0)
(-0.0998677134459484 0 0)
(-0.09948646521847401 0 0)
(-0.09867242032201053 0 0)
(-0.09723005617336411 0 0)
(-0.09496417272603278 0 0)
(-0.09168397960136485 0 0)
(-0.08721135434523908 0 0)
(-0.08138707386593967 0 0)
(-0.07407766741164347 0 0)
(-0.06518236791625194 0 0)
(-0.05463786402721341 0 0)
(-0.04242056422439084 0 0)
(-0.02854935898561905 0 0)
(-0.01309060048953359 0 0)
(0.003834249849777401 0 0)
(0.02202562937221468 0 0)
(0.0411233112720733 0 0)
(0.06037348030155339 0 0)
(0.07814424351085227 0 0)
(0.09153597568828115 0 0)
(0.09804922839315085 0 0)
(0.0994316396962701 0 0)
(0.099483825099504 0 0)
(0.09941926204456576 0 0)
(0.09917777559834683 0 0)
(0.09857934348435039 0 0)
(0.09744085554327352 0 0)
(0.09556147197648032 0 0)
(0.09273889706676841 0 0)
(0.08877451885869328 0 0)
(0.0834804425262575 0 0)
(0.07668637764503536 0 0)
(0.06824669240963822 0 0)
(0.05804785922607165 0 0)
(0.04601622892614993 0 0)
(0.03212578779890202 0 0)
(0.01640711642521872 0 0)
(-0.001036620940103276 0 0)
(-0.01999041178315174 0 0)
(-0.04002171596402408 0 0)
(-0.06020924029704061 0 0)
(-0.07860414611437976 0 0)
(-0.09194681227502555 0 0)
(-0.09793122661672633 0 0)
(-0.09902592023165617 0 0)
(-0.09904734371457928 0 0)
(-0.09897758001604755 0 0)
(-0.09870106755821713 0 0)
(-0.0980529689789619 0 0)
(-0.09684606088225821 0 0)
(-0.09488796850248278 0 0)
(-0.0919897854179713 0 0)
(-0.08797249891248568 0 0)
(-0.08267258240782947 0 0)
(-0.07594827711118181 0 0)
(-0.06768590070588278 0 0)
(-0.05780492100449908 0 0)
(-0.04626266920630685 0 0)
(-0.03305995214764073 0 0)
(-0.018246428811272 0 0)
(-0.001925287548423137 0 0)
(0.0157293578175384 0 0)
(0.03441935629942616 0 0)
(0.05355295553859819 0 0)
(0.07186946291047204 0 0)
(0.08690547785503008 0 0)
(0.09555393029072791 0 0)
(0.0981594590187768 0 0)
(0.09840694202334901 0 0)
(0.09853940065186109 0 0)
(0.09854463896690255 0 0)
(0.09829652021122887 0 0)
(0.09755686564803775 0 0)
(0.09607387404103855 0 0)
(0.09358897743915118 0 0)
(0.089857600522163 0 0)
(0.08467520787636126 0 0)
(0.07789676310553935 0 0)
(0.06944207397489986 0 0)
(0.05928582283371876 0 0)
(0.04744107561442627 0 0)
(0.03395556867364907 0 0)
(0.01893197678175475 0 0)
(0.002569458140721657 0 0)
(-0.01489476453725242 0 0)
(-0.03314022426237926 0 0)
(-0.05146622798914196 0 0)
(-0.06853755550173707 0 0)
(-0.08115690108907753 0 0)
(-0.08596693987920617 0 0)
(-0.08610965279242033 0 0)
(-0.08455745468412401 0 0)
(-0.08197894196245102 0 0)
(-0.07903123150410829 0 0)
(-0.0759716889252048 0 0)
(-0.07261083705066815 0 0)
(-0.06834498904564579 0 0)
(-0.06355694537747117 0 0)
(-0.05801785526521278 0 0)
(-0.05145017755126157 0 0)
(-0.04373098355439802 0 0)
(-0.0348729011611526 0 0)
(-0.02495710034703226 0 0)
(-0.01408239662681136 0 0)
(-0.002339600135399925 0 0)
(0.01020151879053559 0 0)
(0.0234840075673196 0 0)
(0.03748292435700614 0 0)
(0.05208262916312457 0 0)
(0.06687982169813607 0 0)
(0.0810349936434306 0 0)
(0.09212785323825862 0 0)
(0.0970019231246099 0 0)
(0.09734795604079943 0 0)
(0.09549437891716196 0 0)
(0.0918212835073358 0 0)
(0.0870800616577171 0 0)
(0.08176632229793092 0 0)
(0.07608026540345394 0 0)
(0.07005660018112533 0 0)
(0.0635123511883541 0 0)
(0.05582360902084974 0 0)
(0.04761227690671853 0 0)
(0.03899543752268708 0 0)
(0.02967839095638672 0 0)
(0.01950991617218606 0 0)
(0.008529467123893734 0 0)
(-0.003126245027307923 0 0)
(-0.01536476941481615 0 0)
(-0.02818655750479139 0 0)
(-0.04165100343325441 0 0)
(-0.05559686413417489 0 0)
(-0.06951564759579218 0 0)
(-0.08236898182412986 0 0)
(-0.09144955447651187 0 0)
(-0.09479540127058864 0 0)
(-0.09463121157410251 0 0)
(-0.09253443745071721 0 0)
(-0.08880541807567971 0 0)
(-0.08419783377271021 0 0)
(-0.07921369990157484 0 0)
(-0.07428913263266829 0 0)
(-0.06944131515200816 0 0)
(-0.06375060887305806 0 0)
(-0.05790279256076686 0 0)
(-0.05129812159400428 0 0)
(-0.04385340995936309 0 0)
(-0.03548939721930034 0 0)
(-0.02609472503552041 0 0)
(-0.01559477072327205 0 0)
(-0.004035054351536233 0 0)
(0.008422854140064061 0 0)
(0.02161866772497712 0 0)
(0.03547779389328907 0 0)
(0.04988637052715823 0 0)
(0.06428184750755048 0 0)
(0.0777250111689862 0 0)
(0.08907163699875281 0 0)
(0.09623804754312124 0 0)
(0.09846060614084073 0 0)
(0.09790844208849422 0 0)
(0.09559465173530377 0 0)
(0.09168890444676332 0 0)
(0.08667185943618795 0 0)
(0.08089733356872701 0 0)
(0.07456098587148724 0 0)
(0.06767573265036329 0 0)
(0.06001345104280253 0 0)
(0.05155571900965694 0 0)
(0.04295077537333836 0 0)
(0.03382878095500208 0 0)
(0.02402001665359883 0 0)
(0.01343340028477555 0 0)
(0.002081440015532088 0 0)
(-0.009947158822171825 0 0)
(-0.0225237524937715 0 0)
(-0.0355771599952182 0 0)
(-0.04904130786405943 0 0)
(-0.06240878924934853 0 0)
(-0.07488627044687861 0 0)
(-0.08496647884208242 0 0)
(-0.09022747309036677 0 0)
(-0.0913245636487839 0 0)
(-0.09030291780732168 0 0)
(-0.0875063624381988 0 0)
(-0.08343990198900565 0 0)
(-0.07868329919193966 0 0)
(-0.07367521515685187 0 0)
(-0.06842183785127234 0 0)
(-0.06265584771457529 0 0)
(-0.05675936176300093 0 0)
(-0.0503217155410624 0 0)
(-0.0432061553464619 0 0)
(-0.03527969405303403 0 0)
(-0.02639090419383118 0 0)
(-0.01643746716641246 0 0)
(-0.00539661500136235 0 0)
(0.006673241132432749 0 0)
(0.01964065655489467 0 0)
(0.03328436533213687 0 0)
(0.04733997557080314 0 0)
(0.06140407308579409 0 0)
(0.07465438745099336 0 0)
(0.08622058833059612 0 0)
(0.09485626093744397 0 0)
(0.09882657548674532 0 0)
(0.09931613063419091 0 0)
(0.09801899406644726 0 0)
(0.09505403565423658 0 0)
(0.09073728438423863 0 0)
(0.08539971788739371 0 0)
(0.07926604708851157 0 0)
(0.0723799062990831 0 0)
(0.0646384673390524 0 0)
(0.05613666938748329 0 0)
(0.04738012072858839 0 0)
(0.03811804848791496 0 0)
(0.02828276596312666 0 0)
(0.01785175867151646 0 0)
(0.006835198429042615 0 0)
(-0.004747206987479987 0 0)
(-0.01688664558157814 0 0)
(-0.02953664415970981 0 0)
(-0.0425451004164072 0 0)
(-0.05542594901613422 0 0)
(-0.06756603359465185 0 0)
(-0.07815655259256182 0 0)
(-0.08509517727501627 0 0)
(-0.08747910935704134 0 0)
(-0.08723838667731994 0 0)
(-0.08533507532026392 0 0)
(-0.08195739380561963 0 0)
(-0.07761270313004003 0 0)
(-0.07270370956503261 0 0)
(-0.06732664745498924 0 0)
(-0.0614370949717152 0 0)
(-0.05552002385631049 0 0)
(-0.0491336631768717 0 0)
(-0.04219631522160111 0 0)
(-0.0345730142999927 0 0)
(-0.0261120442435742 0 0)
(-0.01665163449634244 0 0)
(-0.006081512647600296 0 0)
(0.005572126274885139 0 0)
(0.01814255649982734 0 0)
(0.03140828550413228 0 0)
(0.04514065265997489 0 0)
(0.05900272037525056 0 0)
(0.07223737762254499 0 0)
(0.08396770091335837 0 0)
(0.09344412355274498 0 0)
(0.09913684885353549 0 0)
(0.1007913431559562 0 0)
(0.1002161551824959 0 0)
(0.09807107562521052 0 0)
(0.09445202795870501 0 0)
(0.08968736863437668 0 0)
(0.08403430958444846 0 0)
(0.07746522094143227 0 0)
(0.06981724263792362 0 0)
(0.06149302153709791 0 0)
(0.05263347334475603 0 0)
(0.0431870854974428 0 0)
(0.03319593335798286 0 0)
(0.02268918633118577 0 0)
(0.01168039104324422 0 0)
(0.0001919141307573579 0 0)
(-0.01172275225860439 0 0)
(-0.02393288708802811 0 0)
(-0.03627124297563893 0 0)
(-0.04853042695146283 0 0)
(-0.06027129424043034 0 0)
(-0.07095120185448615 0 0)
(-0.07906934928882538 0 0)
(-0.08285568226445328 0 0)
(-0.08348108387726634 0 0)
(-0.08238046102829349 0 0)
(-0.0796750763139301 0 0)
(-0.07580589030850952 0 0)
(-0.07119491122651544 0 0)
(-0.06607347524266037 0 0)
(-0.05998139802421097 0 0)
(-0.05405366942952958 0 0)
(-0.04764789497650478 0 0)
(-0.04083075445547201 0 0)
(-0.03344501853933513 0 0)
(-0.02532056217026487 0 0)
(-0.01627913751807007 0 0)
(-0.006194799971008681 0 0)
(0.004966545889022462 0 0)
(0.01713624817142842 0 0)
(0.03013264035070706 0 0)
(0.04362496285458871 0 0)
(0.05719673158911254 0 0)
(0.07032136291731406 0 0)
(0.08220104813991229 0 0)
(0.09220570617916704 0 0)
(0.09931543766826617 0 0)
(0.1022802884789091 0 0)
(0.1024427734426995 0 0)
(0.1010258938656453 0 0)
(0.09799820674022588 0 0)
(0.09368225512133825 0 0)
(0.08845549633368191 0 0)
(0.08235101225574804 0 0)
(0.07500839972990336 0 0)
(0.06711234550941907 0 0)
(0.05848758554412532 0 0)
(0.04909806244913437 0 0)
(0.03897922989544494 0 0)
(0.02820816459024695 0 0)
(0.01689661798077575 0 0)
(0.005183542220376192 0 0)
(-0.00675856096518629 0 0)
(-0.01873872614657617 0 0)
(-0.03060091102854392 0 0)
(-0.04226587206315816 0 0)
(-0.05336797094404355 0 0)
(-0.06359973824023839 0 0)
(-0.07216905492365298 0 0)
(-0.07724888742754946 0 0)
(-0.07887189631835381 0 0)
(-0.07855409304428751 0 0)
(-0.0766544298869648 0 0)
(-0.07336094991549359 0 0)
(-0.06913162604167385 0 0)
(-0.06437612403372193 0 0)
(-0.05828226625206149 0 0)
(-0.05242416751204935 0 0)
(-0.04593523450879077 0 0)
(-0.03904185966082805 0 0)
(-0.03167999592902297 0 0)
(-0.02379571833047437 0 0)
(-0.01523213704720403 0 0)
(-0.005781999565154005 0 0)
(0.004737817592127454 0 0)
(0.01638772354242735 0 0)
(0.02906536449973111 0 0)
(0.04239678206068748 0 0)
(0.05623524340914129 0 0)
(0.0684558773294837 0 0)
(0.08614023430576556 0 0)
)
;

boundaryField
{
    inlet
    {
        type            zeroGradient;
    }
    outlet
    {
        type            pressureInletOutletVelocity;
        value           uniform (0.08614023430576556 0 0);
    }
    frontAndBack
    {
        type            empty;
    }
}


// ************************************************************************* //
