/*--------------------------------*- C++ -*----------------------------------*\
| =========                 |                                                 |
| \\      /  F ield         | OpenFOAM: The Open Source CFD Toolbox           |
|  \\    /   O peration     | Version:  v2012                                 |
|   \\  /    A nd           | Website:  www.openfoam.com                      |
|    \\/     M anipulation  |                                                 |
\*---------------------------------------------------------------------------*/
FoamFile
{
    version     2.0;
    format      ascii;
    class       volVectorField;
    location    "0.009";
    object      UMean;
}
// * * * * * * * * * * * * * * * * * * * * * * * * * * * * * * * * * * * * * //

dimensions      [0 1 -1 0 0 0 0];


internalField   nonuniform List<vector> 
1000
(
(-3.371240701989154e-05 0 0)
(7.188039305156677e-06 0 0)
(3.000724084187902e-05 0 0)
(7.373066521883309e-05 0 0)
(0.0001249403783841728 0 0)
(0.0001824509998599425 0 0)
(0.0002536881583745771 0 0)
(0.0003307884947371075 0 0)
(0.0004189298422377259 0 0)
(0.0005118631527882874 0 0)
(0.0006083004805170449 0 0)
(0.0007044020091527627 0 0)
(0.0008001252802991804 0 0)
(0.0008945359712288106 0 0)
(0.0009862593079332429 0 0)
(0.001073289877495151 0 0)
(0.001153710234347548 0 0)
(0.001225875612338469 0 0)
(0.001288510464141384 0 0)
(0.001340462131062705 0 0)
(0.001380980704038304 0 0)
(0.001409115110037828 0 0)
(0.001424583058977193 0 0)
(0.001426833272240069 0 0)
(0.001416047150086542 0 0)
(0.001392182772727207 0 0)
(0.001355945580832705 0 0)
(0.001307768187917443 0 0)
(0.001248596069048496 0 0)
(0.001178935235581809 0 0)
(0.001099740883768369 0 0)
(0.001012225840971775 0 0)
(0.00091961398684685 0 0)
(0.0008253409328922135 0 0)
(0.0007311319668131405 0 0)
(0.0006371741435200806 0 0)
(0.000544158210901623 0 0)
(0.0004531482529751786 0 0)
(0.0003657266307946876 0 0)
(0.0002837507894393204 0 0)
(0.0002091841456759956 0 0)
(0.0001437911580709307 0 0)
(8.90228829523683e-05 0 0)
(4.592386427412159e-05 0 0)
(1.522984354534569e-05 0 0)
(-2.596900168284246e-06 0 0)
(-7.303774191530965e-06 0 0)
(1.162040437020626e-06 0 0)
(2.26411992286615e-05 0 0)
(5.677913133148977e-05 0 0)
(0.0001030810976157045 0 0)
(0.0001610212627826781 0 0)
(0.000230069228673646 0 0)
(0.0003093921891698451 0 0)
(0.0003969746670162141 0 0)
(0.0004890750559817825 0 0)
(0.0005822340158792524 0 0)
(0.0006753539029369257 0 0)
(0.0007682418181518065 0 0)
(0.0008602362757798089 0 0)
(0.0009505754593578867 0 0)
(0.001037730144420899 0 0)
(0.001120235289343102 0 0)
(0.001196016191214557 0 0)
(0.001263405164192804 0 0)
(0.001320542592426134 0 0)
(0.001366293056175868 0 0)
(0.00139953513285221 0 0)
(0.001419916471534129 0 0)
(0.001427019496077272 0 0)
(0.001421055268959038 0 0)
(0.001402002720072119 0 0)
(0.00137036842986256 0 0)
(0.001326305789527093 0 0)
(0.001270342901627496 0 0)
(0.001202694043993984 0 0)
(0.001124458806890039 0 0)
(0.001037717553613975 0 0)
(0.0009466402361004817 0 0)
(0.0008544514574957997 0 0)
(0.0007623668590010749 0 0)
(0.0006704665827518013 0 0)
(0.000579276826471587 0 0)
(0.0004895495032509832 0 0)
(0.0004024691664352055 0 0)
(0.0003194983348674635 0 0)
(0.0002424124368473152 0 0)
(0.0001730129994390268 0 0)
(0.0001131346396249039 0 0)
(6.429350853201182e-05 0 0)
(2.773660140467293e-05 0 0)
(4.22496484484492e-06 0 0)
(-5.804944359348372e-06 0 0)
(-2.348447430935008e-06 0 0)
(1.449176517801158e-05 0 0)
(4.436324410716919e-05 0 0)
(8.701756492409749e-05 0 0)
(0.0001421033060407786 0 0)
(0.000209256491957255 0 0)
(0.0002873815428864297 0 0)
(0.0003738671181464477 0 0)
(0.0004644076410518404 0 0)
(0.000555791832889693 0 0)
(0.0006471042317456294 0 0)
(0.00073826954193542 0 0)
(0.0008286871932733898 0 0)
(0.0009178453357855975 0 0)
(0.00100446875090966 0 0)
(0.001087409629974196 0 0)
(0.00116483661357819 0 0)
(0.001235207922328275 0 0)
(0.001296543477545805 0 0)
(0.001347444435880107 0 0)
(0.001386369144117403 0 0)
(0.00141259456133942 0 0)
(0.001425345191172262 0 0)
(0.001424671066616878 0 0)
(0.001410443730339187 0 0)
(0.001383134602526123 0 0)
(0.001342805236117242 0 0)
(0.001289943529936038 0 0)
(0.001224722774279483 0 0)
(0.001148379360982259 0 0)
(0.001063245931399477 0 0)
(0.0009737648095391024 0 0)
(0.0008831655123312709 0 0)
(0.0007926766282317704 0 0)
(0.0007022888416385877 0 0)
(0.00061249144595748 0 0)
(0.0005238087798294678 0 0)
(0.0004372697110793302 0 0)
(0.0003540138721676587 0 0)
(0.0002756343965510153 0 0)
(0.00020371988388021 0 0)
(0.0001401253940212827 0 0)
(8.645117482436712e-05 0 0)
(4.429516131945667e-05 0 0)
(1.473718442804026e-05 0 0)
(-1.333244805546786e-06 0 0)
(-3.619883571664181e-06 0 0)
(8.051816847519676e-06 0 0)
(3.343369355369096e-05 0 0)
(7.238652849561535e-05 0 0)
(0.0001245058146058513 0 0)
(0.0001894127830539045 0 0)
(0.0002657644060481418 0 0)
(0.0003507563217450358 0 0)
(0.0004398200706118733 0 0)
(0.0005297737904880654 0 0)
(0.0006196497346993592 0 0)
(0.0007094273881979507 0 0)
(0.0007985871889107918 0 0)
(0.0008867431250787498 0 0)
(0.0009727968482883024 0 0)
(0.001055820243760623 0 0)
(0.001134176351233299 0 0)
(0.001206511764322633 0 0)
(0.001270907539635085 0 0)
(0.001325945229935056 0 0)
(0.001369890689142483 0 0)
(0.001401742214425069 0 0)
(0.001420370352508069 0 0)
(0.001425479746692971 0 0)
(0.001416647065805401 0 0)
(0.001394148033853071 0 0)
(0.001357934875649308 0 0)
(0.001308493919997718 0 0)
(0.001246034047486936 0 0)
(0.001171915047457751 0 0)
(0.001088564860781663 0 0)
(0.001000581697983292 0 0)
(0.0009113338445917894 0 0)
(0.0008221807753880384 0 0)
(0.0007330670164209552 0 0)
(0.0006444412573022084 0 0)
(0.0005566829085131715 0 0)
(0.0004706955243257684 0 0)
(0.0003874054394901641 0 0)
(0.0003082409909361685 0 0)
(0.0002345897829328984 0 0)
(0.0001682295494599873 0 0)
(0.0001107070341396792 0 0)
(6.376298288009204e-05 0 0)
(2.86618924107878e-05 0 0)
(6.655831857940405e-06 0 0)
(-1.635640252610708e-06 0 0)
(4.346569704830168e-06 0 0)
(2.460705586104793e-05 0 0)
(5.921544011206616e-05 0 0)
(0.000107818692662487 0 0)
(0.0001700238773954035 0 0)
(0.0002443233035795435 0 0)
(0.0003277291924611566 0 0)
(0.0004154434271379695 0 0)
(0.0005041572696392481 0 0)
(0.0005927976346336725 0 0)
(0.0006813974221364904 0 0)
(0.0007694643305203596 0 0)
(0.0008567356247230214 0 0)
(0.0009422255677442321 0 0)
(0.001025178015583399 0 0)
(0.001104120419249106 0 0)
(0.001177858990634241 0 0)
(0.00124459045929339 0 0)
(0.001302943575669851 0 0)
(0.001351128795976666 0 0)
(0.001387993001073957 0 0)
(0.001412158917960271 0 0)
(0.001423039700866964 0 0)
(0.001419877582433561 0 0)
(0.001402687520844761 0 0)
(0.001371186997481383 0 0)
(0.001325762709711275 0 0)
(0.001266580586794811 0 0)
(0.001195035500211398 0 0)
(0.001113614951342695 0 0)
(0.001027057032021025 0 0)
(0.0009390007396189647 0 0)
(0.0008510008695308284 0 0)
(0.0007629991116028116 0 0)
(0.0006754106743480024 0 0)
(0.0005884972594054768 0 0)
(0.0005030708979469483 0 0)
(0.0004198863584285384 0 0)
(0.0003402397387827665 0 0)
(0.0002653344834791008 0 0)
(0.0001968462150621928 0 0)
(0.0001362323643146261 0 0)
(8.526221600866715e-05 0 0)
(4.529391456201716e-05 0 0)
(1.779998895270338e-05 0 0)
(3.673619548279855e-06 0 0)
(3.820226909295143e-06 0 0)
(1.854455415518643e-05 0 0)
(4.820851189401654e-05 0 0)
(9.262137177773314e-05 0 0)
(0.0001514966605934162 0 0)
(0.0002232966734209208 0 0)
(0.0003049381376434471 0 0)
(0.0003913643143376253 0 0)
(0.0004789752645433484 0 0)
(0.0005665350989194354 0 0)
(0.0006540842413921685 0 0)
(0.0007411840581461255 0 0)
(0.0008276447386628832 0 0)
(0.0009125835102012399 0 0)
(0.0009953740473557108 0 0)
(0.001074680140335318 0 0)
(0.001149453886308781 0 0)
(0.001218009999646299 0 0)
(0.001279055797404579 0 0)
(0.00133081287628282 0 0)
(0.001372062281792228 0 0)
(0.001401275519998184 0 0)
(0.00141763676722156 0 0)
(0.001420120139795106 0 0)
(0.001408450050439829 0 0)
(0.001382101072786206 0 0)
(0.001341257032440326 0 0)
(0.001285951320646358 0 0)
(0.001217487621535439 0 0)
(0.001138287843780668 0 0)
(0.001053198604777734 0 0)
(0.000966238667585905 0 0)
(0.0008792775147715766 0 0)
(0.0007922809449302978 0 0)
(0.0007056312200831855 0 0)
(0.0006195079110817858 0 0)
(0.0005346408246854028 0 0)
(0.0004516531949828632 0 0)
(0.0003717191896036456 0 0)
(0.0002958950022462396 0 0)
(0.0002257399171071198 0 0)
(0.0001626138851512106 0 0)
(0.0001082576409108311 0 0)
(6.405933776802579e-05 0 0)
(3.162230825257728e-05 0 0)
(1.203154620598956e-05 0 0)
(6.46871357616791e-06 0 0)
(1.551994014133348e-05 0 0)
(3.984820724596885e-05 0 0)
(7.949581975315374e-05 0 0)
(0.0001343778334842837 0 0)
(0.000203079244100808 0 0)
(0.0002825809013434888 0 0)
(0.0003676469036264843 0 0)
(0.0004542339643766184 0 0)
(0.0005408178918894158 0 0)
(0.0006274118900867634 0 0)
(0.0007136326861963493 0 0)
(0.0007993366713556946 0 0)
(0.0008837435138765368 0 0)
(0.0009663136134888406 0 0)
(0.001045843983686424 0 0)
(0.001121396015645262 0 0)
(0.001191407341238189 0 0)
(0.001254665626656153 0 0)
(0.001309444160914792 0 0)
(0.001354504493221886 0 0)
(0.001388239386043568 0 0)
(0.001409673425664646 0 0)
(0.001417580827488033 0 0)
(0.001411432229005993 0 0)
(0.001390466007579274 0 0)
(0.001354626606094528 0 0)
(0.001303765117443683 0 0)
(0.001238961378075365 0 0)
(0.00116244071985614 0 0)
(0.001078998455452399 0 0)
(0.0009931125323797232 0 0)
(0.0009071052145345229 0 0)
(0.0008210384386431517 0 0)
(0.0007352610970919297 0 0)
(0.0006498848452377736 0 0)
(0.0005655721111321937 0 0)
(0.0004828352106858424 0 0)
(0.0004027507675918177 0 0)
(0.0003262402081342152 0 0)
(0.0002547652633367297 0 0)
(0.0001895735994218327 0 0)
(0.0001323610384201834 0 0)
(8.449667624563722e-05 0 0)
(4.76542546129337e-05 0 0)
(2.304273555580088e-05 0 0)
(1.204444223686136e-05 0 0)
(1.548320055301237e-05 0 0)
(3.428601207941123e-05 0 0)
(6.874771944734447e-05 0 0)
(0.0001190348438293768 0 0)
(0.0001839849803398361 0 0)
(0.0002608493531512626 0 0)
(0.000344359930632742 0 0)
(0.0004299473854571691 0 0)
(0.0005156163866063003 0 0)
(0.0006013199673006403 0 0)
(0.0006867099472820686 0 0)
(0.0007716971259835898 0 0)
(0.0008555741647698968 0 0)
(0.0009378869790897603 0 0)
(0.001017533141475728 0 0)
(0.001093677172905586 0 0)
(0.001164864496791182 0 0)
(0.001229965995566388 0 0)
(0.001287321153439454 0 0)
(0.001335698971412464 0 0)
(0.001373465845189763 0 0)
(0.00139953976992546 0 0)
(0.001412557680642116 0 0)
(0.001411783363176643 0 0)
(0.001396256951503119 0 0)
(0.001365688460215197 0 0)
(0.001319722226011468 0 0)
(0.001259145182710638 0 0)
(0.001185845485168054 0 0)
(0.001104366210523392 0 0)
(0.001019605552386908 0 0)
(0.0009344928977240782 0 0)
(0.0008493118869879016 0 0)
(0.0007643558872797139 0 0)
(0.0006797135386975272 0 0)
(0.0005959468675741751 0 0)
(0.0005135196899959567 0 0)
(0.0004333772496654103 0 0)
(0.0003563727491865979 0 0)
(0.0002838300052032676 0 0)
(0.0002169352044472028 0 0)
(0.0001572861794874377 0 0)
(0.0001062461584378574 0 0)
(6.548345195529068e-05 0 0)
(3.630475101034968e-05 0 0)
(2.020795447240251e-05 0 0)
(1.821680452200911e-05 0 0)
(3.146012159359711e-05 0 0)
(6.048225961020505e-05 0 0)
(0.0001057006293566797 0 0)
(0.000166298131011332 0 0)
(0.0002399465817062325 0 0)
(0.0003215882063517784 0 0)
(0.0004061247987805793 0 0)
(0.0004909210496763227 0 0)
(0.0005757639356588343 0 0)
(0.000660359058713428 0 0)
(0.0007446395458275002 0 0)
(0.000827989262673445 0 0)
(0.0009099988273865244 0 0)
(0.000989683570196066 0 0)
(0.001066266008420387 0 0)
(0.001138418406754578 0 0)
(0.001205060712585467 0 0)
(0.001264632863544722 0 0)
(0.001315903791044593 0 0)
(0.001357268477764111 0 0)
(0.001387558946761988 0 0)
(0.001405343316242219 0 0)
(0.001409711163253226 0 0)
(0.001399561393971502 0 0)
(0.001374384456421817 0 0)
(0.001333629825820167 0 0)
(0.001277760790931657 0 0)
(0.001208239873734895 0 0)
(0.001129160117443785 0 0)
(0.001045664627297125 0 0)
(0.0009614310520091248 0 0)
(0.0008770979908509098 0 0)
(0.0007929479357469685 0 0)
(0.0007090220392795746 0 0)
(0.0006258228343316078 0 0)
(0.0005437390120761459 0 0)
(0.00046363446789938 0 0)
(0.0003862696258159493 0 0)
(0.0003128773053176448 0 0)
(0.0002445547788597703 0 0)
(0.0001828286787872384 0 0)
(0.0001290145826425069 0 0)
(8.477198624898338e-05 0 0)
(5.144412732974589e-05 0 0)
(3.061305715874048e-05 0 0)
(2.343493170447596e-05 0 0)
(3.120422718511594e-05 0 0)
(5.467089164140338e-05 0 0)
(9.449581326487209e-05 0 0)
(0.0001502270032399698 0 0)
(0.0002200602899561339 0 0)
(0.0002993898470963505 0 0)
(0.0003827466416875975 0 0)
(0.0004666908841355863 0 0)
(0.000550701712090246 0 0)
(0.00063451537511238 0 0)
(0.0007180995284435158 0 0)
(0.0008009033030107752 0 0)
(0.0008825763722820205 0 0)
(0.0009622185877984853 0 0)
(0.001039123957206375 0 0)
(0.001112059152260082 0 0)
(0.001180009953247261 0 0)
(0.001241495104625037 0 0)
(0.001295312925569951 0 0)
(0.001339888798880349 0 0)
(0.001374014753306518 0 0)
(0.001396214537057829 0 0)
(0.001405458054330228 0 0)
(0.001400535513272249 0 0)
(0.001380755200798835 0 0)
(0.00134539572165208 0 0)
(0.001294600305136688 0 0)
(0.001229385522054772 0 0)
(0.001153217927222389 0 0)
(0.001071243134809009 0 0)
(0.0009878976944937441 0 0)
(0.0009043977849622152 0 0)
(0.0008210329932054349 0 0)
(0.0007378279724854018 0 0)
(0.0006552052444906008 0 0)
(0.000573513290486252 0 0)
(0.0004935158471442891 0 0)
(0.0004159194844495069 0 0)
(0.0003418453917656028 0 0)
(0.0002723374420825426 0 0)
(0.0002088207432543487 0 0)
(0.0001525859464080763 0 0)
(0.0001052359004110411 0 0)
(6.815162679026855e-05 0 0)
(4.293301676486786e-05 0 0)
(3.0853286096008e-05 0 0)
(3.330390131648888e-05 0 0)
(5.122594781641159e-05 0 0)
(8.547188965552478e-05 0 0)
(0.000135955828065731 0 0)
(0.0002014132011682356 0 0)
(0.0002778969021909929 0 0)
(0.0003598337866080055 0 0)
(0.0004429150559569487 0 0)
(0.0005261092093862562 0 0)
(0.0006091493928331097 0 0)
(0.0006920315775876265 0 0)
(0.0007742669379398335 0 0)
(0.0008555627625876873 0 0)
(0.0009350892300663627 0 0)
(0.00101221550042013 0 0)
(0.001085779286646921 0 0)
(0.001154845502082729 0 0)
(0.001217986956971061 0 0)
(0.001274061985533979 0 0)
(0.001321508307253187 0 0)
(0.001359132379363191 0 0)
(0.001385405920441676 0 0)
(0.001399252432573581 0 0)
(0.001399343708855342 0 0)
(0.00138488851802813 0 0)
(0.001354973891826611 0 0)
(0.001309513362973086 0 0)
(0.001249037412116044 0 0)
(0.001176364680765914 0 0)
(0.001096271509120392 0 0)
(0.001013902354475112 0 0)
(0.0009311951399375035 0 0)
(0.0008486123546165699 0 0)
(0.000766120360128662 0 0)
(0.0006841017387883522 0 0)
(0.000602839942430407 0 0)
(0.000523030618195229 0 0)
(0.0004453069695348448 0 0)
(0.0003707091979156495 0 0)
(0.0003002091790610242 0 0)
(0.0002351550328177486 0 0)
(0.0001767883246042084 0 0)
(0.0001266653376362623 0 0)
(8.616653018232377e-05 0 0)
(5.689966149459337e-05 0 0)
(4.020589806280733e-05 0 0)
(3.755155008749823e-05 0 0)
(5.001838342556756e-05 0 0)
(7.862314746431619e-05 0 0)
(0.00012360041787385 0 0)
(0.000184209329788251 0 0)
(0.0002572687608849096 0 0)
(0.0003374280878296636 0 0)
(0.0004195844743929045 0 0)
(0.000501968169956556 0 0)
(0.0005842465119581606 0 0)
(0.0006664051646861409 0 0)
(0.0007480645389678833 0 0)
(0.0008289265495717085 0 0)
(0.0009082877824174475 0 0)
(0.0009855219525342646 0 0)
(0.001059598113143233 0 0)
(0.001129587503537983 0 0)
(0.001194184832710166 0 0)
(0.001252241075234287 0 0)
(0.001302284878177019 0 0)
(0.001343079512651195 0 0)
(0.001373135729400516 0 0)
(0.001391286255411141 0 0)
(0.00139618360148075 0 0)
(0.0013868938104951 0 0)
(0.00136241151530823 0 0)
(0.001322392788197637 0 0)
(0.0012670024742379 0 0)
(0.001198337914587969 0 0)
(0.001120621474934378 0 0)
(0.00103937703995748 0 0)
(0.000957482627940436 0 0)
(0.0008756788782312918 0 0)
(0.0007939102100759426 0 0)
(0.0007125258595995375 0 0)
(0.0006317303222035652 0 0)
(0.0005521821681412148 0 0)
(0.0004744171154250569 0 0)
(0.0003994355317558478 0 0)
(0.0003281050490838772 0 0)
(0.0002617407099412244 0 0)
(0.0002014887607529644 0 0)
(0.0001488977004795014 0 0)
(0.0001052860960663604 0 0)
(7.229963957819998e-05 0 0)
(5.127001965776535e-05 0 0)
(4.376073403598005e-05 0 0)
(5.091254868080298e-05 0 0)
(7.392419018821065e-05 0 0)
(0.0001132458641160666 0 0)
(0.0001686461440512349 0 0)
(0.0002376850478232778 0 0)
(0.0003155971947863054 0 0)
(0.0003966834129500923 0 0)
(0.0004782786562118194 0 0)
(0.0005597788458061306 0 0)
(0.0006412332220352 0 0)
(0.0007222619501417495 0 0)
(0.0008026726557145112 0 0)
(0.0008817735053784527 0 0)
(0.0009590476151561542 0 0)
(0.001033489506880315 0 0)
(0.001104270085512311 0 0)
(0.001170113383558299 0 0)
(0.00122994565288372 0 0)
(0.00128231484751038 0 0)
(0.001326018189728918 0 0)
(0.001359559258108288 0 0)
(0.001381749509400997 0 0)
(0.001391201060571711 0 0)
(0.001386899393434889 0 0)
(0.001367749621726077 0 0)
(0.001333209586838851 0 0)
(0.001283135327061132 0 0)
(0.00121896050829661 0 0)
(0.001144190402141004 0 0)
(0.001064337143329759 0 0)
(0.0009832767843156738 0 0)
(0.0009022176475130745 0 0)
(0.0008211973600299212 0 0)
(0.0007404323991995881 0 0)
(0.0006601783025525163 0 0)
(0.0005809204441564612 0 0)
(0.0005032479321043193 0 0)
(0.0004279691986841883 0 0)
(0.0003560097301323191 0 0)
(0.0002884872659217021 0 0)
(0.0002266227416693805 0 0)
(0.0001717787400818603 0 0)
(0.0001253800833529184 0 0)
(8.891775138459495e-05 0 0)
(6.387852686033707e-05 0 0)
(5.171780207587403e-05 0 0)
(5.378928199488563e-05 0 0)
(7.125890500148396e-05 0 0)
(0.0001049301266283106 0 0)
(0.0001548283137300775 0 0)
(0.0002193813879819613 0 0)
(0.0002944426496354629 0 0)
(0.0003742560254881625 0 0)
(0.0004550052233470126 0 0)
(0.0005357764514209881 0 0)
(0.0006164609204255874 0 0)
(0.0006968933821489302 0 0)
(0.0007767577460788468 0 0)
(0.0008555941314144102 0 0)
(0.0009327745146067971 0 0)
(0.001007522565125013 0 0)
(0.001078906691046472 0 0)
(0.001145867750900708 0 0)
(0.001207229414961013 0 0)
(0.001261730154757799 0 0)
(0.001308050648433381 0 0)
(0.001344844826518271 0 0)
(0.001370783046889638 0 0)
(0.001384576250332552 0 0)
(0.001385035112086243 0 0)
(0.001371099768170425 0 0)
(0.001341978064121614 0 0)
(0.001297356133873748 0 0)
(0.00123802096730829 0 0)
(0.001166766927910804 0 0)
(0.001088693113915002 0 0)
(0.001008556760290773 0 0)
(0.0009282470326020888 0 0)
(0.000847971460203657 0 0)
(0.000767869736170013 0 0)
(0.0006881701650229283 0 0)
(0.0006092868659838233 0 0)
(0.0005317548086352033 0 0)
(0.0004563170466264788 0 0)
(0.0003838294986940362 0 0)
(0.0003153562605849047 0 0)
(0.0002520433354743898 0 0)
(0.0001952233253514899 0 0)
(0.0001462554904927867 0 0)
(0.000106638161464061 0 0)
(7.781791476002709e-05 0 0)
(6.131104546406141e-05 0 0)
(5.847361460423894e-05 0 0)
(7.060671999233867e-05 0 0)
(9.862002837214835e-05 0 0)
(0.0001429214352485241 0 0)
(0.0002025123387367433 0 0)
(0.0002741722654643655 0 0)
(0.0003522873304201134 0 0)
(0.0004321843104966209 0 0)
(0.0005121735670955443 0 0)
(0.0005921511649874919 0 0)
(0.0006718902635915574 0 0)
(0.0007512408354797821 0 0)
(0.0008296747069769285 0 0)
(0.0009067503960005936 0 0)
(0.0009816232871873406 0 0)
(0.00105355228941883 0 0)
(0.001121402837190425 0 0)
(0.001184182732388326 0 0)
(0.001240538770191592 0 0)
(0.001289317539903891 0 0)
(0.001329054274024746 0 0)
(0.001358557088803057 0 0)
(0.00137638445279709 0 0)
(0.001381447788776554 0 0)
(0.0013724875647243 0 0)
(0.0013487406380242 0 0)
(0.001309543093429545 0 0)
(0.001255372530728622 0 0)
(0.001188114253154655 0 0)
(0.001112378852546637 0 0)
(0.001033274723630536 0 0)
(0.0009537630109566775 0 0)
(0.0008741937851519394 0 0)
(0.0007948059289232375 0 0)
(0.0007156679654666864 0 0)
(0.000637246106867385 0 0)
(0.0005599123049569905 0 0)
(0.0004844479483514255 0 0)
(0.0004115445665555038 0 0)
(0.0003423022756161026 0 0)
(0.0002777103847687729 0 0)
(0.0002191447404217689 0 0)
(0.0001678269154573457 0 0)
(0.0001253193455259723 0 0)
(9.296352210172665e-05 0 0)
(7.237166215106831e-05 0 0)
(6.484007188047669e-05 0 0)
(7.182190417798845e-05 0 0)
(9.426609317223034e-05 0 0)
(0.0001329212125991027 0 0)
(0.0001872338131900362 0 0)
(0.000254924729916102 0 0)
(0.0003308598898693299 0 0)
(0.0004097794278072319 0 0)
(0.0004889912348152827 0 0)
(0.0005682464788742361 0 0)
(0.0006472988316434953 0 0)
(0.0007260842258067346 0 0)
(0.0008040942784404318 0 0)
(0.0008809739582767365 0 0)
(0.0009559069671188764 0 0)
(0.001028235012296272 0 0)
(0.001096852401280339 0 0)
(0.0011608407929545 0 0)
(0.001218870888150896 0 0)
(0.001269847862022922 0 0)
(0.001312317677837169 0 0)
(0.001345120957266445 0 0)
(0.001366804178138574 0 0)
(0.00137625996131299 0 0)
(0.001372168556872791 0 0)
(0.001353685092337448 0 0)
(0.001319891434338327 0 0)
(0.001271002065146575 0 0)
(0.001208125625900457 0 0)
(0.001135098093267112 0 0)
(0.001057255631061114 0 0)
(0.00097833523668664 0 0)
(0.0008994698252178248 0 0)
(0.0008208450490527996 0 0)
(0.0007425701317776105 0 0)
(0.0006650385079760659 0 0)
(0.0005885142332204789 0 0)
(0.000513627380357906 0 0)
(0.0004409117361764586 0 0)
(0.0003711888763290822 0 0)
(0.0003053697015122771 0 0)
(0.0002446013939502298 0 0)
(0.0001898836951990563 0 0)
(0.0001429469956118012 0 0)
(0.0001054267777852812 0 0)
(7.846087394649853e-05 0 0)
(6.485600471811574e-05 0 0)
(6.551698970710279e-05 0 0)
(8.259630185654371e-05 0 0)
(0.000115912060052526 0 0)
(0.0001672067582930806 0 0)
(0.0002350979872000781 0 0)
(0.0003140814876326716 0 0)
(0.0003992205365676486 0 0)
(0.0004879190922113066 0 0)
(0.0005791702191059786 0 0)
(0.0006721422110928752 0 0)
(0.0007672907334193235 0 0)
(0.0008634166099776839 0 0)
(0.000960428492449299 0 0)
(0.001057029790138725 0 0)
(0.001153935285107908 0 0)
(0.001247423307723609 0 0)
(0.001339046778405174 0 0)
(0.001426237932675267 0 0)
(0.001507536686378927 0 0)
(0.001581141192537285 0 0)
(0.001645257863539792 0 0)
(0.0016975570936875 0 0)
(0.001736642588563038 0 0)
(0.001760423899033761 0 0)
(0.001767867927137651 0 0)
(0.001757182671483425 0 0)
(0.001727023128119372 0 0)
(0.0016792709489915 0 0)
(0.001617581212328856 0 0)
(0.001546179558691989 0 0)
(0.001468234516448596 0 0)
(0.001384872054177309 0 0)
(0.001297491079830602 0 0)
(0.00120726564337332 0 0)
(0.00111395399970506 0 0)
(0.00101880464065765 0 0)
(0.0009197647687296578 0 0)
(0.0008239276439275256 0 0)
(0.0007242272330824015 0 0)
(0.000626594455804953 0 0)
(0.0005312895773965156 0 0)
(0.0004407805864176468 0 0)
(0.0003571683655304389 0 0)
(0.0002830168288183507 0 0)
(0.0002207780938408549 0 0)
(0.0001724479411874032 0 0)
(0.0001411453906581614 0 0)
(0.0001281803736744395 0 0)
(0.0001350557200368177 0 0)
(0.0001622134969772598 0 0)
(0.0002091615511657468 0 0)
(0.0002710391296881216 0 0)
(0.0003433442579471671 0 0)
(0.0004236691272689054 0 0)
(0.0005097843356506441 0 0)
(0.0005996730579725815 0 0)
(0.0006924063318869362 0 0)
(0.0007875034562535855 0 0)
(0.0008844399125526262 0 0)
(0.0009803544910187759 0 0)
(0.001078066758235743 0 0)
(0.00116997889195004 0 0)
(0.001262612092134258 0 0)
(0.001351511839791756 0 0)
(0.001435730540460446 0 0)
(0.001513240192309075 0 0)
(0.001582269936019448 0 0)
(0.001640952495951886 0 0)
(0.001686575929944274 0 0)
(0.001718187114712644 0 0)
(0.001732622699541528 0 0)
(0.001730728494083125 0 0)
(0.001709462384303029 0 0)
(0.001671076575822821 0 0)
(0.00161779889786193 0 0)
(0.00155255910090225 0 0)
(0.001479307581887043 0 0)
(0.001399816766477001 0 0)
(0.001315441097477829 0 0)
(0.001227268147743978 0 0)
(0.001136912455370632 0 0)
(0.001044947870878764 0 0)
(0.0009501188833620694 0 0)
(0.0008561470213201309 0 0)
(0.0007590606326713206 0 0)
(0.0006633682817032203 0 0)
(0.0005699540625417051 0 0)
(0.0004800488672180963 0 0)
(0.0003960085737438786 0 0)
(0.0003202127030401636 0 0)
(0.0002554255304073792 0 0)
(0.0002037598788076696 0 0)
(0.0001677743035795878 0 0)
(0.0001499935820737927 0 0)
(0.0001498980851338299 0 0)
(0.000170256543980168 0 0)
(0.0002120800345557172 0 0)
(0.0002696010114752647 0 0)
(0.000339215731861334 0 0)
(0.0004181030642783751 0 0)
(0.0005041075723295554 0 0)
(0.0005950017678026535 0 0)
(0.0006891556828820107 0 0)
(0.0007855402055210084 0 0)
(0.0008853285003463479 0 0)
(0.0009830222532903881 0 0)
(0.00108324451322909 0 0)
(0.001174641747114532 0 0)
(0.001268178706247144 0 0)
(0.001359139705127637 0 0)
(0.001445773430511073 0 0)
(0.001526732496583138 0 0)
(0.001600092172596946 0 0)
(0.001664173762294291 0 0)
(0.001716834003684222 0 0)
(0.001755508726583582 0 0)
(0.00177875352828641 0 0)
(0.001783237154541365 0 0)
(0.001771494116484864 0 0)
(0.001742518005783305 0 0)
(0.001697047047554909 0 0)
(0.001638150058152608 0 0)
(0.001569821741471745 0 0)
(0.001494276036897163 0 0)
(0.001413198495875101 0 0)
(0.001327826143123013 0 0)
(0.001239165641910372 0 0)
(0.001149919884375013 0 0)
(0.001059337695365722 0 0)
(0.0009672508831438579 0 0)
(0.0008729452632158341 0 0)
(0.0007786063397719549 0 0)
(0.0006877184964398397 0 0)
(0.0005990891822514644 0 0)
(0.0005151584912358148 0 0)
(0.0004382123005075389 0 0)
(0.0003711415493826363 0 0)
(0.0003165939064179395 0 0)
(0.0002769255644543613 0 0)
(0.0002540305158033576 0 0)
(0.0002483011672605979 0 0)
(0.000262265864958136 0 0)
(0.0002971000106087704 0 0)
(0.0003508300224295237 0 0)
(0.0004173795473538572 0 0)
(0.0004945761855091139 0 0)
(0.0005799521115555495 0 0)
(0.0006714255407885569 0 0)
(0.000767150227382343 0 0)
(0.0008648842222693632 0 0)
(0.0009663379572363568 0 0)
(0.001068665904148607 0 0)
(0.001168244624092903 0 0)
(0.001266306917736116 0 0)
(0.001356705406719888 0 0)
(0.001450781418173683 0 0)
(0.001539934672596264 0 0)
(0.001623917341158013 0 0)
(0.001701224800737861 0 0)
(0.001770155688550143 0 0)
(0.00182896609806232 0 0)
(0.001875905847425837 0 0)
(0.001907230327641393 0 0)
(0.001920822937663371 0 0)
(0.00191633827954245 0 0)
(0.001896002747104537 0 0)
(0.001860772026125238 0 0)
(0.00180878048676776 0 0)
(0.001746124064654961 0 0)
(0.001675145380488477 0 0)
(0.001597817373302455 0 0)
(0.001515671312012705 0 0)
(0.001429916902158827 0 0)
(0.001341954447342155 0 0)
(0.001256258080542908 0 0)
(0.001165782961452814 0 0)
(0.001077654706809869 0 0)
(0.0009812874448461969 0 0)
(0.0008942388681329953 0 0)
(0.0008076020439799418 0 0)
(0.0007248393933291675 0 0)
(0.0006477279226982687 0 0)
(0.0005788671242456766 0 0)
(0.0005212366876766069 0 0)
(0.000478386539179586 0 0)
(0.0004509030105333004 0 0)
(0.0004412815022257061 0 0)
(0.0004453129187941712 0 0)
(0.0004743040249804712 0 0)
(0.000525888272748766 0 0)
(0.0005885906900356167 0 0)
(0.0006642011877185584 0 0)
(0.0007488475672368011 0 0)
(0.0008405830738481381 0 0)
(0.0009373000361299266 0 0)
(0.001037180810352578 0 0)
(0.001139588385387644 0 0)
(0.001246733072847561 0 0)
(0.001347948653602164 0 0)
(0.001454584134215779 0 0)
(0.001538141132844032 0 0)
(0.001638315450559227 0 0)
(0.001729658797669123 0 0)
(0.001817110970679656 0 0)
(0.001898116054230657 0 0)
(0.001971541012938828 0 0)
(0.002035508756973428 0 0)
(0.002089450218898274 0 0)
(0.002130226145468597 0 0)
(0.002153716209626145 0 0)
(0.002156369436554646 0 0)
(0.002146026069898411 0 0)
(0.002120165773020171 0 0)
(0.002076274935513217 0 0)
(0.002019945915235142 0 0)
(0.001954234573047627 0 0)
(0.001881356312492691 0 0)
(0.001802645793149753 0 0)
(0.001720204382998118 0 0)
(0.001634084902674705 0 0)
(0.001552136698797115 0 0)
(0.001465217486113299 0 0)
(0.001380268390416352 0 0)
(0.001283489829151563 0 0)
(0.001200528733173831 0 0)
(0.001116286998058952 0 0)
(0.00103559672861605 0 0)
(0.0009592781954690289 0 0)
(0.0008899518532340807 0 0)
(0.0008298450782025853 0 0)
(0.0007824621198619516 0 0)
(0.0007520472222868988 0 0)
(0.0007371851856513743 0 0)
(0.0007386011866803447 0 0)
(0.0007587026887644182 0 0)
(0.00080238770722932 0 0)
(0.0008652597003776175 0 0)
(0.0009375973867403406 0 0)
(0.001021825464961816 0 0)
(0.00111409026589965 0 0)
(0.001211712968954482 0 0)
(0.001313303379453487 0 0)
(0.001416538170004629 0 0)
(0.001528128228952427 0 0)
(0.001634717376281874 0 0)
(0.001738680073154613 0 0)
(0.001835390087765724 0 0)
(0.001928403633837077 0 0)
(0.002027313830463637 0 0)
(0.002117470229321968 0 0)
(0.002201835965838651 0 0)
(0.002279836446199345 0 0)
(0.002349765290067127 0 0)
(0.002409018063591702 0 0)
(0.002456475316537161 0 0)
(0.002492598497283621 0 0)
(0.002540544892630436 0 0)
(0.002494699035569817 0 0)
)
;

boundaryField
{
    inlet
    {
        type            calculated;
        value           uniform (-3.371240701989154e-05 0 0);
    }
    outlet
    {
        type            calculated;
        value           uniform (0.002494699035569817 0 0);
    }
    frontAndBack
    {
        type            empty;
    }
}


// ************************************************************************* //
