/*--------------------------------*- C++ -*----------------------------------*\
| =========                 |                                                 |
| \\      /  F ield         | OpenFOAM: The Open Source CFD Toolbox           |
|  \\    /   O peration     | Version:  v2012                                 |
|   \\  /    A nd           | Website:  www.openfoam.com                      |
|    \\/     M anipulation  |                                                 |
\*---------------------------------------------------------------------------*/
FoamFile
{
    version     2.0;
    format      ascii;
    class       volVectorField;
    location    "0.014";
    object      UMean;
}
// * * * * * * * * * * * * * * * * * * * * * * * * * * * * * * * * * * * * * //

dimensions      [0 1 -1 0 0 0 0];


internalField   nonuniform List<vector> 
1000
(
(-7.903161626564826e-05 0 0)
(-8.220847966732142e-05 0 0)
(5.128416002905775e-05 0 0)
(7.497096571621019e-05 0 0)
(9.336825875850321e-05 0 0)
(7.905746339402781e-05 0 0)
(0.0001753202353948772 0 0)
(0.0001417703005407268 0 0)
(0.0001056441971271445 0 0)
(0.0002206244806714787 0 0)
(0.0003521625944158268 0 0)
(0.0005306102791274771 0 0)
(0.0006346298106402273 0 0)
(0.0007899100263733328 0 0)
(0.0007041055585948771 0 0)
(0.0007288357318006715 0 0)
(0.0007847135361902096 0 0)
(0.000590504589418796 0 0)
(0.0005282631010850589 0 0)
(0.0006160516073448324 0 0)
(0.0008730685606191252 0 0)
(0.0009465514292030343 0 0)
(0.001083800354521406 0 0)
(0.001209041301774132 0 0)
(0.001279191562343459 0 0)
(0.00107484733437883 0 0)
(0.0008310173883545129 0 0)
(0.0005626437436833928 0 0)
(0.0004524203830285791 0 0)
(0.0002746141369827432 0 0)
(0.0004597840567427117 0 0)
(0.0004535230576484939 0 0)
(0.0007258006086003635 0 0)
(0.0009269575611027279 0 0)
(0.001043581930376969 0 0)
(0.0008870445904668114 0 0)
(0.0006596995760341667 0 0)
(0.0004343592907204558 0 0)
(5.096376257980907e-05 0 0)
(-0.0003220406472659755 0 0)
(-0.0005655862652438335 0 0)
(-0.0006708334122867477 0 0)
(-0.0004785961109458007 0 0)
(-0.0002494705787422887 0 0)
(8.846635253742528e-05 0 0)
(0.0003227051954680795 0 0)
(0.0008637334475425624 0 0)
(0.00087756714900023 0 0)
(0.0007089584634754923 0 0)
(0.0002182826089337041 0 0)
(-4.569998015576373e-05 0 0)
(-0.0006742272990168483 0 0)
(-0.001039689114861218 0 0)
(-0.001280362448353695 0 0)
(-0.0009349456196425281 0 0)
(-0.0005682442040529978 0 0)
(0.0002009718988629593 0 0)
(0.000711526670233965 0 0)
(0.001310947259589845 0 0)
(0.001770734503173688 0 0)
(0.001943730851619589 0 0)
(0.001660091311572449 0 0)
(0.0009705853846752124 0 0)
(0.0006419048342955235 0 0)
(0.0001116387545728521 0 0)
(-0.0003867370393937608 0 0)
(-0.0006293847261261927 0 0)
(-0.0005026942384935074 0 0)
(-1.875054929442388e-06 0 0)
(0.000522705109021087 0 0)
(0.001225319459232428 0 0)
(0.001708188281735118 0 0)
(0.0023013120395593 0 0)
(0.002292543181042317 0 0)
(0.00236778388977881 0 0)
(0.001861236162726726 0 0)
(0.001420202354950589 0 0)
(0.0008736692262038542 0 0)
(0.0006280392179327664 0 0)
(0.0002491193165458418 0 0)
(0.0003167484823870436 0 0)
(0.0003303829856339171 0 0)
(0.0007964848934370552 0 0)
(0.0008715090593599371 0 0)
(0.000959031016250049 0 0)
(0.001004209649610222 0 0)
(0.001031266670757729 0 0)
(0.001095148042736553 0 0)
(0.001020976494117364 0 0)
(0.0009641922804586693 0 0)
(0.0007793764689063199 0 0)
(0.0004857195022058927 0 0)
(0.0001124245019467533 0 0)
(-0.0002547064907104268 0 0)
(-0.0008956595406697536 0 0)
(-0.001000815181142988 0 0)
(-0.001035612396892152 0 0)
(-0.000889054238140439 0 0)
(-0.0005183894791183526 0 0)
(0.0001283622880509883 0 0)
(0.0004110727924516942 0 0)
(0.0004991349437806689 0 0)
(0.00056455413322041 0 0)
(0.0007248229815114125 0 0)
(0.0006514693513139906 0 0)
(0.0007001606106674168 0 0)
(0.0005905644938604367 0 0)
(0.000711155362781256 0 0)
(0.0006452503987629362 0 0)
(0.0006056876665634919 0 0)
(0.0005687824051659794 0 0)
(0.0002278086141200526 0 0)
(0.0003813632722198892 0 0)
(0.0005493132008660363 0 0)
(0.0006717821593273637 0 0)
(0.0008257626987351884 0 0)
(0.001370194801667724 0 0)
(0.00178870177527809 0 0)
(0.001822009164867497 0 0)
(0.001989012930496585 0 0)
(0.001900081670735156 0 0)
(0.001672860410082609 0 0)
(0.001167310375485774 0 0)
(0.0009421281765235715 0 0)
(0.0005442930249626905 0 0)
(0.0007853711190071268 0 0)
(0.0004189958193094414 0 0)
(0.0005413112743788052 0 0)
(0.000526764057128728 0 0)
(0.0005050337033415346 0 0)
(0.000529489696523473 0 0)
(0.0006431377548734655 0 0)
(0.0007077596835799714 0 0)
(0.0008390656641317675 0 0)
(0.0009363134458505964 0 0)
(0.0009117975684945414 0 0)
(0.0007441671751504212 0 0)
(0.0003121145517331046 0 0)
(-1.454875762298049e-05 0 0)
(-0.0008027567924474275 0 0)
(-0.001123483099294758 0 0)
(-0.001263530014446851 0 0)
(-0.001094858457575726 0 0)
(-0.0007740804235816625 0 0)
(-0.0002351968166828392 0 0)
(0.0002178259563462713 0 0)
(0.0003936717721414956 0 0)
(0.0002867149346921104 0 0)
(0.0002818782646627664 0 0)
(0.000183160056452881 0 0)
(-3.558097428887961e-05 0 0)
(4.424712716115892e-05 0 0)
(0.0002475178302524862 0 0)
(0.0008067349068318734 0 0)
(0.0009287087167601384 0 0)
(0.0008334262718017232 0 0)
(0.0009665544800165871 0 0)
(0.0007203910492212792 0 0)
(0.0002681882852474357 0 0)
(0.0001442007920472626 0 0)
(0.0001212999987073195 0 0)
(0.0004009753159576288 0 0)
(0.0007951846183525535 0 0)
(0.001458320026357263 0 0)
(0.001860513083555082 0 0)
(0.002166971407073197 0 0)
(0.002250756406114694 0 0)
(0.001568852573966752 0 0)
(0.001314965876907401 0 0)
(0.0007276647650155204 0 0)
(0.0004204300139126817 0 0)
(0.0002134277077157014 0 0)
(0.0003544949146381186 0 0)
(0.0003846277249565614 0 0)
(0.0005928941109295399 0 0)
(0.0006385937803438016 0 0)
(0.0006002914761565411 0 0)
(0.0004371692318439972 0 0)
(0.0002230706782377523 0 0)
(0.0004652006205798544 0 0)
(0.0005318635785716468 0 0)
(0.0007106428614688024 0 0)
(0.0007205362987298578 0 0)
(0.0005775975391728071 0 0)
(0.0001828464739384012 0 0)
(-0.0005306030343441229 0 0)
(-0.00105668919096989 0 0)
(-0.001431668468460855 0 0)
(-0.001190466871336561 0 0)
(-0.001171109623912965 0 0)
(-0.0006246542471315763 0 0)
(-0.000298010175095729 0 0)
(0.0002900680939536645 0 0)
(0.0001436835029763538 0 0)
(0.0001813639704341023 0 0)
(8.454036148835112e-05 0 0)
(5.819298878178543e-05 0 0)
(0.0002041044310972174 0 0)
(0.0004331770850434837 0 0)
(0.0006381859071150217 0 0)
(0.000871624251933628 0 0)
(0.0007991534323421719 0 0)
(0.0009110142382008416 0 0)
(0.0005307956851288532 0 0)
(0.0003857507531462626 0 0)
(-8.654808595352088e-06 0 0)
(9.786720634318112e-05 0 0)
(0.0001518449426371352 0 0)
(0.000726072480307566 0 0)
(0.001325872037957872 0 0)
(0.001968345375768413 0 0)
(0.002387158547996096 0 0)
(0.002294063784017994 0 0)
(0.001859454150462967 0 0)
(0.001501859204893024 0 0)
(0.0007702173345785086 0 0)
(0.0002709608462473455 0 0)
(0.0002385148493217818 0 0)
(0.0001802137178967976 0 0)
(0.000405540351682228 0 0)
(0.0006896713953153967 0 0)
(0.0006916134640969425 0 0)
(0.000541898190882321 0 0)
(0.0004251447241004958 0 0)
(0.0002684917365489578 0 0)
(0.0002666822061715654 0 0)
(0.0003840372366570782 0 0)
(0.0005853130785365763 0 0)
(0.0007535007250471669 0 0)
(0.0006242275471854941 0 0)
(0.000133857118161816 0 0)
(-6.777012356471168e-05 0 0)
(-0.0007229317314265646 0 0)
(-0.001267659201829093 0 0)
(-0.001384852325250071 0 0)
(-0.001481505780068039 0 0)
(-0.000952835905858014 0 0)
(-0.0007863846697529112 0 0)
(-0.0003713897402887532 0 0)
(-2.939594529630893e-05 0 0)
(0.0001058872473772593 0 0)
(0.0002512987755603441 0 0)
(0.0003247631006170733 0 0)
(0.0006996081560126952 0 0)
(0.0004833376333472212 0 0)
(0.0008010114000046034 0 0)
(0.0007281807146672424 0 0)
(0.0008733134552678937 0 0)
(0.0007121942059429565 0 0)
(0.0006054761708380819 0 0)
(0.0002391042153209914 0 0)
(0.0002851457557912411 0 0)
(0.000208537370191545 0 0)
(0.0004832657849380874 0 0)
(0.0006810326609000218 0 0)
(0.001460082907216023 0 0)
(0.001549996796593804 0 0)
(0.002001916572524549 0 0)
(0.002317300305621328 0 0)
(0.002062366093189373 0 0)
(0.001603922269480752 0 0)
(0.001144102578068654 0 0)
(0.001032333643317372 0 0)
(0.0004501682469245481 0 0)
(0.0004080372990298055 0 0)
(0.0002523384139878309 0 0)
(0.0005295519787175226 0 0)
(0.0004031336901560912 0 0)
(0.0008905786931875164 0 0)
(0.000569818902854073 0 0)
(0.0008025228572964487 0 0)
(0.000560875783451273 0 0)
(0.0006749481993849913 0 0)
(0.0005646095659913585 0 0)
(0.0007237983656479452 0 0)
(0.001057775500176927 0 0)
(0.001212125796863178 0 0)
(0.0004414273671646116 0 0)
(8.456020630129312e-05 0 0)
(-0.0006686677946708019 0 0)
(-0.001484429087260207 0 0)
(-0.001884750478976027 0 0)
(-0.001970224148358294 0 0)
(-0.0008615816845987127 0 0)
(-0.0003571145919744356 0 0)
(0.0005506001390045137 0 0)
(0.00121773069959055 0 0)
(0.001531943126438146 0 0)
(0.001359481581088372 0 0)
(0.0008026378650757386 0 0)
(0.0004175871572549204 0 0)
(0.0004333149072321725 0 0)
(0.0004430224585623219 0 0)
(0.0005798817222245162 0 0)
(0.0008651394985696323 0 0)
(0.0007878923797539643 0 0)
(0.000914487834876309 0 0)
(0.0006940238530369647 0 0)
(0.0005734468002840148 0 0)
(0.0009066107345134813 0 0)
(0.001341003621102572 0 0)
(0.002192095745778865 0 0)
(0.002649076623951812 0 0)
(0.003308857443389597 0 0)
(0.003575011561281345 0 0)
(0.003451610425541466 0 0)
(0.002944412651049425 0 0)
(0.001864262252442364 0 0)
(0.001404033218882856 0 0)
(0.0006387359697169962 0 0)
(0.0002469012523811274 0 0)
(0.0003964822735546718 0 0)
(0.0004139803178130761 0 0)
(0.0009739252293939844 0 0)
(0.001401658349013118 0 0)
(0.001612958356226282 0 0)
(0.00151116816748503 0 0)
(0.002002750618295794 0 0)
(0.001508433359626196 0 0)
(0.0014922147663178 0 0)
(0.001045167606463769 0 0)
(0.001179390939368838 0 0)
(0.001129951456592621 0 0)
(0.00127755566163159 0 0)
(0.0009028223591678552 0 0)
(0.0002135246191778131 0 0)
(0.000152628819094962 0 0)
(-0.0005858737939834234 0 0)
(-0.0009084636881317961 0 0)
(-0.0006277152664852417 0 0)
(0.0003788729725361307 0 0)
(0.001482126798902723 0 0)
(0.00222921929938104 0 0)
(0.003015961503140871 0 0)
(0.002889686187471554 0 0)
(0.002612921165939087 0 0)
(0.00170955445855057 0 0)
(0.001145837165663618 0 0)
(0.00114245146230408 0 0)
(0.001157893087720348 0 0)
(0.001723744010879174 0 0)
(0.001935761987148573 0 0)
(0.002212365166286841 0 0)
(0.002473475810442298 0 0)
(0.002126504534691608 0 0)
(0.002140669672594343 0 0)
(0.002344972145733194 0 0)
(0.003150160733581809 0 0)
(0.003929396164484456 0 0)
(0.004825028617092357 0 0)
(0.005713204795653352 0 0)
(0.005836094736191245 0 0)
(0.005309360318554922 0 0)
(0.00388807891457865 0 0)
(0.002870622607496195 0 0)
(0.00156178002168998 0 0)
(0.001224648098663768 0 0)
(0.001571562510890336 0 0)
(0.002145110182941842 0 0)
(0.002993635367213477 0 0)
(0.003338482285449683 0 0)
(0.0035287953796097 0 0)
(0.003446371419027969 0 0)
(0.003166355474571526 0 0)
(0.002962983236000079 0 0)
(0.003094460630763965 0 0)
(0.003225297554889931 0 0)
(0.003742724242311452 0 0)
(0.00374847045387515 0 0)
(0.003492973354144146 0 0)
(0.003196706379761602 0 0)
(0.002179923293281433 0 0)
(0.001732832066759723 0 0)
(0.001307691419432606 0 0)
(0.001201602403718052 0 0)
(0.001695669950768102 0 0)
(0.002310468167515609 0 0)
(0.003187936596558553 0 0)
(0.004024368256345421 0 0)
(0.004396630525906002 0 0)
(0.005111198224069952 0 0)
(0.00454547250564717 0 0)
(0.004760829659170792 0 0)
(0.004344115389998653 0 0)
(0.004255922388007678 0 0)
(0.004394221603907595 0 0)
(0.004128369600688179 0 0)
(0.004485150489593136 0 0)
(0.004227564001209379 0 0)
(0.004411677172432077 0 0)
(0.004769686770650098 0 0)
(0.005161557105534374 0 0)
(0.005624235120518669 0 0)
(0.006694124939299737 0 0)
(0.007395235909370587 0 0)
(0.008262180725277886 0 0)
(0.008761478301130641 0 0)
(0.008253951205613091 0 0)
(0.007496913260619477 0 0)
(0.006542500365462887 0 0)
(0.005462685870589228 0 0)
(0.004980764566600801 0 0)
(0.004719649069924313 0 0)
(0.005545007742948225 0 0)
(0.005853791672836004 0 0)
(0.007164184484623324 0 0)
(0.007438802157634017 0 0)
(0.007389845855362858 0 0)
(0.007036780796548956 0 0)
(0.006235892887949746 0 0)
(0.006060538720437388 0 0)
(0.005848178357744723 0 0)
(0.006126150322097533 0 0)
(0.006806747260096668 0 0)
(0.007572576470313747 0 0)
(0.007561592367538761 0 0)
(0.007342615369508363 0 0)
(0.006664604380216079 0 0)
(0.005793315768999094 0 0)
(0.00500307974450514 0 0)
(0.004593640726796917 0 0)
(0.004724841182461853 0 0)
(0.005879515302004163 0 0)
(0.007288978479330572 0 0)
(0.008084261679955046 0 0)
(0.009337401729543875 0 0)
(0.009221777366603966 0 0)
(0.00855035976289935 0 0)
(0.008299599413835347 0 0)
(0.007482840343691893 0 0)
(0.007106917116534482 0 0)
(0.007622765943021495 0 0)
(0.00881091885497383 0 0)
(0.00938098210843101 0 0)
(0.01032437920698578 0 0)
(0.01023892326218893 0 0)
(0.01027338042128115 0 0)
(0.01037829114248532 0 0)
(0.009440501317716897 0 0)
(0.009466212547995829 0 0)
(0.009596068978350674 0 0)
(0.01021158892393789 0 0)
(0.01100477535551523 0 0)
(0.01207807259102917 0 0)
(0.01256696536561994 0 0)
(0.01254152336567723 0 0)
(0.01245440105469669 0 0)
(0.01109000533276534 0 0)
(0.01093435266385288 0 0)
(0.01006372343065391 0 0)
(0.009599182889728334 0 0)
(0.01031638623783354 0 0)
(0.01039578541593506 0 0)
(0.01083367617741315 0 0)
(0.01140846987200014 0 0)
(0.01194661006017009 0 0)
(0.0121096794368412 0 0)
(0.01191221083506785 0 0)
(0.01154403555502985 0 0)
(0.01136883611377261 0 0)
(0.01138084156494841 0 0)
(0.01183046457903752 0 0)
(0.01166867387725538 0 0)
(0.01184068586391726 0 0)
(0.01168973662061249 0 0)
(0.01106073301576508 0 0)
(0.01157068815445192 0 0)
(0.01043123021255572 0 0)
(0.01052174641098747 0 0)
(0.01063999901722011 0 0)
(0.01144934246238089 0 0)
(0.01289705043763624 0 0)
(0.01355721292043055 0 0)
(0.01439584709453383 0 0)
(0.01484795726243833 0 0)
(0.01464190881057993 0 0)
(0.01456700890511386 0 0)
(0.01375867253420509 0 0)
(0.0138660285809091 0 0)
(0.01359507394486338 0 0)
(0.01397665568700865 0 0)
(0.01433408222944633 0 0)
(0.01464821271091013 0 0)
(0.01535795948422943 0 0)
(0.01527563213074323 0 0)
(0.01597208323731705 0 0)
(0.01593812211627829 0 0)
(0.01660881525766085 0 0)
(0.01735582270451546 0 0)
(0.01827706562882892 0 0)
(0.01919318880413884 0 0)
(0.01908619063864841 0 0)
(0.01799615638923287 0 0)
(0.01719460197852412 0 0)
(0.01571448228865355 0 0)
(0.01498667682702097 0 0)
(0.01501851280482626 0 0)
(0.01614046406243269 0 0)
(0.01677743923663636 0 0)
(0.01846105405207196 0 0)
(0.01880567920986024 0 0)
(0.01894360151220062 0 0)
(0.01864824065769764 0 0)
(0.0173614569449574 0 0)
(0.01716603699676541 0 0)
(0.01663636290074198 0 0)
(0.01716275197398637 0 0)
(0.01826870186320533 0 0)
(0.01889583789281322 0 0)
(0.01938866763847677 0 0)
(0.0190990926926121 0 0)
(0.01816313968847029 0 0)
(0.01747785232582501 0 0)
(0.01599969950493187 0 0)
(0.01580841043800747 0 0)
(0.01629633044011738 0 0)
(0.01810539946895773 0 0)
(0.01913640291299799 0 0)
(0.02131650321981972 0 0)
(0.02221541574089104 0 0)
(0.02206006367703677 0 0)
(0.0211720922449343 0 0)
(0.02031816380752361 0 0)
(0.01927364869305409 0 0)
(0.01910062263098971 0 0)
(0.02024379511401496 0 0)
(0.02131009543853315 0 0)
(0.02254268364709342 0 0)
(0.02350614956466812 0 0)
(0.02366336417344088 0 0)
(0.02341958531652232 0 0)
(0.02270163944315848 0 0)
(0.02183486260858595 0 0)
(0.02152811301333847 0 0)
(0.02233328099975371 0 0)
(0.02347950185798776 0 0)
(0.02504165439612813 0 0)
(0.02640984094887033 0 0)
(0.02731882598401221 0 0)
(0.02687194303843105 0 0)
(0.0253693299294206 0 0)
(0.02439634665717654 0 0)
(0.0223424827216605 0 0)
(0.02157069665407384 0 0)
(0.02177887618732461 0 0)
(0.02300805019946103 0 0)
(0.02428473481088277 0 0)
(0.02582947560474052 0 0)
(0.02673666049227742 0 0)
(0.02652215007584564 0 0)
(0.02583315708367546 0 0)
(0.02491824218168125 0 0)
(0.02431016019050707 0 0)
(0.02453274795031337 0 0)
(0.02546022090543293 0 0)
(0.02618492248888658 0 0)
(0.02675786082700043 0 0)
(0.026562709766904 0 0)
(0.02618997378279548 0 0)
(0.02507594168116766 0 0)
(0.02431742936085389 0 0)
(0.02396844685907826 0 0)
(0.02445580425124949 0 0)
(0.02609998158972413 0 0)
(0.02750694701379031 0 0)
(0.02983832495298008 0 0)
(0.03093838792435366 0 0)
(0.03130682004505405 0 0)
(0.03036121337896865 0 0)
(0.02934427041029628 0 0)
(0.02857464604112949 0 0)
(0.02771564574086644 0 0)
(0.02818767034240696 0 0)
(0.02906959603841554 0 0)
(0.03036427075027127 0 0)
(0.03136354127829973 0 0)
(0.03233883963737212 0 0)
(0.03247930106055228 0 0)
(0.03253953888174339 0 0)
(0.03232018677384001 0 0)
(0.03211465158145517 0 0)
(0.03289852076540262 0 0)
(0.03311336501172096 0 0)
(0.03433477616916725 0 0)
(0.03452805907088927 0 0)
(0.03493606390227323 0 0)
(0.03412884493039749 0 0)
(0.03390564658562153 0 0)
(0.03282514163563187 0 0)
(0.03268727515042018 0 0)
(0.03253733362944219 0 0)
(0.03291430528759067 0 0)
(0.03413395813254747 0 0)
(0.03459533198686784 0 0)
(0.03585035517285606 0 0)
(0.03597776797752426 0 0)
(0.03590540309508526 0 0)
(0.03507026351627072 0 0)
(0.03469783817978242 0 0)
(0.03419639356555362 0 0)
(0.03442969607053484 0 0)
(0.03484468036563786 0 0)
(0.03520588503129227 0 0)
(0.03604957526329491 0 0)
(0.03610450662861535 0 0)
(0.03619906922942564 0 0)
(0.0360978035454245 0 0)
(0.03533588357136215 0 0)
(0.03572851619009959 0 0)
(0.03545801051284956 0 0)
(0.03712924218418168 0 0)
(0.03803401464468271 0 0)
(0.03944131286805055 0 0)
(0.04014455442581424 0 0)
(0.04030292992373625 0 0)
(0.04057614886914872 0 0)
(0.03941336009453439 0 0)
(0.03882360487886374 0 0)
(0.03876089799127426 0 0)
(0.03933957367899518 0 0)
(0.0399328430165837 0 0)
(0.04147292097706885 0 0)
(0.04255061268208331 0 0)
(0.04380191578461089 0 0)
(0.0436315638880343 0 0)
(0.04334213119334238 0 0)
(0.04285948940951156 0 0)
(0.04260655516718292 0 0)
(0.04321642616186137 0 0)
(0.04341489985566096 0 0)
(0.04474691688361282 0 0)
(0.04617645639062868 0 0)
(0.04599040056577956 0 0)
(0.04651853581522827 0 0)
(0.0447624417822382 0 0)
(0.04406541268466902 0 0)
(0.04322585640546871 0 0)
(0.04273438517973677 0 0)
(0.04422187329985924 0 0)
(0.04490961870432165 0 0)
(0.04611553210437052 0 0)
(0.04745742634625582 0 0)
(0.04729386843776016 0 0)
(0.04646852817705584 0 0)
(0.04609888460738979 0 0)
(0.04539505761699492 0 0)
(0.04589658123617647 0 0)
(0.04692463827835141 0 0)
(0.04778151499316714 0 0)
(0.04830319447155861 0 0)
(0.04843854078087239 0 0)
(0.04749579763880915 0 0)
(0.04692184271813043 0 0)
(0.04607341357418373 0 0)
(0.04578744352326445 0 0)
(0.04704690763986533 0 0)
(0.04824029655248559 0 0)
(0.0502931468156426 0 0)
(0.0521355816777895 0 0)
(0.05280981944157521 0 0)
(0.05272217564280401 0 0)
(0.05180792146800021 0 0)
(0.05098740344780547 0 0)
(0.05014776663030755 0 0)
(0.05149652726679761 0 0)
(0.05222728099960835 0 0)
(0.0534189736283839 0 0)
(0.05483686928390937 0 0)
(0.05535979587890475 0 0)
(0.05524045042078814 0 0)
(0.05405018597924028 0 0)
(0.05371834951207111 0 0)
(0.05361416211663898 0 0)
(0.05440464451111977 0 0)
(0.05630150322867298 0 0)
(0.05797337244526792 0 0)
(0.05987133822981289 0 0)
(0.06069886531746649 0 0)
(0.06057952065445162 0 0)
(0.05847472120397851 0 0)
(0.05729712619206142 0 0)
(0.05496428784877174 0 0)
(0.05417021907652456 0 0)
(0.05508226579372633 0 0)
(0.0558071165966653 0 0)
(0.0586930628581402 0 0)
(0.06031315959874378 0 0)
(0.06178062550394867 0 0)
(0.06242208975704603 0 0)
(0.06217883728943746 0 0)
(0.0597109002602674 0 0)
(0.05924306457959076 0 0)
(0.05835954025593465 0 0)
(0.05760711033529767 0 0)
(0.05937016411088692 0 0)
(0.05964909945290548 0 0)
(0.06020585275596299 0 0)
(0.06197583404888208 0 0)
(0.06122967590215955 0 0)
(0.06225150606344686 0 0)
(0.0622996068497812 0 0)
(0.06249419392448949 0 0)
(0.06256088757356013 0 0)
(0.06313088685928707 0 0)
(0.06376867220901478 0 0)
(0.06414882002775379 0 0)
(0.06500718290933362 0 0)
(0.06453735839840068 0 0)
(0.06622521745996508 0 0)
(0.06652207142936573 0 0)
(0.06692537936693879 0 0)
(0.06804067019579514 0 0)
(0.06842788413713316 0 0)
(0.06873260969466195 0 0)
(0.0690590955409906 0 0)
(0.06871816731230665 0 0)
(0.06837267112562882 0 0)
(0.06840152127472035 0 0)
(0.06834238956461615 0 0)
(0.06850328822300618 0 0)
(0.07007790825752425 0 0)
(0.0697542875889624 0 0)
(0.07240773997573698 0 0)
(0.07314258463217232 0 0)
(0.07358511481652334 0 0)
(0.07383576052874044 0 0)
(0.07256583696028313 0 0)
(0.07183209447364024 0 0)
(0.07155101051192775 0 0)
(0.07162560567283847 0 0)
(0.07215877767739973 0 0)
(0.07404555055800223 0 0)
(0.07475388836717571 0 0)
(0.07500671690387886 0 0)
(0.07552338075171239 0 0)
(0.07443183355939986 0 0)
(0.07333463231168769 0 0)
(0.07351726799201909 0 0)
(0.0741581346451734 0 0)
(0.07472450001693257 0 0)
(0.07697575985560638 0 0)
(0.07835477862552144 0 0)
(0.0789664478532653 0 0)
(0.07915533840905682 0 0)
(0.07769773868201756 0 0)
(0.07677619154664134 0 0)
(0.07484112209218505 0 0)
(0.07470303636244841 0 0)
(0.0752439482079552 0 0)
(0.07764345239931382 0 0)
(0.07949340163228991 0 0)
(0.08243254857009234 0 0)
(0.08364060875294237 0 0)
(0.08413971019178741 0 0)
(0.0835019428226922 0 0)
(0.08269937292013955 0 0)
(0.08158963839054681 0 0)
(0.08165275460269006 0 0)
(0.08241093913296042 0 0)
(0.08320511626060557 0 0)
(0.08474544317918485 0 0)
(0.08565909716888929 0 0)
(0.08595376952117426 0 0)
(0.08569349370602997 0 0)
(0.08597082407675911 0 0)
(0.08590962590217682 0 0)
(0.08727350374435862 0 0)
(0.08845634545349405 0 0)
(0.08944350343617583 0 0)
(0.09108477775499883 0 0)
(0.09197582263912535 0 0)
(0.09089688646177702 0 0)
(0.0902892736376094 0 0)
(0.08815769319120505 0 0)
(0.08770161429404985 0 0)
(0.08683155143956094 0 0)
(0.08756347916261339 0 0)
(0.08937186755614283 0 0)
(0.09111635198064701 0 0)
(0.09281685486644793 0 0)
(0.09354968820582898 0 0)
(0.09358840736298073 0 0)
(0.09308020925484599 0 0)
(0.09180728055049434 0 0)
(0.09200488188429666 0 0)
(0.09144252767231813 0 0)
(0.09264287117365683 0 0)
(0.09361007985954839 0 0)
(0.09468843617576567 0 0)
(0.09425261564006378 0 0)
(0.09577106037496505 0 0)
(0.09371251918406437 0 0)
(0.09413296856536585 0 0)
(0.09365193649186608 0 0)
(0.09457281902137102 0 0)
(0.09587673300317141 0 0)
(0.09894545180806631 0 0)
(0.1006523469194966 0 0)
(0.1036093959226588 0 0)
(0.1042004160914639 0 0)
(0.1039538848650078 0 0)
(0.102937718890718 0 0)
(0.1009732626808353 0 0)
(0.0995268896076171 0 0)
(0.09860433884063363 0 0)
(0.0998812945608811 0 0)
(0.1016090224541416 0 0)
(0.1044201588219062 0 0)
(0.1066615101411806 0 0)
(0.1090469509201658 0 0)
(0.1106768859514141 0 0)
(0.110420309412626 0 0)
(0.1096932694891376 0 0)
(0.1081424287908151 0 0)
(0.1070667001670052 0 0)
(0.1064138213571321 0 0)
(0.1063729793030947 0 0)
(0.107906126850182 0 0)
(0.1092666025664765 0 0)
(0.1111195827177209 0 0)
(0.1118525334498057 0 0)
(0.1130952945636103 0 0)
(0.1133627398301469 0 0)
(0.1130491266919023 0 0)
(0.112868692077935 0 0)
(0.1125405359049271 0 0)
(0.1121234707722264 0 0)
(0.1124473681522581 0 0)
(0.1122382078051562 0 0)
(0.1128885388143908 0 0)
(0.1140828066491738 0 0)
(0.1148737658558012 0 0)
(0.1165316423618312 0 0)
(0.1171880243544234 0 0)
(0.117856413447232 0 0)
(0.1179638607293674 0 0)
(0.1176530446391426 0 0)
(0.1170339792747398 0 0)
(0.1158417653680614 0 0)
(0.1159570796995954 0 0)
(0.1165520200884651 0 0)
(0.118134138606737 0 0)
(0.1200399438809181 0 0)
(0.1218840869105492 0 0)
(0.1229877577985089 0 0)
(0.1243200728658007 0 0)
(0.1241402986392742 0 0)
(0.1239551631621534 0 0)
(0.122938622815917 0 0)
(0.1225873946210545 0 0)
(0.122937082263881 0 0)
(0.1241440272996212 0 0)
(0.1251766159361557 0 0)
(0.1263304508892963 0 0)
(0.1277147622082602 0 0)
(0.1286908158473119 0 0)
(0.1290885197943165 0 0)
(0.1294164458597942 0 0)
(0.1283475502494232 0 0)
(0.1288606377632163 0 0)
(0.1295420165272988 0 0)
(0.1301544991193966 0 0)
(0.1310046789813343 0 0)
(0.1314167703473283 0 0)
(0.132138408471299 0 0)
(0.1329429098857292 0 0)
(0.1327105463741458 0 0)
(0.1331851673320737 0 0)
(0.1323487447258337 0 0)
(0.1325474889585073 0 0)
(0.132968988769611 0 0)
(0.1328958917103712 0 0)
(0.1331236563281703 0 0)
(0.1338349681686156 0 0)
(0.1358063420970423 0 0)
(0.1363466539738301 0 0)
(0.1377260114883123 0 0)
(0.137782727612302 0 0)
(0.1386069523130678 0 0)
(0.1381962655242815 0 0)
(0.1386705434807756 0 0)
(0.1370919300573082 0 0)
(0.137217251848825 0 0)
(0.137343145118529 0 0)
(0.1383051733232034 0 0)
(0.1393506216869816 0 0)
(0.1404103964106802 0 0)
(0.1420636212673665 0 0)
(0.1436798567667993 0 0)
(0.1450410744994975 0 0)
(0.1456725554136344 0 0)
(0.1451993960486171 0 0)
(0.1456987890253726 0 0)
(0.1453863776144383 0 0)
(0.1459803354919768 0 0)
(0.1455219658225808 0 0)
(0.1464875409147341 0 0)
(0.1476632087695736 0 0)
(0.1484807039549847 0 0)
(0.1498683245036929 0 0)
(0.1497365173019248 0 0)
(0.1507205247134879 0 0)
(0.1511285990326582 0 0)
(0.152707767428596 0 0)
(0.1522369829265766 0 0)
(0.1537241881729687 0 0)
(0.1552955994557871 0 0)
(0.1571218060445317 0 0)
(0.1581465611297059 0 0)
(0.1576716294531727 0 0)
(0.1579747875186284 0 0)
(0.1566927100139971 0 0)
(0.1558243818335341 0 0)
(0.1549035710195588 0 0)
(0.1539916510012797 0 0)
(0.155776302311763 0 0)
(0.1577772008127919 0 0)
(0.1605293251816655 0 0)
(0.1617203765967488 0 0)
(0.1636614227475697 0 0)
(0.1649775268629513 0 0)
(0.1649145564051754 0 0)
(0.1637887076589099 0 0)
(0.1621287464211553 0 0)
(0.1612072378190288 0 0)
(0.1604092148216563 0 0)
(0.1604655638295206 0 0)
(0.16090336047139 0 0)
(0.1621511412477776 0 0)
(0.1636812558191042 0 0)
(0.1653553678179311 0 0)
(0.1666103899849068 0 0)
(0.1670858676212857 0 0)
(0.1687203863568506 0 0)
(0.1700886390746539 0 0)
(0.1718967519838014 0 0)
(0.1731500056730711 0 0)
(0.1738512354928791 0 0)
(0.1741337727094758 0 0)
(0.1737805276495069 0 0)
(0.1734801227630618 0 0)
(0.1725201926600364 0 0)
(0.1727543995276586 0 0)
(0.1733910842030614 0 0)
(0.1755139313106096 0 0)
(0.1776298254422032 0 0)
(0.1792001842452416 0 0)
(0.1815539451445936 0 0)
(0.1822883735552438 0 0)
(0.1826301006597068 0 0)
(0.1821995096242262 0 0)
(0.1812954288480952 0 0)
(0.1809079002751659 0 0)
(0.1818961248846313 0 0)
(0.1831383424999962 0 0)
(0.1847334472200913 0 0)
(0.1864155624907067 0 0)
(0.1884490385428792 0 0)
(0.1893936422446015 0 0)
(0.1892100540101163 0 0)
(0.1880060263358102 0 0)
(0.1874428692916962 0 0)
(0.186917637186725 0 0)
(0.1872691466561314 0 0)
(0.1880088586412261 0 0)
(0.1900717273188631 0 0)
(0.1921098412903048 0 0)
(0.1941970655888709 0 0)
(0.1958582370145022 0 0)
(0.196212248196668 0 0)
(0.1959460850488183 0 0)
(0.1953207364905826 0 0)
(0.1947187966609563 0 0)
(0.1943331402123116 0 0)
(0.1940774118339958 0 0)
(0.194733739336225 0 0)
(0.1963868564163854 0 0)
(0.1979306078051452 0 0)
(0.1995161955232148 0 0)
(0.2006733638435186 0 0)
(0.2023888008680282 0 0)
(0.2038968418328343 0 0)
(0.2055970754033996 0 0)
(0.2063109245626624 0 0)
(0.2075125145742706 0 0)
(0.2081088010559613 0 0)
(0.2081917212143395 0 0)
(0.2080983927213858 0 0)
(0.2078361878924012 0 0)
(0.2082343218752895 0 0)
(0.2093901916597799 0 0)
(0.2108571659067997 0 0)
(0.2127111310561995 0 0)
(0.214092171935279 0 0)
(0.2158827297983438 0 0)
(0.2168025671943446 0 0)
(0.2172611582174729 0 0)
(0.2168416095193712 0 0)
(0.2175353871442449 0 0)
(0.2180069566587628 0 0)
)
;

boundaryField
{
    inlet
    {
        type            calculated;
        value           uniform (-7.903161626564826e-05 0 0);
    }
    outlet
    {
        type            calculated;
        value           uniform (0.2180069566587628 0 0);
    }
    frontAndBack
    {
        type            empty;
    }
}


// ************************************************************************* //
