/*--------------------------------*- C++ -*----------------------------------*\
| =========                 |                                                 |
| \\      /  F ield         | OpenFOAM: The Open Source CFD Toolbox           |
|  \\    /   O peration     | Version:  v2012                                 |
|   \\  /    A nd           | Website:  www.openfoam.com                      |
|    \\/     M anipulation  |                                                 |
\*---------------------------------------------------------------------------*/
FoamFile
{
    version     2.0;
    format      ascii;
    class       volScalarField;
    location    "0.017";
    object      p;
}
// * * * * * * * * * * * * * * * * * * * * * * * * * * * * * * * * * * * * * //

dimensions      [1 -1 -2 0 0 0 0];


internalField   nonuniform List<scalar> 
1000
(
101310.3248527374
101308.9098695489
101299.3147825729
101290.9056295114
101282.3452280682
101274.4015265029
101267.5941204263
101262.4547512265
101258.5927773883
101255.6004680703
101254.0511688529
101253.9901204466
101255.0632696914
101257.2652394204
101260.7154240372
101265.3635047169
101271.0449928171
101277.5720690197
101284.796869147
101292.6010556989
101300.8583033439
101309.4234091502
101318.1511241159
101326.9117408099
101335.6098166684
101344.1928888063
101352.5497859655
101360.5430334275
101368.1741599164
101374.9431615654
101380.1161885105
101384.6112332907
101388.1599629666
101390.6933303208
101391.9890595932
101392.0330886172
101391.0031206746
101388.7695422914
101385.1774007251
101380.2157051487
101373.9985067316
101366.6931196415
101358.4817507951
101349.555879907
101340.108195255
101330.3251457766
101320.3803214481
101310.4145492202
101300.5639622047
101291.0223982621
101281.9600462612
101273.5836621257
101266.5337268839
101261.3356613196
101257.3667923712
101254.2550880235
101252.3302449609
101251.6780300541
101252.2016644805
101253.6325058561
101256.2047844225
101260.0227440582
101265.060027832
101271.1792955894
101278.1918891139
101285.8987995067
101294.1072393774
101302.6442658018
101311.3670118441
101320.1593186156
101328.9363713494
101337.6533511856
101346.1983638519
101354.3730390659
101362.1590580568
101369.1737452779
101374.5695552553
101379.2341859606
101383.0310429535
101385.8350635546
101387.6566873505
101388.3109967062
101387.7589799903
101386.2108226381
101383.4080348013
101379.2337933376
101373.7020220132
101366.9236985264
101359.0612677421
101350.3124042657
101340.8992660373
101331.0482269963
101320.9686815066
101310.8268758131
101300.7628315918
101290.973411116
101281.6636685218
101273.0299421245
101265.6388725512
101260.0849843054
101255.9516769845
101252.597401245
101250.3086334386
101249.2560909618
101249.403924828
101250.3984158743
101252.3823635891
101255.5019764343
101259.8191797602
101265.286833556
101271.7811411716
101279.1371174906
101287.1679472024
101295.6757233041
101304.4659634892
101313.3713859573
101322.2741271654
101331.1079895386
101339.7783620101
101348.0947125971
101355.9968591139
101363.2566122828
101369.0084403878
101373.8306268949
101377.8881593504
101381.0260557838
101383.2572218962
101384.374368907
101384.3294171726
101383.2886434439
101381.120649864
101377.6589922289
101372.8427972912
101366.7147877097
101359.3793682325
101350.9910356756
101341.7575773882
101331.9186174068
101321.7158389743
101311.362582265
101301.037092014
101290.9559351067
101281.3590887467
101272.4397942111
101264.661121131
101258.6846721104
101254.3010500937
101250.6623319389
101248.0633408383
101246.6433166056
101246.3659000028
101247.0409462005
101248.584289234
101251.1638088352
101254.8706575405
101259.7153807445
101265.6293969419
101272.4988797495
101280.1785284432
101288.4876516147
101297.2225472681
101306.1908970672
101315.2313690574
101324.2184469807
101333.0534396909
101341.563813152
101349.5848755017
101357.0196914913
101363.2057983365
101368.1281261296
101372.4545139148
101375.8918707648
101378.407755175
101379.9822890717
101380.4508274425
101379.7929227092
101378.1620491414
101375.3190272888
101371.1588340516
101365.6668826237
101358.9025311807
101350.9843751691
101342.0848530686
101332.4159992873
101322.2167242276
101311.7318120171
101301.1798035787
101290.7990224516
101280.8719709546
101271.6265193704
101263.442017365
101256.9977229721
101252.3213584421
101248.4368033602
101245.5619650879
101243.7429389309
101243.063488711
101243.4730807577
101244.6636712467
101246.8034421233
101249.9996528265
101254.2966214047
101259.6666468439
101266.0332013257
101273.285285767
101281.276217198
101289.8286276306
101298.7512736641
101307.8536020719
101316.9716168596
101325.9935109646
101334.7383840437
101342.9401656528
101350.5776626114
101357.235709989
101362.2848165458
101366.8483145657
101370.538773852
101373.3616092707
101375.3405423305
101376.2430451126
101376.0036368244
101374.82213118
101372.535421093
101368.9872421152
101364.1121328674
101357.9380216493
101350.550715584
101342.0786043625
101332.6964495449
101322.6280142605
101312.12690253
101301.4329121482
101290.7963435344
101280.5367690971
101270.9321480127
101262.2980117154
101255.3157520459
101250.2644568422
101246.1633538318
101242.9893363235
101240.822760604
101239.8003551376
101239.8886764677
101240.779854996
101242.5475482488
101245.3040615548
101249.123514061
101254.0081566418
101259.9040601845
101266.7243812491
101274.3552761564
101282.6499598602
101291.4291872182
101300.5007402338
101309.6908579241
101318.8581157791
101327.8083971119
101336.2476462686
101344.1142414826
101351.1545733147
101356.5057241221
101361.1981084197
101365.1317739012
101368.2367612537
101370.4850232184
101371.7675283945
101371.98666773
101371.1774580298
101369.3625133109
101366.33835565
101362.0264425217
101356.4236982493
101349.5747098456
101341.5623834544
101332.5297153198
101322.6832661821
101312.2681674924
101301.5287407474
101290.7168052449
101280.165203339
101270.2002879328
101261.1111063758
101253.5428600176
101247.9913859868
101243.6721827795
101240.1835235727
101237.7440612455
101236.3891825464
101236.0992252099
101236.7340131279
101238.167047579
101240.5383894164
101243.9274475225
101248.3624715199
101253.8119997435
101260.2102498581
101267.4683032036
101275.4629693917
101284.0338196228
101293.003318902
101302.1937734169
101311.4348267016
101320.5488275684
101329.2633280188
101337.3609874857
101344.7093294052
101350.5772494513
101355.3281247927
101359.467376332
101362.7867716738
101365.2665902408
101366.9174739114
101367.5233524718
101367.0305292232
101365.6240205688
101363.0891503208
101359.3078396253
101354.2411100277
101347.9069163707
101340.3710278493
101331.7568286278
101322.2375544081
101312.026515466
101301.3633063912
101290.499490789
101279.7539782709
101269.4870492901
101260.0031627087
101251.8575711924
101245.6994087108
101241.1796881864
101237.3963478558
101234.6684730606
101232.9412499037
101232.2945209213
101232.6863386028
101233.8226312138
101235.8435693918
101238.8422393204
101242.8649219388
101247.9012797076
101253.9039196491
101260.7999817133
101268.4868191154
101276.8279276523
101285.6591239231
101294.8038856147
101304.0943089262
101313.3781934986
101322.4357146908
101330.9471485054
101338.823938841
101345.7952597967
101351.0460892284
101355.6376762705
101359.4982722784
101362.5527389757
101364.7674075771
101366.118175329
101366.4449797455
101365.7272202853
101364.1118985002
101361.417620338
101357.5710153323
101352.5506068749
101346.3904033525
101339.176817385
101331.0446236676
101322.1630968992
101312.7308692611
101302.9700757463
101293.1119510528
101283.4287167706
101274.2071979631
101265.674026856
101258.2086606074
101252.2859727677
101247.7523238287
101243.878790149
101240.8829332275
101238.8028220784
101237.5980365679
101237.3095104054
101237.8952419017
101239.1612427032
101241.1694466336
101243.9449059875
101247.522465933
101251.9079152248
101257.069032492
101262.9481925921
101269.4715233184
101276.5498565919
101284.0814105671
101291.9550687896
101300.0485710046
101308.1965687058
101316.1451619551
101323.7245106739
101330.7270439743
101336.4368751605
101341.2323490545
101345.3822770908
101348.6813578036
101351.1006465791
101352.6967595232
101353.2561773649
101352.6997608605
101351.2780505919
101348.8578660491
101345.3760545093
101340.8098039362
101335.1921018375
101328.5910176732
101321.1085235702
101312.8879919172
101304.1086174578
101294.9625531351
101285.6607791876
101276.4751077947
101267.6775939774
101259.5254046705
101252.4999822191
101247.0113239031
101242.7474892895
101239.1594361322
101236.5006015093
101234.7101232615
101233.8926388143
101234.06508104
101234.9587762036
101236.58712112
101238.9830414244
101242.1929136339
101246.2395852942
101251.104947917
101256.7372033135
101263.0656770575
101270.0081020226
101277.4699465894
101285.3366867473
101293.4770889473
101301.7452293309
101309.9003473851
101317.6612233919
101324.8936392962
101331.0858809314
101335.8597485203
101340.1303959235
101343.5686827282
101346.1731353145
101347.9626337415
101348.7535557922
101348.4711044239
101347.3092474561
101345.2225610884
101342.1393645175
101338.006358144
101332.8243522745
101326.6481160113
101319.5730104362
101311.7212999241
101303.2406481046
101294.3042036503
101285.1054650212
101275.888850737
101266.9377931028
101258.5087701386
101250.9906849994
101244.9468308627
101240.4097529442
101236.6166801062
101233.653575987
101231.611152129
101230.5236713824
101230.3701784917
101231.0280072105
101232.3945047099
101234.5188163366
101237.4398371022
101241.1904321821
101245.7638746413
101251.1175556935
101257.1878897047
101263.8987424438
101271.1607956376
101278.8660895538
101286.8951892679
101295.1198946576
101303.3254691222
101311.2159745264
101318.6559448896
101325.2813036688
101330.3594373775
101334.6966286457
101338.3259051444
101341.1361211586
101343.1028752778
101344.1119560049
101344.1236990233
101343.2344350043
101341.4719573065
101338.7450060038
101334.989408185
101330.1998106425
101324.4308374583
101317.7609124631
101310.2811225605
101302.1143213772
101293.4235285641
101284.3893956957
101275.2233389954
101266.1993311027
101257.5845928832
101249.695494661
101243.1175382129
101238.1606126903
101234.2167392102
101230.9792549845
101228.6728436385
101227.2420928062
101226.7578452399
101227.2004843452
101228.3011693035
101230.1440104348
101232.7706505326
101236.2192973499
101240.4964102159
101245.5698099285
101251.3808648387
101257.8573700861
101264.9165611484
101272.4602945616
101280.3739015627
101288.5304033442
101296.7543457509
101304.7801453581
101312.3811542572
101319.3090675336
101324.9504923693
101329.2924835014
101333.1133651073
101336.1044465069
101338.2292078268
101339.4812899974
101339.7648637665
101339.0908236157
101337.6269727397
101335.231420857
101331.8476794305
101327.4631719498
101322.1100447437
101315.8428415855
101308.7391481162
101300.9112488421
101292.5052482922
101283.6841573199
101274.6328276283
101265.602196326
101256.8722204304
101248.7218315579
101241.6366683745
101236.1246042108
101232.008769777
101228.5392870602
101225.9490395493
101224.2151813303
101223.4377826569
101223.6080099169
101224.4525138474
101226.008018876
101228.3282415991
101231.4638826484
101235.4319364348
101240.2094648231
101245.7469644031
101251.981426862
101258.8374894257
101266.2222182684
101274.0220754691
101282.112248684
101290.3437960663
101298.4738249775
101306.2297277294
101313.4229525697
101319.5478401996
101324.1161768573
101328.0128815647
101331.1658054302
101333.4611661854
101334.9282683265
101335.429086185
101334.9469035698
101333.7295277961
101331.6545812273
101328.6521188387
101324.684337039
101319.7612534856
101313.9302378281
101307.2636909131
101299.8523323086
101291.8122728601
101283.2900942382
101274.4526778414
101265.514590077
101256.7549755054
101248.4428987979
101240.940297332
101234.8622118928
101230.4054670379
101226.7834168903
101223.9119855176
101221.9167797449
101220.8636798259
101220.7184659213
101221.3218284121
101222.6028434011
101224.6312036173
101227.4578549788
101231.1106106957
101235.5789174605
101240.8266822278
101246.8002543535
101253.4280205346
101260.62121439
101268.2728334446
101276.2623875633
101284.4544381524
101292.638943582
101300.5465505531
101307.9727890727
101314.5229524202
101319.6118365504
101323.5810510855
101326.93385288
101329.4431896421
101331.1408452438
101331.8852775133
101331.6567475262
101330.6987225733
101328.9396568771
101326.2927436642
101322.7027339041
101318.1741157634
101312.7489833466
101306.4827554955
101299.4456762205
101291.7383761415
101283.495417546
101274.8675537514
101266.0350901649
101257.2574864062
101248.8140367554
101240.9987667372
101234.3792958616
101229.3953952898
101225.6142555755
101222.4591752944
101220.2057008742
101218.8165693231
101218.3456999191
101218.7427278723
101219.7658978772
101221.5115245872
101224.0339162781
101227.3715250182
101231.5301554794
101236.4828376055
101242.1789154748
101248.5532897516
101255.5290428863
101263.0094302073
101270.8752137394
101278.9960332538
101287.196690028
101295.221588254
101302.8343874821
101309.7482685623
101315.3858789635
101319.5640350995
101323.1146318961
101325.8868117162
101327.8252119454
101328.8210997566
101328.8862989379
101328.1730702738
101326.7042525064
101324.4040702631
101321.2127061159
101317.1047827612
101312.0940582786
101306.2225495708
101299.5584414385
101292.1935945728
101284.2437322284
101275.846280238
101267.1597896702
101258.4098526732
101249.8829017552
101241.8473584424
101234.7360467372
101229.1532649939
101225.0847341388
101221.7048734622
101219.1656162508
101217.4681915986
101216.7003815982
101216.8380351454
101217.6195223161
101219.0917858256
101221.3185947584
101224.3504951464
101228.2012140993
101232.850315388
101238.2576615444
101244.3702226873
101251.1173294745
101258.4055592825
101266.1205341035
101274.139058172
101282.311367274
101290.4036637035
101298.1662233409
101305.3695937582
101311.4972022983
101316.1095634055
101319.8186170864
101322.8517564493
101325.0212057676
101326.3394733396
101326.7413233018
101326.2598285719
101325.1076141501
101323.1674294585
101320.3703706588
101316.6725067413
101312.0763194653
101306.6197182932
101300.3568915777
101293.3564318446
101285.7156205265
101277.5652605303
101269.0526949159
101260.3676214806
101251.7862364204
101243.5805648277
101236.0792870099
101229.9153795237
101225.4063324847
101221.8204803227
101218.9674138895
101216.9867914406
101215.9265415308
101215.7526928069
101216.3162284584
101217.5359640664
101219.4863896609
101222.2150664812
101225.7498894578
101230.0876396594
101235.2025412889
101241.0471234585
101247.5507465413
101254.6260350436
101262.1697377782
101270.0628752
101278.1696534095
101286.2886684614
101294.1688077476
101301.5916346616
101308.1588062142
101313.3274485576
101317.2275252813
101320.5204840982
101322.9639265009
101324.5966176307
101325.3084969709
101325.0942883504
101324.2118759698
101322.5875085471
101320.1466164431
101316.8353602527
101312.6388695077
101307.5713365735
101301.6696452188
101294.9977054404
101287.6473684046
101279.7360576914
101271.3992643556
101262.800383106
101254.1881931506
101245.8491228817
101238.0578550103
101231.3555073738
101226.252743879
101222.4431632228
101219.282185571
101217.0423893677
101215.6524390778
101215.157903893
101215.524632302
101216.5021982015
101218.1827215896
101220.6167999349
101223.843887355
101227.8757771161
101232.6926290777
101238.2504058707
101244.4902295435
101251.3394042936
101258.7016399833
101266.4557519629
101274.4721491019
101282.5818911383
101290.5414523818
101298.126063972
101305.0489889253
101310.7456069426
101314.98472536
101318.5067956949
101321.2768898986
101323.2098403663
101324.2254316295
101324.3404056415
101323.7042888385
101322.366145435
101320.2515658102
101317.296504536
101313.458758498
101308.7390742439
101303.1741394284
101296.822204045
101289.7564328422
101282.0762263639
101273.9134080918
101265.419143371
101256.8051299638
101248.3573164804
101240.3369669502
101233.1623176411
101227.4719322723
101223.3010371963
101219.8786838697
101217.3182344474
101215.6060093461
101214.8210953119
101214.9466021523
101215.7125364886
101217.1499112354
101219.3076741613
101222.2348626132
101225.9535558607
101230.4557918159
101235.713824627
101241.6829436445
101248.2945784386
101255.4549910102
101263.0508582934
101270.959940578
101279.0338174632
101287.0457631425
101294.7596029398
101301.9503830518
101308.1209270931
101312.8529267669
101316.5775118337
101319.6470464079
101321.8356886568
101323.1925126252
101323.6527402794
101323.2347569293
101322.1744082819
101320.3645273232
101317.7406579207
101314.2555721378
101309.8996501165
101304.6938693476
101298.6772228817
101291.9104295208
101284.485961396
101276.5267528201
101268.1707297467
101259.5977558822
101251.0821244605
101242.8938867383
101235.3430638344
101229.0703870545
101224.4174813569
101220.7323930305
101217.8215584701
101215.8251999903
101214.752866915
101214.5676062786
101215.1404834681
101216.3583285049
101218.2723334472
101220.9169976534
101224.327504246
101228.5165228918
101233.4706140264
101239.150119966
101245.4933089929
101252.4239618306
101259.8451450519
101267.6340045165
101275.6493460882
101283.6909882885
101291.5132958893
101298.9054535264
101305.4869494171
101310.7429792425
101314.7124858494
101318.0488778558
101320.5456142834
101322.2339701688
101323.011874531
101322.868815593
101322.0508765663
101320.5131968405
101318.1980021944
101315.0541982313
101311.0554868946
101306.203392471
101300.527968853
101294.0854873341
101286.951298125
101279.2247334045
101271.0350672686
101262.5431954953
101253.994592183
101245.6762231177
101237.846907835
101231.0498852396
101225.815044063
101221.8532210059
101218.5938851398
101216.3090688219
101214.8816119872
101214.3636185091
101214.754924724
101215.7676360566
101217.4630109575
101219.8619057065
101222.9963095761
101226.8849599174
101231.5217897221
101236.882529096
101242.9310730528
101249.6108995962
101256.8314697128
101264.4716641829
101272.4014245368
101280.44790503
101288.3601944966
101295.9206281455
101302.8505219994
101308.6032544974
101312.9668171493
101316.5196044321
101319.3244254108
101321.2728705109
101322.3471918057
101322.5537360251
101321.990501501
101320.7430226606
101318.7240827666
101315.881092757
101312.1841856953
101307.6474764863
101302.3133884402
101296.2267615701
101289.432613939
101281.9996883185
101274.0343856136
101265.6682145595
101257.1116343838
101248.6749820629
101240.6199167766
101233.3603136513
101227.5445355326
101223.2126566034
101219.677013531
101217.0452396795
101215.2843246901
101214.4463672661
101214.5287163196
101215.3151588283
101216.8053616935
101219.0095536125
101221.9346724463
101225.578298485
101229.9275218905
101234.9652014476
101240.6718239437
101247.0312451867
101253.9657996525
101261.5502995052
101268.9929794383
101279.6323624836
)
;

boundaryField
{
    inlet
    {
        type            uniformFixedValue;
        uniformValue    sine;
        uniformValueCoeffs
        {
            frequency       constant 3000;
            scale           constant 50;
            level           constant 101325;
        }
        value           uniform 101323.6440830864;
    }
    outlet
    {
        type            waveTransmissive;
        gamma           1.4;
        fieldInf        101325;
        lInf            2.25;
        value           uniform 101281.5566974664;
    }
    frontAndBack
    {
        type            empty;
    }
}


// ************************************************************************* //
