/*--------------------------------*- C++ -*----------------------------------*\
| =========                 |                                                 |
| \\      /  F ield         | OpenFOAM: The Open Source CFD Toolbox           |
|  \\    /   O peration     | Version:  v2012                                 |
|   \\  /    A nd           | Website:  www.openfoam.com                      |
|    \\/     M anipulation  |                                                 |
\*---------------------------------------------------------------------------*/
FoamFile
{
    version     2.0;
    format      ascii;
    class       volScalarField;
    location    "0.017";
    object      pMean;
}
// * * * * * * * * * * * * * * * * * * * * * * * * * * * * * * * * * * * * * //

dimensions      [1 -1 -2 0 0 0 0];


internalField   nonuniform List<scalar> 
1000
(
101325.0221177903
101325.0101480939
101325.0103215674
101325.0310471541
101325.0418664109
101325.0580183657
101325.0725765648
101325.0902403507
101325.1075867901
101325.125420639
101325.1425636194
101325.1586174102
101325.1728604882
101325.1862907872
101325.1955143798
101325.2032722994
101325.2078577736
101325.2094233549
101325.2075370255
101325.2022611209
101325.1934212851
101325.1813485802
101325.165997549
101325.1484719096
101325.1277659653
101325.1055901302
101325.0809178671
101325.0541679666
101325.0253427879
101324.9958274591
101324.9659413637
101324.9363805941
101324.907277366
101324.8786822802
101324.8514386389
101324.8249861092
101324.8013787014
101324.7775744268
101324.7567768686
101324.7384059996
101324.7226434543
101324.7097415732
101324.6997082867
101324.6926030015
101324.6885274292
101324.6873631851
101324.68963114
101324.6948652775
101324.7027408977
101324.7138277129
101324.7262086462
101324.7399264406
101324.7555127834
101324.7720821865
101324.7890884334
101324.8060931665
101324.8225872461
101324.8384737377
101324.8526358854
101324.8662201839
101324.8763292398
101324.8844560226
101324.890213794
101324.8929070121
101324.8923852501
101324.8883991912
101324.8808322137
101324.8698444747
101324.8555159672
101324.8383363533
101324.8189266723
101324.7965108343
101324.7733926229
101324.7470311349
101324.7184133041
101324.6888167788
101324.6587942893
101324.6291032031
101324.5997826973
101324.5712221413
101324.5435960771
101324.5171635542
101324.4927370432
101324.4692460329
101324.447291292
101324.4280727188
101324.4111017223
101324.3969534299
101324.3855758529
101324.3770726095
101324.371538014
101324.36906602
101324.3695044245
101324.3737633257
101324.3799049169
101324.3908212586
101324.4025077203
101324.4155164658
101324.4301641159
101324.4460413147
101324.4624167161
101324.4788495183
101324.495034752
101324.5103953867
101324.5247822218
101324.5377530018
101324.5490910466
101324.5571270352
101324.5634559772
101324.5669713054
101324.5675310579
101324.5647861466
101324.558441592
101324.5486074036
101324.5353849133
101324.5187481094
101324.4999804622
101324.4777775293
101324.4555378993
101324.4298356678
101324.4016355399
101324.3718262351
101324.341571787
101324.3115236157
101324.281916235
101324.2530454352
101324.2249370898
101324.1983171001
101324.1728974936
101324.1498121155
101324.1268758289
101324.1065912266
101324.0886118392
101324.0732417773
101324.0605456051
101324.0505911939
101324.0435405373
101324.0395147964
101324.0382750306
101324.0406731349
101324.0457193588
101324.0549238939
101324.0665595566
101324.0787569534
101324.092308734
101324.1073468735
101324.122898083
101324.1387416541
101324.1543062414
101324.1692073615
101324.1833758749
101324.1958679073
101324.2077690263
101324.2160681079
101324.222248698
101324.2263496713
101324.2275642159
101324.2257541906
101324.2204674127
101324.2116934721
101324.1994240649
101324.1836684096
101324.1649923756
101324.1438445755
101324.1206514763
101324.096866768
101324.0686789637
101324.038726572
101324.0080135541
101323.9774022126
101323.947294964
101323.9177782471
101323.8890939651
101323.8617569846
101323.8355401398
101323.8118934086
101323.7887665496
101323.7669624931
101323.7478578503
101323.7311255668
101323.7170185444
101323.7055628634
101323.6968322367
101323.6910259527
101323.688086731
101323.6882027316
101323.6918269758
101323.6984352629
101323.7102250782
101323.7213107938
101323.7337866256
101323.7476457614
101323.7622546394
101323.7772327774
101323.7920274637
101323.8063502261
101323.8198837499
101323.8320795725
101323.8434381097
101323.8527234351
101323.8584119509
101323.8624884804
101323.8640030425
101323.8627578618
101323.8582350443
101323.8502312947
101323.838722077
101323.8237834729
101323.8053419883
101323.7844424396
101323.7607135885
101323.7381533392
101323.7103022098
101323.6802124864
101323.6487991216
101323.6174167131
101323.5864724408
101323.5561634986
101323.5266608071
101323.4982916086
101323.4712951017
101323.4461427388
101323.4232540504
101323.4001027274
101323.379456801
101323.3613707218
101323.3457920536
101323.3328221282
101323.3223715896
101323.3147442602
101323.3100458343
101323.3080082335
101323.3094764056
101323.3136400146
101323.3244826342
101323.3348930333
101323.3463091263
101323.3588385851
101323.3724073227
101323.3863655666
101323.400377279
101323.4139744492
101323.4267120924
101323.438547019
101323.4489354534
101323.4589100344
101323.4644393409
101323.4680999626
101323.4698082682
101323.4688608711
101323.4648786679
101323.4575094055
101323.4466579746
101323.4324228258
101323.4144494376
101323.3936301497
101323.369648834
101323.3468662025
101323.320283714
101323.2901765462
101323.2581380465
101323.2258279267
101323.1938614106
101323.1625960565
101323.1320806556
101323.1025023504
101323.0744092981
101323.047741096
101323.0240692005
101323.0000812939
101322.9777438369
101322.9582700778
101322.9410598512
101322.9264636435
101322.9142813804
101322.9047798555
101322.8980722073
101322.8939989692
101322.893008204
101322.8949027548
101322.9023934617
101322.9133490001
101322.9232106861
101322.9344528504
101322.9467104951
101322.959428551
101322.9724219663
101322.9850939379
101322.9968825728
101323.0080248109
101323.0174635623
101323.0269270073
101323.0329209434
101323.0358583129
101323.0373862571
101323.0363502474
101323.0325603956
101323.0255724183
101323.0151533849
101323.0013000457
101322.9838856756
101322.9629486642
101322.9392017743
101322.9138514433
101322.8903976973
101322.8594850198
101322.8272417317
101322.7938150416
101322.7606255767
101322.7280818128
101322.6963289656
101322.6653488521
101322.6358920471
101322.6075853733
101322.5821478256
101322.5580121748
101322.5337785396
101322.5123921744
101322.4933741115
101322.4769177127
101322.4629220577
101322.4514074128
101322.4425251673
101322.4365053561
101322.4329210223
101322.4327359647
101322.4352932643
101322.4477150672
101322.4553474215
101322.465564062
101322.4763613452
101322.4878547444
101322.4996274354
101322.5113689453
101322.5223630516
101322.5326375502
101322.541430395
101322.5496867827
101322.5569270502
101322.5593446838
101322.5600237975
101322.5588684023
101322.5551136309
101322.5484785548
101322.5384407352
101322.5249765069
101322.5081740305
101322.4874904014
101322.4638202141
101322.4362870055
101322.414986479
101322.3840113795
101322.3515134349
101322.3169284366
101322.2819061788
101322.2473578706
101322.2134842046
101322.1802850158
101322.1480887171
101322.117109151
101322.0879128582
101322.0622095993
101322.0346753419
101322.008653724
101321.985543279
101321.9644837721
101321.9455386882
101321.9286239194
101321.9136695825
101321.9011489124
101321.8903913688
101321.882349247
101321.8751463855
101321.8798476966
101321.8802917069
101321.8821086962
101321.8847393469
101321.8884926788
101321.8928403408
101321.8977193448
101321.9023718265
101321.9065318318
101321.9102136834
101321.9130412798
101321.9169785449
101321.9165191327
101321.9136703964
101321.910630249
101321.9058037739
101321.8992136907
101321.890375074
101321.8789996314
101321.8652763669
101321.8485687268
101321.8295539346
101321.8065308045
101321.7890827359
101321.766668779
101321.7399472766
101321.7112959033
101321.6812882944
101321.6507706306
101321.6206621897
101321.5909576358
101321.5615487952
101321.5332396947
101321.5056386856
101321.4813180429
101321.4560845365
101321.4307947643
101321.408187679
101321.3870390441
101321.3675535794
101321.3496690156
101321.333142398
101321.3183870925
101321.305103287
101321.2937849015
101321.2834591764
101321.2803277147
101321.2813551865
101321.2790927931
101321.2787994775
101321.2795650333
101321.2812772116
101321.2837279225
101321.2864233833
101321.2886848859
101321.290817801
101321.2918528399
101321.2938183732
101321.2935448984
101321.2896507125
101321.2853865483
101321.2796746636
101321.2723091232
101321.2629526986
101321.2511869892
101321.2369040009
101321.2200226513
101321.2003028706
101321.1777815905
101321.1542590494
101321.1365219124
101321.1079807066
101321.0789512773
101321.0478103833
101321.0157255926
101320.9836859825
101320.952262891
101320.9210038022
101320.8907675171
101320.8610748874
101320.8339207177
101320.8079936864
101320.7809344836
101320.7555570179
101320.7322291602
101320.710475233
101320.6903871486
101320.6717333882
101320.6544543252
101320.6389140264
101320.6247008176
101320.61275315
101320.6014705242
101320.6050499484
101320.5993106797
101320.5971731512
101320.5958094717
101320.5955297446
101320.5959747931
101320.5969629428
101320.5977166857
101320.5982681715
101320.5979840118
101320.5976287174
101320.5976398511
101320.5930904091
101320.5865052737
101320.5796486444
101320.5711082723
101320.5607775097
101320.5483333935
101320.5331722142
101320.5157331558
101320.4951818794
101320.4726376746
101320.4447435916
101320.4291476986
101320.4002945053
101320.3705421584
101320.3386427818
101320.305361511
101320.2715938271
101320.2383714103
101320.205461314
101320.1731728029
101320.1417270465
101320.1114367625
101320.0849421154
101320.0564767828
101320.027567019
101320.0021228067
101319.9779946428
101319.9555887482
101319.9347652022
101319.9151147904
101319.8971836415
101319.8803774278
101319.8660645961
101319.8505284353
101319.8505159357
101319.8447406704
101319.839778361
101319.8364339377
101319.8341330692
101319.8325893451
101319.8316330214
101319.8308968759
101319.8297233326
101319.8282315954
101319.825734079
101319.8246672331
101319.82013784
101319.8116063613
101319.8036674512
101319.7939379662
101319.7825563501
101319.7692685033
101319.7534450282
101319.7351807258
101319.7139473047
101319.6907580158
101319.662622653
101319.6413522254
101319.6166859097
101319.5854786403
101319.5531537463
101319.5189841623
101319.4837850094
101319.4487217362
101319.4142342774
101319.3799895547
101319.3467752911
101319.3141350287
101319.2844199181
101319.2553422854
101319.2244566074
101319.1965239491
101319.1701296035
101319.1454027228
101319.1223072882
101319.1006475074
101319.0802361369
101319.0612023711
101319.0439991586
101319.0277615297
101319.0172470466
101319.0157365827
101319.00717205
101319.0020281197
101318.997798066
101318.994372473
101318.9914585966
101318.989016792
101318.9863157322
101318.9834596598
101318.9796687326
101318.9759951216
101318.9719151575
101318.9629541578
101318.9529218345
101318.9422295358
101318.9297226029
101318.9154717807
101318.8990810921
101318.8799726909
101318.8582816962
101318.8337800447
101318.8073491595
101318.7767353932
101318.7592210965
101318.7256088023
101318.6931491673
101318.6583472189
101318.6221970709
101318.5855147719
101318.5493102639
101318.5134398436
101318.4784077124
101318.4440013329
101318.4111610022
101318.3812328003
101318.3494052561
101318.3177168311
101318.2893383846
101318.2621656646
101318.2368261167
101318.2131356242
101318.1905599561
101318.1694629868
101318.1494742804
101318.1324060599
101318.1132199817
101318.1145428167
101318.1032501893
101318.0960430035
101318.0900223299
101318.0850764694
101318.0805248183
101318.0764335938
101318.0724204254
101318.0682699769
101318.0635859066
101318.0579301706
101318.0540195393
101318.0456271947
101318.0330111346
101318.0217814409
101318.0083185489
101317.9933424377
101317.9764417889
101317.9570057314
101317.9349335536
101317.9097104445
101317.8832503983
101317.8501631233
101317.831386835
101317.800207024
101317.7664768556
101317.7313863349
101317.6947913375
101317.6570847409
101317.6194608032
101317.5822151904
101317.5456223551
101317.5099044295
101317.4747433699
101317.4433207012
101317.4111650277
101317.3767131283
101317.3466432576
101317.3175548113
101317.2902778097
101317.2647627337
101317.2406995751
101317.2177947677
101317.1958579461
101317.1766391796
101317.1565111068
101317.1491909355
101317.1420701977
101317.1315988209
101317.124150602
101317.1178681753
101317.1120720391
101317.1065398185
101317.1011513021
101317.095859893
101317.0902772952
101317.0836985747
101317.077737304
101317.0702206341
101317.0573225515
101317.0449423079
101317.0310909747
101317.0154376952
101316.9980584252
101316.9785915653
101316.95629224
101316.9309499611
101316.9035438691
101316.8729437935
101316.8438133694
101316.8210212331
101316.7851182586
101316.7502083712
101316.7133282295
101316.6752622507
101316.6365368325
101316.5980190085
101316.560167182
101316.5231588856
101316.4870543823
101316.4524672483
101316.420366775
101316.3856775279
101316.3525168773
101316.3222408074
101316.293135882
101316.2659738207
101316.2405417253
101316.2163721081
101316.1931426406
101316.1712467712
101316.1526242268
101316.1322945846
101316.133858612
101316.1188190111
101316.1104883926
101316.1027946784
101316.0962690441
101316.0896742204
101316.0831166804
101316.0766882988
101316.0703067772
101316.0635118444
101316.0556023219
101316.0490645591
101316.0374752922
101316.022549722
101316.0088161394
101315.992702214
101315.9749977079
101315.9554335787
101315.9334566898
101315.908386616
101315.8800635827
101315.8514103375
101315.8143755654
101315.798641319
101315.761359115
101315.7263054903
101315.6892774123
101315.6512917944
101315.6121350326
101315.5727392177
101315.5336048786
101315.49561954
101315.4586277924
101315.4220463332
101315.3898836838
101315.3558073355
101315.3191759643
101315.2880738248
101315.2576103157
101315.2290366401
101315.2023420518
101315.1773734376
101315.1532518535
101315.129800042
101315.1099577392
101315.087185856
101315.0845850253
101315.0727074771
101315.0615009145
101315.0528967327
101315.045683087
101315.0387581959
101315.0315308434
101315.0240489224
101315.0170341147
101315.0098687541
101315.0012988357
101314.9945675335
101314.9844523319
101314.968466726
101314.9548122139
101314.9388112582
101314.9210540488
101314.9015325541
101314.8800548686
101314.8557111869
101314.8276853041
101314.7985325632
101314.764556523
101314.7385809127
101314.7111141496
101314.6737107047
101314.6372264094
101314.5993832492
101314.5606310654
101314.5210104338
101314.481017402
101314.4422075419
101314.4043075365
101314.3674879853
101314.3329394121
101314.2993692369
101314.2629014326
101314.2298140852
101314.1987653995
101314.1691091796
101314.1412803401
101314.1154582632
101314.0910404829
101314.066921713
101314.0447076653
101314.0249136413
101314.0071717124
101314.0075362538
101313.9913044823
101313.9823405176
101313.9741161627
101313.9671617581
101313.959831739
101313.9516617723
101313.9438002253
101313.9360620388
101313.9282769972
101313.9193663855
101313.9109898443
101313.897193458
101313.8812888192
101313.8660858129
101313.8484807976
101313.8290555611
101313.8078509113
101313.7845118076
101313.7575320871
101313.7272613619
101313.6975978752
101313.6578103237
101313.6459645104
101313.6036049313
101313.5681980222
101313.5302182982
101313.4920113372
101313.4529149712
101313.4127264302
101313.3728505531
101313.3342668947
101313.2973730541
101313.2605588825
101313.2283592483
101313.1935147979
101313.1565502482
101313.1255392053
101313.0950310833
101313.0663141199
101313.0394067749
101313.0146163089
101312.9904263451
101312.9664876193
101312.9471758687
101312.9222294843
101312.9261957731
101312.9096133945
101312.8986732716
101312.8894340982
101312.8819811398
101312.8749294651
101312.8668064048
101312.8579589375
101312.8494662752
101312.841648806
101312.8315522547
101312.8250642372
101312.8134302344
101312.7946815467
101312.7805585333
101312.7632197397
101312.7442481634
101312.7231058285
101312.7003991744
101312.6746673678
101312.6449804014
101312.6147900025
101312.5783460328
101312.5560293654
101312.525059843
101312.4865031392
101312.4491544271
101312.4109918358
101312.3725425948
101312.3331710298
101312.2926421449
101312.2531646173
101312.2153625895
101312.1783484798
101312.145036828
101312.1110732686
101312.0733045663
101312.0410564794
101312.0100719171
101311.9807400785
101311.9528470582
101311.9271477607
101311.902881689
101311.8787596123
101311.8568793694
101311.8362081411
101311.8218554908
101311.8215686036
101311.8045617631
101311.7949392953
101311.7864318705
101311.7792642478
101311.7719815954
101311.7628977878
101311.7535878683
101311.7446378685
101311.7359506698
101311.7266109573
101311.7169215876
101311.7012389303
101311.6846803532
101311.6683742946
101311.6498488622
101311.6292290751
101311.6066070405
101311.5818630536
101311.5535989066
101311.5221133887
101311.4913686296
101311.4495786357
101311.4423672546
101311.3954417762
101311.3596040899
101311.3209096222
101311.2826969058
101311.2442816174
101311.2044906903
101311.1642668308
101311.1249537061
101311.088466903
101311.0517262157
101311.0200296646
101310.9850260989
101310.9479792965
101310.9174076284
101310.8872680691
101310.8590308151
101310.8322495588
101310.8074484424
101310.7831643622
101310.7598806619
101310.7411554796
101310.7147626823
101310.725204123
101310.7045045987
101310.693870423
101310.6840001913
101310.6762220552
101310.6690759557
101310.6610541327
101310.6517013079
101310.6413199783
101310.6326830495
101310.6209467412
101310.6151616449
101310.6026961985
101310.5811866638
101310.5668211301
101310.5484928033
101310.5287545708
101310.5066798514
101310.4826956472
101310.4547287893
101310.4247565264
101310.3936345759
101310.3554771008
101310.3360238207
101310.3032400493
101310.2632432232
101310.2252800703
101310.186898309
101310.1486665609
101310.1099597921
101310.0706395521
101310.0306034591
101309.9925765464
101309.9547508541
101309.9231198272
101309.8899590439
101309.8508628167
101309.8195941267
101309.7889131126
101309.7600085081
101309.732649864
101309.7076981222
101309.6823329177
101309.6587374026
101309.6379482573
101309.6174446366
101309.6036267808
101309.6091083982
101309.5870964358
101309.5780541874
101309.5691921968
101309.5617878169
101309.5539491671
101309.5453094152
101309.5359158002
101309.5258223074
101309.514368987
101309.5044645466
101309.4954142794
101309.4782466136
101309.4605131941
101309.4439384996
101309.4242740167
101309.402278097
101309.3790085068
101309.3541864004
101309.3217588175
101309.2823650279
101309.2347546212
101309.1975948987
)
;

boundaryField
{
    inlet
    {
        type            calculated;
        value           uniform 101325.0000000004;
    }
    outlet
    {
        type            calculated;
        value           uniform 101309.2155749765;
    }
    frontAndBack
    {
        type            empty;
    }
}


// ************************************************************************* //
