/*--------------------------------*- C++ -*----------------------------------*\
| =========                 |                                                 |
| \\      /  F ield         | OpenFOAM: The Open Source CFD Toolbox           |
|  \\    /   O peration     | Version:  v2012                                 |
|   \\  /    A nd           | Website:  www.openfoam.com                      |
|    \\/     M anipulation  |                                                 |
\*---------------------------------------------------------------------------*/
FoamFile
{
    version     2.0;
    format      ascii;
    class       volScalarField;
    location    "0.017";
    object      rho;
}
// * * * * * * * * * * * * * * * * * * * * * * * * * * * * * * * * * * * * * //

dimensions      [1 -3 0 0 0 0 0];


internalField   nonuniform List<scalar> 
1000
(
1.176261042771912
1.176279367541914
1.176216470749239
1.176148122059499
1.176074752945459
1.176006597238261
1.175948314184113
1.175903755587107
1.175869445984336
1.175842079953883
1.17582729304599
1.175824814574469
1.175831621030561
1.175848897516148
1.175877123973252
1.17591543309278
1.175962434253226
1.176016598372245
1.17607668683883
1.176141684553855
1.176210500118923
1.176281882538559
1.176354585811151
1.176427505560605
1.176499838153723
1.176571150551038
1.176640529148437
1.176706841072084
1.176770104336762
1.176826182693604
1.176869004951
1.176906192579874
1.176935528748485
1.176956449636283
1.176967142957415
1.176967455109962
1.176958850454879
1.176940304360593
1.176910516747003
1.176869383015439
1.17681784781463
1.176757298634675
1.176689244010771
1.176615268035912
1.17653696409166
1.176455873644115
1.176373432388291
1.176290806189889
1.176209124161383
1.176129995623389
1.176054834540659
1.175985358124331
1.175926880334923
1.175883760799473
1.175850837118986
1.17582502475491
1.175809058079086
1.175803647841647
1.175807991177797
1.1758198602171
1.175841196659354
1.175872863776743
1.175914642513449
1.175965393438514
1.176023551337559
1.176087465205538
1.176155535844531
1.176226328892322
1.176298659656752
1.176371565110703
1.176444342218651
1.17651661957196
1.176587469567305
1.176655247627022
1.176719802073996
1.176777960391679
1.176822696111901
1.176861369310961
1.176892847719009
1.176916094671288
1.176931196881646
1.176936621442463
1.176932045009517
1.176919210068011
1.176895973495812
1.176861366565501
1.176815504341668
1.176759306412168
1.176694119039284
1.176621580611496
1.176543532608587
1.176461851611311
1.176378273584068
1.176294176884802
1.176210722572447
1.176129543214075
1.176052339493103
1.175980739990203
1.175919444446904
1.175873384131981
1.175839104685101
1.175811285807177
1.17579230361382
1.175783574165034
1.175784800192198
1.175793048073112
1.175809502110523
1.175835374734035
1.175871179261551
1.175916524392603
1.175970383030825
1.176031386496003
1.176097985124882
1.176168537372432
1.176241430224388
1.176315276366216
1.176389098394384
1.17646234740733
1.176534238976961
1.176603193443495
1.176668712032939
1.176728903088369
1.176776590971786
1.176816570665684
1.176850210347388
1.176876225353747
1.17689472288113
1.176903984565807
1.176903611845358
1.176894983236653
1.176877009355383
1.176848310093449
1.176808380444709
1.176757574165342
1.176696756324503
1.176627207277926
1.176550649268385
1.176469068631719
1.176384468958921
1.176298619028338
1.176212996801068
1.176129398216752
1.176049813559998
1.175975845740816
1.17591133558472
1.175861770673734
1.175825415106452
1.175795237043896
1.175773681860178
1.175761904562232
1.175759603698081
1.175765202276421
1.175778002227684
1.175799395800593
1.175830138770244
1.175870318305451
1.175919365264045
1.175976335233145
1.176040022783466
1.176108929045776
1.176181364435483
1.176255733910999
1.176330699528637
1.176405220462299
1.176478478423987
1.176549042948916
1.176615548720341
1.176677192324583
1.176728481638358
1.176769292237532
1.176805161467605
1.176833659596972
1.176854517885817
1.176867571683964
1.176871456096794
1.176866001617887
1.176852480606255
1.176828910019255
1.176794418879054
1.176748885862258
1.176692802606736
1.176627151819411
1.176553362626917
1.176473192534005
1.176388622034981
1.176301680526602
1.17621418001734
1.176128096793384
1.17604577374982
1.175969100969645
1.175901224991434
1.175847779845224
1.175808996216759
1.175776779087716
1.175752935954248
1.175737849319481
1.175732214053745
1.175735611066922
1.175745485486738
1.175763232138173
1.175789740437207
1.175825377696822
1.175869913857912
1.17592271385782
1.175982856727937
1.176049125586798
1.176120049151137
1.176194041185282
1.176269521320208
1.176345129559283
1.176419938793507
1.176492449124048
1.176560454612092
1.176623779855465
1.176678983015149
1.176720845426851
1.17675868110142
1.176789278095919
1.176812681538563
1.176829088266026
1.17683657060247
1.176834585690871
1.176824790105417
1.176805831534965
1.176776414236427
1.176735995151828
1.176684805388307
1.176623555839261
1.176553310416703
1.17647551754019
1.176392032027133
1.176304956303764
1.176216278536711
1.176128074231959
1.176042993621574
1.175963342137174
1.175891737055794
1.175833830120212
1.175791936773796
1.175757923462662
1.175731598834098
1.17571362956183
1.175705149829942
1.175705882296063
1.175713273527903
1.175727934427391
1.175750796304251
1.175782473677203
1.175822984936927
1.175871882471676
1.175928445653776
1.175991729926963
1.176060517580888
1.17613332179631
1.176208548299359
1.17628475601934
1.176360772170985
1.17643498718876
1.176504963018043
1.176570189024305
1.176628562811455
1.176672930236716
1.176711835126279
1.176744449011813
1.176770192091778
1.176788832017875
1.176799464966182
1.176801281750667
1.176794572693435
1.176779525252995
1.176754452304031
1.176718702380081
1.176672249594509
1.17661546313221
1.176549029812579
1.176474134660426
1.17639248980688
1.176306127346332
1.176217072859737
1.176127414343468
1.17603991197703
1.175957272451923
1.175881893374382
1.175819126344879
1.175773084475314
1.175737262069522
1.1757083276552
1.175688094941552
1.175676857607246
1.175674452658489
1.175679717490059
1.175691602916671
1.175711270518379
1.175739378721257
1.175776161580361
1.175821357852473
1.175874421597607
1.175934614968587
1.17600091590021
1.176071993558593
1.17614637535016
1.176222587496012
1.176299217208393
1.176374791366827
1.176447050977787
1.176514194181623
1.176575122925488
1.176623775847325
1.176663166351477
1.176697485303036
1.176725006447005
1.176745566479726
1.176759253764347
1.176764276997435
1.176760191000844
1.176748529695208
1.17672751315278
1.176696162166024
1.176654153222426
1.176601634742061
1.176539151495258
1.176467725915119
1.176388793803567
1.176304123347844
1.176215700851448
1.176125612093831
1.176036501612629
1.175951357366257
1.175872704708923
1.17580514923343
1.175754075450504
1.175716589760733
1.175685211076851
1.175662586106103
1.1756482604252
1.175642896382329
1.17564614607978
1.175655570458455
1.175672332064607
1.175697202805299
1.17573056631473
1.175772336576577
1.175822120185989
1.175879312484973
1.175943061770731
1.176012235579412
1.176085471973733
1.176161306805252
1.176238347534876
1.176315331986703
1.176390437391628
1.176461012828367
1.176526324349492
1.176584126815414
1.17662766312382
1.176665732890895
1.176697741465368
1.176723066089162
1.176741427798676
1.176752626879467
1.176755336348519
1.176749385414246
1.17673599281867
1.176713654547513
1.176681762064987
1.176640136991934
1.176589060898749
1.17652924979223
1.17646182065449
1.176388176568048
1.176309964138341
1.176229025008267
1.176147276476642
1.176066975965077
1.17599050225573
1.175919735179894
1.175857822179329
1.175808702222503
1.175771101709624
1.175738975571303
1.175714128418069
1.175696876183032
1.175686883753466
1.175684490697942
1.175689348663538
1.175699848710416
1.175716504467861
1.17573952359882
1.175769194952726
1.175805566347851
1.175848370312992
1.175897128659491
1.175951228445079
1.176009929885742
1.176072388625238
1.176137682955948
1.176204798839782
1.176272365038154
1.176338276168732
1.17640112404691
1.176459187765952
1.176506531786224
1.176546293653152
1.176580702504801
1.176608056321715
1.17662811531737
1.176641349049081
1.176645987281866
1.176641373869985
1.176629586075879
1.176609519603672
1.176580650658536
1.176542789833837
1.176496210307924
1.176441476085485
1.176379432253072
1.176311267198771
1.176238466424034
1.176162623007207
1.176085486317341
1.176009310395354
1.175936351534755
1.175868742782959
1.175810477412022
1.175764956373824
1.17572959308984
1.175699834250339
1.175677782024701
1.175662931793036
1.17565615154403
1.175657581741967
1.175664993998144
1.175678499415578
1.17569837098642
1.175724993217793
1.175758555427227
1.175798907199663
1.175845618667005
1.175898103390762
1.175955678791862
1.176017560602187
1.176082798804425
1.176150304890593
1.176218868638053
1.176286493538847
1.176350847775106
1.176410818651371
1.176462163472419
1.176501746790718
1.176537157112866
1.176565665551297
1.176587260093598
1.1766020974306
1.176608655205616
1.176606313273864
1.176596679873682
1.176579378342398
1.176553814204922
1.176519545306372
1.176476578067253
1.176425366246665
1.176366700143729
1.176301593137463
1.176231269262847
1.17615716397437
1.176080881615659
1.176004448984241
1.175930216646371
1.175860311865015
1.175797960382341
1.175747834503962
1.175710204776256
1.175678745314201
1.17565416930708
1.175637229300978
1.17562820961693
1.175626936495413
1.175632392534742
1.175643726321255
1.175661345403335
1.175685572253064
1.175716679293565
1.175754610524729
1.175799012304051
1.175849356986659
1.175905012848606
1.17596523883999
1.176029139353479
1.176095723685827
1.176163928537145
1.176231973121018
1.1762974034787
1.176359096502857
1.176414033581513
1.176456140454778
1.176492103083188
1.176522195556622
1.176545496499816
1.176561803753688
1.176570170470887
1.176570267804079
1.176562894472992
1.176548280914666
1.176525670332685
1.176494530440421
1.176454816584942
1.176406981361236
1.176351674665423
1.176289651378155
1.176221929808637
1.176149861399103
1.176074943921479
1.175998930433269
1.17592409297827
1.175852647840711
1.175787219149966
1.175732663360876
1.175691551266622
1.175658840859905
1.175631988951785
1.17561285926737
1.175600992352384
1.1755969758839
1.175600647171174
1.175609776384868
1.175625061120981
1.175646846663732
1.175675449763818
1.175710923804884
1.175753001657097
1.175801196765573
1.175854909990825
1.175913454623742
1.175976016441315
1.17604164422839
1.176109284764998
1.176177482950937
1.176244036444788
1.17630706596052
1.176364512795731
1.176411291122459
1.176447294097422
1.176478975755016
1.176503776699574
1.17652139430902
1.176531775983226
1.176534127216221
1.176528538345307
1.176516400697712
1.176496537710632
1.176468480834693
1.176432125555817
1.176387738128093
1.176335770471102
1.176276865536894
1.176211954006018
1.176142247049691
1.176069096126102
1.175994033948862
1.175919141460208
1.175846740496619
1.17577914462334
1.175720382001403
1.175674665445336
1.175640528596911
1.175611752289119
1.175590268270721
1.175575887213375
1.175569439243202
1.175570851111789
1.175577855586279
1.175590757260958
1.175610001584558
1.175636008945257
1.175668920123923
1.175708544649807
1.175754471683053
1.175806178355808
1.175863039332817
1.175924283570955
1.17598896919678
1.176056060912504
1.176124323419466
1.17619174245485
1.176256057533495
1.176315705372819
1.176366493356025
1.176404373720999
1.176436684551636
1.176462827805031
1.176481860210935
1.176494024884785
1.176498177455433
1.176494179331225
1.176484085226968
1.176466880386736
1.176441984710022
1.176409084538993
1.176368262678595
1.176319911597286
1.176264631288129
1.176203173637064
1.176136501104315
1.176065828891618
1.175992540648243
1.175918415629959
1.175845768857916
1.175776831986861
1.175714607153162
1.175664195942409
1.175627231436396
1.175597189574484
1.175573373232201
1.175556824391459
1.175548089620113
1.175546885129397
1.175551889556924
1.175562514640871
1.175579338372461
1.17560278319037
1.175633079628
1.175670139953446
1.175713664562828
1.175763208200636
1.175818176621097
1.175877833328064
1.175941290622031
1.176007549010536
1.176075485123545
1.176143357047821
1.176208931197181
1.176270512214954
1.176324827419343
1.176367024706434
1.176399937187663
1.176427738116193
1.176448544979058
1.176462621467548
1.176468794065703
1.176466899122013
1.176458955388976
1.176444369612237
1.176422421902382
1.176392653970063
1.176355102799411
1.176310117147696
1.176258156222068
1.176199802140443
1.17613588900003
1.176067532319395
1.175995981970754
1.175922733029169
1.175849937189656
1.175779910866262
1.175715092876233
1.175660191425591
1.175618854581654
1.175587493107535
1.175561324019633
1.175542632943049
1.175531110945454
1.17552720533849
1.175530498388341
1.17553898488114
1.175553463662768
1.175574385079578
1.175602067922843
1.175636560154812
1.175677637851461
1.175724880602837
1.175777748190032
1.175835602377713
1.175897640515547
1.17596287345984
1.176030219911337
1.17609822684049
1.176164774659638
1.176227903647079
1.176285235672204
1.176331983627978
1.17636662905268
1.176396070397847
1.176419056935117
1.176435129769431
1.1764433874338
1.176443928011584
1.176438014017252
1.176425834815428
1.176406762016647
1.176380299474146
1.176346236564412
1.176304687113168
1.17625599921962
1.176200737942537
1.176139664665373
1.176073738679113
1.176004099310958
1.175932061181145
1.175859495044857
1.175788776436518
1.175722131743937
1.175663151107988
1.175616847123049
1.175583101945873
1.175555068420788
1.175534006912856
1.175519927765591
1.175513559197667
1.175514700906488
1.175521182821437
1.175533394308018
1.175551864206734
1.17557701163657
1.175608950289017
1.175647510449762
1.175692358960735
1.175743055709735
1.175799014277265
1.175859459548985
1.175923442659888
1.175989941689429
1.176057714483457
1.176124822147356
1.176189193895437
1.176248927225452
1.176299738922442
1.176337985195583
1.176368740746475
1.176393891351693
1.176411880151088
1.176422810990316
1.176426143025455
1.176422150500366
1.176412596457137
1.176396508637294
1.176373315573692
1.176342652819576
1.176304540728348
1.176259293370101
1.176207359764693
1.176149308355845
1.176085945495636
1.176018355564323
1.17594776019523
1.175875732403718
1.175804562747866
1.175736507415536
1.175674292704592
1.175623168979947
1.175585770143283
1.175556028082475
1.175532363723022
1.175515935605926
1.175507141391904
1.175505699365059
1.175510373518109
1.175520490466551
1.175536668020896
1.175559300554132
1.175588619287627
1.175624597330823
1.175667020656815
1.175715495265515
1.175769434982639
1.175828114838129
1.175890678228127
1.175956138167511
1.176023368315524
1.176090698352515
1.176156045902871
1.176217599741594
1.176272056960062
1.176314916366558
1.176347256130126
1.176374561333721
1.176394822174918
1.176408360232809
1.176414263010712
1.176412486774105
1.176405169858624
1.176391700722967
1.176371460945288
1.176344003941749
1.176309206208686
1.176267185177017
1.17621824638983
1.176162919469616
1.17610196573665
1.176036358605596
1.175967221390202
1.175895908917196
1.175824484288508
1.175755323060818
1.175690703602027
1.175635114307867
1.175592791236393
1.175561193583833
1.175534975343951
1.175516397545979
1.175504868642664
1.175500766701378
1.17550380846093
1.17551191676236
1.175525855678933
1.175546044789619
1.175572811205926
1.175606252572125
1.175646204110395
1.175692300310712
1.175744052554661
1.175800857617529
1.175861916610364
1.175926224232139
1.175992705546246
1.176059959402279
1.176125966272371
1.176188862352058
1.176246270136921
1.176293508013208
1.176328659391275
1.176357864567057
1.176380834103058
1.176396861950431
1.176405283097488
1.176406236403837
1.176400961727807
1.176389865910895
1.176372331892131
1.176347828477894
1.17631600554462
1.176276869051741
1.176230722934841
1.176178049895654
1.176119456301349
1.176055766094237
1.175988072142714
1.175917627808563
1.175846188600276
1.175776126014644
1.175709607048311
1.175650100830825
1.175602904150001
1.175568309766365
1.175539923639376
1.17551868623449
1.17550448424093
1.175497973762621
1.175499014715013
1.175505367647301
1.175517289810989
1.175535187117629
1.175559466180886
1.175590309980761
1.175627652279037
1.175671262703507
1.175720770144126
1.175775605587419
1.175834991299047
1.175897987156371
1.175963579156821
1.176030536273882
1.176096978233413
1.176160946579104
1.176220576077259
1.176271744291532
1.1763109829825
1.176341867593046
1.176367320208166
1.176385468309497
1.176396718945769
1.17640053506548
1.176397069126058
1.176388276736508
1.176373269255817
1.176351512102029
1.176322613504346
1.176286493489745
1.176243325746887
1.176193433309265
1.176137319341258
1.176075750322313
1.176009745383158
1.17594044805428
1.175869349777912
1.175798725307679
1.175730814435918
1.17566818867858
1.175616162701392
1.175577570577889
1.175547005337333
1.175522861751597
1.175506303054808
1.175497408584153
1.175495871892787
1.175500623536729
1.175510724828574
1.175526600343141
1.175548536119666
1.175576823843105
1.175611568422805
1.175652658163948
1.175699763878501
1.175752373278284
1.175809853919871
1.175871401589422
1.175935997155969
1.176002469478749
1.176069158356355
1.176134026809392
1.176195326784706
1.176249903196666
1.176293487561431
1.176326403284513
1.1763540688333
1.176374771727684
1.176388771444897
1.176395221735435
1.176394035449206
1.176387253087937
1.176374502677065
1.176355305064615
1.176329236438671
1.176296078554962
1.176255843818308
1.176208781155595
1.176155356864013
1.176096195441297
1.176032120275784
1.175964203112697
1.175893778035578
1.175822880713807
1.175753891136099
1.175688956077331
1.175632581499707
1.17558916290001
1.175556302448241
1.175529268327733
1.175510317064434
1.175498477031579
1.175494180499737
1.175497426117384
1.175505825949605
1.175519888101545
1.175539785469796
1.175565783259395
1.175598036723313
1.175636495325409
1.175680957497568
1.175731123471576
1.175786524128464
1.175846408241976
1.175909771027352
1.175975533662468
1.176042262633832
1.176107877250906
1.176170572773989
1.176228038677099
1.176275742795891
1.176311927784982
1.176341390315285
1.176364651452511
1.176380811878767
1.176389724396427
1.176391441730389
1.176386777998066
1.176376440911249
1.176359703601613
1.176336128419494
1.176305463992404
1.17626782208414
1.176223549140565
1.176173013411758
1.176116588654864
1.176054851297496
1.175988696284873
1.175919231490266
1.17584822231518
1.175778264517564
1.175711552735661
1.175651543899496
1.175603629406212
1.175568136782159
1.175539334034751
1.175518082627351
1.175504069615081
1.175497503020633
1.175498653540446
1.175505850586075
1.175518624004896
1.175536986721675
1.175560996225894
1.175590579153003
1.175625661317844
1.175666237870047
1.17571219000359
1.175763090955119
1.175817739617943
1.175876744526204
1.175935600801795
1.176029284141259
)
;

boundaryField
{
    inlet
    {
        type            calculated;
        value           uniform 1.176395973595895;
    }
    outlet
    {
        type            calculated;
        value           uniform 1.176050268402282;
    }
    frontAndBack
    {
        type            empty;
    }
}


// ************************************************************************* //
