/*--------------------------------*- C++ -*----------------------------------*\
| =========                 |                                                 |
| \\      /  F ield         | OpenFOAM: The Open Source CFD Toolbox           |
|  \\    /   O peration     | Version:  v2012                                 |
|   \\  /    A nd           | Website:  www.openfoam.com                      |
|    \\/     M anipulation  |                                                 |
\*---------------------------------------------------------------------------*/
FoamFile
{
    version     2.0;
    format      ascii;
    class       volScalarField;
    location    "0.017";
    object      T;
}
// * * * * * * * * * * * * * * * * * * * * * * * * * * * * * * * * * * * * * //

dimensions      [0 0 0 1 0 0 0];


internalField   nonuniform List<scalar> 
1000
(
299.9949732631925
299.9861098546541
299.9737376996698
299.9662667215175
299.9596273982417
299.9534840470548
299.9481874163462
299.9443303101409
299.9416424185925
299.9397592971521
299.9389418657459
299.93939325389
299.9408359306523
299.9429516128871
299.9459714496356
299.9499674773698
299.9548070072611
299.960323569416
299.9663949693194
299.9729294790257
299.9798312052349
299.9869890976899
299.9942907489727
300.0016337069925
300.0089403252512
300.016165733505
300.0232138303186
300.0299666066855
300.036424096988
300.0421610985014
300.0465537761636
300.050376170813
300.0533994427256
300.0555631153994
300.0566715097809
300.056722227706
300.0558678388279
300.0539859444496
300.0509493162714
300.0467519187185
300.0414902238161
300.0353054202301
300.0283519276797
300.0207923871788
300.0127907086965
300.0045056428335
299.9960849212899
299.987648156743
299.9793105023493
299.971235589577
299.9635669225298
299.956479029637
299.9505137549814
299.946115723625
299.9427576659115
299.9401245387243
299.9384955804611
299.9379436337026
299.9383868451202
299.9395977113856
299.9417747223154
299.94500635043
299.9492702317589
299.9544499950745
299.9603858742078
299.9669093600671
299.9738572070532
299.9810829583682
299.9884656060635
299.9959067500955
300.0033345387421
300.0107109993064
300.0179414365224
300.0248580323664
300.0314453453042
300.0373797041408
300.0419442597557
300.0458901111317
300.0491017934501
300.051473596286
300.0530144074593
300.053567843214
300.0531009125061
300.0517913931041
300.049420604854
300.0458896490762
300.0412101950931
300.0354759916929
300.0288243185835
300.0214222703852
300.0134576853887
300.0051220127875
299.9965923838176
299.9880094621403
299.9794917526843
299.9712059018797
299.9633255342246
299.9560169351811
299.9497599153937
299.9450579801993
299.9415586008516
299.9387186999743
299.9367808777837
299.9358897176992
299.9360149006982
299.9368569362934
299.9385367023037
299.941177954384
299.9448330579042
299.9494620099754
299.9549598960709
299.9611869352696
299.9679848832918
299.9751861349981
299.9826260196709
299.9901629255094
299.9976970957266
300.0051725172739
300.0125091463637
300.0195457985977
300.0262316098192
300.0323735823632
300.0372395809353
300.0413189635257
300.0447513740527
300.047405766726
300.0492931101466
300.0502380939923
300.050200082536
300.0493197262921
300.0474858443347
300.044557596166
300.040483407731
300.0352993040849
300.0290934696907
300.0219964623874
300.0141839414684
300.0058585387983
299.9972246780264
299.9884628512004
299.9797238961997
299.9711911285125
299.9630677307456
299.9555173710352
299.9489321834817
299.9438724616091
299.9401611153057
299.9370803500915
299.9348798363188
299.9336775166697
299.933442639777
299.9340142181192
299.9353209725358
299.937505015179
299.9406434760202
299.9447452069015
299.9497520462604
299.9555675199911
299.9620685133298
299.9691019701244
299.9764953868328
299.9840859331164
299.9917370414394
299.9993424867083
300.0068187678826
300.0140199206467
300.0208066509163
300.0270970140594
300.0323306322595
300.0364949008326
300.0401548909197
300.0430627109316
300.0451909710841
300.0465229008157
300.046919251725
300.046362741432
300.0449831804794
300.0425782018772
300.0390589014993
300.0344128412806
300.0286901075883
300.0219908868479
300.0144609223032
300.0062794818058
299.9976486146845
299.9887753936319
299.9798447377262
299.9710583619498
299.9626554351688
299.9548289401167
299.9479001414365
299.9424442812152
299.938485036571
299.9351960824612
299.9327619749207
299.9312217970809
299.9306465043095
299.9309933299545
299.9320014413943
299.9338132123059
299.9365194240896
299.9401575392251
299.9447040183582
299.9500939690967
299.9562333118117
299.9629977659498
299.970237096139
299.9777893535171
299.9854932112003
299.9932098573362
300.0008446779908
300.0082446146111
300.0151845805782
300.0216467234988
300.0272798633707
300.0315515631481
300.0354122970018
300.0385343503223
300.0409223591288
300.0425964348414
300.0433598998993
300.0431573908101
300.0421579341699
300.0402235168597
300.0372218985784
300.033097620441
300.0278741940878
300.0216240747452
300.0144557368597
300.0065168989253
299.9979967709201
299.9891098623207
299.9800590562742
299.9710561826635
299.9623717706499
299.954241197006
299.9469317004751
299.9410203284119
299.9367435905808
299.9332712383459
299.9305837724845
299.9287492853624
299.9278835844423
299.9279583851422
299.9287130018235
299.9302097765598
299.9325437751033
299.9357777065702
299.93991340188
299.9449051077842
299.9506791961945
299.9571391815746
299.9641607033633
299.9715919471518
299.9792701517157
299.9870482158353
299.9948064401905
300.0023805640752
300.009521801031
300.0161780900197
300.022134930473
300.0266623564737
300.0306322883521
300.0339602188247
300.0365870141272
300.0384889918152
300.0395739514152
300.0397593468047
300.039074807898
300.0375394435618
300.0349810762706
300.0313331958748
300.026593099959
300.0207983817603
300.0140190378343
300.0063759043957
299.9980436210087
299.9892295061356
299.9801402470864
299.9709889355972
299.9620573107056
299.9536216995769
299.945926914788
299.9395193603281
299.9348190692749
299.9311619920178
299.9282080607946
299.9261424692915
299.9249952268653
299.9247497153669
299.925287248267
299.9265006955501
299.9285086277545
299.9313782464056
299.9351334073726
299.9397473873425
299.9451643927447
299.9513090379303
299.958076927988
299.9653321607012
299.972924381642
299.9807031366975
299.9885242185339
299.9962372815578
300.0036117980223
300.0104639267853
300.0166816628065
300.0216465224639
300.0256661055092
300.0291681064267
300.0319763987561
300.0340743457471
300.0354709909719
300.0359835643027
300.0355666578602
300.0343767844875
300.0322322935332
300.0290332372023
300.0247465540912
300.019387317441
300.0130110320235
300.005721942525
299.997666485564
299.9890250382538
299.9800002671773
299.9708050250034
299.9617092333724
299.9530179170028
299.9449889234648
299.9380924955722
299.9328784580069
299.9290515351569
299.9258480293989
299.9235381793487
299.9220756203646
299.9215279909068
299.9218597912397
299.9228219997146
299.924533284168
299.9270724369302
299.9304785939218
299.9347429262245
299.9398252142984
299.945663668252
299.9521712798496
299.9592323882945
299.9667079234545
299.9744484016518
299.9823116693759
299.9901688980924
299.9978340629062
300.0050366502279
300.0117018128832
300.0176004835481
300.0220431996611
300.0259280033274
300.0291942448418
300.0317784029657
300.0336520355096
300.0347947878478
300.0350712704142
300.0344640657588
300.0330975216115
300.0308181419014
300.0275638025104
300.0233162536059
300.0181041626502
300.012000520846
300.0051192387979
299.9976034344684
299.9896210976319
299.9813601490412
299.9730162590737
299.9648198428313
299.9570137383194
299.9497898835239
299.9434696395393
299.9384552093597
299.9346166717363
299.9313369443712
299.9288002883994
299.927038983821
299.9260188400405
299.925774538676
299.9262705226486
299.9273425203982
299.9290429528315
299.9313930081599
299.9344221505452
299.9381352271306
299.9425048933857
299.9474822926912
299.9530048144428
299.9589969048776
299.9653723427282
299.9720370190541
299.9788874093668
299.9857835415449
299.9925105334477
299.9989246871556
300.0048504009144
300.0096819827064
300.0137397020819
300.0172510811509
300.0200424603192
300.0220893993202
300.0234398397673
300.0239131519971
300.0234423953951
300.0222395341545
300.0201918549806
300.0172458804856
300.013382242644
300.0086287647169
300.0030429420402
299.9967109552044
299.9897540274553
299.9823237189538
299.9745825883602
299.9667091672592
299.9589335255794
299.95148599658
299.944584361581
299.9386363315376
299.9339891940658
299.930378972369
299.9273408571622
299.9250894922661
299.9235733863038
299.9228811679903
299.9230271983677
299.9237839694464
299.9251628044626
299.9271915631065
299.9299094813008
299.9333358548514
299.9374552891634
299.9422238586984
299.9475816551306
299.9534589590762
299.9597756763763
299.9664348014751
299.9733252022354
299.9803233338887
299.9872254142488
299.9937934687268
299.9999139696375
300.0051539661308
300.0091935552558
300.0128072130363
300.0157164820918
300.017920165468
300.019434277043
300.0201034784885
300.01986450704
300.0188814732235
300.0171159158263
300.0145071488664
300.011010017991
300.0066251296876
300.0013987327024
299.9954114193239
299.9887665534291
299.9815890086153
299.9740252515809
299.9662390050088
299.9584371337073
299.9508595819337
299.9437235317956
299.9373583325449
299.9322410534622
299.9283994127217
299.9251876456498
299.9226785933175
299.9209491121645
299.9200282471442
299.919898279015
299.9204553392951
299.9216124853924
299.9234113137172
299.9258847319235
299.9290605243506
299.9329329369908
299.9374658260028
299.9426052840672
299.9482867816271
299.9544346337563
299.9609573851688
299.9677538820627
299.9747155698111
299.981660673272
299.9883387361237
299.9946351604233
300.000241905981
300.0045391299593
300.0082092361676
300.0112802252861
300.0136580962974
300.0153222430212
300.0161760551341
300.0161859996237
300.0154335852304
300.0139423031832
300.0116349065409
300.0084570475319
300.0044041256999
299.9995222760279
299.9938777662
299.9875475802863
299.9806355944867
299.9732796980747
299.9656327324027
299.9578736148599
299.9502342644672
299.9429409411484
299.936261569266
299.9306920061434
299.9264948079165
299.9231552965198
299.920413859199
299.9184607993789
299.9172492328119
299.9168391714413
299.9172140167905
299.9181461034083
299.9197066360307
299.9219308543453
299.9248510739664
299.9284727109054
299.932768454006
299.9376885899293
299.9431719135479
299.9491482840944
299.9555345498653
299.9622335832226
299.9691378537805
299.9760988215007
299.9828916967581
299.9893246924015
299.9951877292944
299.9999618123945
300.0036361206032
300.0068693617117
300.0094003649547
300.0111982704757
300.0122577312012
300.0124976839679
300.0119273556581
300.0106887185022
300.0086616826389
300.0057984093515
300.0020881956223
299.997558165216
299.99225438481
299.9862424166544
299.97961719349
299.9725022868241
299.9650356016189
299.9573735597636
299.9497285649416
299.9423376421734
299.9354370034245
299.9294379343123
299.9247706200932
299.9212854461055
299.9183475089108
299.9161540583822
299.9146857883047
299.914027465516
299.914171630965
299.9148868002732
299.9162040535819
299.9181688606271
299.9208241229961
299.9241841828536
299.928229556562
299.9329182599524
299.9381968722417
299.9440015149644
299.9502534405375
299.9568564702928
299.9637048980894
299.9706726128499
299.9775540100131
299.9841183825735
299.9902062073396
299.9953896279067
299.9992556172368
300.0025531391764
300.0052211850485
300.0071635131896
300.0084049569028
300.0088287439719
300.0084207435452
300.0073906351394
300.0056348402339
300.003094140145
299.9997364940971
299.9955703092928
299.9906355898227
299.9849935178627
299.9787207804895
299.9719155639206
299.9647018628027
299.9572208799181
299.949654216788
299.94223819174
299.9352006450684
299.9288481040584
299.9237014750254
299.9199275861883
299.9168604192031
299.9144288271464
299.912739216142
299.9118474052636
299.9117244401699
299.9122354137169
299.9133202479807
299.9150379443714
299.9174316197817
299.9205247840731
299.9243084446858
299.9287519744021
299.9338098752444
299.9394214405088
299.9455114458459
299.9519892382547
299.9587527619583
299.9656873261252
299.9726151157961
299.9793081549928
299.9855934299159
299.9911369600923
299.9954436093677
299.9988025982853
300.0016398706925
300.0037633281648
300.0051999042105
300.0058298476454
300.0056364762454
300.0048258088054
300.0033372805654
300.0010974085974
299.9980593972741
299.9942269827851
299.9896357125434
299.9843324034432
299.9783764170708
299.9718528378319
299.9648754839384
299.9575719000158
299.950094673682
299.9426634407897
299.9355146838368
299.9288974115013
299.923292353636
299.9190720543484
299.9158701454201
299.9131983275393
299.9112899826512
299.9101135908942
299.9097148363701
299.9100510796082
299.9109175781983
299.9123958778463
299.9145319490663
299.9173583183377
299.9208798499395
299.9250736443827
299.9298967400766
299.9352939445154
299.941200062084
299.9475331184072
299.954192109471
299.9610666337978
299.9680083564507
299.9748009252094
299.9812443328759
299.9870958883238
299.9918670658166
299.9954029739422
299.9984077099954
300.0007536524229
300.0023939884801
300.0032367337519
300.0032919162871
300.0026883844623
300.0014454478099
299.9994989600066
299.9967982680548
299.9933218431043
299.9890812599961
299.9841119988485
299.9784716817323
299.9722379713734
299.965508737759
299.9584002382709
299.9510466360763
299.9436388807046
299.9364194785786
299.9296157416052
299.9235942391533
299.918866813069
299.9154215265847
299.9125593441186
299.9104089715069
299.9089714881671
299.9083212563754
299.9084378443947
299.9090996824845
299.9103465053733
299.9122323000676
299.91479984157
299.9180607082906
299.9219975371028
299.9265762752096
299.9317519496506
299.9374646525192
299.9436352174432
299.9501667486447
299.9569549020665
299.9638728622625
299.970722709816
299.9772930895692
299.983389846357
299.9885758645819
299.992479332395
299.9956182398508
299.998185074565
300.0000209686825
300.001136541289
300.0014766076508
300.0010691660676
300.0000941367607
299.9984522759414
299.9960852481286
299.9929558321539
299.9890660667076
299.9844479616158
299.9791472981812
299.9732220478015
299.9667544690534
299.9598552072991
299.9526489290233
299.9452961827509
299.9380307883257
299.9310830893043
299.9247314515509
299.9195119730172
299.9156936637617
299.9126570458388
299.9102409235651
299.908563605288
299.9076657122315
299.9075184948654
299.9079957586482
299.9090287378297
299.9106804958504
299.9129912877409
299.9159846965131
299.9196579433155
299.9239891391036
299.9289380185721
299.9344446979156
299.9404351281589
299.946821829016
299.9535040188165
299.9603666998675
299.9672393595496
299.973909448127
299.9801921173445
299.9857502916749
299.990124635329
299.9934252646377
299.9962120229111
299.9982798152619
299.9996614840657
300.0002639116203
300.0000826527248
299.999335935976
299.9979613284502
299.9958957046566
299.9930934665286
299.9895419756932
299.9852531760646
299.9802582068512
299.974611076977
299.9683894471622
299.9616926333287
299.9546352617253
299.947355602679
299.9400642466301
299.9330037117223
299.9264066243584
299.9207312711995
299.9164102266899
299.9131841624092
299.9105072911684
299.9086104889286
299.907433380547
299.907014576017
299.9073251670401
299.9081530662828
299.9095762675378
299.9116376009962
299.9143704455217
299.9177847396815
299.9218636236891
299.9265697416782
299.9318531694265
299.9376522850637
299.9438854969266
299.9504501499242
299.9572364902994
299.9641014755009
299.9708389606053
299.9772587218052
299.9831181250026
299.9879394006575
299.9915270181325
299.9945077118899
299.9968519671302
299.9984877464306
299.9993471939336
299.9994445012145
299.9989062080816
299.9977738170632
299.99598433902
299.9934835467109
299.9902356777072
299.9862413015179
299.9815313949346
299.9761551788635
299.9701744977005
299.9636734080884
299.9567634250329
299.9495724575188
299.9422796884454
299.935127208889
299.928336264334
299.9222610660904
299.9174424691068
299.9139104582641
299.9110122574784
299.9088439129254
299.9073938794375
299.9067291559161
299.9068354616421
299.9074841409677
299.908701435926
299.9105287841508
299.9130076867249
299.916156798434
299.9199693224886
299.9244217016819
299.9294760090305
299.935074114165
299.9411365827202
299.9475674100346
299.9542630589067
299.9610978482418
299.9678798390856
299.974409136916
299.9804953845564
299.9857178671372
299.9897226812341
299.9928748073732
299.9954725031727
299.9973246827863
299.9984729106186
299.9988623881897
299.9985086867362
299.9976113809953
299.9960797586725
299.993859251109
299.9909098513226
299.9872233620999
299.9828174694256
299.9777250989393
299.9719975609946
299.9657130452029
299.9589755367093
299.9519017287955
299.9446438414197
299.9374340782169
299.9305011056488
299.9241074838233
299.9187958716487
299.9148557152483
299.9117350373863
299.9092699748082
299.9075793176242
299.9066711851961
299.9065143029622
299.9069994839573
299.9080308729114
299.9096518028134
299.9118914697829
299.9147796325936
299.9183269709739
299.9225220455209
299.9273312096702
299.9327021238747
299.9385701847586
299.9448532584151
299.9514472790626
299.958232673674
299.9650399601548
299.9716612196087
299.9779180482826
299.9834884516764
299.9879368356392
299.9912962826438
299.9941198463994
299.9962327757886
299.9976615750624
299.9983198864571
299.9981988364869
299.9975066712151
299.9962054048165
299.9942461267111
299.9915855651231
299.9882014150193
299.9840949040398
299.9792913958453
299.9738384385088
299.9677997290348
299.9612592701635
299.9543264233948
299.9471373399218
299.9398998067376
299.9328567906961
299.9262274800474
299.9204719504042
299.916039053035
299.9126840567044
299.9099238822289
299.9079889473863
299.9067800712807
299.9063413996821
299.9066728093504
299.9075304768912
299.9089662572848
299.9109977950345
299.913652150815
299.9169451494437
299.9208716033884
299.9254109076876
299.9305324341108
299.9361882654919
299.9423016842887
299.9487700900876
299.9554833268006
299.9622950283239
299.9689927642219
299.9753922736724
299.9812576733245
299.9861263536701
299.9898189641701
299.9928250629425
299.9951978421567
299.9968457339029
299.9977537870827
299.9979273811654
299.9974490662968
299.9963916035479
299.9946820879053
299.9922763600844
299.9891500058302
299.9853162050683
299.9808120908147
299.9756763791938
299.9699469011188
299.9636800551662
299.956962541949
299.9499011470155
299.9426688404076
299.9355227289169
299.9286781605433
299.9224795222932
299.9174725526195
299.9136927280653
299.9105651385671
299.90818902154
299.9065464936762
299.9057389107872
299.90568938389
299.9061834780791
299.9073401376675
299.9091863345162
299.9117278994093
299.9149763005672
299.9189121155098
299.9234856814714
299.9286693676689
299.9345240722126
299.9411259601789
299.9485412387289
299.95557361999
299.9631899507618
)
;

boundaryField
{
    inlet
    {
        type            fixedValue;
        value           uniform 300;
    }
    outlet
    {
        type            inletOutlet;
        inletValue      uniform 300;
        value           uniform 299.9635369725406;
    }
    frontAndBack
    {
        type            empty;
    }
}


// ************************************************************************* //
