/*--------------------------------*- C++ -*----------------------------------*\
| =========                 |                                                 |
| \\      /  F ield         | OpenFOAM: The Open Source CFD Toolbox           |
|  \\    /   O peration     | Version:  v2012                                 |
|   \\  /    A nd           | Website:  www.openfoam.com                      |
|    \\/     M anipulation  |                                                 |
\*---------------------------------------------------------------------------*/
FoamFile
{
    version     2.0;
    format      ascii;
    class       volVectorField;
    location    "0.017";
    object      U;
}
// * * * * * * * * * * * * * * * * * * * * * * * * * * * * * * * * * * * * * //

dimensions      [0 1 -1 0 0 0 0];


internalField   nonuniform List<vector> 
1000
(
(-0.02539398684622701 0 0)
(-0.05352664770857626 0 0)
(-0.0606085659808776 0 0)
(-0.07254792918683919 0 0)
(-0.0828474290375618 0 0)
(-0.09181471580765604 0 0)
(-0.09809313327477776 0 0)
(-0.1006675339892928 0 0)
(-0.1007469102644171 0 0)
(-0.09900989674618624 0 0)
(-0.09427872300895374 0 0)
(-0.08610166104866361 0 0)
(-0.07660181490791725 0 0)
(-0.06499048424766778 0 0)
(-0.05110744371659583 0 0)
(-0.03510719865572959 0 0)
(-0.01743542958482243 0 0)
(0.001366099762098446 0 0)
(0.02079985215656495 0 0)
(0.04042043693552454 0 0)
(0.05980879291279124 0 0)
(0.07856397330670495 0 0)
(0.09630752721848393 0 0)
(0.1127127243579449 0 0)
(0.1275715056115061 0 0)
(0.1407825830019412 0 0)
(0.152147162873027 0 0)
(0.1615497156623745 0 0)
(0.1691013750409311 0 0)
(0.1737003118139028 0 0)
(0.1747489229041365 0 0)
(0.1734877623600847 0 0)
(0.1702087664310941 0 0)
(0.1650306229339531 0 0)
(0.1579682605165808 0 0)
(0.1480992086418638 0 0)
(0.1378142784163349 0 0)
(0.1259365635353664 0 0)
(0.112316754612751 0 0)
(0.09702297102999233 0 0)
(0.08043116236317897 0 0)
(0.06299507186536309 0 0)
(0.04511310625412419 0 0)
(0.02713700925376975 0 0)
(0.009392882241865649 0 0)
(-0.007826467188722135 0 0)
(-0.0242799546865139 0 0)
(-0.03981961589447987 0 0)
(-0.05431714786833481 0 0)
(-0.06751206932692344 0 0)
(-0.07918270366633796 0 0)
(-0.08897673191258203 0 0)
(-0.09560145134055732 0 0)
(-0.0981131150278122 0 0)
(-0.09799927784836664 0 0)
(-0.09624416117332388 0 0)
(-0.0923582759121878 0 0)
(-0.08517396457154661 0 0)
(-0.07669602856474024 0 0)
(-0.06668620057020781 0 0)
(-0.05471073153708379 0 0)
(-0.04050246019492973 0 0)
(-0.02414524564925038 0 0)
(-0.006034104162796755 0 0)
(0.01325550385693095 0 0)
(0.03309954831492279 0 0)
(0.05290995264125184 0 0)
(0.07218034939333409 0 0)
(0.09051116982273283 0 0)
(0.1076099633552754 0 0)
(0.1232701553084535 0 0)
(0.1373627380476396 0 0)
(0.1496904322867235 0 0)
(0.159953914176247 0 0)
(0.1681134424654193 0 0)
(0.1734495648212614 0 0)
(0.1750144331186436 0 0)
(0.1739364081139962 0 0)
(0.1709123276199254 0 0)
(0.166066670039553 0 0)
(0.1596155151750177 0 0)
(0.150610554245234 0 0)
(0.1407014561935049 0 0)
(0.1297573776928286 0 0)
(0.1173825148154335 0 0)
(0.103356790050046 0 0)
(0.08780382163915625 0 0)
(0.07103845899202922 0 0)
(0.05344107755724939 0 0)
(0.03541709236723517 0 0)
(0.01737674510017313 0 0)
(-0.0002999489616505848 0 0)
(-0.01729237377884367 0 0)
(-0.03339209082932381 0 0)
(-0.04846427428648559 0 0)
(-0.06224640859555841 0 0)
(-0.07443732505847463 0 0)
(-0.08472938459500132 0 0)
(-0.09199716492094286 0 0)
(-0.09500934498978229 0 0)
(-0.09517733903705089 0 0)
(-0.09367174819852855 0 0)
(-0.09016786472395746 0 0)
(-0.08416138261408278 0 0)
(-0.07597027041094583 0 0)
(-0.06680272554826712 0 0)
(-0.05602115012613818 0 0)
(-0.04328707037183836 0 0)
(-0.02846411674204376 0 0)
(-0.01170118813312609 0 0)
(0.00663190210724807 0 0)
(0.02602806536491892 0 0)
(0.04589821400062732 0 0)
(0.06563927564084213 0 0)
(0.08472021314519018 0 0)
(0.1027194451836694 0 0)
(0.1193093775607885 0 0)
(0.1342994730332783 0 0)
(0.1475369831972989 0 0)
(0.1586238734328682 0 0)
(0.1673941873651474 0 0)
(0.1736299574228796 0 0)
(0.1759889249815591 0 0)
(0.175303452919375 0 0)
(0.1726731908786544 0 0)
(0.1680701890329869 0 0)
(0.1618849563527413 0 0)
(0.1540844927299382 0 0)
(0.1440419516123654 0 0)
(0.1337027036850502 0 0)
(0.1221465686553788 0 0)
(0.1091655490203261 0 0)
(0.09467560661845068 0 0)
(0.07883756354847889 0 0)
(0.06194433469233015 0 0)
(0.04433299015803484 0 0)
(0.02636787714789729 0 0)
(0.00844146064905746 0 0)
(-0.009045301707832635 0 0)
(-0.025764122685363 0 0)
(-0.04149527475323168 0 0)
(-0.05593786912144734 0 0)
(-0.06870660208548046 0 0)
(-0.07952075740926702 0 0)
(-0.08748398998766937 0 0)
(-0.09119945793333774 0 0)
(-0.09172694651414162 0 0)
(-0.09045210168402312 0 0)
(-0.08735684228360538 0 0)
(-0.08234472822917195 0 0)
(-0.07440549802754651 0 0)
(-0.06584547144593621 0 0)
(-0.05587268961026716 0 0)
(-0.04423471950380464 0 0)
(-0.03069617158692162 0 0)
(-0.01523124498095641 0 0)
(0.001957291586798237 0 0)
(0.02049635680680189 0 0)
(0.03989975439586694 0 0)
(0.05962491091675524 0 0)
(0.07912490905333439 0 0)
(0.09787945860177963 0 0)
(0.1154333133149724 0 0)
(0.1314745137228902 0 0)
(0.1457736279816851 0 0)
(0.1578675673389404 0 0)
(0.1674622614078155 0 0)
(0.1746247047047757 0 0)
(0.1779418053582151 0 0)
(0.177818495608762 0 0)
(0.1756229934091738 0 0)
(0.1714276380058292 0 0)
(0.1656358388132967 0 0)
(0.1584582813480158 0 0)
(0.1487971900876187 0 0)
(0.1387244470773956 0 0)
(0.1277277189107747 0 0)
(0.1155444604996687 0 0)
(0.1019719899666298 0 0)
(0.087065797227796 0 0)
(0.07101570026742332 0 0)
(0.05405340421538561 0 0)
(0.03645830615262301 0 0)
(0.01858857772086702 0 0)
(0.0008566975419307876 0 0)
(-0.01634877221944144 0 0)
(-0.03272611108372094 0 0)
(-0.04791702753368794 0 0)
(-0.06143876469799751 0 0)
(-0.07295728817892526 0 0)
(-0.08173674614945273 0 0)
(-0.08632130144393627 0 0)
(-0.0872995345194694 0 0)
(-0.0863459287146774 0 0)
(-0.08367906946167905 0 0)
(-0.07918174707638272 0 0)
(-0.0720439098673377 0 0)
(-0.06371979897661624 0 0)
(-0.05432673362604475 0 0)
(-0.04353073622349347 0 0)
(-0.03102947012510137 0 0)
(-0.01669715527629041 0 0)
(-0.0006140880531694193 0 0)
(0.01696489102594999 0 0)
(0.03566922691508548 0 0)
(0.05504851516766893 0 0)
(0.07459219812911386 0 0)
(0.09376918268626624 0 0)
(0.1120839210908512 0 0)
(0.129110107719872 0 0)
(0.1444860590061581 0 0)
(0.1577465540947875 0 0)
(0.1684399569618156 0 0)
(0.1765372843428931 0 0)
(0.1809796306753293 0 0)
(0.1816145931764147 0 0)
(0.1798791991939872 0 0)
(0.1761271296069362 0 0)
(0.1705928280319018 0 0)
(0.163644258704323 0 0)
(0.1549630430212446 0 0)
(0.1447447128034978 0 0)
(0.1341136640856823 0 0)
(0.122494163307997 0 0)
(0.1096582232582249 0 0)
(0.09555376503120634 0 0)
(0.08028021981330499 0 0)
(0.06399507656744162 0 0)
(0.04691267046395352 0 0)
(0.02932847211952935 0 0)
(0.01160175099028505 0 0)
(-0.005878808053629093 0 0)
(-0.02275889192481458 0 0)
(-0.03864957809265322 0 0)
(-0.05299942317971007 0 0)
(-0.06536080657830977 0 0)
(-0.07510365484753469 0 0)
(-0.0808021343895963 0 0)
(-0.0824318430458158 0 0)
(-0.08182825394233574 0 0)
(-0.07949267940253449 0 0)
(-0.07534808985688911 0 0)
(-0.06918096397993538 0 0)
(-0.06093123658826166 0 0)
(-0.05203032886600037 0 0)
(-0.04188395447984137 0 0)
(-0.03024068272474086 0 0)
(-0.01689899001935272 0 0)
(-0.001844085621354555 0 0)
(0.01476732796477093 0 0)
(0.03266264298407467 0 0)
(0.05147722157769515 0 0)
(0.0707701226926514 0 0)
(0.09006155359710047 0 0)
(0.1088578231736829 0 0)
(0.1266569342382399 0 0)
(0.1430243377682103 0 0)
(0.1575252350958039 0 0)
(0.1694927595544773 0 0)
(0.1786167773146445 0 0)
(0.184502330709559 0 0)
(0.1862235643111884 0 0)
(0.1849943988788131 0 0)
(0.1817410258277326 0 0)
(0.176562618218928 0 0)
(0.1699529140376925 0 0)
(0.1621118704560824 0 0)
(0.1518017889748081 0 0)
(0.1415346121175217 0 0)
(0.1303391255916588 0 0)
(0.1181043597287785 0 0)
(0.1046876931581958 0 0)
(0.09010605628855531 0 0)
(0.07448610548021543 0 0)
(0.0580090172628571 0 0)
(0.04088878561425814 0 0)
(0.02339180257200205 0 0)
(0.005868233070628262 0 0)
(-0.01130585128822734 0 0)
(-0.02773966454643516 0 0)
(-0.04286304675000106 0 0)
(-0.05609448455810028 0 0)
(-0.06686630003102094 0 0)
(-0.07389102363250728 0 0)
(-0.07642661826847988 0 0)
(-0.07621899355398187 0 0)
(-0.07423273811606017 0 0)
(-0.07046423303509718 0 0)
(-0.06504599600767304 0 0)
(-0.05697137975851679 0 0)
(-0.04845434687232174 0 0)
(-0.03880161727355012 0 0)
(-0.0278421129290363 0 0)
(-0.01534898025167119 0 0)
(-0.001225730298757347 0 0)
(0.01445715374406369 0 0)
(0.03150063904472258 0 0)
(0.04961645908860918 0 0)
(0.06844914459790205 0 0)
(0.08758714199720544 0 0)
(0.1065606276740859 0 0)
(0.1248638982533693 0 0)
(0.1420424100032952 0 0)
(0.1576349169899165 0 0)
(0.1708680869453104 0 0)
(0.1812175697600823 0 0)
(0.188641189889267 0 0)
(0.1917344855613456 0 0)
(0.1912314069037539 0 0)
(0.1885951745130556 0 0)
(0.1839786985135901 0 0)
(0.1777524179178358 0 0)
(0.1701978616845256 0 0)
(0.1605949088326401 0 0)
(0.150305483815166 0 0)
(0.1394364222384935 0 0)
(0.127684865694743 0 0)
(0.1148190376106205 0 0)
(0.1008340792616036 0 0)
(0.0858338795903873 0 0)
(0.06992883204413557 0 0)
(0.05324406321250095 0 0)
(0.03599012323588979 0 0)
(0.01849101207382356 0 0)
(0.001115058306456628 0 0)
(-0.01577363872892043 0 0)
(-0.03164195346008338 0 0)
(-0.04580693222466681 0 0)
(-0.0577089494001322 0 0)
(-0.06623469817865547 0 0)
(-0.06999785344846442 0 0)
(-0.07037280147491756 0 0)
(-0.06893071632901378 0 0)
(-0.06567025338311806 0 0)
(-0.06070672622351084 0 0)
(-0.05335062546029522 0 0)
(-0.04494084207340055 0 0)
(-0.03567165409728796 0 0)
(-0.02528308943510389 0 0)
(-0.01351239137821185 0 0)
(-0.000218496659239188 0 0)
(0.01458561870548935 0 0)
(0.03076334461518682 0 0)
(0.04810454662442828 0 0)
(0.06633848144339732 0 0)
(0.08512494499770114 0 0)
(0.1040598733786853 0 0)
(0.1226872581710088 0 0)
(0.1405118357540958 0 0)
(0.1570670424659397 0 0)
(0.17183802085243 0 0)
(0.1840747011096593 0 0)
(0.1933925031478177 0 0)
(0.1993370305197479 0 0)
(0.2010574932323374 0 0)
(0.1998621894190328 0 0)
(0.1967124783570607 0 0)
(0.1917522874908331 0 0)
(0.1854361529025295 0 0)
(0.1780319475400343 0 0)
(0.1684295837263428 0 0)
(0.1589178397636551 0 0)
(0.148799356146621 0 0)
(0.1380058151563887 0 0)
(0.1264035617952921 0 0)
(0.1140233987682524 0 0)
(0.1009558518603311 0 0)
(0.0872787660192193 0 0)
(0.07308430265816437 0 0)
(0.05854956539435237 0 0)
(0.04395105179000388 0 0)
(0.02959858483498725 0 0)
(0.01579566828661624 0 0)
(0.002967947370821612 0 0)
(-0.008375138271630823 0 0)
(-0.01785630328267422 0 0)
(-0.02472979846846503 0 0)
(-0.02802766061069974 0 0)
(-0.02863816089874729 0 0)
(-0.02778047889768794 0 0)
(-0.02540397095459735 0 0)
(-0.02174147446378884 0 0)
(-0.01701773201289844 0 0)
(-0.01014657311845275 0 0)
(-0.003062534800643697 0 0)
(0.004814209258339691 0 0)
(0.01344769469292267 0 0)
(0.02293042226144893 0 0)
(0.03334212727105392 0 0)
(0.04468267826166991 0 0)
(0.05687247919800141 0 0)
(0.06978821177231456 0 0)
(0.08326818725007552 0 0)
(0.09709564577375415 0 0)
(0.1109821545286992 0 0)
(0.1245755742117339 0 0)
(0.1375316462741292 0 0)
(0.1494712390484789 0 0)
(0.1597500181937271 0 0)
(0.1679369083173295 0 0)
(0.1738295616945624 0 0)
(0.1762147026249681 0 0)
(0.175734633287925 0 0)
(0.1735438402937707 0 0)
(0.1697559735430371 0 0)
(0.1646598675333921 0 0)
(0.158623041670928 0 0)
(0.1508781978046452 0 0)
(0.1427796469294131 0 0)
(0.1343414815437964 0 0)
(0.1255636249392333 0 0)
(0.1162764694515622 0 0)
(0.1063782566744344 0 0)
(0.09585176314382944 0 0)
(0.08474235036744737 0 0)
(0.07310727210674431 0 0)
(0.06102413215274086 0 0)
(0.04864580553462618 0 0)
(0.03619731494136007 0 0)
(0.02397322664181764 0 0)
(0.01242367225856471 0 0)
(0.002034830025965942 0 0)
(-0.006711959705387396 0 0)
(-0.01281858642571756 0 0)
(-0.01545640559903492 0 0)
(-0.01575730493421889 0 0)
(-0.01471545925631666 0 0)
(-0.01212992845026537 0 0)
(-0.00822012286228606 0 0)
(-0.002787892614120835 0 0)
(0.004095281023523819 0 0)
(0.0114195125877878 0 0)
(0.01947556745919402 0 0)
(0.02832603175407418 0 0)
(0.03806725928246716 0 0)
(0.04874539929184506 0 0)
(0.06032489487640121 0 0)
(0.07271701461207372 0 0)
(0.08580073644661221 0 0)
(0.09940675858542516 0 0)
(0.1132920961370475 0 0)
(0.1271470426371035 0 0)
(0.1406377892490039 0 0)
(0.1533665996956151 0 0)
(0.164697394280247 0 0)
(0.1740662739036125 0 0)
(0.1812521372081612 0 0)
(0.1849914981464919 0 0)
(0.1853940838662038 0 0)
(0.1838650499613222 0 0)
(0.1806454260195125 0 0)
(0.175939438403108 0 0)
(0.1701696363814579 0 0)
(0.1631235491203899 0 0)
(0.1549689419419861 0 0)
(0.1467768988614737 0 0)
(0.1382135466509662 0 0)
(0.1291758918732019 0 0)
(0.1195821578152885 0 0)
(0.1094403713435919 0 0)
(0.09877387435221895 0 0)
(0.08757294641640495 0 0)
(0.07585281326446396 0 0)
(0.06372256637150915 0 0)
(0.05136848956312604 0 0)
(0.03902055404790893 0 0)
(0.02705761733734093 0 0)
(0.01599625012429533 0 0)
(0.0063072584605046 0 0)
(-0.001161491984566212 0 0)
(-0.005210966269354288 0 0)
(-0.006259894836997554 0 0)
(-0.005659265880426203 0 0)
(-0.003527873963499285 0 0)
(2.941027286545651e-05 0 0)
(0.004797319871561049 0 0)
(0.01178428203412057 0 0)
(0.018859898446569 0 0)
(0.02673039524568276 0 0)
(0.03531586834651724 0 0)
(0.04469309032186576 0 0)
(0.05492370928974657 0 0)
(0.06599031818876147 0 0)
(0.0778226563854352 0 0)
(0.09033116438276266 0 0)
(0.1033977562599822 0 0)
(0.116848973543988 0 0)
(0.1304424013031986 0 0)
(0.1438757426914892 0 0)
(0.1568018168716437 0 0)
(0.1687250523994906 0 0)
(0.1789825953362649 0 0)
(0.1871689259474949 0 0)
(0.1925958776929182 0 0)
(0.1943382359850975 0 0)
(0.1935612102402876 0 0)
(0.1911360360271958 0 0)
(0.1870823119582445 0 0)
(0.1818325800589875 0 0)
(0.1756228024748393 0 0)
(0.1674551015194903 0 0)
(0.1596313350902495 0 0)
(0.1512641193283939 0 0)
(0.1424660893364408 0 0)
(0.1331644248470403 0 0)
(0.12332642205807 0 0)
(0.1129415289257369 0 0)
(0.1020053719859573 0 0)
(0.09054420123473415 0 0)
(0.07863393102028446 0 0)
(0.0664036104764142 0 0)
(0.05403210794824202 0 0)
(0.0418209745106437 0 0)
(0.03025321147903952 0 0)
(0.01982540133045421 0 0)
(0.01121467576685972 0 0)
(0.005656185734570461 0 0)
(0.00363125710465216 0 0)
(0.003744207010524469 0 0)
(0.005270021639992506 0 0)
(0.008293856732788322 0 0)
(0.01265815648348443 0 0)
(0.01912620406928412 0 0)
(0.02619613263704991 0 0)
(0.0339141625516757 0 0)
(0.04229370959448524 0 0)
(0.05141413126412856 0 0)
(0.06131759249289175 0 0)
(0.07198557297231767 0 0)
(0.08335287869231688 0 0)
(0.09534906696331347 0 0)
(0.1078952139305881 0 0)
(0.1208701536521931 0 0)
(0.1340855405391955 0 0)
(0.1472906641115428 0 0)
(0.1602085092192409 0 0)
(0.1724474485476404 0 0)
(0.1833578011228446 0 0)
(0.1924432791297555 0 0)
(0.199287248102118 0 0)
(0.2024824137727521 0 0)
(0.2026094625319416 0 0)
(0.2010142308876153 0 0)
(0.1977685640781886 0 0)
(0.1932228240488296 0 0)
(0.1876217763205907 0 0)
(0.1799068040732511 0 0)
(0.1723111117017789 0 0)
(0.1642059158983357 0 0)
(0.1556693224952889 0 0)
(0.1466048546296111 0 0)
(0.1369727538818805 0 0)
(0.1267859748898836 0 0)
(0.1160729578919622 0 0)
(0.1048484440948401 0 0)
(0.09313884066546688 0 0)
(0.08103681450131751 0 0)
(0.06870281562667585 0 0)
(0.05636749564121699 0 0)
(0.04443872364485149 0 0)
(0.03343876821352219 0 0)
(0.02391132444683304 0 0)
(0.01692149798954382 0 0)
(0.0136033381081429 0 0)
(0.01303741794486045 0 0)
(0.01396732186651158 0 0)
(0.01646001884306171 0 0)
(0.02042204645127314 0 0)
(0.02608874222409275 0 0)
(0.03317359434141863 0 0)
(0.04069725993363415 0 0)
(0.04889425421050952 0 0)
(0.05780576005765396 0 0)
(0.06746793607566243 0 0)
(0.07785467846866172 0 0)
(0.08889128693530787 0 0)
(0.1004970194803965 0 0)
(0.1125955801113227 0 0)
(0.125095749495832 0 0)
(0.1378659945508127 0 0)
(0.1507202349791061 0 0)
(0.1634363364006841 0 0)
(0.1757124762331748 0 0)
(0.1870255019468063 0 0)
(0.1968201036612748 0 0)
(0.2046507652172878 0 0)
(0.2094281958222024 0 0)
(0.2107309023511032 0 0)
(0.2099446648323902 0 0)
(0.2076687771855212 0 0)
(0.203954473083953 0 0)
(0.1990192977576528 0 0)
(0.1921466355659834 0 0)
(0.1848159320738008 0 0)
(0.1770291843665214 0 0)
(0.1687400802292622 0 0)
(0.1598339554677577 0 0)
(0.150305930854037 0 0)
(0.1402080449135533 0 0)
(0.1295726751250992 0 0)
(0.118399769984905 0 0)
(0.1067137331135832 0 0)
(0.09460626507789968 0 0)
(0.08222297857470941 0 0)
(0.0697447634651286 0 0)
(0.0574935674317106 0 0)
(0.04597616978096877 0 0)
(0.03569304625465328 0 0)
(0.02744841581540373 0 0)
(0.02256876454995335 0 0)
(0.02108825751557174 0 0)
(0.02151517055971455 0 0)
(0.02344451026152397 0 0)
(0.02688590580094728 0 0)
(0.0317185052455489 0 0)
(0.03874914525277638 0 0)
(0.04596269378230991 0 0)
(0.05394342115392591 0 0)
(0.06262832746188736 0 0)
(0.0720539171347144 0 0)
(0.08220602107223338 0 0)
(0.09299644989259066 0 0)
(0.1043158956930212 0 0)
(0.1160766111529654 0 0)
(0.1282058467089555 0 0)
(0.1406091427699281 0 0)
(0.1531398157277911 0 0)
(0.1656107470811713 0 0)
(0.1777979855806698 0 0)
(0.1893046585663394 0 0)
(0.1995684420097602 0 0)
(0.2081616982506271 0 0)
(0.2143252249460843 0 0)
(0.216888539324132 0 0)
(0.2168575791771646 0 0)
(0.2153592210738488 0 0)
(0.21231225808446 0 0)
(0.2079511497500825 0 0)
(0.202007704312276 0 0)
(0.1948506938391359 0 0)
(0.1873759633145797 0 0)
(0.1793431653292882 0 0)
(0.1706793508711621 0 0)
(0.1613530385751565 0 0)
(0.1513929298806837 0 0)
(0.1408456636200613 0 0)
(0.129754569337921 0 0)
(0.118169134915082 0 0)
(0.1061601018572732 0 0)
(0.09384292489628943 0 0)
(0.08137584654366832 0 0)
(0.06900054948371971 0 0)
(0.05715353986605144 0 0)
(0.04635378806779728 0 0)
(0.03720089208799287 0 0)
(0.03088103041077779 0 0)
(0.02831343958857722 0 0)
(0.02818855436352812 0 0)
(0.02950161025090692 0 0)
(0.03234846481486485 0 0)
(0.0366290336239258 0 0)
(0.04303239954632584 0 0)
(0.05011710122876716 0 0)
(0.05786178748199523 0 0)
(0.06630844270422406 0 0)
(0.07551037313901894 0 0)
(0.08544403628149953 0 0)
(0.09601179819976305 0 0)
(0.1070935833670275 0 0)
(0.1185981168175044 0 0)
(0.1304510061572488 0 0)
(0.1425595495466133 0 0)
(0.1547988719306246 0 0)
(0.1670175943427848 0 0)
(0.1790482153360377 0 0)
(0.1906031414359584 0 0)
(0.201185294613782 0 0)
(0.2103621316174986 0 0)
(0.2175329204579437 0 0)
(0.2214277540299861 0 0)
(0.2222687841454871 0 0)
(0.2214239711192402 0 0)
(0.219071687058375 0 0)
(0.2153427683412707 0 0)
(0.210358247534127 0 0)
(0.2032951689571167 0 0)
(0.1962110022127301 0 0)
(0.1884161849218198 0 0)
(0.1799657078319665 0 0)
(0.170797102835773 0 0)
(0.1609290458855632 0 0)
(0.1504489285878114 0 0)
(0.1394327482328327 0 0)
(0.1279240301103126 0 0)
(0.1159783083603049 0 0)
(0.1037088935935823 0 0)
(0.0912721289737794 0 0)
(0.07885273934669497 0 0)
(0.0667978926858461 0 0)
(0.05562513085081815 0 0)
(0.0458146677139254 0 0)
(0.03829449969973445 0 0)
(0.03439093232168182 0 0)
(0.03354121962503173 0 0)
(0.03432618200198651 0 0)
(0.03664158651460558 0 0)
(0.0404567523074424 0 0)
(0.04597495019733035 0 0)
(0.05295724059228627 0 0)
(0.06040046556313751 0 0)
(0.06857137954039921 0 0)
(0.07750432654241399 0 0)
(0.08719342180775604 0 0)
(0.09755125502038672 0 0)
(0.1084487110775561 0 0)
(0.1197647725748783 0 0)
(0.1313979399527264 0 0)
(0.1432580539739347 0 0)
(0.1552498757082142 0 0)
(0.1672483610945093 0 0)
(0.1791083618956668 0 0)
(0.190625573684753 0 0)
(0.2014012203252836 0 0)
(0.2109813542767365 0 0)
(0.218900145298396 0 0)
(0.2241157113253107 0 0)
(0.2259675726491031 0 0)
(0.2257002026234193 0 0)
(0.2240324987549454 0 0)
(0.2209481577062918 0 0)
(0.2165745265495989 0 0)
(0.2100933367745791 0 0)
(0.2031703680136588 0 0)
(0.1955847412512759 0 0)
(0.1873101386797331 0 0)
(0.1782842838652707 0 0)
(0.1685267840776199 0 0)
(0.1581079404620109 0 0)
(0.1471054202916242 0 0)
(0.1355944283049164 0 0)
(0.1236643919297807 0 0)
(0.1114270360373669 0 0)
(0.09902166916641907 0 0)
(0.08660705837347768 0 0)
(0.07444064929588744 0 0)
(0.06298349428588051 0 0)
(0.05270451474162456 0 0)
(0.04428233600059096 0 0)
(0.03902934351949524 0 0)
(0.03728839960978027 0 0)
(0.0375810626131897 0 0)
(0.0393501321579972 0 0)
(0.04261165934803918 0 0)
(0.04725320044215254 0 0)
(0.05408577432756386 0 0)
(0.06117588408304281 0 0)
(0.06906738598315694 0 0)
(0.0777094735438129 0 0)
(0.08711802331817847 0 0)
(0.09724525584546644 0 0)
(0.1079590040218559 0 0)
(0.1191039539699508 0 0)
(0.1305589007210906 0 0)
(0.1422371074713368 0 0)
(0.1540478522142653 0 0)
(0.1658682462389134 0 0)
(0.1775643605088754 0 0)
(0.1889940723429721 0 0)
(0.1998590103392776 0 0)
(0.2097125866537891 0 0)
(0.2181844188826932 0 0)
(0.224489337327868 0 0)
(0.2274429274343517 0 0)
(0.2278227017388624 0 0)
(0.2267787310546779 0 0)
(0.2242462522666091 0 0)
(0.2203496241036691 0 0)
(0.214758598202483 0 0)
(0.2079291365365355 0 0)
(0.2006201649087155 0 0)
(0.1926189611820978 0 0)
(0.1838478529321446 0 0)
(0.174281138934433 0 0)
(0.1639801778419246 0 0)
(0.1530625021487343 0 0)
(0.1416432611166189 0 0)
(0.1298124364891088 0 0)
(0.1176633316954441 0 0)
(0.1053338647942818 0 0)
(0.0929864509880088 0 0)
(0.08081287430659101 0 0)
(0.06919173472211264 0 0)
(0.05861216863302311 0 0)
(0.04955159140226978 0 0)
(0.04308907076648632 0 0)
(0.04029401664137051 0 0)
(0.04002968036320047 0 0)
(0.04122554856268317 0 0)
(0.04393515248107695 0 0)
(0.04802646006513252 0 0)
(0.0541534441354394 0 0)
(0.06103263447221881 0 0)
(0.06860797889105802 0 0)
(0.07694059459717636 0 0)
(0.08607100662910117 0 0)
(0.09595029659451462 0 0)
(0.1064525163020914 0 0)
(0.1174260269464067 0 0)
(0.1287425418054484 0 0)
(0.1402902553611336 0 0)
(0.1519549431577444 0 0)
(0.1636219387168134 0 0)
(0.1751777657399422 0 0)
(0.1865080671797449 0 0)
(0.1973975859312168 0 0)
(0.2074499641783841 0 0)
(0.216310365744712 0 0)
(0.2233964390977865 0 0)
(0.2275204284736821 0 0)
(0.2286684102322764 0 0)
(0.2281283430047115 0 0)
(0.2261511879060062 0 0)
(0.2227804460199843 0 0)
(0.2181252381463169 0 0)
(0.211350100482435 0 0)
(0.2044067373350898 0 0)
(0.1966651978005815 0 0)
(0.1881657669433066 0 0)
(0.1788700328685152 0 0)
(0.1688177125632721 0 0)
(0.1581160019435099 0 0)
(0.146870816600962 0 0)
(0.1351765207819247 0 0)
(0.1231483764355708 0 0)
(0.1109331548854397 0 0)
(0.09868863650238746 0 0)
(0.08657504830131818 0 0)
(0.07488655231058369 0 0)
(0.06408897709236137 0 0)
(0.05457952106724586 0 0)
(0.04718253601120628 0 0)
(0.0432432865229848 0 0)
(0.04231218843677782 0 0)
(0.04299041755833561 0 0)
(0.0451539387335208 0 0)
(0.04874789059634162 0 0)
(0.05395999038338921 0 0)
(0.06067636147662794 0 0)
(0.06790155215033719 0 0)
(0.07590433617309864 0 0)
(0.08470056319022927 0 0)
(0.09428061921352311 0 0)
(0.1045595189519262 0 0)
(0.1153875989954478 0 0)
(0.1265958854871447 0 0)
(0.1380324696110538 0 0)
(0.1495780621835548 0 0)
(0.161131662983227 0 0)
(0.1725777716240427 0 0)
(0.1838002033037688 0 0)
(0.1946552097541899 0 0)
(0.2048254346612376 0 0)
(0.2139391939805535 0 0)
(0.2216021950053379 0 0)
(0.2268370755156709 0 0)
(0.2288891436095325 0 0)
(0.2288511804368674 0 0)
(0.22745604413457 0 0)
(0.2246386265615445 0 0)
(0.2205380049233518 0 0)
(0.2144091273675423 0 0)
(0.2076619685424417 0 0)
(0.2002244606850123 0 0)
(0.1920458752034673 0 0)
(0.18306320925746 0 0)
(0.1732856931038875 0 0)
(0.1627874209224794 0 0)
(0.1516865891190113 0 0)
(0.1401154501921599 0 0)
(0.1282028058662665 0 0)
(0.1160789879164102 0 0)
(0.1039021171763298 0 0)
(0.09183975854953481 0 0)
(0.08011297432301027 0 0)
(0.06913426404973959 0 0)
(0.05931505630331831 0 0)
(0.05121956208232892 0 0)
(0.04611450557471301 0 0)
(0.04437245496934743 0 0)
(0.04459537836155041 0 0)
(0.04626888859428851 0 0)
(0.04935542732043979 0 0)
(0.05368651154769678 0 0)
(0.06018541330151045 0 0)
(0.06695888711855687 0 0)
(0.07459618400627904 0 0)
(0.08303720819632952 0 0)
(0.0922925932825731 0 0)
(0.1023151241866651 0 0)
(0.1129581274877039 0 0)
(0.1240342831692821 0 0)
(0.135383034864396 0 0)
(0.1468735657008612 0 0)
(0.1583733935302162 0 0)
(0.1697430795582083 0 0)
(0.1808691942421272 0 0)
(0.1916585138267327 0 0)
(0.2018775479805117 0 0)
(0.2111641313752835 0 0)
(0.2192329276497581 0 0)
(0.2253435204144492 0 0)
(0.2283885303380105 0 0)
(0.2289617439587008 0 0)
(0.2281359755867299 0 0)
(0.2258495818781932 0 0)
(0.2222091232440933 0 0)
(0.2170059458228417 0 0)
(0.210353374044412 0 0)
(0.2032532476047346 0 0)
(0.1954128389773323 0 0)
(0.1867740307634072 0 0)
(0.1772996739131904 0 0)
(0.1670432980839655 0 0)
(0.1561315206740748 0 0)
(0.1446997005182424 0 0)
(0.1328710809026225 0 0)
(0.1207904440886261 0 0)
(0.1086454113655292 0 0)
(0.09661939738964506 0 0)
(0.08488434316600044 0 0)
(0.07377857539483212 0 0)
(0.06373408011857358 0 0)
(0.05511926358774507 0 0)
(0.04894988970110308 0 0)
(0.04629191303268466 0 0)
(0.04604072099004735 0 0)
(0.04718776227692308 0 0)
(0.04979957001663195 0 0)
(0.05365861525733077 0 0)
(0.05943592527388398 0 0)
(0.06593102188218943 0 0)
(0.07316019580630458 0 0)
(0.08117595478911989 0 0)
(0.0900351034802927 0 0)
(0.09971701231235128 0 0)
(0.110118213853787 0 0)
(0.1210693536346737 0 0)
(0.1323791870732135 0 0)
(0.1438568836371533 0 0)
(0.1553308848621214 0 0)
(0.1666655898638446 0 0)
(0.1777466411873773 0 0)
(0.188477078843103 0 0)
(0.1986968412218562 0 0)
(0.208090856189617 0 0)
(0.2163980025277789 0 0)
(0.2231304214711111 0 0)
(0.2272034317591228 0 0)
(0.2285105465993672 0 0)
(0.2281842742161929 0 0)
(0.2264613194373172 0 0)
(0.2233596973344455 0 0)
(0.2190188662790894 0 0)
(0.2125391112028344 0 0)
(0.2057732757544504 0 0)
(0.1982076722070528 0 0)
(0.189892028895215 0 0)
(0.1808036181161237 0 0)
(0.1709370449759081 0 0)
(0.1603313610596655 0 0)
(0.149067559999084 0 0)
(0.1372817061859107 0 0)
(0.1251691223913378 0 0)
(0.1129552494411267 0 0)
(0.1008701917317512 0 0)
(0.0891157577650435 0 0)
(0.07795256308368871 0 0)
(0.06776501119474845 0 0)
(0.05882474377830485 0 0)
(0.05185225893130901 0 0)
(0.04813390076562827 0 0)
(0.04723086635913438 0 0)
(0.0478807614046497 0 0)
(0.05003594292359197 0 0)
(0.05353742598388021 0 0)
(0.05840919228371351 0 0)
(0.06489235671957294 0 0)
(0.07173476666081527 0 0)
(0.07931955319250206 0 0)
(0.08766234408906275 0 0)
(0.09682998371588603 0 0)
(0.1068280732960805 0 0)
(0.1175495490600095 0 0)
(0.1288043190672191 0 0)
(0.1403576927952224 0 0)
(0.1519802034101871 0 0)
(0.1633556541821147 0 0)
(0.1746474937060801 0 0)
(0.1842099335445328 0 0)
(0.1997596466927297 0 0)
)
;

boundaryField
{
    inlet
    {
        type            zeroGradient;
    }
    outlet
    {
        type            pressureInletOutletVelocity;
        value           uniform (0.1997596466927297 0 0);
    }
    frontAndBack
    {
        type            empty;
    }
}


// ************************************************************************* //
