/*--------------------------------*- C++ -*----------------------------------*\
| =========                 |                                                 |
| \\      /  F ield         | OpenFOAM: The Open Source CFD Toolbox           |
|  \\    /   O peration     | Version:  v2012                                 |
|   \\  /    A nd           | Website:  www.openfoam.com                      |
|    \\/     M anipulation  |                                                 |
\*---------------------------------------------------------------------------*/
FoamFile
{
    version     2.0;
    format      ascii;
    class       volVectorField;
    location    "0.017";
    object      UMean;
}
// * * * * * * * * * * * * * * * * * * * * * * * * * * * * * * * * * * * * * //

dimensions      [0 1 -1 0 0 0 0];


internalField   nonuniform List<vector> 
1000
(
(0.002309313302806275 0 0)
(0.002307811145540742 0 0)
(0.00234880149936576 0 0)
(0.002375559651720183 0 0)
(0.002427422715510672 0 0)
(0.002470388111844096 0 0)
(0.0025271506644879 0 0)
(0.002586576609629806 0 0)
(0.002655295121663979 0 0)
(0.002726937091106661 0 0)
(0.00280157308316443 0 0)
(0.00287587439610923 0 0)
(0.002947210472638944 0 0)
(0.003020046296608139 0 0)
(0.003085565352458531 0 0)
(0.003150365833368347 0 0)
(0.003211194271253033 0 0)
(0.003265379489259297 0 0)
(0.003312248968894573 0 0)
(0.003351070914402158 0 0)
(0.003381040423316818 0 0)
(0.003402515804144327 0 0)
(0.003414427741780821 0 0)
(0.003417940609812254 0 0)
(0.003409899784641336 0 0)
(0.00339585545536985 0 0)
(0.003373561202227355 0 0)
(0.003340507023817893 0 0)
(0.003300351860281959 0 0)
(0.003251869200009411 0 0)
(0.003197454721766669 0 0)
(0.003138210238615558 0 0)
(0.003075089544470948 0 0)
(0.003008588856392757 0 0)
(0.002940203510494252 0 0)
(0.002868870363607342 0 0)
(0.002800462127959987 0 0)
(0.00272907987902933 0 0)
(0.002664422363329213 0 0)
(0.002605109920912829 0 0)
(0.002551604094735543 0 0)
(0.002504711218620235 0 0)
(0.002465486368270458 0 0)
(0.002434679667379635 0 0)
(0.002413342934870156 0 0)
(0.00240172809850092 0 0)
(0.002400699628449613 0 0)
(0.002408418131717996 0 0)
(0.002427265910970359 0 0)
(0.002459075489549681 0 0)
(0.002498019985261567 0 0)
(0.002546781734379883 0 0)
(0.002603276288094323 0 0)
(0.002666412862414107 0 0)
(0.002734737234452888 0 0)
(0.002807133146998513 0 0)
(0.002882433516246203 0 0)
(0.002959648366451552 0 0)
(0.003034794035090878 0 0)
(0.003109912505384627 0 0)
(0.003179768770716896 0 0)
(0.003248756888354537 0 0)
(0.00331492470376247 0 0)
(0.003375931321173107 0 0)
(0.003429772913576669 0 0)
(0.003475645598524844 0 0)
(0.003512984238285874 0 0)
(0.003541208484226792 0 0)
(0.003560634955059993 0 0)
(0.003570528535699501 0 0)
(0.003570933106444947 0 0)
(0.003561091923377198 0 0)
(0.00354648355086784 0 0)
(0.003520542376094354 0 0)
(0.003486479863703509 0 0)
(0.003444233540201763 0 0)
(0.003395517629230629 0 0)
(0.00334181655948691 0 0)
(0.003283958568557854 0 0)
(0.003222779244408547 0 0)
(0.003159393040226672 0 0)
(0.003093484679017696 0 0)
(0.003027532412371171 0 0)
(0.002960446240468899 0 0)
(0.002896247084927457 0 0)
(0.002837906904909249 0 0)
(0.002785607887560479 0 0)
(0.002739025502731934 0 0)
(0.002699695776941979 0 0)
(0.002668452360908681 0 0)
(0.002646266415196579 0 0)
(0.00263425927895141 0 0)
(0.002631868299837941 0 0)
(0.002640478712883357 0 0)
(0.002656818114895706 0 0)
(0.002688588746083595 0 0)
(0.002728744347622806 0 0)
(0.002777587299286592 0 0)
(0.002834940641759557 0 0)
(0.002899034641587876 0 0)
(0.00296857598963899 0 0)
(0.003042333801344079 0 0)
(0.003119576065589435 0 0)
(0.003198943307805609 0 0)
(0.00327844863900672 0 0)
(0.003355688997046578 0 0)
(0.003431081859553052 0 0)
(0.003501753424980776 0 0)
(0.00357240630818308 0 0)
(0.003639394161350686 0 0)
(0.003699910152852238 0 0)
(0.003752931727084892 0 0)
(0.003797451725099234 0 0)
(0.003833184381545376 0 0)
(0.003859954549810334 0 0)
(0.003876703850257852 0 0)
(0.003885038407928453 0 0)
(0.00388065797595846 0 0)
(0.003871910096165704 0 0)
(0.003854074006403075 0 0)
(0.003826156317766118 0 0)
(0.003790451355415413 0 0)
(0.003747526258348787 0 0)
(0.003699310738302659 0 0)
(0.003646847091736038 0 0)
(0.003590823154016758 0 0)
(0.003532159798789537 0 0)
(0.003471770459606249 0 0)
(0.003409293332622732 0 0)
(0.003347484735786783 0 0)
(0.003283194366215686 0 0)
(0.003226350558593134 0 0)
(0.003175334989123387 0 0)
(0.003129787177112929 0 0)
(0.003090799966721476 0 0)
(0.003059167742815878 0 0)
(0.0030366097690046 0 0)
(0.003023606977705155 0 0)
(0.003020545517869473 0 0)
(0.003028639367665591 0 0)
(0.003044731470218737 0 0)
(0.003073726248093409 0 0)
(0.00311576195933496 0 0)
(0.003165075698946047 0 0)
(0.003223373950838483 0 0)
(0.003288556720421906 0 0)
(0.003359420605806235 0 0)
(0.003434959237804373 0 0)
(0.003514203885779214 0 0)
(0.003595883686348212 0 0)
(0.003679213349215603 0 0)
(0.003760312519952803 0 0)
(0.003840880107322261 0 0)
(0.003913521053147698 0 0)
(0.003987964895940909 0 0)
(0.004060046404767675 0 0)
(0.004127091755126152 0 0)
(0.004187046522384144 0 0)
(0.004238877505053858 0 0)
(0.004282221548555842 0 0)
(0.004316413110442132 0 0)
(0.004341169626146762 0 0)
(0.004356475628242057 0 0)
(0.004360882906720843 0 0)
(0.004355709658426465 0 0)
(0.00434614642091765 0 0)
(0.004325513600184314 0 0)
(0.00429639778449067 0 0)
(0.004259693715121601 0 0)
(0.004217208173572675 0 0)
(0.004170439722170106 0 0)
(0.00411976344733505 0 0)
(0.004066237747802035 0 0)
(0.004011063555309367 0 0)
(0.003953700314414549 0 0)
(0.003896690460894321 0 0)
(0.003835139570810157 0 0)
(0.003779084130162268 0 0)
(0.003729850846354381 0 0)
(0.00368617951664077 0 0)
(0.003648362201230705 0 0)
(0.003617378862708086 0 0)
(0.003594823235956099 0 0)
(0.003581440359714228 0 0)
(0.00357840773253381 0 0)
(0.003585583206622913 0 0)
(0.003602991880537664 0 0)
(0.003629301150290658 0 0)
(0.003672037977677811 0 0)
(0.003722726199133046 0 0)
(0.003781866122394079 0 0)
(0.003848506937306543 0 0)
(0.003921077213639101 0 0)
(0.003998537950277127 0 0)
(0.004080046392337154 0 0)
(0.0041643812262354 0 0)
(0.004251023152366174 0 0)
(0.004337037652421166 0 0)
(0.004421557018894003 0 0)
(0.004500151731307389 0 0)
(0.004575737277874881 0 0)
(0.004652929196259561 0 0)
(0.004726070891515335 0 0)
(0.004792729631360813 0 0)
(0.004851928010648312 0 0)
(0.004902635579177785 0 0)
(0.004944600262876085 0 0)
(0.004977477545819102 0 0)
(0.00500026670133611 0 0)
(0.005013464346289974 0 0)
(0.005014365382714072 0 0)
(0.005011275437629533 0 0)
(0.004998662776183907 0 0)
(0.004976100564611306 0 0)
(0.004946008696417716 0 0)
(0.004909470346740676 0 0)
(0.004868331669195103 0 0)
(0.004823218530974437 0 0)
(0.004775055694625815 0 0)
(0.004724808501778977 0 0)
(0.004673216396728499 0 0)
(0.004620341587538837 0 0)
(0.004565671140865492 0 0)
(0.004507940055783056 0 0)
(0.004461294441533909 0 0)
(0.004419609190370312 0 0)
(0.004383492171200027 0 0)
(0.004353816252661338 0 0)
(0.004331542048106093 0 0)
(0.004318323646048347 0 0)
(0.00431530441552213 0 0)
(0.004321842649174506 0 0)
(0.004340034949136354 0 0)
(0.004365529343833256 0 0)
(0.00440653408615184 0 0)
(0.004459007547653136 0 0)
(0.004518914075770499 0 0)
(0.004587185201626609 0 0)
(0.004661516172433945 0 0)
(0.004740875381338753 0 0)
(0.004824725212938266 0 0)
(0.004911763797571468 0 0)
(0.005001291334593454 0 0)
(0.005091828233420891 0 0)
(0.005180773652581841 0 0)
(0.005267130911143901 0 0)
(0.005342180773807405 0 0)
(0.005424219712408751 0 0)
(0.005502751329664251 0 0)
(0.005575920400140513 0 0)
(0.00564214595505696 0 0)
(0.005700022874472176 0 0)
(0.005749553722729492 0 0)
(0.005790150647675755 0 0)
(0.005820675593417406 0 0)
(0.0058421886945957 0 0)
(0.005850691643549983 0 0)
(0.005852077351146433 0 0)
(0.005847998281512043 0 0)
(0.005832600757594267 0 0)
(0.005809310229712652 0 0)
(0.005778783472688774 0 0)
(0.005743286143129459 0 0)
(0.005703771950504827 0 0)
(0.005660993259007277 0 0)
(0.005615650467703062 0 0)
(0.005569388344366501 0 0)
(0.005521756435963012 0 0)
(0.005474653601739581 0 0)
(0.005416115665830085 0 0)
(0.005371627980599781 0 0)
(0.005331949482740746 0 0)
(0.00529827953459987 0 0)
(0.005270335656173205 0 0)
(0.005249273447575782 0 0)
(0.005236650019034138 0 0)
(0.005233723006797212 0 0)
(0.005240631817161637 0 0)
(0.005258888759777975 0 0)
(0.005285349808870019 0 0)
(0.005322477546839208 0 0)
(0.005377057761633373 0 0)
(0.005438817072635447 0 0)
(0.005508652049862475 0 0)
(0.005585024778751629 0 0)
(0.005666559730939507 0 0)
(0.005752885154234253 0 0)
(0.00584283187543332 0 0)
(0.00593527229216869 0 0)
(0.006029828059985565 0 0)
(0.006123837073506402 0 0)
(0.006217807129482745 0 0)
(0.006295170691419107 0 0)
(0.006380210020852399 0 0)
(0.006463710555276381 0 0)
(0.006543335669446123 0 0)
(0.006616458937181752 0 0)
(0.006681730526600878 0 0)
(0.00673874455407408 0 0)
(0.006786809049909825 0 0)
(0.006825862371647043 0 0)
(0.006854810030520979 0 0)
(0.006873220117537225 0 0)
(0.006877503918986061 0 0)
(0.006881917465335955 0 0)
(0.006875261367793125 0 0)
(0.006858723178762081 0 0)
(0.006834744084751144 0 0)
(0.006805148682117341 0 0)
(0.006771265082701282 0 0)
(0.006734163346474766 0 0)
(0.006694038961777386 0 0)
(0.0066530034809326 0 0)
(0.006610837861391295 0 0)
(0.006570324641581548 0 0)
(0.006517744323083842 0 0)
(0.006472115082632323 0 0)
(0.006435192549719185 0 0)
(0.006404096068200664 0 0)
(0.006378554873501546 0 0)
(0.006359666810948838 0 0)
(0.006348169385602834 0 0)
(0.006345891630955806 0 0)
(0.006354058848660619 0 0)
(0.006371929114277596 0 0)
(0.006401138463495262 0 0)
(0.006434976095497549 0 0)
(0.006489890505399006 0 0)
(0.006554177729295591 0 0)
(0.006625016582242041 0 0)
(0.006703568254696947 0 0)
(0.006787388808358433 0 0)
(0.006876025688108848 0 0)
(0.006968744021442078 0 0)
(0.007064299053201164 0 0)
(0.007162315282117386 0 0)
(0.00726097883257369 0 0)
(0.00736008528272622 0 0)
(0.007448591182269228 0 0)
(0.007530599846570115 0 0)
(0.007619935381262657 0 0)
(0.007704828595918159 0 0)
(0.007784712322539596 0 0)
(0.007857299177930292 0 0)
(0.007921501708102434 0 0)
(0.007977080804458029 0 0)
(0.008024275662033748 0 0)
(0.008060640491870004 0 0)
(0.008088487818771943 0 0)
(0.008099662770070222 0 0)
(0.008109387439557983 0 0)
(0.008110797081301345 0 0)
(0.008100458872173951 0 0)
(0.008082396459279096 0 0)
(0.008057359121900688 0 0)
(0.008027327491203943 0 0)
(0.007993702426335958 0 0)
(0.007956685244801882 0 0)
(0.007917776354253113 0 0)
(0.007877956219364924 0 0)
(0.007838192952734148 0 0)
(0.007795331590120212 0 0)
(0.007738641867318141 0 0)
(0.007701655491025659 0 0)
(0.007666715559439801 0 0)
(0.007637596499018452 0 0)
(0.007613818373342914 0 0)
(0.007595918901638318 0 0)
(0.007585513539806148 0 0)
(0.007584366216972087 0 0)
(0.007591198861742593 0 0)
(0.007609442034928314 0 0)
(0.007631183154913409 0 0)
(0.007668344586109995 0 0)
(0.007719108903037545 0 0)
(0.007775320644597062 0 0)
(0.007840298682528607 0 0)
(0.007911709034459346 0 0)
(0.007988688601880331 0 0)
(0.008070815427780232 0 0)
(0.008157190050502559 0 0)
(0.008246782367659784 0 0)
(0.008339901986818291 0 0)
(0.008434634897542403 0 0)
(0.008529340118431249 0 0)
(0.008600111646710739 0 0)
(0.008690897829842842 0 0)
(0.008777437509083224 0 0)
(0.00886269566843394 0 0)
(0.008943418848257273 0 0)
(0.009018511177560015 0 0)
(0.009087145344536991 0 0)
(0.009149763924948763 0 0)
(0.009204029212049108 0 0)
(0.009252212438039607 0 0)
(0.009286735036745498 0 0)
(0.009314810828350933 0 0)
(0.009340516165423132 0 0)
(0.009354324290129997 0 0)
(0.009359837429814076 0 0)
(0.009357034297869729 0 0)
(0.009347309981481091 0 0)
(0.009332665187516909 0 0)
(0.009314152262354628 0 0)
(0.009292157736620038 0 0)
(0.00926866449215572 0 0)
(0.009243963960987337 0 0)
(0.009221201978619295 0 0)
(0.009171513057355581 0 0)
(0.009144440848814737 0 0)
(0.009118935583268191 0 0)
(0.009098145835256649 0 0)
(0.009081541287278231 0 0)
(0.009069428448138003 0 0)
(0.009062765424331598 0 0)
(0.009063316819119574 0 0)
(0.00907148689445458 0 0)
(0.009088879602800519 0 0)
(0.009112016667465939 0 0)
(0.009142009087551341 0 0)
(0.009190934579192888 0 0)
(0.009246526528463547 0 0)
(0.009309783034718574 0 0)
(0.009380399022327457 0 0)
(0.009457469586756535 0 0)
(0.009539947124302865 0 0)
(0.009627723757804204 0 0)
(0.00971899142398335 0 0)
(0.009814428741634207 0 0)
(0.00991227414248845 0 0)
(0.01001512264578942 0 0)
(0.01009055079484253 0 0)
(0.01018083331606209 0 0)
(0.01027262248777322 0 0)
(0.01036270796619952 0 0)
(0.01044947361076973 0 0)
(0.01053123116323586 0 0)
(0.01060645831133674 0 0)
(0.01067535440369256 0 0)
(0.010737369006206 0 0)
(0.01079139560456339 0 0)
(0.01083630871678729 0 0)
(0.01086585677505791 0 0)
(0.01089842692336035 0 0)
(0.01092139584604548 0 0)
(0.01093311224085678 0 0)
(0.01093671439123675 0 0)
(0.0109328023576575 0 0)
(0.01092321897628477 0 0)
(0.01091003571038781 0 0)
(0.0108931944342541 0 0)
(0.01087455109852483 0 0)
(0.01085459526772091 0 0)
(0.01083746923050376 0 0)
(0.01080080090443278 0 0)
(0.0107683435421467 0 0)
(0.01074789607560299 0 0)
(0.01072964377202201 0 0)
(0.01071641055098432 0 0)
(0.01070757342257907 0 0)
(0.01070369047301688 0 0)
(0.01070590285743254 0 0)
(0.01071644522150082 0 0)
(0.01073384312038786 0 0)
(0.01076130919807868 0 0)
(0.01078809492154121 0 0)
(0.01083654646255276 0 0)
(0.01089535296132669 0 0)
(0.01095892251264715 0 0)
(0.01103099817513368 0 0)
(0.01110986214211265 0 0)
(0.0111942075599317 0 0)
(0.01128403118656549 0 0)
(0.01137800185510298 0 0)
(0.01147595807510127 0 0)
(0.01157689348581733 0 0)
(0.01168192127186256 0 0)
(0.01177576909935169 0 0)
(0.01185655664301197 0 0)
(0.01195494652286486 0 0)
(0.01204819419238061 0 0)
(0.01214017925341958 0 0)
(0.01222768736724149 0 0)
(0.01230932996532613 0 0)
(0.01238412851311307 0 0)
(0.01245299770506515 0 0)
(0.01251282498275723 0 0)
(0.01256676347201269 0 0)
(0.01260319984727618 0 0)
(0.01264013194044999 0 0)
(0.01267090838369542 0 0)
(0.01268891905089102 0 0)
(0.01269938730912238 0 0)
(0.01270178592771692 0 0)
(0.01269785456677649 0 0)
(0.01268964877202699 0 0)
(0.01267836821181676 0 0)
(0.01266459928893232 0 0)
(0.01264981509795238 0 0)
(0.0126350983964417 0 0)
(0.01261931194239988 0 0)
(0.01257582791849395 0 0)
(0.01256248213153476 0 0)
(0.01254612486635906 0 0)
(0.0125361782240975 0 0)
(0.01253057189081333 0 0)
(0.01252999658029355 0 0)
(0.01253455182978296 0 0)
(0.01254707544106539 0 0)
(0.01256571292061809 0 0)
(0.01259549356482344 0 0)
(0.01262578786220183 0 0)
(0.01267125502979456 0 0)
(0.01273049164841416 0 0)
(0.01279525607664763 0 0)
(0.01286857226206807 0 0)
(0.01294907376008055 0 0)
(0.01303534771558243 0 0)
(0.01312675119969769 0 0)
(0.01322329500016096 0 0)
(0.01332370067745709 0 0)
(0.01342770070522579 0 0)
(0.01353432069692451 0 0)
(0.0136453467746683 0 0)
(0.0137192108621562 0 0)
(0.01382222254078471 0 0)
(0.01391948196988212 0 0)
(0.01401609217061001 0 0)
(0.01410908590286841 0 0)
(0.01419700854990714 0 0)
(0.01427820383956258 0 0)
(0.01435303884456048 0 0)
(0.01441971970473727 0 0)
(0.01448033772439327 0 0)
(0.01452664126599201 0 0)
(0.01456596621147938 0 0)
(0.01460317181820289 0 0)
(0.01462962980613704 0 0)
(0.0146466930717726 0 0)
(0.01465567188217444 0 0)
(0.014657654204783 0 0)
(0.01465438189727683 0 0)
(0.01464839880627227 0 0)
(0.01463961647708525 0 0)
(0.01462971706134038 0 0)
(0.01461908384639468 0 0)
(0.01461438546977795 0 0)
(0.01457511732027144 0 0)
(0.0145597840333837 0 0)
(0.0145486329160501 0 0)
(0.01454115501642803 0 0)
(0.01453868001361769 0 0)
(0.01454126722148456 0 0)
(0.01454878410601621 0 0)
(0.01456274095013167 0 0)
(0.01458394668980164 0 0)
(0.01461358008639649 0 0)
(0.01464924288673234 0 0)
(0.01468932095864683 0 0)
(0.01474874797416268 0 0)
(0.01481731634779442 0 0)
(0.01489112475226686 0 0)
(0.01497310393487886 0 0)
(0.01506117345265541 0 0)
(0.01515428865370177 0 0)
(0.01525261285335069 0 0)
(0.0153553778917089 0 0)
(0.01546191684130647 0 0)
(0.01557134581619469 0 0)
(0.01568621708669107 0 0)
(0.01577624238473114 0 0)
(0.01586976774741039 0 0)
(0.01597445233808783 0 0)
(0.01607416568072638 0 0)
(0.01617221290786684 0 0)
(0.01626588275149255 0 0)
(0.01635361285605149 0 0)
(0.01643420422379798 0 0)
(0.01650827846270934 0 0)
(0.01657337548743754 0 0)
(0.01663155613326643 0 0)
(0.0166703053064849 0 0)
(0.01671382909767973 0 0)
(0.01675111990492006 0 0)
(0.01677395852553579 0 0)
(0.01678959889785256 0 0)
(0.01679754498777536 0 0)
(0.01679957701773865 0 0)
(0.01679801838494025 0 0)
(0.01679424678328082 0 0)
(0.01678906134689527 0 0)
(0.01678289955636484 0 0)
(0.0167795298673003 0 0)
(0.016764110766397 0 0)
(0.01673520235108911 0 0)
(0.01673173200771812 0 0)
(0.01672583698762251 0 0)
(0.01672622790416762 0 0)
(0.01673154613520872 0 0)
(0.01674215506547495 0 0)
(0.01675802864202365 0 0)
(0.01678153425744278 0 0)
(0.01681076266902776 0 0)
(0.01685096109761413 0 0)
(0.01688858616745477 0 0)
(0.0169463126647661 0 0)
(0.01701721066698053 0 0)
(0.01709077557301582 0 0)
(0.01717323594999658 0 0)
(0.01726244221284229 0 0)
(0.0173568573517401 0 0)
(0.01745599262531265 0 0)
(0.01756027849721117 0 0)
(0.01766877414488797 0 0)
(0.01778038541701018 0 0)
(0.01789420734272358 0 0)
(0.01800781364715201 0 0)
(0.01808655881458855 0 0)
(0.01819858491637642 0 0)
(0.01830049833260524 0 0)
(0.01840239923619913 0 0)
(0.01850059051101534 0 0)
(0.01859394034969765 0 0)
(0.01868044367660457 0 0)
(0.01876046868468699 0 0)
(0.0188309968064504 0 0)
(0.01889657334690105 0 0)
(0.01894399816187844 0 0)
(0.01899040781715341 0 0)
(0.01903285761153356 0 0)
(0.01906249524112782 0 0)
(0.01908358396325941 0 0)
(0.0190973271467711 0 0)
(0.01910426502785752 0 0)
(0.01910660573681142 0 0)
(0.01910665450261234 0 0)
(0.01910553574236275 0 0)
(0.0191035224090363 0 0)
(0.01910065741402068 0 0)
(0.01910535945794061 0 0)
(0.01906612919020084 0 0)
(0.01906675468932784 0 0)
(0.01906301609605943 0 0)
(0.01906499982180022 0 0)
(0.01907179598050086 0 0)
(0.01908435409743144 0 0)
(0.01910213163864021 0 0)
(0.01912634681777318 0 0)
(0.01915652217174658 0 0)
(0.01919639152063361 0 0)
(0.01923786635715715 0 0)
(0.01929108533525358 0 0)
(0.01935949239776072 0 0)
(0.0194350941531774 0 0)
(0.01951674271054214 0 0)
(0.01960646214777947 0 0)
(0.01970166500814356 0 0)
(0.01980137897362339 0 0)
(0.01990596629219654 0 0)
(0.02001578997595246 0 0)
(0.02012915130574415 0 0)
(0.02024408461785011 0 0)
(0.02036694112032708 0 0)
(0.02044998528786697 0 0)
(0.02055727304794332 0 0)
(0.02066469354841657 0 0)
(0.02076921872860927 0 0)
(0.02087079853208477 0 0)
(0.02096875184836858 0 0)
(0.02106068662817742 0 0)
(0.02114578693349956 0 0)
(0.02122275724165149 0 0)
(0.02129204304379773 0 0)
(0.02135020752256194 0 0)
(0.02139614061022932 0 0)
(0.02144291852360242 0 0)
(0.02148210456216565 0 0)
(0.02150804518633705 0 0)
(0.02152720797871124 0 0)
(0.02153909263329711 0 0)
(0.02154551942941082 0 0)
(0.0215484672241835 0 0)
(0.0215507380395514 0 0)
(0.02155199419963408 0 0)
(0.02155247935483532 0 0)
(0.02155755375438055 0 0)
(0.02153967268949786 0 0)
(0.02152432091189424 0 0)
(0.02152757560389166 0 0)
(0.02152961892582711 0 0)
(0.02153705787992169 0 0)
(0.02155026140448427 0 0)
(0.02156923989491524 0 0)
(0.02159406223040881 0 0)
(0.02162530811641373 0 0)
(0.02166232095516077 0 0)
(0.02170948096051014 0 0)
(0.02175225090342332 0 0)
(0.02181920370547318 0 0)
(0.02189921540415129 0 0)
(0.02197901451753478 0 0)
(0.02206814907917517 0 0)
(0.02216359942516518 0 0)
(0.02226361880506939 0 0)
(0.02236790841042187 0 0)
(0.02247764373915815 0 0)
(0.02259192227217086 0 0)
(0.02270868806971497 0 0)
(0.02282765943010647 0 0)
(0.02293857774169018 0 0)
(0.02302449392502402 0 0)
(0.02314077293726504 0 0)
(0.02324619724675093 0 0)
(0.02335058254910763 0 0)
(0.02345137562277823 0 0)
(0.02354773461288916 0 0)
(0.02363791916115556 0 0)
(0.02372054473440025 0 0)
(0.02379311659578514 0 0)
(0.02386094266547919 0 0)
(0.02390685578455323 0 0)
(0.02395765877410013 0 0)
(0.02400504547484549 0 0)
(0.02403540994461303 0 0)
(0.02405905008466351 0 0)
(0.02407557912119511 0 0)
(0.02408596219819167 0 0)
(0.02409181787354421 0 0)
(0.02409587498189664 0 0)
(0.02410018218156832 0 0)
(0.02410373823115791 0 0)
(0.02410591172907137 0 0)
(0.02411448273270222 0 0)
(0.02407751223062465 0 0)
(0.02408876508834185 0 0)
(0.02409002383013877 0 0)
(0.02409807116290221 0 0)
(0.02411028564007081 0 0)
(0.0241292735800714 0 0)
(0.02415443539135564 0 0)
(0.02418560499816837 0 0)
(0.0242216251251989 0 0)
(0.02426804860965165 0 0)
(0.02431199078176221 0 0)
(0.02437378794656464 0 0)
(0.02444998861489236 0 0)
(0.02452957137261196 0 0)
(0.02461634412815711 0 0)
(0.02471081113507083 0 0)
(0.02481055305968064 0 0)
(0.02491424257335011 0 0)
(0.0250222363361635 0 0)
(0.02513663267943207 0 0)
(0.02525430858679128 0 0)
(0.02537127735283191 0 0)
(0.02549982087559303 0 0)
(0.02557305966724489 0 0)
(0.025692439365769 0 0)
(0.02580004893373881 0 0)
(0.02590667254202981 0 0)
(0.026008867604022 0 0)
(0.02610795337427628 0 0)
(0.02620206814484876 0 0)
(0.02628940508196356 0 0)
(0.02636699708207724 0 0)
(0.02643766208511624 0 0)
(0.0264931384114687 0 0)
(0.02654370680984235 0 0)
(0.02659198253185224 0 0)
(0.02663063600704112 0 0)
(0.02665736403072203 0 0)
(0.02667763859779025 0 0)
(0.0266916595805433 0 0)
(0.02670032810052415 0 0)
(0.02670535822254298 0 0)
(0.0267112880349795 0 0)
(0.02671678261003589 0 0)
(0.02672032932525307 0 0)
(0.02673218125460899 0 0)
(0.02670605087188992 0 0)
(0.02670466370594285 0 0)
(0.02671062448343032 0 0)
(0.02671772927297584 0 0)
(0.02672873553109877 0 0)
(0.02674584665532296 0 0)
(0.02677007878104187 0 0)
(0.02680104864487164 0 0)
(0.02683683284020984 0 0)
(0.02687909631613656 0 0)
(0.02692809756593259 0 0)
(0.02697811164315277 0 0)
(0.02704995077291014 0 0)
(0.02713352192741907 0 0)
(0.027216748122295 0 0)
(0.02730949161501028 0 0)
(0.02740819528668896 0 0)
(0.02751145944024373 0 0)
(0.02761791933971161 0 0)
(0.02773053925065817 0 0)
(0.02784787235443121 0 0)
(0.02796668281172632 0 0)
(0.0280883844507775 0 0)
(0.02819229340710023 0 0)
(0.02828490574008965 0 0)
(0.02840212646782331 0 0)
(0.02850866692819784 0 0)
(0.02861272712990655 0 0)
(0.02871262740657121 0 0)
(0.02880918861272429 0 0)
(0.02890076768386181 0 0)
(0.0289836715228223 0 0)
(0.02905578532649319 0 0)
(0.02912304697859544 0 0)
(0.02916467236529654 0 0)
(0.02921674161348757 0 0)
(0.02926731899986 0 0)
(0.0292958929485763 0 0)
(0.02931980635960446 0 0)
(0.0293365698811541 0 0)
(0.02934841653739084 0 0)
(0.02935532069466056 0 0)
(0.02936107599048604 0 0)
(0.02936785474131515 0 0)
(0.02937417400627324 0 0)
(0.02937887832947684 0 0)
(0.0293866706195004 0 0)
(0.02935128827741223 0 0)
(0.02936871852796437 0 0)
(0.02937331827267798 0 0)
(0.0293841367950491 0 0)
(0.02939856463158404 0 0)
(0.02942023489423669 0 0)
(0.02945048975816892 0 0)
(0.02948624228281222 0 0)
(0.02952599399200491 0 0)
(0.02957636732672689 0 0)
(0.02961980434613484 0 0)
(0.02968736893488633 0 0)
(0.02977068452407198 0 0)
(0.02985166451572628 0 0)
(0.02994173440503383 0 0)
(0.03003852268418773 0 0)
(0.03014111173876014 0 0)
(0.03024705153901652 0 0)
(0.03035709252712309 0 0)
(0.03047354521065986 0 0)
(0.03059386310784314 0 0)
(0.03071018991201155 0 0)
(0.03084353191837821 0 0)
(0.03090371590062255 0 0)
(0.03103390175361685 0 0)
(0.03114046373571993 0 0)
(0.03124743927677444 0 0)
(0.03134828971362372 0 0)
(0.03144538446357423 0 0)
(0.03153991128806163 0 0)
(0.03162786183075562 0 0)
(0.03170503782380493 0 0)
(0.03177488763112089 0 0)
(0.0318261220242793 0 0)
(0.03187766242527255 0 0)
(0.03192694418500187 0 0)
(0.03196378671015645 0 0)
(0.03198957025302864 0 0)
(0.03200923261600975 0 0)
(0.03202344917795433 0 0)
(0.03203334896356144 0 0)
(0.03203921839917467 0 0)
(0.03204663813677223 0 0)
(0.03205432465070897 0 0)
(0.03205856319292747 0 0)
(0.03207527881063374 0 0)
(0.03203834298823561 0 0)
(0.03204928380083771 0 0)
(0.03205668658214618 0 0)
(0.03206727022203043 0 0)
(0.03208029708267886 0 0)
(0.03209842570939438 0 0)
(0.03212570284930787 0 0)
(0.0321612688798321 0 0)
(0.03220136525440567 0 0)
(0.03224724793937042 0 0)
(0.03229678890598586 0 0)
(0.03235329773288759 0 0)
(0.0324281697170655 0 0)
(0.03251443109840699 0 0)
(0.03259993789053949 0 0)
(0.03269482953345074 0 0)
(0.03279534724728993 0 0)
(0.03290105826120393 0 0)
(0.03300957098884565 0 0)
(0.03312442729703646 0 0)
(0.03324312738339365 0 0)
(0.03336262091990543 0 0)
(0.03348572863555361 0 0)
(0.03358190556902815 0 0)
(0.03367994333349818 0 0)
(0.03379735076621768 0 0)
(0.03390466640688978 0 0)
(0.0340078324500371 0 0)
(0.03410549352018835 0 0)
(0.03419977696841185 0 0)
(0.03429151391098546 0 0)
(0.03437510168240426 0 0)
(0.03444626092224112 0 0)
(0.03451197831974272 0 0)
(0.03455064943033975 0 0)
(0.0346008872170176 0 0)
(0.0346538714226126 0 0)
(0.03467965386938066 0 0)
(0.03470278110796361 0 0)
(0.03471861570099975 0 0)
(0.0347307284855765 0 0)
(0.03473863044209264 0 0)
(0.03474675009115843 0 0)
(0.03475352942143148 0 0)
(0.03476172906884488 0 0)
(0.03476743602471364 0 0)
(0.03477465372861547 0 0)
(0.03473836710038584 0 0)
(0.03476146004861198 0 0)
(0.03476907363474503 0 0)
(0.03478255915659759 0 0)
(0.03479870913690696 0 0)
(0.03482091980367299 0 0)
(0.03485374166994527 0 0)
(0.03489435331187137 0 0)
(0.03493796074551541 0 0)
(0.0349919523571245 0 0)
(0.03503413872123341 0 0)
(0.03510481138068756 0 0)
(0.03519554314594649 0 0)
(0.03527743093880803 0 0)
(0.03536991113772649 0 0)
(0.03546810847071279 0 0)
(0.03557194998706083 0 0)
(0.03567952301165141 0 0)
(0.03579364442667349 0 0)
(0.03591044701538736 0 0)
(0.03603170980937772 0 0)
(0.03614675118956161 0 0)
(0.03628412479825264 0 0)
(0.03632980170261041 0 0)
(0.03647027276762467 0 0)
(0.03657575423753958 0 0)
(0.03668275872180328 0 0)
(0.03678240041900754 0 0)
(0.03687666336135713 0 0)
(0.03696817105515021 0 0)
(0.03705555266357976 0 0)
(0.03713366820076209 0 0)
(0.03720274455953919 0 0)
(0.03725050002281902 0 0)
(0.03729961324227068 0 0)
(0.03734992180500008 0 0)
(0.03738499707730421 0 0)
(0.03740922394830488 0 0)
(0.03742778304013614 0 0)
(0.03744137744249438 0 0)
(0.03745043410396526 0 0)
(0.03745908804496376 0 0)
(0.0374687950180961 0 0)
(0.03747564935058427 0 0)
(0.03748056101691365 0 0)
(0.03749991606336742 0 0)
(0.0374526095271027 0 0)
(0.03747432711382789 0 0)
(0.037483764785367 0 0)
(0.03749704438204034 0 0)
(0.03751247712561964 0 0)
(0.0375324583024122 0 0)
(0.03756023630827857 0 0)
(0.03759640849456494 0 0)
(0.03764159621325325 0 0)
(0.03769162533425197 0 0)
(0.03774538028049862 0 0)
(0.03780095713030111 0 0)
(0.03787770384287985 0 0)
(0.03797032535976032 0 0)
(0.03805560535663683 0 0)
(0.03815254761111566 0 0)
(0.03825472140392178 0 0)
(0.03836118897992436 0 0)
(0.038470450487386 0 0)
(0.03859065416397427 0 0)
(0.03870933410238416 0 0)
(0.03882718855863809 0 0)
(0.03895029616632551 0 0)
(0.0390394766426007 0 0)
(0.03913664718924566 0 0)
(0.03925945127752482 0 0)
(0.03936540321985999 0 0)
(0.03946658754875501 0 0)
(0.03956337109111645 0 0)
(0.03965851862606266 0 0)
(0.03974606641062739 0 0)
(0.03982285403960423 0 0)
(0.03990322298484154 0 0)
(0.0400400780321265 0 0)
(0.04003259389985987 0 0)
)
;

boundaryField
{
    inlet
    {
        type            calculated;
        value           uniform (0.002309313302806275 0 0);
    }
    outlet
    {
        type            calculated;
        value           uniform (0.04003259389985987 0 0);
    }
    frontAndBack
    {
        type            empty;
    }
}


// ************************************************************************* //
