/*--------------------------------*- C++ -*----------------------------------*\
| =========                 |                                                 |
| \\      /  F ield         | OpenFOAM: The Open Source CFD Toolbox           |
|  \\    /   O peration     | Version:  v2012                                 |
|   \\  /    A nd           | Website:  www.openfoam.com                      |
|    \\/     M anipulation  |                                                 |
\*---------------------------------------------------------------------------*/
FoamFile
{
    version     2.0;
    format      ascii;
    class       volScalarField;
    location    "0.014";
    object      p;
}
// * * * * * * * * * * * * * * * * * * * * * * * * * * * * * * * * * * * * * //

dimensions      [1 -1 -2 0 0 0 0];


internalField   nonuniform List<scalar> 
1000
(
101288.2460276767
101283.6330704102
101272.9810327857
101283.3366913139
101298.7823924343
101328.1975229895
101336.8864072103
101326.1063699323
101285.1292366402
101248.8039069549
101210.0279022304
101196.3081883667
101211.9279706413
101271.2040071158
101322.6082750323
101370.8964817562
101392.1996334497
101387.0534590426
101317.6773790108
101245.7766007359
101196.612002857
101175.9323789766
101196.324154526
101274.0147250959
101392.3307999885
101476.8913238217
101519.5252410009
101514.2851423974
101469.2075302734
101344.7233215548
101225.3212271925
101181.2464036918
101183.4534239425
101212.0143132215
101283.8845829419
101440.6685467707
101555.0342898324
101587.0124120334
101588.0583382967
101585.3879269414
101513.3928368254
101320.6544302437
101167.896977899
101090.5954588621
101029.8634159932
101018.1083205294
101094.0404655906
101331.5821426156
101555.5923460729
101676.1133184656
101730.0376652894
101697.4287322293
101592.9183788776
101324.0885931039
101029.7608184523
100878.4903025726
100820.5153540182
100833.5222182901
100910.288507386
101040.2101141049
101385.4607328205
101649.1571027702
101735.0016526594
101734.5672522909
101705.4109355737
101655.8856095014
101437.8475463826
101094.9695747923
100901.1818821184
100864.4255240297
100850.1039151037
100855.7762604353
100981.7516779796
101311.5152483469
101545.0977769695
101652.008270163
101730.2044136819
101734.3787574089
101609.3645559599
101405.0457588
101255.853398109
101169.6219129227
101157.8037190157
101201.5416923422
101261.9213732075
101304.8001378153
101320.2069384901
101314.7881426469
101328.7898054602
101395.9600040377
101496.6378418328
101573.431998976
101661.7814945969
101703.4104207418
101677.3637631771
101492.490841637
101221.5353129206
101032.7237290466
100958.9202890224
100998.7973092743
101074.9282072602
101230.9945523454
101313.1561430758
101307.2522154585
101305.4899483942
101297.3642007747
101317.4128810316
101347.1836490234
101372.332919269
101393.4265029188
101389.8335302545
101367.2925170559
101341.4187660254
101243.8420769154
101115.20922035
101059.343741142
101065.2581595488
101052.7754955213
101128.0223786706
101329.0883397611
101494.5971162858
101565.2810424598
101615.1789195122
101589.430235992
101501.5623772366
101391.1863838669
101339.771703585
101314.7649350854
101309.5791023991
101318.8458372742
101309.5276946419
101259.9560194511
101235.2581958408
101207.0177848153
101256.9233003709
101360.7784659232
101554.7488555013
101707.5026796658
101764.3012342847
101706.0375106868
101567.5067017045
101345.6663722081
101088.3262382457
100969.8005913135
100968.8263370576
101079.2578376552
101213.8960243783
101385.0417934275
101457.4128206825
101425.5821333536
101311.8342895154
101180.6810785205
101100.5716308681
101089.5973814554
101165.4400900014
101313.7782255866
101478.5961180908
101589.5084863705
101589.6085059465
101444.9283259357
101229.6376285957
101027.4780317346
100881.9864212547
100848.7072762617
100966.2763013366
101239.1896494787
101526.4596891641
101706.7770034056
101763.1164972042
101691.6124988614
101519.4293437074
101350.9394466382
101224.5385981813
101194.9893088122
101257.1621773093
101350.0716781962
101425.8082635856
101419.08429689
101340.8481052203
101238.7686927556
101169.4285815981
101189.0193830597
101358.1286567562
101595.9613144243
101753.0502442642
101788.7329334904
101698.7747807598
101527.1379846431
101202.0536435528
101001.8808123026
100960.7785470395
101049.5105499658
101129.9555648841
101298.8509325703
101382.782045499
101366.2950275388
101271.3034761695
101204.9021252588
101135.8393929287
101145.0311279039
101211.592525244
101317.5289045592
101442.2386822317
101535.9864003295
101571.1375189381
101509.3908319827
101285.9388438861
101034.4414117889
100871.9723514993
100802.8103666483
100869.8244319323
101131.6480384414
101489.144301797
101726.2168064404
101828.7035222139
101771.8909295008
101591.575195654
101349.3989209321
101186.6693891341
101158.9322283624
101237.047971771
101355.0562947655
101438.9491011148
101440.0343288461
101370.9933036935
101272.558785237
101201.7366916689
101181.2610215498
101261.4790099525
101477.9657382826
101629.5468197231
101725.2888106814
101762.8039828179
101699.5542193354
101416.8637372014
101175.7775411593
101042.8635477061
100980.5219670707
101024.703244682
101128.032946258
101207.8965667855
101221.5168672558
101249.152367527
101226.3473305772
101220.7177484632
101253.7373884653
101298.7660246467
101363.1005325062
101440.4201092374
101474.0419622529
101418.8125417819
101415.9849146489
101283.8798137697
101098.4534863633
100993.7753988452
101007.4268644558
100968.2258867585
101061.13177649
101300.2617810984
101536.7892840439
101633.1671285373
101711.7282882457
101653.3919855255
101525.4277857018
101413.4859958491
101299.4522750912
101231.2307631495
101204.8669766872
101237.0753492008
101332.5597623319
101397.0808389177
101400.8803823515
101333.8326822094
101215.6271613474
101145.4033070476
101161.7456388136
101412.6690847722
101702.3828752691
101902.6240106745
101983.7646030588
101881.746813244
101507.9362149993
101005.7992643016
100684.6525346089
100580.4370099361
100688.9642074617
100933.5711759965
101354.0778493645
101612.8716827223
101644.5833925218
101502.128591927
101368.2387534125
101202.381366868
101159.1915264567
101227.6635747655
101341.9936578437
101425.2035163208
101409.0087614379
101289.3718471738
101059.2758275827
100828.4992795585
100754.4552061436
100845.4244235787
100902.3871056884
101217.343803353
101659.2086308576
101882.9087471863
101922.3230331916
101955.5508909393
101803.8406610678
101475.3854819444
101231.694947231
101075.4110970199
100969.4484520937
100983.9851994588
101119.9201987708
101267.5464026728
101451.2599757238
101507.2522405923
101499.5485889561
101415.4665193696
101308.4462259949
101273.5614674195
101376.7408731003
101575.1200430426
101731.3517849858
101825.5934768289
101752.8827270145
101337.6859237298
100847.426155718
100541.4093329329
100466.1652640736
100624.122862204
101014.4552252854
101551.3682379231
101832.0296566568
101844.9935603638
101618.8273815713
101380.8613475448
101073.7442406898
100972.0021955845
101033.9728970704
101233.4341002435
101396.7895679084
101426.3577033368
101285.3041235874
101004.6258433449
100694.6748680352
100504.7736216149
100525.6605297896
100866.3016703426
101513.8341330837
102102.3328942574
102383.0669703322
102314.9344761378
102008.8304326508
101404.6817799
100884.078252467
100717.5636392898
100846.2510074038
101029.5952421751
101366.150119686
101545.6460110695
101490.8269609305
101336.6754367973
101155.2188294395
101067.9792816007
101165.0293182796
101330.382172924
101608.440958837
101821.00434417
101842.5305543155
101669.2232534029
101598.5286872376
101264.8230129542
100892.6331123336
100720.5239709852
100714.6335786773
100692.9172817314
100874.6988554489
101194.6926973401
101393.277904928
101473.8150757611
101520.5988924837
101456.4563348843
101372.0631997277
101341.2825899993
101299.6205435578
101255.5172109824
101186.3362901418
101036.3127962133
100881.4769265121
100736.8596716727
100615.9450261004
100658.5550869112
100908.07101257
101210.5383269179
101722.8150625739
102106.782232295
102186.2524929372
101953.9851039029
101672.5810264044
101172.4349081072
100780.2523320902
100658.0313951477
100830.199374128
101103.939949123
101486.9567797732
101760.6774313304
101767.7617629111
101518.8886316202
101228.2274055198
100913.1587169497
100801.6619529767
100953.2047809861
101300.3161356048
101700.6522332071
102026.856725632
102072.5327122843
101822.8097324624
101401.7211290681
100812.010434994
100388.0404085175
100291.7125574493
100530.153534479
100923.3338437376
101482.6722172146
101847.3166824006
101869.445084624
101606.8443606728
101223.6621146298
100815.1123553837
100606.8943748509
100677.1905556831
100902.923261141
101212.6804200277
101507.8566490406
101662.6839885382
101649.581280829
101384.7298806775
101040.2096013881
100724.4838465675
100556.3596375752
100602.476791735
100982.2876179323
101442.3782501375
101803.1436203384
102025.8121323304
102019.7634210081
101766.3944659155
101397.2906271369
101059.1848197626
100828.3209622522
100783.8577187076
100920.5386094111
101120.1037662616
101415.662766033
101512.1590148649
101525.244531498
101420.9299047371
101247.3993733435
101153.4274165491
101151.3905195727
101273.7752465777
101428.9058916354
101680.3960063525
101758.7162770122
101674.0160228246
101278.1491229015
100912.1621245924
100553.4953287668
100417.26641483
100473.7787680382
100839.2327604382
101168.6276629659
101541.1574392075
101690.7392441188
101692.143307144
101493.4183260788
101225.372815464
101021.631423995
100904.5524472758
100917.5871277348
101054.3311973893
101174.1495327673
101189.6097470978
101008.2760563636
100797.8278561019
100588.1448833409
100580.6780005608
100972.9362392179
101641.7100795546
102143.1217669418
102363.5511832267
102204.6360892647
101686.1784066673
100990.9386517502
100453.7887832189
100278.1178781859
100516.0972991835
101006.2470046834
101586.4149333157
101989.8692294489
101993.5907000516
101684.3953424156
101183.9515379088
100731.9625624823
100531.7964413327
100700.4263992223
101185.2805026719
101787.2622061663
102233.8921100261
102294.2757682595
101966.6825191909
101280.8549594703
100463.7220486722
99947.45235149437
99900.96991180337
100252.7958734993
100946.9578913817
101719.5477946276
102167.9053364756
102110.9773859527
101710.7156923525
101106.0252914807
100491.6914560214
100194.070217489
100348.6705013017
100825.1217761769
101411.6640268963
101892.9583941553
102051.5896010609
101796.0585768647
101221.8885343167
100557.738325511
100070.5379312683
99967.14250799271
100324.6413026242
101143.8717586672
102040.1306406324
102607.9441228538
102744.0822549393
102404.7169486936
101603.3642824495
100728.670630755
100177.2132416762
100081.1059637382
100390.897725755
101041.9937451257
101727.7627127486
102051.4015309546
101889.5055270977
101462.5220533981
100957.5962467372
100616.681727845
100690.1002634914
101073.3035572979
101561.1552062596
102034.5444025931
102151.6094961242
101880.3743432541
101270.2356079985
100501.0431349458
99898.66111790607
99723.42029934934
100035.9447293533
100697.9736681511
101508.9918102295
102105.1056161611
102257.9657862921
102000.9277112716
101432.1854692485
100834.0444009218
100386.0171775649
100270.3007800104
100509.9472274756
100912.9721759794
101321.9306256074
101555.3422491813
101471.0086597244
101231.5306546719
100833.1309162998
100620.2961839719
100617.086160769
100982.4127275154
101389.1060379584
101830.1893357821
102002.5609284408
101977.0496235879
101585.6066825616
101153.6601761786
100693.2270362006
100494.5030775519
100518.6323234631
100891.3408529727
101272.4042533212
101690.3531571948
101827.7365013465
101772.3795036832
101498.5459696589
101089.9559269671
100849.2985860555
100754.4132301594
100888.6246477149
101131.8885996279
101554.7513361863
101708.5886497708
101649.9908642537
101242.7473362489
100847.9345997525
100366.0908091621
100191.5847518901
100281.7900255074
100829.0596660693
101303.268069568
101796.134945211
101940.1879684565
101797.5559249685
101316.3113926579
100752.2027549453
100321.6927567227
100187.9128503035
100439.3834548482
100886.9737433623
101440.9378739004
101724.2263584666
101736.9696472763
101368.8417496582
100943.1971915291
100496.9714181531
100314.3205762604
100517.2190028709
101233.4345479521
101868.0524650993
102287.1218402152
102277.4698621323
101787.2066843384
100993.523972052
100394.3269410533
100240.5674302139
100539.0207493547
100910.834848076
101563.6470181652
101870.3365880126
101757.1098636216
101291.7186646386
100897.704862958
100566.8874559299
100633.7699411515
101050.9875422225
101539.7500490474
102007.7823906508
102087.4273151219
101699.9492745851
101048.9287318632
100284.7913637602
99856.8944204186
99873.77726130869
100338.7085243059
100927.6903845592
101737.3204087292
102058.2137676826
101842.4967482449
101307.4761401401
100716.5048972715
100290.5296097686
100280.2462883244
100619.5260467394
101208.1274595279
101710.0328344455
101970.2579624753
101715.558077756
100985.766345302
100288.2141977129
99752.09710662166
99722.1566019702
100196.3339947317
101111.1609601236
102134.8883045099
102857.6240858358
102970.5396954411
102483.5192558758
101533.9107292874
100508.0986319025
99768.14419105313
99529.67264794615
99829.1541972304
100588.8476665452
101395.4870512186
102148.9669079757
102438.4528251884
102261.3801290782
101685.1834958033
101017.863404809
100612.1879594767
100518.1664196967
100673.1144451492
100921.0921899048
101151.9076208231
101204.23814245
101097.9457207482
101084.2598595045
100997.1653561626
100919.5457164994
100883.4313847885
100989.3637300056
100971.202822602
100949.8959295941
100892.01354107
100807.9573861158
100683.1186289063
100698.1960786445
100834.3577043818
101062.5798157964
101245.9928103424
101551.3369270847
101658.5527990394
101602.9711434747
101277.3061457128
100964.401328223
100484.6919371462
100218.0442255195
100095.2062097947
100494.9328956938
101165.7933558162
101644.6178092718
101981.854724615
102043.8219717406
101612.2155430846
100932.0487655802
100495.3170025812
100376.6435670842
100688.0714679924
101076.9146809541
101699.7563486546
101956.2874288734
101755.8386975628
101095.1035985206
100606.3114351758
100124.5444938034
100074.6155187467
100389.2454255529
101143.766489426
101789.9215351446
102417.4968462745
102535.7536331258
102057.2369795483
101110.8139787605
100208.2578848925
99527.26632034502
99389.3581328013
99754.71815877692
100500.8332681173
101337.617357787
102014.0640730964
102129.7473046834
101721.5891438937
101151.7278126853
100570.8944898994
100311.0902561498
100428.7236139273
100850.2470751995
101143.4716763012
101415.15522656
101301.3262164235
100865.6071459459
100477.1008896879
100123.0706378839
100126.2610908439
100552.2739613365
101208.1650368418
102037.665687243
102497.0457061824
102450.1397633634
101892.4788921881
101263.3145037669
100378.4931020777
99950.98649258801
99959.50195813527
100416.1008151767
100817.5299235771
101567.7786356531
101935.5629476671
101863.9534217173
101380.7409204812
101034.3292526521
100627.9353999662
100547.7296516463
100753.2444167695
101185.8647059594
101469.1799360339
101788.5006322567
101652.5831364952
101032.8498520487
100303.8788821816
99657.61033424236
99296.24419070332
99433.38600757525
100058.7750839864
101052.4005039254
101919.2225602158
102585.7038968775
102708.9660531811
102247.5040088721
101221.714964868
100260.8425530137
99427.34289845667
99124.43452430882
99307.17840965766
99888.44145967573
100785.904539609
101694.3405402103
102339.5780149313
102508.2234290202
102200.9434739169
101541.319776815
100758.2637547169
100048.0370351472
99821.00350136688
100039.014464192
100472.9543916663
100961.0335249287
101359.7801423915
101655.67084901
101697.1697487557
101656.6344919455
101385.3821875223
101253.8523734215
100909.5047341085
100607.6742709592
100433.4335506499
100475.7041004617
100433.4803907656
100674.2249660253
101110.9791537562
101524.1058063639
101732.8043696926
101946.3412164693
101684.7568244253
101021.7224192192
100447.5186026117
100051.0363435482
99788.56206199317
99936.26452544869
100438.0476227031
101041.7245933119
101475.6906897324
101827.0053520122
101784.0355153795
101369.1540581702
100830.1425186262
100413.4131893449
100143.3010121045
100209.6083896285
100548.1746537549
100865.0926067787
101256.0651054748
101407.3931839659
101253.723978937
101162.0575394813
100913.9337012975
100738.3008722326
100708.1512352357
100698.8609561202
100813.855196468
101021.5829566064
101167.9139937362
101473.1920823026
101517.1261572461
101494.2280568941
101338.8161408914
101083.6840132551
100706.0114624094
100424.904336562
100282.2922228906
100342.484518413
100629.8467939457
100978.4699032936
101335.9811713405
101618.7696435694
101732.9131143783
101549.4433424316
101405.9615706975
100966.7916622883
100469.0699010994
100209.2233978565
100232.3290308527
100107.2433177204
100307.2831193169
100715.6107547058
101095.977385568
101182.751536972
101414.3599382432
101338.3193667942
101078.118697462
100808.1565230146
100777.3751494378
100602.6303790013
100580.8654058883
100677.0300711533
100798.3211482548
100854.2681654285
100846.9909069082
100644.5934309712
100406.656430772
100372.0238035129
100198.3301113536
100328.8668239839
100858.3096725737
101554.4772959739
101858.5165604937
102217.7133809538
102221.7219458137
101682.2420621987
100668.7654669199
100074.0696759142
99692.48030715357
99533.817304
99719.42975390065
100308.4255796111
101221.7663583725
101807.3072778921
102176.0486231445
102322.273827005
102189.0415073503
101765.3770540575
101021.0734306096
100345.0060632591
100098.5348714371
100177.0005818394
100358.3395597379
100479.778089013
100423.1621698169
100280.1791802544
100143.0697950326
100151.3241193949
100389.3231133387
100904.1056535719
101351.362966741
101747.1473823837
101858.1232074645
101589.0661611622
100911.2290333012
100234.886472456
99798.31917927122
99590.67043569656
99732.12142466118
100234.9031274364
100997.8477341825
101473.8883237846
101783.0027945331
101712.7135900867
101244.3828866648
100515.4331159734
100060.6668509398
99788.28299046903
99849.82911430708
100297.1225881386
101126.3583008165
101732.1691871746
102045.7196575664
102009.9943591825
101549.696866941
100713.215968362
99986.65790699657
99700.49337674007
99640.29120648064
99897.23581038398
100513.4200501074
101312.2501339741
101810.6941105239
101935.0087219454
101813.4701850655
101527.9777077845
100999.7737412124
100335.2071488491
100050.7119317871
100059.5995261725
100152.6093203492
100191.0783136994
100178.2563031651
100165.0778447234
100243.3532510288
100473.0358645894
100847.2281369523
101113.4703217037
101320.9187002446
101411.7198679383
101256.0817462863
100771.2466890127
100221.3122645374
100004.7812376103
99899.25719838624
100033.5044476124
100419.2841817451
100937.0604657928
101197.9055796226
101275.1331013092
101192.5342159633
100866.7864529545
)
;

boundaryField
{
    inlet
    {
        type            uniformFixedValue;
        uniformValue    sine;
        uniformValueCoeffs
        {
            frequency       constant 3000;
            scale           constant 50;
            level           constant 101325;
        }
        value           uniform 101325;
    }
    outlet
    {
        type            waveTransmissive;
        gamma           1.4;
        fieldInf        101325;
        lInf            2.25;
        value           uniform 100795.9824948547;
    }
    frontAndBack
    {
        type            empty;
    }
}


// ************************************************************************* //
