/*--------------------------------*- C++ -*----------------------------------*\
| =========                 |                                                 |
| \\      /  F ield         | OpenFOAM: The Open Source CFD Toolbox           |
|  \\    /   O peration     | Version:  v2012                                 |
|   \\  /    A nd           | Website:  www.openfoam.com                      |
|    \\/     M anipulation  |                                                 |
\*---------------------------------------------------------------------------*/
FoamFile
{
    version     2.0;
    format      ascii;
    class       volScalarField;
    location    "0.014";
    object      pMean;
}
// * * * * * * * * * * * * * * * * * * * * * * * * * * * * * * * * * * * * * //

dimensions      [1 -1 -2 0 0 0 0];


internalField   nonuniform List<scalar> 
1000
(
101324.9768361568
101324.9363205173
101324.9348371364
101324.9510130989
101325.0450184516
101325.086891769
101325.1119085897
101325.1438510422
101325.1777077922
101325.1545365975
101325.1084398358
101325.1106223881
101325.1042704375
101325.1743406492
101325.2423007123
101325.334491372
101325.3587754443
101325.4343872562
101325.4876025316
101325.4190882991
101325.3669214399
101325.3268635604
101325.3275643019
101325.2961926378
101325.2747573921
101325.3291956881
101325.4035095388
101325.444344277
101325.4741252565
101325.4465243657
101325.4448855029
101325.3462297261
101325.2552449831
101325.1078593292
101324.9987802527
101324.9892630324
101325.0133913296
101325.069937114
101325.1744179662
101325.294130867
101325.3914457837
101325.3394082762
101325.247017612
101325.0681558349
101324.9539763966
101324.7938367665
101324.6844884589
101324.6649035446
101324.7998418931
101324.9506851635
101325.1166324995
101325.2617449452
101325.4865838344
101325.5075891464
101325.5787836862
101325.4077415802
101325.3184651074
101325.1127598834
101325.0810814949
101324.7762169284
101324.7755071395
101324.831119908
101325.0886113461
101325.3368535497
101325.5357691758
101325.8621046301
101326.1050613335
101326.0969019974
101325.8830991546
101325.6464797994
101325.3359691414
101325.0214083664
101324.7475650863
101324.7115324449
101324.7452966283
101324.9695576644
101325.0787503964
101325.3028709735
101325.3406488278
101325.3169695253
101325.2142779326
101325.1915611769
101325.030333679
101324.9227377118
101324.883892624
101324.8331789391
101324.6458389351
101324.5368995561
101324.5797970111
101324.5270943575
101324.6688302167
101324.7952934096
101325.0354296943
101325.1816361035
101325.341487285
101325.347933978
101325.3949672466
101325.288618076
101325.2272388898
101325.142345665
101325.0364617789
101325.0212888065
101324.9941024451
101325.0976987815
101325.1122475119
101325.2559710428
101325.2505381396
101325.3411071946
101325.2624829393
101325.341934224
101325.4264592145
101325.5720369343
101325.6252861622
101325.6552117689
101325.6697344558
101325.5215802363
101325.3539787174
101324.9612088472
101324.9012602665
101324.8721525733
101324.8822647297
101324.9832537579
101325.2440605356
101325.38960998
101325.3960793696
101325.3406767312
101325.3476043818
101325.1286794767
101325.0432456769
101324.9121543028
101324.8954692582
101324.7864984596
101324.8406002331
101324.7643428017
101324.7927817894
101324.6941821043
101324.6544617738
101324.8879391155
101324.8654621859
101325.0300613945
101325.1746970015
101325.4056190767
101325.4424178111
101325.4255439406
101325.3688318466
101325.2168491693
101325.120576908
101325.1112303096
101325.0137889529
101324.9988394493
101324.9905913769
101325.2066484454
101325.1440755742
101325.3128397058
101325.3916802224
101325.5772860065
101325.5846497546
101325.7071256417
101325.6528595142
101325.6780260989
101325.6230379623
101325.3797217909
101325.2850562867
101325.093096668
101325.0522315645
101325.0673488499
101325.0916526736
101325.1551151403
101325.3105390654
101325.3131746103
101325.267036265
101325.2892456737
101325.2040519476
101325.1975524204
101325.1860228163
101325.1319616263
101325.1057429114
101325.0686477011
101324.9515228557
101324.789518976
101324.7430566114
101324.7048275546
101324.7132041784
101324.7315587218
101324.8534348857
101325.1391438077
101325.2467791244
101325.3865008227
101325.5022325042
101325.5464982826
101325.3834133388
101325.3027022644
101325.1268926184
101325.1155098008
101324.95999771
101325.0575074522
101325.0819226372
101325.2555720891
101325.233881828
101325.3949378107
101325.3748274648
101325.5374432139
101325.4624787961
101325.665265471
101325.7245394944
101325.757767908
101325.658005466
101325.5567691968
101325.3953535881
101325.210022958
101325.0553810943
101325.0037102324
101324.9937275447
101325.0598042329
101325.2595830674
101325.3235033438
101325.3762702494
101325.3412815402
101325.3516626435
101325.3022824378
101325.2621381077
101325.0834841668
101325.0312299303
101324.9785124205
101324.8730308088
101324.7554393036
101324.6123707643
101324.5927996764
101324.5828064186
101324.6423024199
101324.8449675643
101325.1299319897
101325.4258187698
101325.5346822445
101325.5282911225
101325.4477151187
101325.2710167394
101325.1756749473
101324.8882391593
101324.8600517299
101325.0323479864
101325.0946936472
101325.2442201995
101325.3433268323
101325.427605287
101325.316734624
101325.3522422504
101325.2224983073
101325.2149106811
101325.2700072321
101325.481231221
101325.6756621735
101325.8466024387
101325.8113041353
101325.6443478833
101325.4018632871
101325.0915486123
101324.7369166757
101324.7419133354
101324.7876137235
101325.0377667911
101325.2300432998
101325.4416005166
101325.5589647297
101325.3352802272
101325.2593722404
101324.9932724292
101325.0087825872
101324.8965258242
101324.9667986321
101324.8840399145
101324.9352862754
101324.7403382391
101324.6323396025
101324.4739764375
101324.4920425307
101324.5300229734
101324.6739214675
101324.9589655394
101325.2784979068
101325.4374193392
101325.5427258141
101325.5221475869
101325.3599423744
101325.1989605208
101324.9385327931
101324.9071751652
101324.7289830362
101324.7719951467
101324.9034106174
101324.99902415
101325.2669648449
101325.2969765359
101325.4912142336
101325.4454264414
101325.4790874236
101325.4481773677
101325.4471422127
101325.5043286831
101325.4070304613
101325.3541671763
101325.1162526476
101324.8219630148
101324.5648321097
101324.2161468207
101324.303094805
101324.5362616967
101324.7679726393
101325.3329490011
101325.5527879946
101325.6598782209
101325.3566164446
101325.0828327362
101324.732498995
101324.6337735339
101324.3937744337
101324.5346615231
101324.5550540836
101324.6855174599
101324.5613894491
101324.3499100594
101324.2613520768
101324.168876407
101324.3303724283
101324.4190304211
101324.6451220153
101325.071141414
101325.260829088
101325.2424752383
101325.1371848595
101324.8764336257
101324.7102455978
101324.4140033414
101324.1261784236
101324.1517484333
101324.2466506257
101324.4001964396
101324.5654947084
101324.8770303021
101325.0827749145
101325.2838249131
101325.2066286581
101325.2252719757
101325.1549532974
101324.9575798997
101324.6920716596
101324.4924703048
101324.3776720372
101324.0842491944
101323.8125790662
101323.7864660835
101323.8226831413
101324.0387684163
101324.2842823219
101324.4845184682
101324.7920467764
101324.836657493
101324.7324221331
101324.5882488886
101324.2714300869
101324.0211873665
101323.7842019691
101323.6419623647
101323.6472585422
101323.7524733761
101323.8312242731
101323.8530529178
101323.7224325982
101323.4877953228
101323.3959324385
101323.4640619871
101323.640078961
101323.8194324725
101324.343873684
101324.5409410407
101324.588285385
101324.2416817834
101323.7452286268
101323.3567318734
101323.0282677296
101322.9268728981
101323.2419315995
101323.6156530886
101324.0388999534
101324.3896571253
101324.3946887598
101324.1928277937
101323.8800640616
101323.6374576325
101323.3814528379
101323.3801152639
101323.4887435555
101323.578089743
101323.5731820347
101323.4075811629
101323.1768655383
101322.7688979842
101322.5838814967
101322.5260863848
101322.6370971114
101322.9323604534
101323.1937552945
101323.6642089718
101323.6502909277
101323.4266565933
101323.1561686307
101322.7043798005
101322.3244173458
101322.106209773
101322.0131048574
101322.0644591118
101322.248397884
101322.2583630963
101322.4129226906
101322.3148227872
101322.1900067842
101322.1324081565
101322.0588217957
101322.2085366354
101322.2931217876
101322.5090270418
101322.5256831611
101322.6299924425
101322.4139234864
101322.2024190101
101321.932222485
101321.8413300887
101321.5499834427
101321.7713695805
101321.9095997118
101321.7928805604
101322.2683593778
101322.0339724871
101322.2093076558
101322.2496514934
101322.0430190588
101322.3122669452
101322.2530544375
101322.1971651244
101322.0645717287
101321.5643539551
101321.2241026013
101320.778174133
101320.5775070879
101320.4424523272
101320.893009076
101321.1658197078
101321.6478093319
101321.8940864639
101321.7593134254
101321.4416709316
101321.0234829147
101320.5794874452
101320.0854001066
101320.1887380535
101320.3549697726
101320.4806078458
101320.6852253735
101320.5214016232
101320.3749185211
101320.0866125475
101319.7096251466
101319.6746029773
101319.4452272892
101319.997679858
101320.4365407748
101320.7632175951
101321.0635501984
101320.6489860544
101320.4435712574
101319.9430989078
101319.4503465875
101319.1595436974
101319.2800781717
101319.6767820837
101319.9888088792
101320.1683849123
101320.1940951126
101320.127701857
101319.8149391192
101319.5974459976
101319.3779070861
101319.3779441256
101319.7264484604
101319.8910736092
101319.8713764276
101319.4669510263
101319.310989983
101318.8911872693
101318.4177475533
101318.2171750859
101318.2231578143
101318.3390493877
101318.7724981288
101318.9220614831
101318.8780268409
101318.9448648989
101318.6864676385
101318.5501981862
101318.3083405784
101318.101431723
101317.9292179669
101317.9411224305
101317.808702526
101317.5517612948
101317.4376099819
101317.2950577021
101317.3849479512
101317.3158694476
101317.2308286027
101317.5423896383
101317.6149988682
101317.8557374366
101317.9561276485
101317.7111673644
101317.8038837217
101317.5100347792
101317.2317349218
101316.9712599396
101316.7878781997
101316.8850565385
101316.8733762972
101316.9673257825
101316.8321330837
101316.9541197627
101317.052303713
101316.9471824728
101316.8881519671
101317.0221058784
101316.9080473855
101317.1236129793
101317.0613666651
101316.7908596857
101316.4239138299
101316.142497525
101315.7707468313
101315.4489097905
101315.4025242582
101315.2401606852
101315.5813517486
101315.8631378516
101316.0854839898
101316.2310422321
101316.0099735614
101316.0241800412
101315.4471818115
101315.1462994874
101314.7080970895
101314.5423744395
101314.449872991
101314.4754646906
101314.4387767009
101314.30964269
101314.5696345491
101314.4773601987
101314.4347151961
101314.4020297839
101314.1869407815
101314.3084230902
101314.3314500469
101314.338326205
101314.3071782699
101314.1265206392
101314.0601857594
101313.8585279646
101313.7164069869
101313.6289111216
101313.5469498773
101313.4927412544
101313.5071845102
101313.4485092252
101313.2573292692
101313.3136776871
101313.3338662917
101313.306028314
101313.651905865
101313.8217763113
101313.6923767125
101313.593276928
101313.0934236797
101312.5991370299
101312.0577325869
101311.3345010351
101311.1240828802
101311.3152931466
101311.6266041363
101312.2171674834
101312.5733348532
101312.8470539922
101312.4543916605
101311.9994784842
101311.4421511411
101310.699254486
101310.5883986987
101310.3453114204
101310.6169512535
101310.8888097297
101311.0438249428
101311.0842007557
101310.6070837776
101310.2245947765
101309.7484089025
101309.5907963141
101309.6043130298
101310.1808713587
101310.5351721248
101310.9024763963
101311.1075256436
101310.5768658083
101310.2195944367
101309.5003061578
101308.8768084024
101308.619855633
101308.7359105576
101309.2255965968
101309.6374443451
101309.8290072271
101310.182627664
101309.5940629748
101309.2376841482
101308.8707541722
101308.3543902536
101308.631324592
101308.6667434096
101308.9028371673
101309.0413368312
101308.8338610059
101308.6259077345
101307.9492797097
101307.4734924896
101306.8372857509
101306.5173466646
101306.8179521211
101307.0786248957
101307.3872195551
101307.7632017054
101307.7715527913
101307.8745202853
101307.5628158644
101306.8616667544
101306.5496983203
101305.8810220626
101305.5033573179
101305.3889070152
101305.1965979685
101305.4069231695
101305.7561003416
101305.9172310834
101305.7946383758
101305.7620079829
101305.4200159525
101305.5273070302
101305.5241417285
101305.3598999164
101305.3845907932
101305.2506883011
101305.1390368748
101304.8808895044
101304.5089195402
101303.9509905222
101303.8665435755
101303.835789868
101304.0059590629
101304.3784102837
101304.405473185
101304.6525541923
101304.6088764852
101304.3300803852
101304.1159564391
101303.7178881164
101303.4225976873
101303.1238572438
101302.9169507554
101302.7812339751
101302.6783145095
101302.4641125929
101302.5401575416
101302.2930304387
101302.4851408
101302.2267982068
101302.2649945249
101302.1128267109
101301.8785668372
101301.9713576787
101301.6178207707
101301.5055899405
101301.1056279597
101301.2265283167
101300.5540357844
101300.4341993697
101300.4119429987
101299.7692114834
101299.8026222654
101299.9159944055
101299.9049240943
101300.2504978834
101300.4276248249
101300.4298549627
101300.2993433155
101300.0907448051
101299.1405966861
101298.8174788802
101298.6238943
101298.7294446644
101298.7633166153
101299.5021695647
101299.4802225253
101299.4560512828
101298.9392248895
101298.1998637801
101297.65438092
101297.0508812209
101297.0169535354
101297.3756084447
101297.7898286907
101298.7190188818
101299.3744357437
101299.1648416008
101298.8270140949
101297.8173248992
101296.7917801677
101295.7734062592
101295.0538142661
101294.9640023611
101295.2307331904
101295.6588734484
101296.3217146653
101296.6682459229
101296.8381649776
101296.7717434802
101296.4909967413
101295.6862171123
101295.0953767839
101294.2247269068
101293.7436785467
101293.6901268376
101293.2758312425
101293.7738441328
101293.9736874835
101294.4998553648
101294.3501596422
101294.1233555076
101293.7122464679
101293.5210978728
101293.1431047734
101292.8198129572
101292.9396294176
101292.873608035
101293.0438596612
101293.0714303136
101292.8654343557
101292.3517177638
101292.2545761357
101291.8105639021
101291.4134352466
101291.4168854868
101291.5487052193
101291.5602620207
101291.820142032
101291.8437029733
101291.389073137
101291.1526412361
101290.9415637767
101290.620512882
101290.4300301989
101290.1362683546
101290.0839085641
101290.0131755945
101289.8245925605
101289.5649161862
101288.9304366023
101288.7481455416
101288.8972644826
101288.7324091043
101288.7175281517
101289.0951426422
101289.0923923711
101288.9041576496
101288.3688661675
101287.7303717396
101287.2794453058
101286.4352522654
101286.2190172763
101286.1317753999
101286.4072552341
101286.8508656107
101287.1056343638
101286.9480298866
101286.6503355268
101285.9162623691
101285.5330337122
101284.6401427005
101284.9346572681
101284.6794286669
101285.1514555684
101285.3700022185
101285.7337085137
101285.3025905577
101285.4056206332
101284.5173358754
101284.185255998
101283.5972516121
101283.3757322973
101283.2856298312
101282.9446732115
101283.625581967
101283.2207372485
101283.3947344578
101283.6885408302
101283.2769792024
101283.0401895633
101282.9389581321
101282.4370237326
101281.9610408385
101281.3640041211
101280.6139963413
101279.9829963451
101279.5160458042
101279.6238955317
101279.9805264559
101280.450961647
101280.516432809
101281.0544226988
101280.9246243066
101280.3922224936
101279.501078419
101278.3051759927
101277.7320979862
101277.1129871647
101277.3570443787
101277.5178014294
101278.2457011572
101278.5190040266
101278.566932686
101278.0770988647
101277.2328187844
101276.6785190483
101275.9280724385
101275.6103425091
101275.7152500103
101276.0768460782
101276.5656973212
101276.7989150062
101276.9430132179
101276.2238261982
101275.940637081
101274.9610511776
101274.6177968716
101274.3199039488
101274.0941903123
101274.3265253144
101274.6038664982
101274.663417479
101274.544866168
101274.0573123404
101273.9978184857
101273.3645672431
101273.2749231593
101272.9837640614
101273.057578653
101272.8243267225
101272.4590383411
101272.018026365
101271.6823765994
101270.9331955622
101271.1791953807
101271.0251039687
101271.3551907717
101271.5040240704
101271.5712624049
101270.8122637988
101270.3398526903
101269.5898763172
101268.940293053
101268.8686195897
101268.684569309
101269.220938032
101269.5133917194
101269.5634710257
101269.2561912648
101268.6772180012
101267.7171497368
101267.157440135
101266.4402788301
101266.5206075348
101267.1316324618
101267.6384872754
101267.9167926423
101268.0277409783
101267.4186537504
101266.9077047503
101265.9265992789
101265.2888719885
101264.7401783357
101264.941948451
101265.0683826196
101265.025979911
101265.6892851833
101265.1618028845
101265.0145492411
101264.4143811355
101263.7437991411
101263.2699335231
101263.1619718269
101263.4498430921
101263.6628197563
101263.8629393957
101263.8436523946
101263.7083350046
101262.8495703879
101262.0223295198
101260.7110994404
101260.2258922483
101259.8338651897
101259.9020570205
101260.7020579399
101260.5252642501
101261.3254421909
101261.4676019515
101261.2436397562
101260.6820535835
101259.5280785464
101258.8386200372
101258.0246553021
101257.2261432817
101256.5655642732
101256.0997516437
101256.0108206269
101256.0522327083
101256.3103868068
101256.462079111
101256.7588540463
101257.0851456924
101257.1667796911
101256.6718900192
101256.6326557974
101256.0197015082
101255.5861632162
101255.1008726519
101254.3155401241
101254.0557812451
101253.6807145364
101253.4835925665
101253.6997835045
101253.5411484578
101253.6432586032
101253.5773124197
101253.3055274956
101252.8430616725
101252.2911977282
101251.7727264207
101251.2246757004
101250.7832087024
101250.5984361373
101250.5036109926
101250.6697115672
101250.524117657
101250.2076499412
101249.8987645056
101249.2263847328
101248.7704504914
101248.1131863299
101247.5743449825
101247.1173575064
101247.0423125486
101247.0499846027
101247.1962053523
101246.9982166927
101247.0038897495
101246.5191159019
101245.9557137902
101245.318919573
101244.3134472061
101243.755255901
101243.0236103337
101242.6025713127
101242.6040912682
101242.7210723999
101243.0620553245
101243.1923402206
101243.2385949731
101243.1308401923
101243.0307596292
101242.5877381151
101242.0353323709
101241.5063164951
101240.5995786114
101240.1733156765
101239.635220992
101239.3068501632
101239.3267873789
101239.2037931042
101239.3006086794
101239.2475427789
101239.2096425134
101238.8250378325
101238.3238701105
101237.7992006584
101237.1552196132
101236.3522553068
)
;

boundaryField
{
    inlet
    {
        type            calculated;
        value           uniform 101325.000001636;
    }
    outlet
    {
        type            calculated;
        value           uniform 101236.5386768839;
    }
    frontAndBack
    {
        type            empty;
    }
}


// ************************************************************************* //
