/*--------------------------------*- C++ -*----------------------------------*\
| =========                 |                                                 |
| \\      /  F ield         | OpenFOAM: The Open Source CFD Toolbox           |
|  \\    /   O peration     | Version:  v2012                                 |
|   \\  /    A nd           | Website:  www.openfoam.com                      |
|    \\/     M anipulation  |                                                 |
\*---------------------------------------------------------------------------*/
FoamFile
{
    version     2.0;
    format      ascii;
    class       volScalarField;
    location    "0.014";
    object      rho;
}
// * * * * * * * * * * * * * * * * * * * * * * * * * * * * * * * * * * * * * //

dimensions      [1 -3 0 0 0 0 0];


internalField   nonuniform List<scalar> 
1000
(
1.176089308278684
1.176074167756642
1.175995195988594
1.176080085285586
1.176203728144339
1.176443131437989
1.176513465596607
1.176423810803141
1.17608386632491
1.175782501664663
1.175460582313935
1.175346542679527
1.175475891276905
1.175967260659182
1.176393367222922
1.176793571822369
1.176970011999895
1.176927229750485
1.176351925847932
1.175755528613955
1.175347603656045
1.175175996079187
1.175345098939798
1.175989385201047
1.176970372459591
1.177671275628428
1.178024579723686
1.177981126628157
1.177607483802155
1.176575486106367
1.175585310662598
1.17521971359924
1.175238014923354
1.17547491631331
1.176070949617237
1.177370865111626
1.178318744907494
1.17858373058223
1.17859240067707
1.178570267639408
1.177973611402039
1.176375933672875
1.175109041706268
1.174467717776115
1.173963745843207
1.173866186116094
1.174496220318983
1.176466565380268
1.17832349700337
1.179322010215336
1.179768664989664
1.179498572855143
1.178632719140835
1.176404392684896
1.173963005476517
1.172707374443646
1.172226005203194
1.172334006655151
1.172971329271937
1.174049529491875
1.176913309068906
1.179098762085567
1.179809879536948
1.179806280933949
1.17956476151213
1.179154443355997
1.177347446524205
1.174504037042828
1.172895842668897
1.172590721699985
1.172471799566587
1.172518858867963
1.173564418530095
1.176300310006304
1.178236693621277
1.179122504295424
1.179770196234014
1.179804768729152
1.17876915475313
1.177075913416784
1.175838880261182
1.175123648089891
1.175025631248195
1.17538844920176
1.175889239399376
1.176244825584202
1.176372584135504
1.176327658021528
1.176443764703452
1.177000685106846
1.177835282369132
1.178471733304137
1.179203728427133
1.179548564560178
1.179332797453863
1.177800967972167
1.175554505423871
1.173988059477939
1.173375563083408
1.173706557869333
1.174338341530083
1.175633104965365
1.176314508148378
1.176265572498646
1.176250961259395
1.176183560696618
1.176349808458461
1.176596657923876
1.17680515683176
1.176980020399546
1.176950219653004
1.176763321925693
1.176548753202821
1.17573952358157
1.174672466883139
1.174208966890976
1.174258062896888
1.174154458460491
1.174778722407279
1.176446352243474
1.177818509593655
1.178404284549294
1.178817683977052
1.17860430911818
1.177876137573995
1.176961290745409
1.176535048924893
1.176327701341965
1.176284670757531
1.176361494862134
1.176284218810144
1.175873115972383
1.175668262022173
1.175434012898916
1.175847915141323
1.176709099821163
1.178316918356528
1.179582483318257
1.180052926761969
1.179570352921437
1.178422653964191
1.1765837828078
1.174449421563174
1.173465816873033
1.173457730022288
1.174374154513265
1.175491103884558
1.176910348290222
1.177510280167278
1.177246423212985
1.176303381542088
1.175215652683128
1.174551028776633
1.174459944884255
1.175089162223407
1.176319447304402
1.177685806541938
1.178604902278184
1.178605718384383
1.177406724483358
1.175621676953702
1.173944480170468
1.172736769974625
1.172460475624961
1.173436474087597
1.175700889576738
1.178082541296843
1.179576418294606
1.180043025404594
1.179450774002663
1.178024188194707
1.176627517780539
1.175579291973419
1.175334228281651
1.17584992031745
1.176620378662559
1.177248263361105
1.177192513316273
1.176543889842074
1.175697356841151
1.175122178569457
1.175284669342071
1.176687097158282
1.178658417357231
1.179959700333555
1.180255219200953
1.17951014770563
1.178088021376926
1.175392877366491
1.173732057871884
1.173390938175818
1.174127322914786
1.174794765369273
1.176195696510167
1.176891625182296
1.176754945087793
1.175967268831474
1.17541657063539
1.174843677383822
1.174919924805521
1.17547206591751
1.176350634755956
1.177384569273396
1.178161552633428
1.178452824863034
1.17794109484662
1.176088662404724
1.174002382197205
1.172653806523902
1.172079546470104
1.172635954824556
1.174808888760595
1.177773402602382
1.179737646212122
1.180586386250845
1.180115930256884
1.178622278085948
1.176615030185663
1.175265472865961
1.175035400498885
1.175683354509115
1.176661953726218
1.1773574357403
1.177366428253918
1.176794090552751
1.175977882658179
1.175390459748174
1.175220580963684
1.175885813771275
1.177680805674478
1.178936950055092
1.179730032854934
1.180040686685986
1.179516664334053
1.177174303223074
1.175175210005061
1.174072418743695
1.173554971408986
1.173921584626762
1.17477895935674
1.175441530702744
1.175554516888399
1.175783659589674
1.17559446329487
1.175547761063384
1.17582164295805
1.17619510075726
1.176728528188092
1.177369485096963
1.177648155553972
1.177190348866665
1.177166887560694
1.176071523716383
1.174533411385613
1.17366491668409
1.173778302764855
1.173452911574034
1.174223776990113
1.176207204587592
1.178168267759695
1.178966878506488
1.179617532421376
1.17913419551406
1.178073897283501
1.177146217558413
1.17620076073851
1.175634935592371
1.17541632432286
1.17568352272092
1.176475383456348
1.177010290998752
1.177041808161217
1.176485987789983
1.175505704274212
1.17492310000596
1.175058585982535
1.177139488738438
1.179540269233831
1.181198398272741
1.181870041294805
1.181025508091786
1.177929094636391
1.17376496352671
1.171098480389072
1.170232717253051
1.171134365227256
1.173165463167189
1.176654162529131
1.178799139337663
1.179061922294144
1.177881447006876
1.176771539612894
1.175396146484434
1.175037892947553
1.175605877076915
1.176554042224214
1.177243914084534
1.17710968144182
1.176117757194985
1.174208998049296
1.172293445183261
1.171678600310231
1.172433987726694
1.172906860933382
1.175520087932721
1.179182910111554
1.181035805154156
1.181362215238682
1.1816371528607
1.180380956103647
1.177659979308275
1.175639871419037
1.174343396339339
1.173463755388658
1.173584337116955
1.174712464481402
1.175937207334059
1.177460354336311
1.177924319672149
1.177860502092316
1.177163693567205
1.176276402479004
1.175987085862366
1.176842578847325
1.178487037414111
1.179781318282633
1.180561663357715
1.179959414658616
1.176518907981662
1.172451459328729
1.169909482263085
1.169284198367386
1.170596789979373
1.173837783522741
1.178290874144822
1.180615818933782
1.180723249796823
1.178849864959638
1.176877568279322
1.174330428459639
1.173486126855032
1.174000416633193
1.175655156228554
1.177009768257567
1.177254883721056
1.176085412391524
1.173756940216085
1.171183309596929
1.169605290467208
1.169778775019919
1.172608218865428
1.177979541740633
1.182853009541096
1.185174771314272
1.18461145310654
1.182079065041566
1.177074840295671
1.17275630321681
1.171373732643892
1.172442422760005
1.173964337431399
1.176756063680074
1.178243975854222
1.177789787312362
1.176511976333146
1.175007026825931
1.174283238687247
1.175088410333815
1.176459819294635
1.178764484993111
1.180525157163082
1.180703459542397
1.179268083587456
1.178682337779918
1.175915958734457
1.172827794022915
1.171399194484959
1.17135058668947
1.171169971303802
1.172679169931262
1.175334665941224
1.17698215047179
1.177650036717219
1.17803730631177
1.177505294563448
1.176805618713732
1.176550970762855
1.17620588582442
1.175839736639461
1.175265491103049
1.174020768636518
1.172735738461542
1.171534799094393
1.170530337036407
1.170884179105393
1.172956126019092
1.175466085598068
1.179712316904801
1.182891055499587
1.183548588579026
1.181626538300354
1.179296387987094
1.175150331300512
1.17189522012707
1.17088013521298
1.172310119328034
1.174582421856203
1.177758547414507
1.180026352769113
1.180085039932423
1.178023263128693
1.175613693686804
1.172999310204764
1.172073483216719
1.173331452177305
1.176211124314822
1.179528902087816
1.182229741478809
1.182607751902408
1.180540588564155
1.177051780561205
1.172158936555012
1.168636330980141
1.167835524863371
1.169817842460907
1.173083811885995
1.177723367043257
1.180743915118626
1.180927021576682
1.178752056109859
1.175575745919415
1.172185233155376
1.170455686397503
1.171039613022065
1.172914148464725
1.175484532961463
1.17793180390291
1.179214560538319
1.179105942705579
1.176911141807687
1.174053771781739
1.171432533297234
1.170035481744859
1.170418415697863
1.173572604775816
1.177389616612905
1.18037884470532
1.182221692442026
1.18217140527515
1.180073606945752
1.17701573689203
1.174211542882607
1.172294779565777
1.171925537097993
1.173060474053836
1.174717172270899
1.177168067087727
1.177967363597102
1.178075874261345
1.177211720495226
1.175773166359767
1.174993366571889
1.17497625393502
1.17599132369149
1.177277818410933
1.179361738760663
1.180010074134588
1.17930835239422
1.176028283458127
1.172992212510493
1.170012812005589
1.168879645261425
1.169349049197708
1.172386046842485
1.17512050905068
1.178208825147592
1.179447405796957
1.17945910191863
1.177813146894803
1.17559100422028
1.173900438713966
1.172928611668135
1.173036958953036
1.17417216377201
1.175166177603101
1.175294325891432
1.173789707696415
1.172042797902386
1.170301007213072
1.170238917068778
1.17349623903427
1.179042363502581
1.183193770016792
1.185016877812275
1.183702580026422
1.179411027315162
1.173646548605272
1.169185052825347
1.167724687722914
1.169703264800401
1.173774360624334
1.178585290629111
1.1819259833883
1.181956822218338
1.179396967967684
1.175248910783673
1.171496898381762
1.169833670981237
1.171234457051054
1.175259153805473
1.180248474836483
1.18394476819361
1.184444449919198
1.181734282648961
1.176052469697072
1.169268273752322
1.164973337112424
1.164586537496747
1.16751436882613
1.173282609568567
1.179688908847796
1.183399743783056
1.182928777372966
1.179615684731391
1.174603298426069
1.169501561945393
1.167026517066343
1.16831186641496
1.172270988210572
1.177137607929223
1.181124541754331
1.182437472164095
1.180322019476153
1.175563770122158
1.170050044823948
1.165998580163473
1.165138374533912
1.168112524706891
1.174917033202493
1.182343356730418
1.187037759578895
1.188162324224842
1.185357985890533
1.178726271473231
1.171470861557854
1.166886823762257
1.16608759141381
1.168664154290661
1.174072144510621
1.17975794330307
1.182437345188574
1.181097555874089
1.177560913642822
1.17337256855787
1.170541292664128
1.171151049280677
1.174332627229179
1.178378269772572
1.182298573982065
1.183267156910365
1.181022088170756
1.175966327391149
1.169580316872341
1.164569507325518
1.163110368414177
1.16571200375942
1.171216296797607
1.177945424144496
1.182881938710173
1.184146858310278
1.182020080206592
1.177309328820926
1.17234681107912
1.168624038314911
1.167661921305296
1.169654254989621
1.173001728336506
1.176394459064381
1.17832917902576
1.177630134027627
1.175644899849855
1.172338495387284
1.170570049917518
1.170543252108925
1.173577595115913
1.176951816895855
1.18060585289454
1.182031877808706
1.181820729243957
1.178580122312795
1.174999983132792
1.171177452483455
1.169525129404903
1.169725528801254
1.172822716269597
1.175985595611166
1.179448960373751
1.18058562163569
1.180126959721539
1.177859393079978
1.174471817456553
1.172473944098385
1.171685857023795
1.172800296208071
1.174819591252652
1.178325160246743
1.179598840958715
1.179113344500113
1.175739143612711
1.172463814047196
1.168459462692641
1.167006570710838
1.167755988047959
1.172305643176697
1.176241722807448
1.180325488280303
1.181517489847486
1.180336371997266
1.176349546282096
1.171668259239536
1.168089741123811
1.166977126525674
1.169068372493709
1.172787378264631
1.177382630212412
1.179729357299901
1.179835149075038
1.17678556697556
1.173255106761334
1.169548286777066
1.168029440293233
1.16971569964406
1.175662870484429
1.180921820747161
1.184388749038533
1.184309354380683
1.180252626214736
1.173673744957842
1.168697231632164
1.16741932238947
1.169900350261536
1.172987975526971
1.178402899127691
1.180943257802646
1.180005725744786
1.176148785844703
1.172879497000675
1.170132057265614
1.170687737393187
1.174152009778003
1.178205445964619
1.182081516937428
1.182740502720227
1.179532475637099
1.174134983980938
1.167787051050291
1.164226402811387
1.164366993727998
1.168235047910759
1.173128030514049
1.179842733966867
1.182499657014251
1.180714015253411
1.176280693885364
1.171375487099614
1.167835266922493
1.167749901468832
1.170570317752253
1.17545679260726
1.179616422865036
1.181770860814515
1.179661883391343
1.173610783120246
1.167815785248732
1.163353729163053
1.163104167157559
1.167051277640832
1.174651489503268
1.183132518308771
1.189105221355274
1.190037858383512
1.186015472998091
1.178157002633148
1.169643689091556
1.163487629456673
1.161501707367859
1.163996312278259
1.170315132864542
1.177009773991099
1.183250130590147
1.185644735559719
1.184180354975233
1.17941077061632
1.173877458483031
1.170508974201043
1.169727952243659
1.171015558057359
1.17307453863344
1.174990038232746
1.175424165973969
1.174542394287116
1.174428586616498
1.173705633064594
1.173061342824355
1.172761687409056
1.173640497788388
1.173489306122615
1.173312839961553
1.172833617229053
1.172136900710898
1.171099316131677
1.171223433857567
1.172354198293125
1.17425080296041
1.175773871953814
1.178303620458317
1.179189939079563
1.178729028317374
1.176031104793484
1.173436353821897
1.169451908167559
1.167233820997485
1.166211572838795
1.169535029809466
1.175107498578828
1.179077953718825
1.181870749058779
1.182384090307893
1.178809970535893
1.173170307462899
1.169543158118024
1.168557276217579
1.171145397751106
1.174373363302044
1.179537896563875
1.181662112003381
1.180001841064229
1.174523735690317
1.170465383384133
1.166460222157607
1.166044739606821
1.168661159960146
1.174926460498802
1.180282520454105
1.185476024327419
1.186454129443876
1.182496944191051
1.174654204135765
1.167155296076313
1.161485067509529
1.160335702189167
1.163380301617873
1.16958840750661
1.176535047330431
1.182139376607213
1.183097080271578
1.179717868493228
1.174993967575746
1.170171289955621
1.168011745257532
1.168990090235874
1.17249222519838
1.174925638362903
1.177178682225339
1.1762347661548
1.172619296726983
1.169392163380207
1.166448371878014
1.166474773096076
1.17001688995678
1.175462496810932
1.182335513615293
1.186134934094168
1.185747152753468
1.181133622546531
1.175920726612693
1.168575041636918
1.165019431766276
1.165090686076265
1.168888122428187
1.172222818520339
1.178446734001092
1.181493082817818
1.180900659696628
1.176896930749464
1.174023516613382
1.170649396168575
1.169983173641988
1.171690709214148
1.175281641967829
1.177630163723259
1.180275516450428
1.179149165670152
1.1740102318653
1.167955265034957
1.16257632390153
1.159564661997503
1.160707739130627
1.165916344682325
1.174173021779633
1.181357546387174
1.186870155205002
1.187888972697155
1.18407414269842
1.175575787870091
1.167595291975009
1.160655873359054
1.158129851834945
1.159653843853846
1.164497553878563
1.171959729889602
1.17949376031373
1.184833140349995
1.186227409796521
1.183686930890705
1.178226315259073
1.171729285527027
1.165823229944279
1.163933389398039
1.165748758593788
1.169359000255947
1.173412611009848
1.176719068700933
1.179170229661828
1.179513974185506
1.179179133444606
1.176931216718997
1.175839279107988
1.172980526826384
1.170473973646014
1.169026686199925
1.169378237054421
1.169026896162981
1.171026740058872
1.17465276741204
1.178078987495076
1.179807937765299
1.181575894589041
1.179409039234483
1.173910933350967
1.169142118640993
1.165844249650063
1.163659471885241
1.164889469595965
1.169063858309147
1.174078057545795
1.177676712665197
1.180587249150951
1.180231345416014
1.176793411122784
1.172321228920554
1.168858449251734
1.166612025315833
1.167163625665535
1.169978545415115
1.172611379849731
1.175855827939308
1.177110613407899
1.175836504663512
1.175076300444694
1.173017402350601
1.171559478124002
1.171309438685561
1.171232132977114
1.172186997155064
1.173911578402999
1.175125968617563
1.177656824484525
1.178020140938582
1.177830385386686
1.176542854724153
1.174427578582934
1.171291470117538
1.16895426470366
1.167768603399185
1.168269838863118
1.170659447422822
1.173553985857092
1.176518570103918
1.178862604883991
1.17980873867533
1.178289297984853
1.177099142791735
1.173454197364471
1.169320984856482
1.167161338757238
1.167353498955061
1.166312400394586
1.167975509918889
1.171369019951821
1.174526869714743
1.175246851214295
1.177167851321366
1.176537596545974
1.174379575726763
1.172138788663249
1.171882600441105
1.170430465373708
1.170249446845256
1.171048663144143
1.1720567654046
1.172520982254803
1.172459782565085
1.170779023607801
1.16880231990613
1.168514835583742
1.167069948879283
1.168154541796259
1.172553168315951
1.1783275324045
1.180846545489491
1.183819364184255
1.183851816005225
1.179385183818932
1.170976763330461
1.166033571540816
1.162856738770116
1.161535005151118
1.163081440034664
1.167982994172854
1.175566832814097
1.180420171279748
1.1834720739562
1.184681397433879
1.183579165827806
1.180072062054169
1.173900187842987
1.168283777934117
1.16623399676417
1.166886902932004
1.168395206568636
1.169404617057417
1.168933825316356
1.167744943366847
1.166604507235837
1.166673005212459
1.168652026617742
1.172928270668351
1.176638916416058
1.179918996299244
1.180838289058047
1.178609592874564
1.172986857281034
1.167367043160395
1.163733646254228
1.162003906184579
1.163182154531855
1.167366898790111
1.173705374220123
1.177653539754258
1.180214569054138
1.17963248702689
1.175751100729314
1.169698940384155
1.165917176747328
1.163649679025454
1.164162102542655
1.167884179364452
1.174771145461515
1.179793165874013
1.182389089247511
1.182093260305708
1.178281418168704
1.171340580041847
1.165299635270236
1.162917075639785
1.162415598311185
1.164555623499169
1.16968085870698
1.176311521518547
1.180441917973013
1.181471095556017
1.180464757512665
1.178099701007675
1.173718543700634
1.168196856621251
1.165830972281877
1.165905061023945
1.166679079677285
1.166999114645467
1.166892496901248
1.166782904726964
1.167433928455244
1.169343560825591
1.172452071858005
1.174662203802178
1.176383052373843
1.177135984094381
1.175845544698667
1.171822017491784
1.167252484995045
1.165452626104665
1.164575419161625
1.165693100158233
1.168901495827524
1.17319834038709
1.175349470822526
1.175977821802759
1.175316142092568
1.172564807856674
)
;

boundaryField
{
    inlet
    {
        type            calculated;
        value           uniform 1.176411716172193;
    }
    outlet
    {
        type            calculated;
        value           uniform 1.171855022363581;
    }
    frontAndBack
    {
        type            empty;
    }
}


// ************************************************************************* //
