/*--------------------------------*- C++ -*----------------------------------*\
| =========                 |                                                 |
| \\      /  F ield         | OpenFOAM: The Open Source CFD Toolbox           |
|  \\    /   O peration     | Version:  v2012                                 |
|   \\  /    A nd           | Website:  www.openfoam.com                      |
|    \\/     M anipulation  |                                                 |
\*---------------------------------------------------------------------------*/
FoamFile
{
    version     2.0;
    format      ascii;
    class       volScalarField;
    location    "0.014";
    object      T;
}
// * * * * * * * * * * * * * * * * * * * * * * * * * * * * * * * * * * * * * //

dimensions      [0 0 0 1 0 0 0];


internalField   nonuniform List<scalar> 
1000
(
299.9733907833193
299.9635907506952
299.952184845507
299.9612037052572
299.9754109532473
300.0014557969531
300.0092447142467
300.000191419482
299.9655481414748
299.9348237776533
299.9020661765782
299.8905068642982
299.9037905069586
299.954046915129
299.9975978316958
300.0384983570831
300.0565632412219
300.0522405742508
299.993566373613
299.9327364342925
299.8911364947901
299.8736367486205
299.8909225509913
299.9567285904806
300.0568595152998
300.1283740622707
300.164418253427
300.1599965935019
300.1219053844307
300.0166304765575
299.915558732306
299.8782311782136
299.8801023471287
299.9042950977017
299.9651564419473
300.0977929883738
300.1944467060259
300.2214581655946
300.2223406596711
300.2200867122252
300.1592731432835
299.9962586484536
299.8669053495699
299.8013983266951
299.7499117846891
299.7399443209499
299.804339286844
300.0055007046121
300.1948856382281
300.2966696667225
300.3421820669069
300.3146622361133
300.2264330519104
299.9991691115307
299.7497964224236
299.6214499883914
299.5722247690336
299.5832709121859
299.6484491981763
299.7587059455665
300.0510759447401
300.2738979514349
300.3463450421492
300.3459786889229
300.3213810387551
300.2795938328848
300.0954165312635
299.8050993335537
299.6406908794384
299.6094789360806
299.5973224198011
299.6021482834838
299.70911392919
299.9884836579189
300.1859778038478
300.2762740323092
300.3422845457084
300.3458071699255
300.2402795659668
300.0675801365193
299.9413247256574
299.868290840378
299.8582726566631
299.8953234568433
299.9464531696161
299.9827496405242
299.9957878768452
299.9912003134802
300.0030478740753
300.0598716680411
300.1449771564168
300.209851831107
300.2844586102108
300.319597584601
300.2976159920668
300.1414578374334
299.9122005825225
299.7521900885864
299.689578876525
299.7234027775446
299.7879582662251
299.9201744705187
299.9897215033392
299.9847194989555
299.9832274906502
299.9763547322431
299.9933231929423
300.0185152605815
300.0397961794904
300.0576424471038
300.0546069025225
300.0355438298976
300.0136644033128
299.9310883852874
299.8221255828869
299.7747604023831
299.7797700970706
299.7691925647405
299.8329970372299
300.0032718963928
300.1432164821304
300.2029427525064
300.2450992175697
300.2233615750247
300.149128770643
300.0557880551097
300.012282900348
299.9911205485963
299.9867390419736
299.9945857846693
299.9867020786889
299.9447443729694
299.9238373396882
299.8999254607525
299.9421893152189
300.0300875701544
300.1940683092053
300.3230455969409
300.3709664517958
300.3218076298114
300.2048415672616
300.0173066515234
299.7993389306988
299.6988240454344
299.6979976074624
299.7916573994615
299.9057408223039
300.0505909321089
300.1117916489711
300.0848793706262
299.9886450294833
299.877591895648
299.8097173296298
299.800422504673
299.8646958588382
299.9903038874668
300.1297129615493
300.2234417309554
300.2235294298356
300.101254707637
299.9190697030944
299.7477535815065
299.6243233905905
299.5960669504371
299.695857203334
299.9271611468205
300.1701523724514
300.3224469708662
300.3699898273891
300.3096567412549
300.1642344751228
300.0217645737268
299.9147754042177
299.8897404460287
299.9423854215311
300.0210161421489
300.085079353958
300.0793960132931
300.0132151340538
299.926815254753
299.8680927956798
299.8846935521319
300.0278541405582
300.2288794919363
300.3614867771167
300.3915847822051
300.3156900383473
300.1707614982847
299.8957107174173
299.7260415002197
299.6911680436651
299.7664350444478
299.8346341241447
299.9776622995494
300.0486765562691
300.0347271849816
299.954339446898
299.8981064571166
299.8395950845724
299.8473859062045
299.9037725186039
299.9934560070789
300.0989449700443
300.1781864938791
300.2078870795242
300.1557252795222
299.9667226035764
299.7536292400895
299.6157769797768
299.5570440632852
299.6139582276709
299.8360474145879
300.1385856635208
300.338798156865
300.4252469816296
300.3773311887344
300.2251232686691
300.0203883966585
299.8826272125643
299.8591248033558
299.9252895536752
300.0251706461358
300.0961292205308
300.09704764414
300.03865267455
299.9553502515406
299.8953883251787
299.8780531788769
299.9460166616697
300.1291230248851
300.2571741228065
300.337996532029
300.3696626920062
300.3163325087017
300.0774677323467
299.8733784124522
299.7607338275998
299.7078768346557
299.7453667701454
299.8329678934753
299.9006114011746
299.9121430044553
299.935560661093
299.9162638970331
299.9114988416462
299.9394536422262
299.9775628016944
300.0320071794197
300.0974097700908
300.1258388601183
300.0791436843351
300.0767577736833
299.9649958894934
299.8079329522857
299.7191333310681
299.7306902216673
299.697445953707
299.7762832670455
299.978905225254
300.1788491982163
300.2602476684251
300.3265993737509
300.2773841702932
300.1693039265853
300.0746328401038
299.9781514773514
299.9204072810281
299.898065146838
299.9253277501115
300.0061464134376
300.0607396465695
300.0639485953981
300.0072108731599
299.9071452861743
299.8476789090178
299.8615476330929
300.073930950518
300.3186753791937
300.4875628709269
300.5559283800826
300.4699801100502
300.1544818925029
299.7292666918212
299.4565670886741
299.3679240369534
299.4602148080268
299.6679891327768
300.0242609034133
300.2430052534484
300.2697687446364
300.1494501542895
300.0362493387448
299.8958477720433
299.8592573723913
299.9172518221514
300.0140176535264
300.0843987535507
300.0706986077172
299.9694689024838
299.7745509940672
299.578712513822
299.515805063952
299.5930827462316
299.6414551130875
299.9085620606234
300.2821603368865
300.4707871607096
300.5039747677976
300.5319999367156
300.4041664668856
300.1267992206305
299.9205233345387
299.7881001112646
299.6983053194526
299.7106560097049
299.8258852858721
299.9508791200906
300.1063158408394
300.1536761415965
300.1471580635018
300.0760381021172
299.9854931357556
299.9559726020944
300.0433014748087
300.2109423438806
300.3428405550744
300.4223626181717
300.361065007568
300.0102238889837
299.59456496592
299.3344423864531
299.270375474924
299.4048024988308
299.7363572436439
300.1907103454223
300.4275702484472
300.4384781187561
300.2476828532229
300.046575914888
299.7864666825301
299.7001717354273
299.7527410876741
299.921776583371
300.0600109632651
300.0850174079165
299.9656717543144
299.727833428236
299.4646836393219
299.3031923665153
299.3209960585899
299.6105811448924
300.1590668798873
300.6553037180252
300.8913621150089
300.8341166472222
300.5766402525155
300.0667766529194
299.6255456308278
299.4840613504977
299.5933829601178
299.7489650774651
300.0340130668903
300.1857431507142
300.1393864514963
300.0089998931747
299.8553580372172
299.7814142530444
299.8636701595179
300.0036683149818
300.2387398889647
300.4181127649952
300.4362480044033
300.2900514170893
300.2303733415808
299.9482324515358
299.6326880486577
299.4863540524539
299.4812664540189
299.4628671023978
299.6173949551762
299.8887497729841
300.0566596592325
300.1246883905997
300.1643499616128
300.1102330299481
300.0388801073281
300.0126958002379
299.9773426729085
299.9401104178845
299.8816353678629
299.7544867954138
299.6230737086103
299.5002562363558
299.3974658567502
299.4337418736663
299.6457482529911
299.9021745641576
300.335203054218
300.6587348879195
300.725575026689
300.5300841426025
300.2927614031229
299.8698195388779
299.5371145672571
299.4332181781194
299.579502709039
299.8116926580654
300.1359019992794
300.3670343741918
300.3730065156374
300.162871451072
299.9169281902303
299.6498240827765
299.5551809280996
299.6838788526167
299.9780665032458
300.3164590656088
300.5914404896065
300.6298865536886
300.4195125027189
300.0638942511077
299.5640932389776
299.2034359676614
299.1213061812057
299.3243776181095
299.6584508408666
300.1321960355813
300.4400728523765
300.4587552704805
300.2371878630618
299.9130831677982
299.5665900567389
299.3896279102983
299.4494260135328
299.6411855521253
299.9038153228319
300.1535562587563
300.2843659619469
300.2733223417234
300.0494655168296
299.7576212855735
299.4896048252928
299.3467131138913
299.3860152249876
299.7086139444223
300.0980713641721
300.4026469727319
300.5904094351467
300.5853743520574
300.3718809501759
300.0599721218136
299.7736313436196
299.5778417031514
299.5400813150189
299.6561128044426
299.8252279905419
300.0755039005365
300.1572169154426
300.1682583929939
300.079960677246
299.9330444158038
299.8535337360978
299.8518627242803
299.9555248510607
300.0867104643622
300.2992020644694
300.3653892182336
300.2939531089377
299.9590522268323
299.6486779606448
299.3439862061017
299.228242776766
299.2764562458051
299.5869385863854
299.866144883385
300.1814295409368
300.3079354986133
300.3091038576504
300.141097089962
299.9142590453991
299.7416517864718
299.6423286917744
299.6533560151429
299.7692872133698
299.8708579914205
299.8839792088177
299.7302978166061
299.551629404486
299.3733955772655
299.3670552952872
299.7003615364987
300.2662615954949
300.6887890506962
300.8740911876391
300.7405470721527
300.3037291325882
299.7154053223596
299.258882852517
299.1091477815586
299.3118418188688
299.7281957298579
300.2192950397688
300.5596927447231
300.562817466719
300.3020431111334
299.8787983860979
299.4953857404025
299.3252192087278
299.4687103409589
299.880123397014
300.3889609983497
300.7650966837121
300.815782512301
300.540108180688
299.9608971917184
299.2671733358462
298.8269252175557
298.7871547807978
299.0874860605529
299.6778094704464
300.3315157210221
300.7093985355837
300.6614997737686
300.3240798697905
299.8125477411739
299.2907768143654
299.0372420839814
299.169157626922
299.5744161539992
300.0714364932383
300.477849084322
300.6114877430837
300.396201821174
299.9108835155988
299.3470914536236
298.9318543501985
298.8434596050734
299.1485612949542
299.8446868720884
300.6016595114193
301.0789795660431
301.1931035448936
300.9084717276006
300.2334720733375
299.4922544913407
299.022724166086
298.9406024491741
299.2048285376691
299.7582234270231
300.3381950823595
300.6109660294106
300.4745318581496
300.113999759881
299.6864133663759
299.3968558031675
299.4593274491147
299.7845983032516
300.1973749964985
300.5965883986154
300.6951247796134
300.4668024852766
299.9514166712617
299.2984736458491
298.7846187987822
298.6346671845772
298.9019805718913
299.4660595570081
300.1534422451086
300.6561152241731
300.7845782115029
300.5683524228406
300.0883813845757
299.581550273652
299.2005530248629
299.1019080129689
299.3060691716639
299.6486524471009
299.9953130029508
300.1926987937883
300.1214601316042
299.9187537743312
299.5809612662287
299.400255534842
299.397558060301
299.7077108250243
300.05204674924
300.4246768867472
300.5701651042593
300.5486787101347
300.2182229215543
299.8525352018187
299.461875421263
299.2931192963063
299.3136933849562
299.630147521986
299.9529252310197
300.30639950587
300.4225885505687
300.3759658643605
300.1444757903615
299.7984551880282
299.5943820346852
299.5138252617019
299.6278086365799
299.8340291489361
300.1919759104328
300.3220876009182
300.2726473024232
299.9279421861031
299.5929184732464
299.1832960262052
299.0349349992671
299.1120834848231
299.5772603449859
299.9790042000735
300.3955443599801
300.5171480286454
300.396967659487
299.9901286274378
299.5117525830451
299.145604024068
299.0315204484476
299.2458319929746
299.6262059045321
300.0955909925048
300.3350316861153
300.3457221396276
300.0344576524795
299.6736698306603
299.2945442876637
299.1390637800974
299.3120000560576
299.9198099363173
300.4559710248554
300.8088911682834
300.8006703143993
300.3877405686091
299.7161327158765
299.2065803563231
299.0753520325076
299.3296675222311
299.6458190997434
300.1984658993872
300.4572538140881
300.3617543482142
299.968505177004
299.6345411228056
299.3533445995252
299.4102450232314
299.7645138243278
300.1781298697437
300.5729286631079
300.6400073652265
300.3134734252245
299.7627531407178
299.1130790385459
298.7477165468198
298.7621476862473
299.1591282425797
299.6600906561533
300.3448268015624
300.6151909579589
300.4334623445713
299.9815261825696
299.4804646223316
299.1178440911534
299.1090379719536
299.3978954522095
299.8974017250409
300.3218756524703
300.5413439231826
300.326616076551
299.7091885147485
299.1159281562
298.6580545514061
298.632475072861
299.0376538851019
299.8154759944675
300.6801170367754
301.2868561005797
301.3812256251055
300.9730844063922
300.1732092910657
299.3032679965731
298.6717228929962
298.4672654133861
298.7237624211109
299.3718737725284
300.0561550090384
300.6916727404752
300.9348029678884
300.7861127441804
300.3008562821302
299.7363393103045
299.3917502227153
299.3116859510242
299.4434532567159
299.6541637639849
299.8498779073576
299.8942010280168
299.8041342511179
299.7925975785827
299.7187959626363
299.6529427553113
299.6222488517598
299.7122765430228
299.6969871213946
299.6788101044868
299.6293603457503
299.5576810501151
299.4517912414196
299.4648961302102
299.5805933865029
299.7736789665229
299.9286976544296
300.1873704734885
300.278433209432
300.2316081733062
299.9558359465315
299.6903224794202
299.282637106894
299.055671891543
298.9509344196431
299.291865780924
299.8610638753474
300.2657877731276
300.5501198005476
300.6021776479372
300.2383078201858
299.6622317724832
299.2909296376408
299.1897073272286
299.4547387255629
299.7849097892043
300.3115235475374
300.5278231104338
300.3589909889223
299.8004685722839
299.3854128302893
298.9748133047988
298.9322008659399
299.2006706321265
299.8419689263644
300.3881440238346
300.9160591393692
301.015153419974
300.6130034516436
299.8137542501797
299.0465871311958
298.4643252216202
298.3459962799797
298.6590802417163
299.2957782546166
300.0059054535857
300.5767256595362
300.6739881884853
300.330170227572
299.8483421548625
299.3552352629551
299.1339626320879
299.2341094941302
299.5925285066357
299.8413047582768
300.0712962593319
299.9750281329094
299.605687713952
299.2753173378377
298.9734496531393
298.976209552789
299.3393069267589
299.8960577511468
300.5963919820998
300.9824924354261
300.9431400679314
300.4741249310262
299.9425480706611
299.1906716261499
298.8256680605103
298.832849876926
299.2225993884735
299.5641683961138
300.1995110125409
300.509721318837
300.4492648302883
300.0412830975503
299.747900413041
299.4026915719016
299.3344046380077
299.5091103880611
299.8761167628201
300.116043735833
300.3857333961381
300.2711826744448
299.7469031460573
299.1269224047988
298.5746819188196
298.2646839072657
298.3824887278241
298.9177982957667
299.7633409241423
300.4960210367016
301.0562286125874
301.1594462786708
300.7722753350834
299.9073033037038
299.0907613065231
298.3776872870955
298.1174859496232
298.2745877316198
298.7725128500142
299.5374251982682
300.3067680389203
300.8502745650846
300.9918493118962
300.7336572766949
300.1774534193398
299.5141702769197
298.9095913254496
298.7155205395621
298.9017284183978
299.271453941271
299.6863896328874
300.0245907535873
300.2749394290873
300.309976147849
300.275518532557
300.046278052144
299.9352955272781
299.6437722396213
299.3872711140658
299.2387752095646
299.2747210132201
299.2388610236574
299.4438970216983
299.8146107313399
300.1640984261198
300.3403524415572
300.5204323331829
300.3000370609017
299.7392421183152
299.2511924859417
298.9131628593688
298.6887318991619
298.8149873733733
299.2430075407349
299.7559152675669
300.1234374623809
300.4200172902879
300.3837981570404
300.0333820876638
299.5764947973676
299.2221867274707
298.9919100025464
299.0484831691981
299.3369135450271
299.606182130242
299.9376287670826
300.0656805166865
299.9356229069872
299.8579516881118
299.647503595023
299.4982319663816
299.4725108751009
299.4646491623902
299.5624036719366
299.7386636186615
299.8626364004988
300.1211159447199
300.1584558379091
300.139098823302
300.0074635764864
299.7911470676698
299.4707419585091
299.2319001316193
299.1103500864672
299.1614770789981
299.4058079126607
299.7020380462369
300.0052631262536
300.2442674941501
300.3404695972453
300.1854218100339
300.0643683999995
299.6928604549031
299.2696126297798
299.0479202116102
299.0676346850957
298.9610378613893
299.1318895081183
299.4794593119038
299.8022598398941
299.8757674626735
300.0717040067557
300.0073336925356
299.786894922323
299.5577903033669
299.5317886025661
299.3833900822443
299.364919409102
299.4466344685633
299.5495255730202
299.5971257778211
299.5911451431481
299.4190998960737
299.2164208131368
299.1868034487661
299.0388271130564
299.1504005166661
299.6009073194367
300.1905615262016
300.4469965659407
300.7493554916887
300.7529051800515
300.2986843674546
299.4404377991656
298.9334334873631
298.6071281119766
298.4711377788518
298.6301443807917
299.1333796894583
299.9097401660938
300.4044156292512
300.7149866614739
300.8379336546678
300.7260135368932
300.3692712033994
299.7400602188685
299.1654253664241
298.9551277081388
299.0220691020122
299.1766425445575
299.2801042461564
299.2319411973264
299.1101077860926
298.9931464940394
299.0002350971419
299.2032405119621
299.6410890233359
300.0201118300502
300.3544233759883
300.447937031953
300.2209397294554
299.6472752610559
299.0717954597428
298.6988972953869
298.5211125027838
298.6422918970194
299.0718821401007
299.7208870842775
300.1240122843992
300.3850202174944
300.3257013173852
299.9297371974512
299.3109706057105
298.9232364733902
298.6904102283597
298.7430784485738
299.1249794863323
299.8299970443597
300.3422376879332
300.6064969600678
300.5764603085102
300.1881787517272
299.4796095040789
298.8604355506438
298.6156353198951
298.5640700604744
298.7839179370567
299.309603024358
299.9878004579624
300.4088748243564
300.5136799184456
300.4112536342061
300.1702682826589
299.7232396725075
299.1584688392111
298.9155978835537
298.9231542103674
299.0025152415949
299.0353340202398
299.0243838507666
299.0131298728305
299.0799218281072
299.2756480532437
299.593820179405
299.8195889968075
299.9952257289739
300.0720156663486
299.9403011352153
299.529058303117
299.060641922517
298.87536724344
298.7848848466898
298.8995362036956
299.2286617562356
299.669950642599
299.8944935305648
299.9629905433808
299.887079517066
299.6231134468667
)
;

boundaryField
{
    inlet
    {
        type            fixedValue;
        value           uniform 300;
    }
    outlet
    {
        type            inletOutlet;
        inletValue      uniform 300;
        value           uniform 299.5941439808683;
    }
    frontAndBack
    {
        type            empty;
    }
}


// ************************************************************************* //
