/*--------------------------------*- C++ -*----------------------------------*\
| =========                 |                                                 |
| \\      /  F ield         | OpenFOAM: The Open Source CFD Toolbox           |
|  \\    /   O peration     | Version:  v2012                                 |
|   \\  /    A nd           | Website:  www.openfoam.com                      |
|    \\/     M anipulation  |                                                 |
\*---------------------------------------------------------------------------*/
FoamFile
{
    version     2.0;
    format      ascii;
    class       volVectorField;
    location    "0.014";
    object      U;
}
// * * * * * * * * * * * * * * * * * * * * * * * * * * * * * * * * * * * * * //

dimensions      [0 1 -1 0 0 0 0];


internalField   nonuniform List<vector> 
1000
(
(0.2067704339671799 0 0)
(0.08755680418137922 0 0)
(-0.06038875632333708 0 0)
(-0.2061375607198445 0 0)
(-0.2845277314778281 0 0)
(-0.276560993300862 0 0)
(-0.1931217342202856 0 0)
(-0.08834139223870195 0 0)
(0.05746885183388575 0 0)
(0.117818107886132 0 0)
(0.09430091902740184 0 0)
(-0.0009226574437515254 0 0)
(-0.1176699444945365 0 0)
(-0.2917568446483287 0 0)
(-0.3696311335058319 0 0)
(-0.3576822370674089 0 0)
(-0.2690636782353239 0 0)
(-0.1839704425074237 0 0)
(0.02336197599255253 0 0)
(0.1662664992216944 0 0)
(0.2041701028722736 0 0)
(0.1913525561679814 0 0)
(0.1690548133036407 0 0)
(0.05587836076235077 0 0)
(-0.1341378868641592 0 0)
(-0.225601487375142 0 0)
(-0.210982022724003 0 0)
(-0.2318307380201547 0 0)
(-0.1615176534985325 0 0)
(0.07484136725245634 0 0)
(0.3245918806445023 0 0)
(0.465777970192619 0 0)
(0.5581233113804484 0 0)
(0.5749365471491449 0 0)
(0.4582116055349024 0 0)
(0.07014990951120784 0 0)
(-0.2763308987764136 0 0)
(-0.4581052328417054 0 0)
(-0.5210641554857363 0 0)
(-0.4692103783973323 0 0)
(-0.2325944785298843 0 0)
(0.2640133352881674 0 0)
(0.6172789870266318 0 0)
(0.7518098254128324 0 0)
(0.717447371490568 0 0)
(0.6163667081364272 0 0)
(0.3592681905526859 0 0)
(-0.1944213193649402 0 0)
(-0.624827876320682 0 0)
(-0.7873038944391615 0 0)
(-0.8140805673336885 0 0)
(-0.8484626374974883 0 0)
(-0.746376160279643 0 0)
(-0.301309348275278 0 0)
(0.2420436642654935 0 0)
(0.5176439541994594 0 0)
(0.643498767574451 0 0)
(0.8010372349493972 0 0)
(0.8610774270293255 0 0)
(0.7186861877149167 0 0)
(0.003451783181392818 0 0)
(-0.6756974665176545 0 0)
(-1.087580631284157 0 0)
(-1.31698366598794 0 0)
(-1.402003354252568 0 0)
(-1.289043551928079 0 0)
(-0.6477031989032693 0 0)
(0.3805818137091578 0 0)
(1.089922083731423 0 0)
(1.451482609630392 0 0)
(1.54402493060492 0 0)
(1.41270702654147 0 0)
(0.9364428737392068 0 0)
(-0.02701122954991495 0 0)
(-0.6745433227603579 0 0)
(-0.8817301972070368 0 0)
(-0.7695546191431409 0 0)
(-0.5876962366359014 0 0)
(-0.1654191037053606 0 0)
(0.2816321105897383 0 0)
(0.4432800467677996 0 0)
(0.4084835787254656 0 0)
(0.4316139689206321 0 0)
(0.4242697926073634 0 0)
(0.4654902946019042 0 0)
(0.5028818491709239 0 0)
(0.4731716689171466 0 0)
(0.3749688843422078 0 0)
(0.1321144965166512 0 0)
(-0.2871965595232813 0 0)
(-0.6829649297678674 0 0)
(-0.858806647389086 0 0)
(-0.8394843565748449 0 0)
(-0.7152817282774326 0 0)
(-0.5937266950997951 0 0)
(-0.215805300692049 0 0)
(0.2066277647989578 0 0)
(0.3695950347976542 0 0)
(0.3846064850827826 0 0)
(0.4398044919088347 0 0)
(0.3846045425756302 0 0)
(0.09850783600511952 0 0)
(-0.1441093172617234 0 0)
(-0.3546292806572057 0 0)
(-0.4028041476742994 0 0)
(-0.2922532013172855 0 0)
(-0.1328560942567069 0 0)
(-0.04412251949165474 0 0)
(-0.1060897132905298 0 0)
(-0.2708929829904991 0 0)
(-0.4621281876115789 0 0)
(-0.556661605852914 0 0)
(-0.4771246260794144 0 0)
(-0.09860109372290471 0 0)
(0.4788077578876815 0 0)
(0.9041234958034082 0 0)
(1.096553356760928 0 0)
(1.025734331131187 0 0)
(0.6991412028190823 0 0)
(-0.006229501423967053 0 0)
(-0.5969349735863263 0 0)
(-0.8035957927656551 0 0)
(-0.7484451807758734 0 0)
(-0.5551884568830454 0 0)
(-0.1232415839383622 0 0)
(0.3409856731378451 0 0)
(0.5819183599620956 0 0)
(0.6475103214700498 0 0)
(0.5475771728320334 0 0)
(0.381803174278718 0 0)
(0.2103989060059336 0 0)
(0.08597351615084667 0 0)
(0.08936428684463538 0 0)
(0.1779225346141954 0 0)
(0.2135781571556592 0 0)
(0.1522213062110395 0 0)
(-0.1046081957091059 0 0)
(-0.3972996505734784 0 0)
(-0.6409454473936096 0 0)
(-0.8362328073680058 0 0)
(-0.8725865607310023 0 0)
(-0.6324631644777891 0 0)
(-0.1620392961507843 0 0)
(0.1673852295769394 0 0)
(0.4522736696349676 0 0)
(0.5464440891331187 0 0)
(0.538639362408442 0 0)
(0.3617828592621679 0 0)
(0.152075005584421 0 0)
(-0.1155669755477641 0 0)
(-0.2759266045521127 0 0)
(-0.4132381749326929 0 0)
(-0.4867164683083754 0 0)
(-0.450155592243582 0 0)
(-0.5076278628180936 0 0)
(-0.4841887279388933 0 0)
(-0.3566495147252295 0 0)
(-0.1494411996390976 0 0)
(-0.0754292316645524 0 0)
(0.2576729397210347 0 0)
(0.6042771113516278 0 0)
(0.7570023976123285 0 0)
(0.6576133730445135 0 0)
(0.5681384203123917 0 0)
(0.3139479984408082 0 0)
(-0.1075687270317021 0 0)
(-0.3914171486804748 0 0)
(-0.3775182391024245 0 0)
(-0.2702880897961796 0 0)
(-0.1199051078314621 0 0)
(0.0835614331829331 0 0)
(0.1982646409681728 0 0)
(0.1382487553131743 0 0)
(0.1251483687548032 0 0)
(0.08236287563614333 0 0)
(0.1543551509001106 0 0)
(0.318137362224552 0 0)
(0.3781233526965125 0 0)
(0.4893954827606819 0 0)
(0.4601208672595026 0 0)
(0.3222516571940351 0 0)
(0.2351451457623591 0 0)
(-0.09731888267590477 0 0)
(-0.5089560244415731 0 0)
(-0.7249161700203377 0 0)
(-0.8778194201380755 0 0)
(-0.9258080088066776 0 0)
(-0.775842557341725 0 0)
(-0.2306972022336293 0 0)
(0.225553658617028 0 0)
(0.5343735831972035 0 0)
(0.7067879366702623 0 0)
(0.6754972279129303 0 0)
(0.3342323510420794 0 0)
(0.02189953587931846 0 0)
(-0.2931776596914623 0 0)
(-0.4400284744636196 0 0)
(-0.4602295481034783 0 0)
(-0.3735506163609472 0 0)
(-0.2411767659848167 0 0)
(-0.2406308135798549 0 0)
(-0.2858809642653623 0 0)
(-0.3611943507439744 0 0)
(-0.3614918650143361 0 0)
(-0.257838104619068 0 0)
(-0.07077263034623771 0 0)
(0.3521881892361297 0 0)
(0.7198414250015409 0 0)
(0.8147782855472093 0 0)
(0.753957507303211 0 0)
(0.659490757097226 0 0)
(0.2513142299075496 0 0)
(-0.3001217345233843 0 0)
(-0.5085595383709643 0 0)
(-0.4636001327553725 0 0)
(-0.4502059742349601 0 0)
(-0.2436741627787174 0 0)
(0.05345262218903444 0 0)
(0.1903978071352574 0 0)
(0.3300684114364437 0 0)
(0.3844471804930186 0 0)
(0.4296954995135662 0 0)
(0.4860592338539971 0 0)
(0.4435336111741361 0 0)
(0.5032935044276394 0 0)
(0.4947879099706726 0 0)
(0.4045746377251805 0 0)
(0.2124846214537776 0 0)
(-0.1464939697596928 0 0)
(-0.7714350036079808 0 0)
(-1.116735052857862 0 0)
(-1.176196416164143 0 0)
(-0.9836876827771271 0 0)
(-0.6427555008910943 0 0)
(0.1767799188424282 0 0)
(0.739536317544498 0 0)
(0.8976952632242434 0 0)
(0.7699498927122294 0 0)
(0.4873028306187107 0 0)
(-0.03976839114979194 0 0)
(-0.4845298502892823 0 0)
(-0.7001843755470228 0 0)
(-0.6107513242711236 0 0)
(-0.3610764123769331 0 0)
(-0.003937852340645586 0 0)
(0.3083447409538096 0 0)
(0.4313862894303016 0 0)
(0.2485756649362737 0 0)
(-0.1924459180247178 0 0)
(-0.6808556929127637 0 0)
(-1.000501361261038 0 0)
(-0.9576016822717027 0 0)
(-0.4549136138204201 0 0)
(0.3788346904526617 0 0)
(1.123260108623191 0 0)
(1.510357716600872 0 0)
(1.466844010760305 0 0)
(1.040498075572306 0 0)
(0.05840574251037534 0 0)
(-0.8772356735785274 0 0)
(-1.239080448846257 0 0)
(-1.049351151762949 0 0)
(-0.5792709367461738 0 0)
(0.1915360851549053 0 0)
(0.7448829992919972 0 0)
(0.8324085864912336 0 0)
(0.5780016233724889 0 0)
(0.2656663698710603 0 0)
(-0.01310131896131711 0 0)
(-0.05996315478751534 0 0)
(0.1686871971571905 0 0)
(0.3616545818853843 0 0)
(0.61849968568693 0 0)
(0.6423703333405524 0 0)
(0.4074334506877476 0 0)
(0.1556972833039255 0 0)
(-0.563492583949269 0 0)
(-1.115004093314921 0 0)
(-1.238405885660036 0 0)
(-1.132761899878692 0 0)
(-0.9510943316057094 0 0)
(-0.3660001074714526 0 0)
(0.4139920549519394 0 0)
(0.7848116162113017 0 0)
(0.9383512406108165 0 0)
(1.017160174965015 0 0)
(0.7723366295729752 0 0)
(0.1220888562727384 0 0)
(-0.3337008735023117 0 0)
(-0.6862889550358362 0 0)
(-0.8463699845797432 0 0)
(-0.8280569745587738 0 0)
(-0.5779232749572321 0 0)
(-0.2652215746556966 0 0)
(0.002839330638932373 0 0)
(0.1270470224253738 0 0)
(0.07275502881346016 0 0)
(-0.1143784531746639 0 0)
(-0.1195437545690632 0 0)
(0.1817596643150933 0 0)
(0.7346342513792868 0 0)
(1.22377211996015 0 0)
(1.580661830143046 0 0)
(1.596154204418495 0 0)
(0.7959516025072977 0 0)
(-0.5655724078206852 0 0)
(-1.564972484372667 0 0)
(-1.966908821993435 0 0)
(-1.713403568754815 0 0)
(-0.9552096464603583 0 0)
(0.3568132783741728 0 0)
(1.36575072106543 0 0)
(1.680416629274039 0 0)
(1.349333538492746 0 0)
(0.8082698485054405 0 0)
(0.01570973915004558 0 0)
(-0.4159457366518834 0 0)
(-0.3293129572660088 0 0)
(0.1045172349336012 0 0)
(0.4957289180016675 0 0)
(0.7658452099731875 0 0)
(0.6025345158294341 0 0)
(0.1084255111593368 0 0)
(-0.5845273852082642 0 0)
(-1.252217036771736 0 0)
(-1.422527622266412 0 0)
(-1.179247566536959 0 0)
(-0.8742853163754436 0 0)
(-9.232325006858071e-05 0 0)
(0.8658925779254902 0 0)
(1.213458508880079 0 0)
(1.352549548389973 0 0)
(1.306870176246964 0 0)
(0.8388748427473671 0 0)
(-0.05031480574580473 0 0)
(-0.5772841852942789 0 0)
(-1.088087593516962 0 0)
(-1.276536448181416 0 0)
(-1.260010290601828 0 0)
(-0.8982051826952411 0 0)
(-0.4519505369271792 0 0)
(0.05758819646389902 0 0)
(0.488012345047159 0 0)
(0.7419510111204259 0 0)
(0.7657654378768133 0 0)
(0.9584663808825856 0 0)
(1.060938715024091 0 0)
(1.03426326781523 0 0)
(0.8545748141994955 0 0)
(0.9087035085060559 0 0)
(0.3922333239854603 0 0)
(-0.4969109312566901 0 0)
(-1.097201236124236 0 0)
(-1.120531985676626 0 0)
(-1.300896236132931 0 0)
(-0.9556257145794631 0 0)
(-0.1333756482338051 0 0)
(0.6351462656739233 0 0)
(1.10018682780628 0 0)
(1.463564660322638 0 0)
(1.443437977855706 0 0)
(0.8930610140018101 0 0)
(0.2681290783566768 0 0)
(-0.3370542780517519 0 0)
(-0.4818142864384454 0 0)
(-0.2404370772120294 0 0)
(0.2764348795119119 0 0)
(0.7574116861550684 0 0)
(0.8665425426432682 0 0)
(0.3810671428008989 0 0)
(-0.4301693257325498 0 0)
(-1.263623732568215 0 0)
(-1.777798721412212 0 0)
(-1.749461586675613 0 0)
(-0.7761034857860268 0 0)
(0.6833233034307324 0 0)
(1.864149021601265 0 0)
(2.397345264967865 0 0)
(2.082680140050127 0 0)
(1.072497729524414 0 0)
(-0.5034875217559616 0 0)
(-1.727560853877504 0 0)
(-2.167782747927686 0 0)
(-1.748247313815328 0 0)
(-0.854117065447638 0 0)
(0.2886728807480857 0 0)
(1.263719879508485 0 0)
(1.58524090882506 0 0)
(1.266885276732922 0 0)
(0.4715763501961961 0 0)
(-0.3068707377377456 0 0)
(-0.6526563609778473 0 0)
(-0.3850866355183126 0 0)
(0.2777352939637207 0 0)
(1.111423230585646 0 0)
(1.665453241812716 0 0)
(1.728371124845077 0 0)
(0.9427126679568663 0 0)
(-0.1238640367394203 0 0)
(-1.140182422969849 0 0)
(-1.76244368540567 0 0)
(-1.852415810855288 0 0)
(-1.004363149281974 0 0)
(0.213183677435527 0 0)
(1.263347001251192 0 0)
(1.972498825629634 0 0)
(2.114463217324367 0 0)
(1.621827820561796 0 0)
(0.8062386496129015 0 0)
(-0.1295268576860965 0 0)
(-0.605571624526214 0 0)
(-0.7214779672186697 0 0)
(-0.4112369970332908 0 0)
(0.08914931728666461 0 0)
(0.4948321020355285 0 0)
(0.6172229031849904 0 0)
(0.4019657324563831 0 0)
(-0.006034517176949476 0 0)
(-0.6446395572945246 0 0)
(-0.9235714950732398 0 0)
(-0.9127359003477507 0 0)
(-0.3798092380622204 0 0)
(0.2832595040932656 0 0)
(0.9583670503040999 0 0)
(1.311946688869992 0 0)
(1.285787038384891 0 0)
(0.7499061418403467 0 0)
(0.1743174759941179 0 0)
(-0.4745915059700327 0 0)
(-0.6788787235606429 0 0)
(-0.7118818582075588 0 0)
(-0.5233527241998231 0 0)
(-0.3055159646548744 0 0)
(0.04660580824873941 0 0)
(0.03560554227423224 0 0)
(-0.04809455109245853 0 0)
(-0.08258786134856846 0 0)
(0.1843683965209161 0 0)
(0.4496035027155073 0 0)
(1.214398907244924 0 0)
(1.842636151133396 0 0)
(2.014085620728504 0 0)
(1.566103583127372 0 0)
(0.9032385858397438 0 0)
(-0.5478214617380687 0 0)
(-1.709549467556432 0 0)
(-2.058986617517657 0 0)
(-1.537395704366651 0 0)
(-0.6125741771243723 0 0)
(0.8472174991838824 0 0)
(2.086058775629713 0 0)
(2.448944559070878 0 0)
(1.931482116722468 0 0)
(0.9577060952724875 0 0)
(-0.2136645280099458 0 0)
(-1.015077567579143 0 0)
(-0.9888791853788048 0 0)
(-0.2693557975714286 0 0)
(0.5923980943533838 0 0)
(1.515083092189126 0 0)
(1.764482495259057 0 0)
(1.252855604182537 0 0)
(0.1983350127204758 0 0)
(-1.107166989620809 0 0)
(-1.997804151817179 0 0)
(-2.069528365686899 0 0)
(-1.33382526408198 0 0)
(-0.296052190738031 0 0)
(1.38092192466314 0 0)
(2.294652355412774 0 0)
(2.354995204173782 0 0)
(1.56325688456407 0 0)
(0.5846072913041634 0 0)
(-0.944514980987508 0 0)
(-1.631687911610253 0 0)
(-1.469365610505452 0 0)
(-0.5856587805991286 0 0)
(0.170914745264855 0 0)
(1.108676489698233 0 0)
(1.323712083391274 0 0)
(0.8939822250139883 0 0)
(0.06218562754963138 0 0)
(-0.5896871227005398 0 0)
(-0.8967805318577969 0 0)
(-0.4970370758532945 0 0)
(0.3039407238509266 0 0)
(1.41715963453874 0 0)
(2.087815397332468 0 0)
(1.948921512828336 0 0)
(1.710002227512246 0 0)
(0.7108477944346281 0 0)
(-0.5325523778640585 0 0)
(-1.080838696974977 0 0)
(-1.03362823788791 0 0)
(-0.9596567409628107 0 0)
(-0.3150976733272156 0 0)
(0.552847285340811 0 0)
(0.9580040218857108 0 0)
(1.122459228918601 0 0)
(1.113454881090718 0 0)
(0.8554212161806888 0 0)
(0.5733006965922117 0 0)
(0.6602626515552765 0 0)
(0.4017016582561019 0 0)
(0.6190197952490252 0 0)
(0.6376415926798926 0 0)
(0.47240374446027 0 0)
(0.2010056711876184 0 0)
(-0.04853435523201755 0 0)
(-0.4538593481012969 0 0)
(-0.756127446711498 0 0)
(-0.6769911184458236 0 0)
(-0.7320052080063504 0 0)
(-0.3457960104823328 0 0)
(0.2545227227113634 0 0)
(0.8943893225092506 0 0)
(1.064851527202538 0 0)
(1.334245381358088 0 0)
(1.070025452533188 0 0)
(0.5783337116629933 0 0)
(0.01685838766404916 0 0)
(-0.02775927947909544 0 0)
(-0.4584241907079781 0 0)
(-0.237499927886806 0 0)
(-0.09952450177838133 0 0)
(-0.01382269355466923 0 0)
(-0.05989143040044156 0 0)
(0.0783210371035226 0 0)
(-0.06015697379813765 0 0)
(-0.06459933983610873 0 0)
(0.1889900536987478 0 0)
(0.495915531862246 0 0)
(0.970061386531229 0 0)
(1.471589863147555 0 0)
(1.677804504476512 0 0)
(1.411588622714773 0 0)
(1.277020657757294 0 0)
(0.6666519362178177 0 0)
(-0.4171115643637088 0 0)
(-1.276330364062561 0 0)
(-1.2212161541951 0 0)
(-0.9985990820240761 0 0)
(-0.3833687012849406 0 0)
(0.671360478108454 0 0)
(1.580753557965372 0 0)
(1.721459100736834 0 0)
(1.818215204078724 0 0)
(1.545987109313064 0 0)
(0.9654626138647636 0 0)
(0.3086192689386796 0 0)
(0.06806826272774445 0 0)
(-0.2895375518893311 0 0)
(-0.2331739885943382 0 0)
(-0.09552740527076611 0 0)
(0.01026101578879745 0 0)
(0.4295904227893355 0 0)
(0.403420852401933 0 0)
(0.2618526632933742 0 0)
(0.08577804959662373 0 0)
(-0.1428748236232057 0 0)
(-0.09424424961312354 0 0)
(0.09973012907532211 0 0)
(0.3741417232484494 0 0)
(0.5836757137147006 0 0)
(0.8654183701628766 0 0)
(0.8743253124902198 0 0)
(0.6579390371630828 0 0)
(0.3645135061160913 0 0)
(0.2925559140190137 0 0)
(0.2034355275431836 0 0)
(0.2937829874960843 0 0)
(0.2373043776567519 0 0)
(-0.1219853301664531 0 0)
(-0.5239313879029847 0 0)
(-0.5492970790089176 0 0)
(-0.7044264440153715 0 0)
(-0.4735518164826726 0 0)
(0.3239136187580187 0 0)
(1.437488067020635 0 0)
(2.32749880077943 0 0)
(3.015601166551512 0 0)
(2.940889703766284 0 0)
(1.950474428789268 0 0)
(0.6331586734811753 0 0)
(-1.252888194301132 0 0)
(-2.372185568020043 0 0)
(-2.445185932744412 0 0)
(-1.46874092772272 0 0)
(-0.1274320352900629 0 0)
(1.862616797349197 0 0)
(3.014230666218793 0 0)
(3.107528342258433 0 0)
(2.161337110319731 0 0)
(1.049586434394636 0 0)
(-0.6080274762492925 0 0)
(-1.33761569453036 0 0)
(-1.116348204755923 0 0)
(-0.0873496669688371 0 0)
(0.9460646089408884 0 0)
(2.051589134723542 0 0)
(2.226928611797668 0 0)
(1.48190203426595 0 0)
(0.1182794527221222 0 0)
(-1.33133505075216 0 0)
(-2.227343620942675 0 0)
(-2.090580520834008 0 0)
(-0.9877105619266962 0 0)
(0.2865128982160938 0 0)
(2.176082427409285 0 0)
(3.089230596805394 0 0)
(2.996316076838815 0 0)
(1.897012679971777 0 0)
(0.6563748878737877 0 0)
(-1.346302721706216 0 0)
(-2.208295414407585 0 0)
(-1.915274692896969 0 0)
(-0.7731360172410451 0 0)
(0.5185278059222411 0 0)
(1.864253962907591 0 0)
(2.228284837046401 0 0)
(1.629852326510093 0 0)
(0.7233856404635677 0 0)
(-0.3724344013888835 0 0)
(-1.05515067536856 0 0)
(-0.9101754259252185 0 0)
(0.05706995032945834 0 0)
(0.9648297313377405 0 0)
(2.343412839042896 0 0)
(2.947002203274727 0 0)
(2.658000744237553 0 0)
(1.721705512952774 0 0)
(0.5935556760455535 0 0)
(-1.099918657323074 0 0)
(-1.82685815576788 0 0)
(-1.378007824468112 0 0)
(-1.32327056615692 0 0)
(-0.3652395247018805 0 0)
(0.934321856335835 0 0)
(1.771970677257505 0 0)
(2.45913793484624 0 0)
(2.863074285979471 0 0)
(2.667957375524496 0 0)
(1.532657282386884 0 0)
(0.49725414862918 0 0)
(-0.646252230711477 0 0)
(-1.097076465318639 0 0)
(-1.04107450458346 0 0)
(-0.5331605580939738 0 0)
(0.3381785340047658 0 0)
(0.7005142487271777 0 0)
(0.7824706762635916 0 0)
(0.6239910787926146 0 0)
(0.07575982897387727 0 0)
(-0.01695401006954443 0 0)
(0.04348296363832681 0 0)
(0.4357973724118654 0 0)
(0.8488523462922337 0 0)
(1.795060645143976 0 0)
(2.035311918505953 0 0)
(1.769401711797209 0 0)
(0.6870695192853872 0 0)
(-0.2853515235676265 0 0)
(-1.237597766982951 0 0)
(-1.463322107090997 0 0)
(-1.136746653174596 0 0)
(-0.3894268958641598 0 0)
(0.8246054117874875 0 0)
(1.447872938913277 0 0)
(1.816230728647553 0 0)
(1.777217675766898 0 0)
(1.391651520516522 0 0)
(0.9748577304233192 0 0)
(0.5425076828521731 0 0)
(0.3469429155943667 0 0)
(0.3270944619474937 0 0)
(0.8578163091199303 0 0)
(0.6589160980371794 0 0)
(0.5338928545095407 0 0)
(0.4002808256633779 0 0)
(0.4711755502940057 0 0)
(0.1394230253241675 0 0)
(0.389877754403308 0 0)
(0.4936243406546763 0 0)
(0.5526578065940374 0 0)
(0.5995187787713006 0 0)
(1.037318648837444 0 0)
(1.367950617934355 0 0)
(1.51323732442041 0 0)
(1.515435852500215 0 0)
(1.471917729514561 0 0)
(1.260052475893084 0 0)
(0.7992371336507561 0 0)
(0.2449994106369996 0 0)
(-0.648517600025841 0 0)
(-1.263752628283384 0 0)
(-1.159074112344939 0 0)
(-0.8925267023221246 0 0)
(0.2197477303622939 0 0)
(1.671128686833729 0 0)
(2.558477383347543 0 0)
(2.875024285779676 0 0)
(2.068340111803544 0 0)
(0.4014485947101004 0 0)
(-1.127036347088737 0 0)
(-1.975192246906692 0 0)
(-1.697082858850447 0 0)
(-0.2979562806528467 0 0)
(1.359479528655471 0 0)
(2.971773873865778 0 0)
(3.608730826373721 0 0)
(3.161016620848509 0 0)
(1.528850991991067 0 0)
(-0.619261624469329 0 0)
(-2.662004071409276 0 0)
(-3.494748459436553 0 0)
(-3.10267278880805 0 0)
(-1.357792665604814 0 0)
(0.8136671353697814 0 0)
(3.45157903531042 0 0)
(4.852745933487647 0 0)
(5.031345510358208 0 0)
(4.142479267787159 0 0)
(2.410211307855784 0 0)
(-0.009076669214384082 0 0)
(-2.150267303001336 0 0)
(-2.729673105872152 0 0)
(-2.182424163752031 0 0)
(-1.65721251098995 0 0)
(-0.383382961134526 0 0)
(1.25878645890549 0 0)
(2.401295089428177 0 0)
(3.239631765412017 0 0)
(3.699497139887869 0 0)
(3.383143483364374 0 0)
(1.998524418822578 0 0)
(0.6105614353211052 0 0)
(-0.7800127622514652 0 0)
(-1.61593355390487 0 0)
(-1.581723543830135 0 0)
(-0.8471397760286269 0 0)
(0.4374111414192475 0 0)
(1.265494590249757 0 0)
(1.911892298432938 0 0)
(1.939194187590576 0 0)
(1.558052590962652 0 0)
(0.4596542770200791 0 0)
(-0.1676410841418809 0 0)
(-0.6874758460927549 0 0)
(-0.5173211631788189 0 0)
(0.1183052525668181 0 0)
(1.22105652683843 0 0)
(1.907642035244677 0 0)
(2.207348785997658 0 0)
(1.773696697832281 0 0)
(1.001620318420838 0 0)
(-0.05557134559277942 0 0)
(-0.6609908537957796 0 0)
(-0.8974564690181357 0 0)
(-0.462177844825955 0 0)
(0.3237346392879171 0 0)
(1.328392741765464 0 0)
(1.95224647999336 0 0)
(1.912761676725263 0 0)
(1.344109890102213 0 0)
(0.5603831580570271 0 0)
(0.08564255424707619 0 0)
(0.1952255820018412 0 0)
(0.6861968331941866 0 0)
(1.654820783155026 0 0)
(1.926875770620702 0 0)
(1.84850550048611 0 0)
(1.228510724438074 0 0)
(0.5809908458370492 0 0)
(-0.6413364451792147 0 0)
(-1.123453632341876 0 0)
(-1.084010451897566 0 0)
(0.02035329994152739 0 0)
(1.284713649295135 0 0)
(2.832670250317257 0 0)
(3.642507436498452 0 0)
(3.628652425571118 0 0)
(2.208492601192836 0 0)
(0.7182165134921717 0 0)
(-0.9104875849665395 0 0)
(-1.686154346543136 0 0)
(-1.606398761426264 0 0)
(-0.6069795018042895 0 0)
(0.9799675188479638 0 0)
(2.373618881953397 0 0)
(3.288948832860554 0 0)
(3.044693929904744 0 0)
(1.834163247458322 0 0)
(0.1292059671263286 0 0)
(-1.395773008492948 0 0)
(-2.088690983341046 0 0)
(-1.559277061902919 0 0)
(-0.4065995173105281 0 0)
(1.179969923144472 0 0)
(2.30982492934262 0 0)
(3.021981738644499 0 0)
(2.852896230601662 0 0)
(2.300811110310434 0 0)
(1.032236425225823 0 0)
(0.2595338622219865 0 0)
(-0.6997475145522709 0 0)
(-1.023172466834934 0 0)
(-0.6561957044840947 0 0)
(-0.132067655308323 0 0)
(0.5788340153520225 0 0)
(0.8305223881732832 0 0)
(1.285523969126354 0 0)
(1.824921344788833 0 0)
(2.362650506419715 0 0)
(2.635509250002074 0 0)
(3.081182851816772 0 0)
(3.146147668596516 0 0)
(2.332386453794801 0 0)
(0.7147072422341999 0 0)
(-0.5852111534113414 0 0)
(-1.75058542623665 0 0)
(-2.298361900957614 0 0)
(-1.8104309075506 0 0)
(-0.2834889305905521 0 0)
(1.983406880487795 0 0)
(3.689562406092282 0 0)
(4.735615235425624 0 0)
(4.586246851546734 0 0)
(3.099373728072552 0 0)
(0.5974924916933808 0 0)
(-1.491509597139888 0 0)
(-2.479614111869798 0 0)
(-2.273176147895636 0 0)
(-0.9097910054238636 0 0)
(1.079732309807162 0 0)
(2.994003689176163 0 0)
(3.983157400730125 0 0)
(3.722902838299484 0 0)
(2.401633734533218 0 0)
(0.4997787211579907 0 0)
(-1.561353770770923 0 0)
(-2.482395428491991 0 0)
(-2.051125132478665 0 0)
(-0.7292668654131945 0 0)
(1.061183163221056 0 0)
(2.752375311356771 0 0)
(3.69540420161031 0 0)
(3.356005182644642 0 0)
(2.285177305175176 0 0)
(0.6448733889270944 0 0)
(-0.6270482149631115 0 0)
(-1.330744220627325 0 0)
(-1.015300503256717 0 0)
(-0.1022127676778069 0 0)
(1.150966553203654 0 0)
(1.958745904161654 0 0)
(2.14484305750883 0 0)
(1.557863883369756 0 0)
(0.8270459821198273 0 0)
(0.2594527390471465 0 0)
(0.3669709480826401 0 0)
(1.214506567483433 0 0)
(2.109677608608821 0 0)
(2.559866038377076 0 0)
(2.153633961778158 0 0)
(1.188640720901692 0 0)
(-0.1319457368681426 0 0)
(-0.9806155881384944 0 0)
(-0.9451541032266444 0 0)
(0.02227967749586846 0 0)
(1.288601389189775 0 0)
(2.790779700476319 0 0)
(3.483952961407514 0 0)
(3.188109421201627 0 0)
(1.830390903835499 0 0)
(0.22144306749909 0 0)
(-1.137780202214593 0 0)
(-1.722773220271846 0 0)
(-1.146842016883909 0 0)
(0.5490840852847361 0 0)
(2.471793922088223 0 0)
(3.654583687045664 0 0)
(4.075678092285703 0 0)
(3.098517740257047 0 0)
(0.8421440158179783 0 0)
(-1.48823204684262 0 0)
(-2.570877739545114 0 0)
(-2.454884086417401 0 0)
(-1.144736889715615 0 0)
(0.94655176727822 0 0)
(2.99743249787478 0 0)
(4.182703886533207 0 0)
(4.061928333431297 0 0)
(2.891583830733458 0 0)
(1.143894730339443 0 0)
(-0.5102888813727591 0 0)
(-1.474748753655537 0 0)
(-1.361114691848814 0 0)
(-0.3463623063152167 0 0)
(1.138668627114438 0 0)
(2.483212643671236 0 0)
(3.12096615862484 0 0)
(2.711551120294015 0 0)
(1.351740367966363 0 0)
(-0.2528260892602024 0 0)
(-1.45629165098994 0 0)
(-1.646227654713184 0 0)
(-0.7679585899062199 0 0)
(0.7802346134047663 0 0)
(2.830249162867935 0 0)
(4.639535124263926 0 0)
(4.862555282972304 0 0)
(4.17793159118397 0 0)
(2.66323194860242 0 0)
(0.5488344714063462 0 0)
(-1.886189719533542 0 0)
(-2.668516416783485 0 0)
(-2.309579055765188 0 0)
(-1.238932617780746 0 0)
(0.1492336313435359 0 0)
(1.990380866527553 0 0)
(3.925231467615371 0 0)
(4.597932751443101 0 0)
(4.397400559361852 0 0)
(3.849924774331018 0 0)
(3.205786454162475 0 0)
(2.483240638026123 0 0)
(1.278868057648922 0 0)
(-0.03941387255341899 0 0)
(-0.7909028279278568 0 0)
(-1.189865843891133 0 0)
(-1.417585336382357 0 0)
(-1.146139204729111 0 0)
(-0.6165614054462353 0 0)
(0.263956871443386 0 0)
(1.018558557428378 0 0)
(1.93020507894715 0 0)
(2.484640952829731 0 0)
(2.914780756248263 0 0)
(2.88396979001789 0 0)
(2.579583556174207 0 0)
(1.794406180782125 0 0)
(1.095512878669684 0 0)
(0.07990730707884873 0 0)
(-0.5657536440886971 0 0)
(-0.5287250236971531 0 0)
(0.04685747510397563 0 0)
(0.9088842519665732 0 0)
(1.872403539783051 0 0)
(2.797600812620877 0 0)
(2.995328673438765 0 0)
(2.743523777733726 0 0)
(2.006152051787123 0 0)
(1.200503020557343 0 0)
(0.2165483604505395 0 0)
(-0.09937635119884541 0 0)
(0.09776666878897775 0 0)
(0.7615025403214524 0 0)
(1.523943213221213 0 0)
(2.589296243285664 0 0)
(3.072901525738246 0 0)
(3.125228989740762 0 0)
(2.692763445108878 0 0)
(2.19100277522867 0 0)
(0.9405710118029382 0 0)
(-0.07943879399163516 0 0)
(-0.3943052558196877 0 0)
(-0.06019936938069089 0 0)
(0.3504242932435601 0 0)
(1.29934917097456 0 0)
(2.711002319194135 0 0)
(3.499068023209846 0 0)
(3.654680337651223 0 0)
(3.735169307378317 0 0)
(3.459144302927148 0 0)
(2.399320341967036 0 0)
(0.6358682975256236 0 0)
(-0.4621884257520721 0 0)
(-0.9138760685891517 0 0)
(-1.041578790401977 0 0)
(-0.7247545313858226 0 0)
(-0.1327899911302354 0 0)
(0.6251136515619794 0 0)
(1.394783563038372 0 0)
(2.292969596707628 0 0)
(3.141365985797411 0 0)
(3.397236181927386 0 0)
(3.231450888356272 0 0)
(2.65925227804972 0 0)
(1.88876338266517 0 0)
(0.777874995663357 0 0)
(-0.1681700029586753 0 0)
(-0.3513912657720523 0 0)
(-0.0636470812140227 0 0)
(0.379872991845446 0 0)
(1.174531556477598 0 0)
(2.189132934980738 0 0)
(2.591108146969213 0 0)
(2.548322645882689 0 0)
(2.436191980050852 0 0)
(2.010076002416007 0 0)
)
;

boundaryField
{
    inlet
    {
        type            zeroGradient;
    }
    outlet
    {
        type            pressureInletOutletVelocity;
        value           uniform (2.010076002416007 0 0);
    }
    frontAndBack
    {
        type            empty;
    }
}


// ************************************************************************* //
