/*--------------------------------*- C++ -*----------------------------------*\
| =========                 |                                                 |
| \\      /  F ield         | OpenFOAM: The Open Source CFD Toolbox           |
|  \\    /   O peration     | Version:  v2012                                 |
|   \\  /    A nd           | Website:  www.openfoam.com                      |
|    \\/     M anipulation  |                                                 |
\*---------------------------------------------------------------------------*/
FoamFile
{
    version     2.0;
    format      ascii;
    class       volVectorField;
    location    "0.001";
    object      U;
}
// * * * * * * * * * * * * * * * * * * * * * * * * * * * * * * * * * * * * * //

dimensions      [0 1 -1 0 0 0 0];


internalField   nonuniform List<vector> 
1000
(
(-0.0202126946385507 0 0)
(-0.0489798564724401 0 0)
(-0.048286635369881 0 0)
(-0.07437711533472176 0 0)
(-0.0822685989621002 0 0)
(-0.09409821666681742 0 0)
(-0.1053024770722327 0 0)
(-0.1061233820794831 0 0)
(-0.118595051100454 0 0)
(-0.119390029094483 0 0)
(-0.1187541851592053 0 0)
(-0.1187980904627148 0 0)
(-0.1157852183964582 0 0)
(-0.1113206814340132 0 0)
(-0.1080220261293551 0 0)
(-0.09511011354048898 0 0)
(-0.08682006341933725 0 0)
(-0.07413550491288276 0 0)
(-0.05781504172484111 0 0)
(-0.04574809495817377 0 0)
(-0.02919551354532313 0 0)
(-0.01323728299280763 0 0)
(0.002933597587625869 0 0)
(0.01960589910438038 0 0)
(0.03511285814057569 0 0)
(0.05118019116617519 0 0)
(0.06536984387160674 0 0)
(0.0786358420496068 0 0)
(0.09113121754258996 0 0)
(0.1010911207966323 0 0)
(0.1145587304784363 0 0)
(0.1168397620324281 0 0)
(0.1172655971745146 0 0)
(0.11727161622169 0 0)
(0.1150782443690347 0 0)
(0.1144422633201671 0 0)
(0.1113469660787062 0 0)
(0.1040646491644158 0 0)
(0.1009341976650944 0 0)
(0.08855501806814524 0 0)
(0.07703609684061473 0 0)
(0.06741978681933211 0 0)
(0.04731150204810374 0 0)
(0.03382923203504228 0 0)
(0.01794328304608776 0 0)
(-0.001096730812189176 0 0)
(-0.01543807801587532 0 0)
(-0.0320817888561012 0 0)
(-0.04797220854639366 0 0)
(-0.06235068684865923 0 0)
(-0.07663461891313283 0 0)
(-0.08922580736116366 0 0)
(-0.1030744064763674 0 0)
(-0.1147789147538202 0 0)
(-0.1159862089679436 0 0)
(-0.1157793623840417 0 0)
(-0.1151505386051885 0 0)
(-0.1152035642686152 0 0)
(-0.1117551191167455 0 0)
(-0.1092919426956449 0 0)
(-0.106760878495099 0 0)
(-0.09699985033038951 0 0)
(-0.09189490180037341 0 0)
(-0.0807871214807263 0 0)
(-0.06696569547240855 0 0)
(-0.05549651151608453 0 0)
(-0.03758726322154251 0 0)
(-0.02183383348846822 0 0)
(-0.005064094703149365 0 0)
(0.01288525431790074 0 0)
(0.02861967807688061 0 0)
(0.04486231326147452 0 0)
(0.05984383838974904 0 0)
(0.07392370044035995 0 0)
(0.08707566839308367 0 0)
(0.1019441523574132 0 0)
(0.1140623191465124 0 0)
(0.114830530414128 0 0)
(0.1147843893283636 0 0)
(0.1138574262274536 0 0)
(0.1138071843862363 0 0)
(0.1114312360633862 0 0)
(0.1079344044374976 0 0)
(0.1063434414887803 0 0)
(0.09798599073892765 0 0)
(0.091678327533137 0 0)
(0.08432661633439299 0 0)
(0.06933430260700912 0 0)
(0.05953735874171157 0 0)
(0.04355323628718257 0 0)
(0.02618382981836971 0 0)
(0.01114546191090873 0 0)
(-0.008350304700992335 0 0)
(-0.02493071621250338 0 0)
(-0.04166527713627106 0 0)
(-0.05842312598617365 0 0)
(-0.072902654177675 0 0)
(-0.08662631603900318 0 0)
(-0.1028962228453147 0 0)
(-0.1134184223387635 0 0)
(-0.1137027531101589 0 0)
(-0.1134277267225759 0 0)
(-0.1134602072056834 0 0)
(-0.1118905654124962 0 0)
(-0.1104853021768497 0 0)
(-0.1087844247142737 0 0)
(-0.1031394318817594 0 0)
(-0.0998879618026933 0 0)
(-0.09236645963205106 0 0)
(-0.08273085281512654 0 0)
(-0.07457047341213588 0 0)
(-0.05977667715477802 0 0)
(-0.04691750851283392 0 0)
(-0.03177876192908168 0 0)
(-0.01357116433705439 0 0)
(0.002138106434623098 0 0)
(0.0206924741234771 0 0)
(0.03782744574871875 0 0)
(0.05406843003949666 0 0)
(0.07061072089332436 0 0)
(0.08412959970354905 0 0)
(0.1018245462541142 0 0)
(0.1124114382370801 0 0)
(0.112587198019448 0 0)
(0.1126919286282446 0 0)
(0.112172172359464 0 0)
(0.1117503795605829 0 0)
(0.1097426412584112 0 0)
(0.1078882508992607 0 0)
(0.1046145758319506 0 0)
(0.09893162686236429 0 0)
(0.09490663093618533 0 0)
(0.08519197149199727 0 0)
(0.07683545069895463 0 0)
(0.06696410275585933 0 0)
(0.05199862663409898 0 0)
(0.04008930436376706 0 0)
(0.0255107990916875 0 0)
(0.005040157457326811 0 0)
(2.416822333452748e-05 0 0)
(6.565732765940914e-11 0 0)
(-3.060464938505613e-12 0 0)
(-2.274246977036289e-12 0 0)
(-2.851486248981094e-12 0 0)
(-1.701457790649251e-12 0 0)
(-1.855863792427033e-12 0 0)
(-9.717216843388366e-13 0 0)
(-7.836770433241036e-13 0 0)
(-6.013459893329552e-13 0 0)
(-4.433415131168767e-13 0 0)
(-1.609711999214051e-13 0 0)
(-3.913097435157166e-13 0 0)
(-3.894005761030524e-13 0 0)
(-2.878779550461606e-13 0 0)
(-2.855680294594552e-14 0 0)
(-2.119454132298587e-13 0 0)
(-9.8349952178808e-14 0 0)
(-1.057556292706535e-15 0 0)
(1.045476504857541e-28 0 0)
(-2.61862070245581e-13 0 0)
(2.354203798850665e-13 0 0)
(-2.354203798850229e-13 0 0)
(2.904188731915338e-13 0 0)
(-5.3515131453812e-14 0 0)
(-2.130029695225611e-13 0 0)
(3.674089713005504e-13 0 0)
(-5.097421330844385e-14 0 0)
(3.138938398467442e-13 0 0)
(5.203176960114768e-14 0 0)
(-7.699009810902109e-14 0 0)
(2.079211332317997e-13 0 0)
(1.044893447622725e-13 0 0)
(-1.055469010549543e-13 0 0)
(3.659256094479159e-13 0 0)
(2.749924665323889e-14 0 0)
(1.034317884695574e-13 0 0)
(-1.019484266168886e-13 0 0)
(-2.644169036053145e-14 0 0)
(2.068635769390923e-13 0 0)
(-2.34362823592355e-13 0 0)
(2.318219054469719e-13 0 0)
(3.004016479860856e-14 0 0)
(5.09742133084467e-14 0 0)
(1.070302629076262e-13 0 0)
(1.034317884695498e-13 0 0)
(7.847345996169028e-14 0 0)
(1.569469199233517e-13 0 0)
(-3.388521683546386e-13 0 0)
(5.167331367877435e-13 0 0)
(-7.339162367094711e-14 0 0)
(2.354203798850326e-13 0 0)
(-2.599529028329632e-13 0 0)
(4.943157264253211e-13 0 0)
(-7.84734599616799e-14 0 0)
(-2.853370369007796e-13 0 0)
(2.07921133231823e-13 0 0)
(-1.044893447622517e-13 0 0)
(2.35420379885046e-13 0 0)
(-2.855680294594538e-14 0 0)
(-7.59325418163139e-14 0 0)
(3.373688065019227e-13 0 0)
(8.101437810706003e-14 0 0)
(-2.354203798850273e-13 0 0)
(4.693573979174863e-13 0 0)
(-3.384263627946252e-13 0 0)
(2.36477936177758e-13 0 0)
(2.749924665323944e-14 0 0)
(4.737573887036779e-14 0 0)
(1.095711810530005e-13 0 0)
(-1.844461665766027e-13 0 0)
(3.92367299808443e-13 0 0)
(-3.138938398467066e-13 0 0)
(3.138938398467543e-13 0 0)
(1.558893636306525e-13 0 0)
(-2.094044950844782e-13 0 0)
(3.923672998084107e-13 0 0)
(2.495832850786804e-14 0 0)
(-7.741590366898045e-14 0 0)
(2.343628235923367e-13 0 0)
(2.749924665324085e-14 0 0)
(7.953101625438607e-14 0 0)
(1.294476732701293e-13 0 0)
(-2.079211332318135e-13 0 0)
(4.983400064233201e-13 0 0)
(-2.130029695225544e-13 0 0)
(2.130029695225453e-13 0 0)
(9.757780712004267e-28 0 0)
(-1.059727066149202e-13 0 0)
(-3.659167767001445e-28 0 0)
(2.068635769390914e-13 0 0)
(1.059727066149285e-13 0 0)
(4.617521229787191e-28 0 0)
(-4.991665701574089e-14 0 0)
(3.138938398467325e-13 0 0)
(-2.629196265382972e-13 0 0)
(1.483361852665113e-15 0 0)
(-5.499849330647556e-14 0 0)
(-5.351513145381989e-14 0 0)
(1.07030262907624e-13 0 0)
(-1.569469199233712e-13 0 0)
(-5.097421330844124e-14 0 0)
(1.25849198832047e-13 0 0)
(-1.819052484312437e-13 0 0)
(2.855680294594288e-14 0 0)
(1.558893636306595e-13 0 0)
(-5.493142197317869e-13 0 0)
(-5.245757516111215e-14 0 0)
(-7.847345996167761e-14 0 0)
(1.319885914154951e-13 0 0)
(-5.243558912239497e-13 0 0)
(-7.699009810902095e-14 0 0)
(-7.74159036689776e-14 0 0)
(-1.070302629076215e-13 0 0)
(-2.629196265383036e-13 0 0)
(2.629196265382821e-13 0 0)
(-5.207574167858401e-13 0 0)
(2.079211332318065e-13 0 0)
(-3.923672998084242e-13 0 0)
(-3.399097246473162e-13 0 0)
(2.86394593193482e-13 0 0)
(-3.923672998084255e-13 0 0)
(5.097421330844164e-14 0 0)
(1.594878380687469e-13 0 0)
(-4.209241027543322e-13 0 0)
(-7.84734599616848e-14 0 0)
(1.855037228693132e-13 0 0)
(-1.855037228693115e-13 0 0)
(2.540918145372098e-15 0 0)
(-5.49984933064742e-14 0 0)
(-2.601588480057722e-14 0 0)
(2.749924665323789e-14 0 0)
(1.059727066149227e-13 0 0)
(-2.618620702455722e-13 0 0)
(-1.294476732701311e-13 0 0)
(1.034317884695551e-13 0 0)
(-7.847345996168164e-14 0 0)
(-1.584302817760305e-13 0 0)
(1.84446166576605e-13 0 0)
(-1.070302629076356e-13 0 0)
(-4.991665701573416e-14 0 0)
(-5.503717760244941e-13 0 0)
(3.138938398467502e-13 0 0)
(-3.138938398467496e-13 0 0)
(-1.603063974114799e-27 0 0)
(7.847345996168654e-14 0 0)
(-1.569469199233617e-13 0 0)
(-3.138938398467458e-13 0 0)
(2.453252294790825e-14 0 0)
(5.394093701377967e-14 0 0)
(-1.55889363630653e-13 0 0)
(-1.569469199233714e-13 0 0)
(2.043226587937292e-13 0 0)
(-7.487498552361101e-14 0 0)
(-1.305052295628294e-13 0 0)
(-5.245757516110907e-14 0 0)
(1.019484266168756e-13 0 0)
(2.54091814537008e-15 0 0)
(-2.364779361777356e-13 0 0)
(5.351513145381326e-14 0 0)
(-2.354203798850427e-13 0 0)
(5.245757516111024e-14 0 0)
(1.057556292705221e-15 0 0)
(3.484921682858752e-28 0 0)
(2.749924665323777e-14 0 0)
(-2.104620513771981e-13 0 0)
(1.294476732701167e-13 0 0)
(-1.544060017780099e-13 0 0)
(-2.43944517800083e-28 0 0)
(1.294476732701271e-13 0 0)
(7.593254181631045e-14 0 0)
(-1.019484266168954e-13 0 0)
(-7.847345996167725e-14 0 0)
(-5.245757516111304e-14 0 0)
(5.097421330844085e-14 0 0)
(-2.079211332318199e-13 0 0)
(7.847345996168361e-14 0 0)
(-7.847345996168441e-14 0 0)
(-5.097421330844484e-14 0 0)
(-2.639771828310169e-13 0 0)
(7.953101625438104e-14 0 0)
(2.495832850786918e-14 0 0)
(1.49851632362902e-27 0 0)
(-1.309310351228002e-13 0 0)
(-1.019484266168795e-13 0 0)
(3.648680531551975e-13 0 0)
(-2.405022161757815e-13 0 0)
(2.855680294594744e-14 0 0)
(-2.089786895244985e-13 0 0)
(1.844461665766109e-13 0 0)
(-1.283901169774146e-13 0 0)
(-2.749924665324144e-14 0 0)
(-1.334719532681607e-13 0 0)
(-1.019484266168907e-13 0 0)
(-5.203176960115036e-14 0 0)
(-1.844461665766128e-13 0 0)
(-1.558893636306561e-13 0 0)
(2.354203798850514e-13 0 0)
(-1.334719532681591e-13 0 0)
(-2.354203798850604e-13 0 0)
(1.599136436286862e-13 0 0)
(-1.584302817760396e-13 0 0)
(-5.605604959918337e-14 0 0)
(-2.053802150864478e-13 0 0)
(-4.198665464616703e-13 0 0)
(5.778710226777377e-13 0 0)
(-3.923672998084023e-13 0 0)
(-1.580044762160727e-13 0 0)
(3.923672998084311e-13 0 0)
(-1.034317884695462e-13 0 0)
(-2.354203798850482e-13 0 0)
(-1.309310351227991e-13 0 0)
(-7.847345996168262e-14 0 0)
(4.991665701573717e-14 0 0)
(-3.898263816630264e-13 0 0)
(-2.603787083929252e-13 0 0)
(7.847345996168421e-14 0 0)
(-2.749924665323771e-14 0 0)
(-4.433415131168702e-13 0 0)
(2.578377902475473e-13 0 0)
(-2.354203798850615e-13 0 0)
(-4.422839568241502e-13 0 0)
(2.838536750481064e-13 0 0)
(-4.158422664636394e-13 0 0)
(-1.294476732701277e-13 0 0)
(-2.369037417377127e-13 0 0)
(2.629196265382846e-13 0 0)
(-4.993975627160463e-13 0 0)
(2.874521494862109e-13 0 0)
(-3.883430198103749e-13 0 0)
(-3.27582638188672e-27 0 0)
(-1.05972706614928e-13 0 0)
(3.663514150078395e-13 0 0)
(-3.138938398467099e-13 0 0)
(1.034317884695514e-13 0 0)
(-5.227382524287928e-29 0 0)
(-1.558893636306665e-13 0 0)
(-5.097421330844293e-14 0 0)
(-3.109772109131509e-14 0 0)
(-1.258491988320503e-13 0 0)
(-1.844461665766137e-13 0 0)
(5.097421330843922e-14 0 0)
(-5.203176960115154e-14 0 0)
(-1.309310351227977e-13 0 0)
(-3.138938398467318e-13 0 0)
(-5.351513145381456e-14 0 0)
(1.56946919923363e-13 0 0)
(-7.847345996168236e-14 0 0)
(5.605604959918491e-14 0 0)
(1.034317884695482e-13 0 0)
(-3.138938398467326e-13 0 0)
(4.183831846090081e-13 0 0)
(-2.63977182830992e-13 0 0)
(-5.227382524287817e-28 0 0)
(-4.991665701573444e-14 0 0)
(-4.181906019430208e-28 0 0)
(-1.305052295628395e-13 0 0)
(-5.24575751611049e-14 0 0)
(-1.30931035122792e-13 0 0)
(-1.010627288028947e-27 0 0)
(-2.749924665324031e-14 0 0)
(-2.601588480057791e-14 0 0)
(-7.847345996167628e-14 0 0)
(1.019484266168861e-13 0 0)
(5.499849330648102e-14 0 0)
(-1.844461665765902e-13 0 0)
(5.351513145381648e-14 0 0)
(-5.203176960115335e-14 0 0)
(2.339370180323851e-13 0 0)
(7.593254181630967e-14 0 0)
(1.044893447622628e-13 0 0)
(-1.804218865785701e-13 0 0)
(1.034317884695553e-13 0 0)
(1.334719532681489e-13 0 0)
(-1.84446166576629e-13 0 0)
(-2.644169036052928e-14 0 0)
(1.558893636306587e-13 0 0)
(-1.283901169774212e-13 0 0)
(-2.749924665323966e-14 0 0)
(2.966723705327905e-15 0 0)
(-2.369037417377172e-13 0 0)
(5.727891863869705e-13 0 0)
(-7.022368596571566e-13 0 0)
(5.493142197317727e-13 0 0)
(-3.674089713005431e-13 0 0)
(1.030059829095944e-13 0 0)
(-2.863945931935053e-13 0 0)
(5.394093701376996e-14 0 0)
(7.95310162543898e-14 0 0)
(-5.499849330647848e-14 0 0)
(2.354203798850746e-13 0 0)
(-5.228725293712156e-13 0 0)
(4.443990694095689e-13 0 0)
(-5.203176960114966e-14 0 0)
(0 0 0)
(1.569469199233666e-13 0 0)
(1.305052295628304e-13 0 0)
(-2.914764294842268e-13 0 0)
(-4.991665701574241e-14 0 0)
(1.049151503222123e-13 0 0)
(-1.569469199233618e-13 0 0)
(1.294476732701275e-13 0 0)
(7.953101625438778e-14 0 0)
(-3.659256094478843e-13 0 0)
(6.277876796934715e-13 0 0)
(-4.433415131168408e-13 0 0)
(7.699009810902583e-14 0 0)
(-2.347496665520369e-14 0 0)
(-2.379612980304208e-13 0 0)
(-2.241741036249832e-14 0 0)
(-1.334719532681688e-13 0 0)
(1.283901169774218e-13 0 0)
(-2.328794617396813e-13 0 0)
(-2.394446598830741e-13 0 0)
(-2.601588480057756e-14 0 0)
(-7.847345996167923e-14 0 0)
(1.345295095608626e-13 0 0)
(-5.081836290742695e-15 0 0)
(4.024279998035813e-15 0 0)
(-2.328794617396799e-13 0 0)
(-7.995682181434596e-14 0 0)
(1.049151503222122e-13 0 0)
(-1.294476732701375e-13 0 0)
(-1.049151503222133e-13 0 0)
(-2.749924665323788e-14 0 0)
(2.749924665323751e-14 0 0)
(3.572044724929989e-28 0 0)
(-2.749924665323675e-14 0 0)
(1.558893636306553e-13 0 0)
(-1.019484266168952e-13 0 0)
(-1.089394303202538e-13 0 0)
(8.10143781070493e-14 0 0)
(-5.351513145381605e-14 0 0)
(2.904188731915359e-13 0 0)
(-1.569469199233551e-13 0 0)
(7.847345996168496e-14 0 0)
(-1.070302629076307e-13 0 0)
(-4.991665701573784e-14 0 0)
(7.847345996168558e-14 0 0)
(-1.057556292706836e-15 0 0)
(-2.343628235923491e-13 0 0)
(1.294476732701312e-13 0 0)
(-4.20924102754335e-13 0 0)
(-2.601588480057502e-14 0 0)
(1.345295095608718e-13 0 0)
(-2.644029883909604e-13 0 0)
(-3.663514150078492e-13 0 0)
(3.913097435156821e-13 0 0)
(-2.089786895245199e-13 0 0)
(-4.672422853320324e-13 0 0)
(5.4528993973371e-13 0 0)
(-6.237633996954435e-13 0 0)
(2.749924665323827e-14 0 0)
(1.294476732701304e-13 0 0)
(-2.929597913369042e-13 0 0)
(2.119454132298317e-13 0 0)
(-5.243558912239236e-13 0 0)
(3.923672998084251e-13 0 0)
(-4.991665701573522e-14 0 0)
(-2.863945931935001e-13 0 0)
(1.059727066149245e-13 0 0)
(-4.708407597701095e-13 0 0)
(5.218149730785559e-13 0 0)
(-1.855037228693014e-13 0 0)
(2.855680294594579e-14 0 0)
(3.113529217013687e-13 0 0)
(-3.413930864999512e-13 0 0)
(2.654605446836678e-13 0 0)
(-3.64868053155186e-13 0 0)
(1.793643302858695e-13 0 0)
(5.20317696011503e-14 0 0)
(3.138938398467122e-13 0 0)
(-5.203316112258899e-13 0 0)
(4.198665464616662e-13 0 0)
(-1.87412890281923e-13 0 0)
(-2.614362646856317e-13 0 0)
(1.859295284292755e-13 0 0)
(-2.130029695225572e-13 0 0)
(1.305052295628354e-13 0 0)
(-3.833413851144028e-28 0 0)
(-7.699009810902169e-14 0 0)
(-7.847345996168583e-14 0 0)
(-1.283901169774121e-13 0 0)
(4.991665701573832e-14 0 0)
(2.863945931934996e-13 0 0)
(-4.932581701326081e-13 0 0)
(3.923672998084249e-13 0 0)
(-1.569469199233574e-13 0 0)
(-1.569469199233689e-13 0 0)
(1.044893447622598e-13 0 0)
(-2.654605446836436e-13 0 0)
(1.099969866129604e-13 0 0)
(-2.749924665324087e-14 0 0)
(-5.499849330648039e-14 0 0)
(-7.699009810902193e-14 0 0)
(-1.569469199233552e-13 0 0)
(-5.245757516111141e-14 0 0)
(-7.699009810901934e-14 0 0)
(7.847345996167654e-14 0 0)
(-2.094044950844792e-13 0 0)
(-1.844461665766097e-13 0 0)
(2.347496665520426e-14 0 0)
(8.546446366504893e-14 0 0)
(-2.699106302416317e-13 0 0)
(5.499849330648077e-14 0 0)
(-2.453252294791252e-14 0 0)
(1.057556292706296e-15 0 0)
(-1.844461665766054e-13 0 0)
(-2.74992466532414e-14 0 0)
(-1.814794428712774e-13 0 0)
(-2.749924665324236e-14 0 0)
(-3.128362835540025e-13 0 0)
(2.629196265383007e-13 0 0)
(-1.569469199233662e-13 0 0)
(-1.855037228693045e-13 0 0)
(-1.283901169774199e-13 0 0)
(1.819052484312429e-13 0 0)
(-3.92367299808418e-13 0 0)
(1.319885914155039e-13 0 0)
(-1.580044762160591e-13 0 0)
(-1.569469199233698e-13 0 0)
(-2.644169036053425e-14 0 0)
(2.749924665323875e-14 0 0)
(-1.070302629076448e-13 0 0)
(-1.584302817760267e-13 0 0)
(-1.034317884695514e-13 0 0)
(-3.90883937955762e-13 0 0)
(7.847345996167836e-14 0 0)
(-1.569469199233745e-13 0 0)
(-2.863945931934953e-13 0 0)
(-5.245757516110993e-14 0 0)
(-2.749924665323799e-14 0 0)
(-5.351513145381453e-14 0 0)
(-3.388521683545992e-13 0 0)
(2.079211332318192e-13 0 0)
(-3.923672998083835e-13 0 0)
(1.844461665766138e-13 0 0)
(-2.364779361777567e-13 0 0)
(-7.5932541816315e-14 0 0)
(-3.688923331532156e-13 0 0)
(-2.495832850786786e-14 0 0)
(-2.354203798850612e-13 0 0)
(-8.249773995972016e-14 0 0)
(8.144018366700553e-14 0 0)
(-3.138938398467333e-13 0 0)
(-7.995682181435022e-14 0 0)
(-2.347496665520356e-14 0 0)
(1.844461665766142e-13 0 0)
(-2.3944465988307e-13 0 0)
(-1.819052484312393e-13 0 0)
(3.413930864999759e-13 0 0)
(-2.599529028329442e-13 0 0)
(2.453252294791072e-14 0 0)
(1.334719532681694e-13 0 0)
(-8.249773995971804e-14 0 0)
(2.079211332318187e-13 0 0)
(-3.109271161413792e-13 0 0)
(2.588953465402622e-13 0 0)
(8.101437810705445e-14 0 0)
(-3.138938398467086e-13 0 0)
(1.829628047239494e-13 0 0)
(-4.693573979174559e-13 0 0)
(6.002884330402246e-13 0 0)
(-2.603787083929293e-13 0 0)
(-1.580044762160539e-13 0 0)
(-4.991665701574213e-14 0 0)
(1.294476732701313e-13 0 0)
(-1.855037228692979e-13 0 0)
(3.413930864999899e-13 0 0)
(2.453252294791098e-14 0 0)
(-2.347496665520623e-14 0 0)
(2.079211332318102e-13 0 0)
(1.283901169774164e-13 0 0)
(-7.847345996168679e-14 0 0)
(5.605604959918575e-14 0 0)
(-3.42450642792656e-13 0 0)
(1.31988591415506e-13 0 0)
(3.92367299808413e-13 0 0)
(-2.614362646856396e-13 0 0)
(1.29447673270128e-13 0 0)
(1.070302629076203e-13 0 0)
(-5.097421330844547e-14 0 0)
(-3.109772109131649e-14 0 0)
(-1.258491988320446e-13 0 0)
(1.742460841429222e-27 0 0)
(-3.424506427926914e-13 0 0)
(4.708407597701224e-13 0 0)
(2.021254576057895e-27 0 0)
(1.057556292705459e-15 0 0)
(1.844461665766048e-13 0 0)
(-2.629196265383035e-13 0 0)
(1.56946919923355e-13 0 0)
(-4.530398187715941e-28 0 0)
(7.847345996168649e-14 0 0)
(1.29447673270126e-13 0 0)
(-2.394446598830939e-13 0 0)
(-1.77455162873233e-13 0 0)
(2.313960998870178e-13 0 0)
(2.354203798850569e-13 0 0)
(1.580044762160678e-13 0 0)
(1.324143969754535e-13 0 0)
(3.138938398467504e-13 0 0)
(1.569469199233673e-13 0 0)
(-7.847345996168636e-14 0 0)
(4.71898316062772e-13 0 0)
(-1.569469199233694e-13 0 0)
(5.245757516111154e-14 0 0)
(2.823703131954279e-13 0 0)
(-2.288551817416544e-13 0 0)
(5.218149730785436e-13 0 0)
(2.749924665324041e-14 0 0)
(7.847345996168851e-14 0 0)
(2.068635769390808e-13 0 0)
(2.354203798850596e-13 0 0)
(1.844461665766069e-13 0 0)
(-1.04915150322212e-13 0 0)
(6.512626463486862e-13 0 0)
(-1.030059829095939e-13 0 0)
(1.219722589000516e-27 0 0)
(4.993975627160405e-13 0 0)
(-7.847345996167819e-14 0 0)
(7.847345996168374e-14 0 0)
(1.819052484312381e-13 0 0)
(3.623271350097812e-13 0 0)
(3.004016479861023e-14 0 0)
(2.079211332318131e-13 0 0)
(1.319885914155025e-13 0 0)
(-7.847345996168299e-14 0 0)
(1.558893636306473e-13 0 0)
(-7.741590366897844e-14 0 0)
(-5.35151314538168e-14 0 0)
(1.844461665765926e-13 0 0)
(3.872854635176734e-13 0 0)
(-1.258491988320586e-13 0 0)
(2.60378708392917e-13 0 0)
(-1.829628047239472e-13 0 0)
(3.934248561010971e-13 0 0)
(-1.070302629076265e-13 0 0)
(2.749924665324143e-14 0 0)
(-7.741590366897496e-14 0 0)
(2.853370369007908e-13 0 0)
(4.209241027543679e-13 0 0)
(-2.85568029459456e-14 0 0)
(1.580044762160806e-13 0 0)
(-7.847345996167749e-14 0 0)
(3.138938398467488e-13 0 0)
(2.588953465402549e-13 0 0)
(-4.694993331040636e-14 0 0)
(7.444917996366004e-14 0 0)
(-1.059727066149185e-13 0 0)
(2.893613168988231e-13 0 0)
(2.749924665324075e-14 0 0)
(2.453252294790894e-14 0 0)
(-7.847345996168669e-14 0 0)
(3.168605635520658e-13 0 0)
(-1.049151503222177e-13 0 0)
(2.629196265382885e-13 0 0)
(7.847345996168038e-14 0 0)
(-2.601588480057613e-14 0 0)
(3.098695598486927e-13 0 0)
(1.594878380687291e-13 0 0)
(-2.364779361777648e-13 0 0)
(2.855680294594643e-14 0 0)
(3.648680531551851e-13 0 0)
(-2.104620513771829e-13 0 0)
(2.749924665323547e-14 0 0)
(2.614362646856419e-13 0 0)
(-3.4139308649997e-13 0 0)
(5.24575751611073e-14 0 0)
(-5.245757516111153e-14 0 0)
(-3.648680531551836e-13 0 0)
(-7.847345996168596e-14 0 0)
(-3.138938398467405e-13 0 0)
(-1.580044762160636e-13 0 0)
(1.569469199233662e-13 0 0)
(-1.569469199233742e-13 0 0)
(-2.495832850786775e-14 0 0)
(-2.629196265382914e-13 0 0)
(-1.034317884695545e-13 0 0)
(7.847345996168573e-14 0 0)
(-4.708407597701112e-13 0 0)
(-5.09742133084385e-14 0 0)
(2.068635769391126e-13 0 0)
(-1.034317884695499e-13 0 0)
(2.495832850786627e-14 0 0)
(-3.388521683546073e-13 0 0)
(2.889355113388735e-13 0 0)
(-2.749924665324106e-14 0 0)
(-2.354203798850474e-13 0 0)
(2.603787083929113e-13 0 0)
(-3.373688065019301e-13 0 0)
(1.554635580707106e-13 0 0)
(2.603787083928977e-13 0 0)
(-1.855037228693187e-13 0 0)
(-2.495832850786906e-14 0 0)
(-5.09742133084432e-14 0 0)
(1.56946919923372e-13 0 0)
(1.057556292705796e-15 0 0)
(-1.070302629076339e-13 0 0)
(5.605604959918369e-14 0 0)
(2.068635769390956e-13 0 0)
(-2.094044950844737e-13 0 0)
(3.138938398467299e-13 0 0)
(2.495832850787079e-14 0 0)
(-5.097421330844452e-14 0 0)
(8.015319870574019e-28 0 0)
(1.305052295628298e-13 0 0)
(1.428817889972053e-27 0 0)
(-5.203176960114767e-14 0 0)
(2.354203798850534e-13 0 0)
(-3.138938398467435e-13 0 0)
(7.847345996168358e-14 0 0)
(-2.644169036053155e-14 0 0)
(7.741590366896918e-14 0 0)
(1.569469199233749e-13 0 0)
(-1.569469199233632e-13 0 0)
(3.413930864999553e-13 0 0)
(-2.61862070245596e-13 0 0)
(7.487498552360663e-14 0 0)
(1.370704277062407e-13 0 0)
(-3.413930864999804e-13 0 0)
(7.847345996168103e-14 0 0)
(7.741590366897292e-14 0 0)
(-1.833886102839173e-13 0 0)
(1.569469199233514e-13 0 0)
(-2.599529028329665e-13 0 0)
(5.097421330844422e-14 0 0)
(-1.569469199233701e-13 0 0)
(1.56821475728638e-27 0 0)
(-2.10887856937117e-13 0 0)
(-2.079211332318334e-13 0 0)
(7.847345996167845e-14 0 0)
(2.644169036053206e-14 0 0)
(-1.309310351227924e-13 0 0)
(3.388521683545979e-13 0 0)
(-1.569469199233723e-13 0 0)
(1.580044762160718e-13 0 0)
(-2.089786895245111e-13 0 0)
(-7.741590366897255e-14 0 0)
(-1.56946919923382e-13 0 0)
(-2.36477936177731e-13 0 0)
(2.354203798850502e-13 0 0)
(-3.923672998084309e-13 0 0)
(-2.379612980304324e-13 0 0)
(5.243558912239174e-13 0 0)
(-5.247816967838077e-13 0 0)
(-5.097421330844917e-14 0 0)
(1.324143969754486e-13 0 0)
(-4.198665464616459e-13 0 0)
(1.059727066149221e-13 0 0)
(-1.309310351227987e-13 0 0)
(-2.495832850786873e-14 0 0)
(-2.155438876679223e-13 0 0)
(1.095711810529949e-13 0 0)
(-7.062611396551005e-13 0 0)
(3.13893839846762e-13 0 0)
(-4.693573979173913e-13 0 0)
(-2.354203798850579e-13 0 0)
(-1.483361852665369e-15 0 0)
(1.049151503222153e-13 0 0)
(-5.482566634390978e-13 0 0)
(1.793643302858683e-13 0 0)
(-2.578377902475561e-13 0 0)
(-3.93424856101065e-13 0 0)
(-1.812159275086458e-27 0 0)
(-3.403355302072682e-13 0 0)
(-1.580044762160717e-13 0 0)
(-1.294476732701336e-13 0 0)
(-3.439340046453566e-13 0 0)
(3.174923142848159e-13 0 0)
(-4.953732827179264e-13 0 0)
(-2.749924665324053e-14 0 0)
(-7.847345996168485e-14 0 0)
(-1.569469199233968e-13 0 0)
(2.453252294790963e-14 0 0)
(-2.588953465402718e-13 0 0)
(-7.95310162543776e-14 0 0)
(-7.741590366897886e-14 0 0)
(5.245757516110926e-14 0 0)
(4.991665701573844e-14 0 0)
(-1.808476921385302e-13 0 0)
(-1.569469199233652e-13 0 0)
(-2.089786895245251e-13 0 0)
(5.203176960114212e-14 0 0)
(-7.847345996168558e-14 0 0)
(7.741590366897887e-14 0 0)
(-1.569469199233752e-13 0 0)
(2.089786895245143e-13 0 0)
(2.3900772215162e-14 0 0)
(-2.593211521002219e-13 0 0)
(-2.079211332318143e-13 0 0)
(2.094044950844755e-13 0 0)
(-7.847345996167316e-14 0 0)
(-1.829628047239513e-13 0 0)
(-5.394093701377308e-14 0 0)
(-1.305052295628357e-13 0 0)
(-2.644169036053425e-14 0 0)
(-5.097421330844563e-14 0 0)
(-7.847345996168633e-14 0 0)
(1.569469199233363e-13 0 0)
(-1.044893447622645e-13 0 0)
(-1.569469199233672e-13 0 0)
(7.699009810902081e-14 0 0)
(-1.30505229562834e-13 0 0)
(3.898263816630485e-13 0 0)
(-3.612695787171146e-13 0 0)
(-2.749924665323872e-14 0 0)
(7.8473459961689e-14 0 0)
(-3.138938398466792e-13 0 0)
(7.741590366897707e-14 0 0)
(-1.04915150322217e-13 0 0)
(-1.829628047239532e-13 0 0)
(1.844461665766067e-13 0 0)
(-1.070302629076292e-13 0 0)
(2.104620513771889e-13 0 0)
(-7.741590366896538e-14 0 0)
(-3.138938398467409e-13 0 0)
(-1.569469199233699e-13 0 0)
(-7.95310162543909e-14 0 0)
(1.569469199233667e-13 0 0)
(7.847345996168303e-14 0 0)
(-1.558893636306636e-13 0 0)
(-2.855680294594716e-14 0 0)
(1.070302629076323e-13 0 0)
(-1.569469199233394e-13 0 0)
(-1.289421022657708e-27 0 0)
(7.847345996168347e-14 0 0)
(-2.855680294594574e-14 0 0)
(5.778710226777353e-13 0 0)
(-1.605453943614407e-13 0 0)
(-7.593254181631614e-14 0 0)
(1.580044762160507e-13 0 0)
(2.749924665324118e-14 0 0)
(-1.070302629076301e-13 0 0)
(4.530398187716142e-28 0 0)
(1.637913190943479e-27 0 0)
(-1.833886102838999e-13 0 0)
(1.059727066149298e-13 0 0)
(-8.207193439975963e-14 0 0)
(-2.495832850787035e-14 0 0)
(-4.991665701573096e-14 0 0)
(-7.953101625439046e-14 0 0)
(1.070302629076282e-13 0 0)
(-4.708407597701056e-13 0 0)
(-2.749924665324149e-14 0 0)
(-1.594878380687411e-13 0 0)
(-1.804218865785748e-13 0 0)
(-3.938506616610256e-13 0 0)
(1.483361852665716e-15 0 0)
(-2.629196265382931e-13 0 0)
(-4.183831846089997e-13 0 0)
(-2.354203798850622e-13 0 0)
(-3.638104968624742e-13 0 0)
(-3.413930864999814e-13 0 0)
(-1.605453943614426e-13 0 0)
(-5.467733015864324e-13 0 0)
(-4.972824501305575e-13 0 0)
(-2.079211332318172e-13 0 0)
(-7.062611396551657e-13 0 0)
(-2.079211332318136e-13 0 0)
(-6.552869263467164e-13 0 0)
(-6.288452359861853e-13 0 0)
(-6.527460082013696e-13 0 0)
(-8.14774764415365e-13 0 0)
(-6.777043367092188e-13 0 0)
(-9.141822728869816e-13 0 0)
(-7.847345996168509e-13 0 0)
(-1.020154979501815e-12 0 0)
(-8.632080595785356e-13 0 0)
(-9.691807661934591e-13 0 0)
(-9.152398291797139e-13 0 0)
(-1.255575359386811e-12 0 0)
(-7.847345996168739e-13 0 0)
(-7.052035833624407e-13 0 0)
(-1.492053295564763e-12 0 0)
(-1.070071636517517e-12 0 0)
(-8.122338462700907e-13 0 0)
(-1.441079082256318e-12 0 0)
(-7.286785500176436e-13 0 0)
(-1.441079082256191e-12 0 0)
(-9.915981765559286e-13 0 0)
(-1.12612768611683e-12 0 0)
(-1.334048819348644e-12 0 0)
(-8.632080595784607e-13 0 0)
(-1.098628439463588e-12 0 0)
(-1.255575359386957e-12 0 0)
(-9.416815195402238e-13 0 0)
(-1.334048819348641e-12 0 0)
(-9.717216843387449e-13 0 0)
(-8.841421080883705e-13 0 0)
(-1.233157949024499e-12 0 0)
(-7.56177796670881e-13 0 0)
(-1.149602652771967e-12 0 0)
(-1.28307460604016e-12 0 0)
(-3.13893839846741e-13 0 0)
(-1.442562444108941e-12 0 0)
(-8.331678947798502e-13 0 0)
(-7.847345996168512e-13 0 0)
(-1.098628439463589e-12 0 0)
(-7.363013044537759e-13 0 0)
(-1.304008654549916e-12 0 0)
(-8.632080595785355e-13 0 0)
(-9.416815195402182e-13 0 0)
(-9.427390758329571e-13 0 0)
(-8.11176289977312e-13 0 0)
(-1.149602652772e-12 0 0)
(-5.529126941698921e-13 0 0)
(-1.173503424987162e-12 0 0)
(-8.632080595784581e-13 0 0)
(-1.020154979501907e-12 0 0)
(-7.847345996168531e-13 0 0)
(-8.632080595785333e-13 0 0)
(-7.572353529636122e-13 0 0)
(-1.020154979501845e-12 0 0)
(-8.397330929233038e-13 0 0)
(-9.177807473250885e-13 0 0)
(-8.086353718319893e-13 0 0)
(-9.152398291796063e-13 0 0)
(-8.632080595785636e-13 0 0)
(-5.207574167858349e-13 0 0)
(-9.69180766193464e-13 0 0)
(-9.416815195401354e-13 0 0)
(-5.493142197317986e-13 0 0)
(-9.691807661934616e-13 0 0)
(-6.303285978388532e-13 0 0)
(-9.116413547415294e-13 0 0)
(-8.632080595785368e-13 0 0)
(-7.847345996168515e-13 0 0)
(-5.218149730785601e-13 0 0)
(-8.632080595784867e-13 0 0)
(-6.827861729999408e-13 0 0)
(-4.993975627160606e-13 0 0)
(-1.434939689672828e-12 0 0)
(-2.863945931934874e-13 0 0)
(-8.122338462700668e-13 0 0)
(-3.923672998084308e-13 0 0)
(-9.416815195402206e-13 0 0)
(-3.923672998084308e-13 0 0)
(-6.277876796934269e-13 0 0)
(-3.399097246473173e-13 0 0)
(-7.898164359076165e-13 0 0)
(-2.318219054469734e-13 0 0)
(-7.95310162543856e-14 0 0)
(-6.002884330402598e-13 0 0)
(-1.558893636306672e-13 0 0)
(-2.35420379885049e-13 0 0)
(-3.149513961394102e-13 0 0)
(-7.847345996168867e-14 0 0)
(-2.64416903605345e-14 0 0)
(-3.149513961394494e-13 0 0)
(1.070302629076224e-13 0 0)
(-3.833413851144276e-28 0 0)
(-7.953101625439307e-14 0 0)
(-1.05972706614929e-13 0 0)
(7.953101625438396e-14 0 0)
(-5.097421330844475e-14 0 0)
(-2.855680294594776e-14 0 0)
(-7.741590366897757e-14 0 0)
(-3.648680531551739e-13 0 0)
(-3.923672998084267e-13 0 0)
(-3.138938398467311e-13 0 0)
)
;

boundaryField
{
    inlet
    {
        type            zeroGradient;
    }
    outlet
    {
        type            pressureInletOutletVelocity;
        value           uniform (-3.138938398467311e-13 0 0);
    }
    frontAndBack
    {
        type            empty;
    }
}


// ************************************************************************* //
