/*--------------------------------*- C++ -*----------------------------------*\
| =========                 |                                                 |
| \\      /  F ield         | OpenFOAM: The Open Source CFD Toolbox           |
|  \\    /   O peration     | Version:  v2012                                 |
|   \\  /    A nd           | Website:  www.openfoam.com                      |
|    \\/     M anipulation  |                                                 |
\*---------------------------------------------------------------------------*/
FoamFile
{
    version     2.0;
    format      ascii;
    class       volVectorField;
    location    "0.001";
    object      UMean;
}
// * * * * * * * * * * * * * * * * * * * * * * * * * * * * * * * * * * * * * //

dimensions      [0 1 -1 0 0 0 0];


internalField   nonuniform List<vector> 
1000
(
(-0.0001635129543236278 0 0)
(0.0002835418161545055 0 0)
(0.0003687253265428766 0 0)
(0.000994745438362222 0 0)
(0.001195311291792271 0 0)
(0.001665979375212228 0 0)
(0.002568575888800453 0 0)
(0.003189640735082096 0 0)
(0.003783175736765535 0 0)
(0.004870718648458419 0 0)
(0.005630218782954459 0 0)
(0.006368973694308805 0 0)
(0.007377301737408325 0 0)
(0.008200149414027811 0 0)
(0.008910797014295365 0 0)
(0.00978643963880277 0 0)
(0.01052852660814947 0 0)
(0.01105412445499592 0 0)
(0.01174824592539284 0 0)
(0.01220396037217766 0 0)
(0.01249101553333744 0 0)
(0.01276770835802805 0 0)
(0.01298170162855905 0 0)
(0.01297573820121183 0 0)
(0.01280154230478322 0 0)
(0.01269564461368712 0 0)
(0.01234385506847018 0 0)
(0.01191059352095904 0 0)
(0.01134795858759411 0 0)
(0.01074894993616682 0 0)
(0.01012973278070902 0 0)
(0.009222774418518412 0 0)
(0.008420244080230344 0 0)
(0.007563769906471816 0 0)
(0.006797843801030607 0 0)
(0.005869859111505742 0 0)
(0.005062070849305645 0 0)
(0.004290757480651282 0 0)
(0.00352555774627276 0 0)
(0.002731139572796005 0 0)
(0.002078478207098534 0 0)
(0.001575915905914638 0 0)
(0.000925448201309816 0 0)
(0.0006243594962228047 0 0)
(0.0002934681872976439 0 0)
(0.0001569915498320075 0 0)
(7.617092460124271e-05 0 0)
(0.0001204581703599803 0 0)
(0.0003943320456734238 0 0)
(0.0005898046900656241 0 0)
(0.001052812768011901 0 0)
(0.001569457098531241 0 0)
(0.002176701108624756 0 0)
(0.0027962061034605 0 0)
(0.003716275639931981 0 0)
(0.004531193460383364 0 0)
(0.005279024857084029 0 0)
(0.006198407571285019 0 0)
(0.00700979413187887 0 0)
(0.007794025523003058 0 0)
(0.008600070459746879 0 0)
(0.009435522962058882 0 0)
(0.01004172042517027 0 0)
(0.01078814763743659 0 0)
(0.01144549022217186 0 0)
(0.01189165593216359 0 0)
(0.01234420151922903 0 0)
(0.01268282493521103 0 0)
(0.01291317441914458 0 0)
(0.01292183672762357 0 0)
(0.01294417963734695 0 0)
(0.01275553004799723 0 0)
(0.01249540557138908 0 0)
(0.01208811761148041 0 0)
(0.01161680938641729 0 0)
(0.0110231440792585 0 0)
(0.01033248663418259 0 0)
(0.009531960548484111 0 0)
(0.008693002553892114 0 0)
(0.007899176987264663 0 0)
(0.007026708640534072 0 0)
(0.006230495339693653 0 0)
(0.005455539340737454 0 0)
(0.004635503809275941 0 0)
(0.003835012234791391 0 0)
(0.003171327924520985 0 0)
(0.002476526313879625 0 0)
(0.001796357091881034 0 0)
(0.001319687534397328 0 0)
(0.0008250909943728929 0 0)
(0.00048439822391432 0 0)
(0.0002264046246422926 0 0)
(0.0001023792230465288 0 0)
(0.0001269418430935253 0 0)
(0.0002545637439891993 0 0)
(0.0004772022769694517 0 0)
(0.0008735232736912372 0 0)
(0.001373381531239734 0 0)
(0.00192230930094537 0 0)
(0.002611747961933197 0 0)
(0.003453294029759442 0 0)
(0.004262057213415129 0 0)
(0.005051245499899162 0 0)
(0.005888450217146879 0 0)
(0.006723697697935456 0 0)
(0.007482561952086851 0 0)
(0.008286300525946016 0 0)
(0.009040597767001344 0 0)
(0.009793340837450469 0 0)
(0.01043907779947695 0 0)
(0.01108628730449264 0 0)
(0.0116533456613885 0 0)
(0.01211199912237824 0 0)
(0.01248171507714184 0 0)
(0.01278733935986572 0 0)
(0.01290349798417515 0 0)
(0.01293921985810834 0 0)
(0.01286815078394863 0 0)
(0.01263018134906513 0 0)
(0.01227817131867358 0 0)
(0.01181598832003379 0 0)
(0.01129742480221792 0 0)
(0.01056028680456169 0 0)
(0.009768523796947913 0 0)
(0.008992517589148975 0 0)
(0.008146790925475211 0 0)
(0.007357901182319164 0 0)
(0.006526578180811088 0 0)
(0.005775864316602443 0 0)
(0.004938963260063288 0 0)
(0.004238497380158415 0 0)
(0.003458988417041238 0 0)
(0.00277584458089488 0 0)
(0.002158193503788377 0 0)
(0.001562823782885546 0 0)
(0.001047767963028521 0 0)
(0.0006308638846108901 0 0)
(0.0003324753509754025 0 0)
(6.548413763851599e-05 0 0)
(3.140050038396477e-07 0 0)
(7.998694179820269e-13 0 0)
(-1.039955873201289e-13 0 0)
(-4.904057991648192e-14 0 0)
(-6.869812551425027e-14 0 0)
(-5.628608939228499e-15 0 0)
(-2.833315526882767e-14 0 0)
(1.025511833563487e-14 0 0)
(1.308169402646879e-14 0 0)
(3.445992293777444e-15 0 0)
(1.041029883082752e-14 0 0)
(4.931470545154244e-14 0 0)
(-2.66813246547578e-14 0 0)
(4.057962326054641e-14 0 0)
(6.454870165515614e-14 0 0)
(3.156449454747893e-14 0 0)
(1.588372727486378e-14 0 0)
(3.974555364247822e-14 0 0)
(-2.939472733158821e-14 0 0)
(2.854780828395784e-14 0 0)
(3.733659096901874e-14 0 0)
(1.019564581570176e-15 0 0)
(2.956737286552412e-14 0 0)
(2.795754973264391e-14 0 0)
(-1.888294849963634e-14 0 0)
(8.640632893713117e-14 0 0)
(-1.782137643687969e-14 0 0)
(4.507549460420467e-14 0 0)
(-2.650867912081907e-14 0 0)
(4.039528471372631e-14 0 0)
(6.209195947464257e-14 0 0)
(2.119620319783943e-14 0 0)
(-5.801254473169169e-15 0 0)
(5.287387075931852e-14 0 0)
(5.568875343728293e-14 0 0)
(-2.629402610568883e-14 0 0)
(4.43300555576996e-14 0 0)
(3.713363096677237e-14 0 0)
(2.408225140860978e-14 0 0)
(-1.73746053678755e-14 0 0)
(3.653167940257894e-14 0 0)
(3.613153142394981e-14 0 0)
(-1.025511833563402e-14 0 0)
(3.343097817668086e-14 0 0)
(9.218088715316993e-15 0 0)
(3.515397432356708e-14 0 0)
(-4.078258326279701e-15 0 0)
(1.937172704982658e-14 0 0)
(2.50003359890598e-14 0 0)
(4.315531048092987e-14 0 0)
(-4.540909265920681e-14 0 0)
(2.752824370238586e-14 0 0)
(1.589542028774436e-14 0 0)
(3.831414806940242e-14 0 0)
(2.75282437023869e-14 0 0)
(1.533547620473627e-14 0 0)
(-7.351605086117749e-15 0 0)
(8.838598558032676e-14 0 0)
(-6.423256863890368e-14 0 0)
(3.360362371061928e-14 0 0)
(2.31758598410456e-14 0 0)
(-5.527128938105247e-15 0 0)
(-7.062408166339109e-14 0 0)
(9.17608123412842e-14 0 0)
(-3.762240951696803e-14 0 0)
(-1.367195257778261e-14 0 0)
(1.817951693431845e-14 0 0)
(7.351605086117128e-15 0 0)
(1.552558677742368e-14 0 0)
(-2.321180538750679e-16 0 0)
(1.609838028999024e-14 0 0)
(3.058693744709978e-15 0 0)
(-2.54891145392454e-14 0 0)
(4.180214784436893e-14 0 0)
(-3.905612792339733e-15 0 0)
(-2.742560728458524e-15 0 0)
(-1.019564581569899e-14 0 0)
(2.903658683414876e-14 0 0)
(-1.444654967591939e-14 0 0)
(2.260306632847718e-14 0 0)
(-1.824476148011872e-15 0 0)
(8.469190476300007e-16 0 0)
(2.32353323609806e-14 0 0)
(3.284071962536579e-14 0 0)
(-1.100055738214061e-14 0 0)
(7.824981228456927e-14 0 0)
(-2.21737602982219e-14 0 0)
(3.568476035494929e-14 0 0)
(9.358528848930271e-14 0 0)
(-5.709561656791648e-14 0 0)
(-9.218088715316527e-15 0 0)
(1.04210240335264e-13 0 0)
(-5.811518114948177e-14 0 0)
(5.203980114125634e-14 0 0)
(3.670432493651624e-14 0 0)
(-1.754725090181654e-14 0 0)
(3.252458660911412e-14 0 0)
(-2.387929140636148e-14 0 0)
(5.860395969968174e-14 0 0)
(2.0811366443277e-15 0 0)
(-2.039129163139844e-15 0 0)
(4.711462376734299e-14 0 0)
(1.348645761428385e-14 0 0)
(-2.699745767101e-14 0 0)
(6.223544695695118e-14 0 0)
(-9.003435700189421e-15 0 0)
(-8.156516652559302e-15 0 0)
(-2.823167526770781e-14 0 0)
(2.039129163139891e-15 0 0)
(-4.887785501910807e-16 0 0)
(-6.57829192518574e-14 0 0)
(3.150502202754533e-14 0 0)
(-7.867911831482234e-14 0 0)
(-2.145286369415433e-14 0 0)
(2.844040729581831e-15 0 0)
(-8.237007809203305e-14 0 0)
(-5.055815426661486e-15 0 0)
(-3.284071962536417e-14 0 0)
(-8.666298943344458e-14 0 0)
(3.332949817555694e-14 0 0)
(-7.362330288815882e-14 0 0)
(-5.301735824163682e-14 0 0)
(-2.146530151277032e-16 0 0)
(-6.144800042926204e-14 0 0)
(-5.815718863066866e-14 0 0)
(9.176081234129424e-15 0 0)
(-5.195578617887791e-14 0 0)
(-4.200748118779903e-17 0 0)
(-8.795667955007936e-14 0 0)
(9.76633978544255e-15 0 0)
(-6.250957249202017e-14 0 0)
(-2.629402610568947e-14 0 0)
(-2.221576777941044e-14 0 0)
(-7.07372546773892e-14 0 0)
(-6.809617395005772e-14 0 0)
(-5.307860313791894e-16 0 0)
(-1.73325978866884e-14 0 0)
(-7.126804070877e-14 0 0)
(-3.86360531115181e-15 0 0)
(-7.24310927726557e-14 0 0)
(6.159394970607332e-15 0 0)
(-2.633603358687789e-14 0 0)
(-6.627169780204768e-14 0 0)
(-1.019564581569914e-15 0 0)
(-5.403692282320245e-14 0 0)
(-7.136952070989675e-15 0 0)
(-6.627169780204181e-14 0 0)
(-5.709561656791749e-14 0 0)
(-4.546279315326838e-14 0 0)
(3.832584108228629e-14 0 0)
(-8.479650580423825e-14 0 0)
(-5.30173582416368e-14 0 0)
(7.058207418219725e-14 0 0)
(-1.146380042048358e-13 0 0)
(5.485121456917089e-15 0 0)
(-3.8427321083407e-14 0 0)
(1.588372727486111e-14 0 0)
(-8.591755038694559e-14 0 0)
(-5.794253561554036e-14 0 0)
(2.569915194518545e-15 0 0)
(-2.039129163139784e-14 0 0)
(-1.012530265916777e-13 0 0)
(-8.329162186498324e-15 0 0)
(-3.058693744710146e-15 0 0)
(-1.06839628049704e-13 0 0)
(-9.706867265509026e-15 0 0)
(-1.958638006495432e-14 0 0)
(-6.450669417397363e-14 0 0)
(-2.956737286552637e-14 0 0)
(-5.73102695830423e-14 0 0)
(-1.501934318848542e-14 0 0)
(-8.41945542400527e-14 0 0)
(-4.384127700750318e-14 0 0)
(-6.39164356226582e-14 0 0)
(-3.080159046222318e-14 0 0)
(-5.280270522650977e-14 0 0)
(-2.446954995767789e-14 0 0)
(-3.568476035494682e-14 0 0)
(-8.237007809203232e-14 0 0)
(1.117320291608218e-14 0 0)
(-5.115087461243059e-14 0 0)
(-6.37437900887194e-14 0 0)
(-9.176081234128188e-15 0 0)
(-1.72299614688889e-15 0 0)
(-9.642932921887841e-14 0 0)
(8.049115664419245e-16 0 0)
(3.929170516978176e-14 0 0)
(-1.263840006334895e-13 0 0)
(-3.631702638744612e-14 0 0)
(-2.731359068726101e-14 0 0)
(-5.909273824986422e-14 0 0)
(-4.711462376734479e-14 0 0)
(-2.489885598793332e-14 0 0)
(-5.05489230482424e-14 0 0)
(-3.69095977721194e-15 0 0)
(-5.934939874618521e-14 0 0)
(-3.2798712144176e-14 0 0)
(-1.121521039726934e-14 0 0)
(-4.936840594561046e-14 0 0)
(-7.442821445460706e-14 0 0)
(2.32470253738601e-14 0 0)
(-7.126804070877429e-14 0 0)
(1.095854990095284e-14 0 0)
(-8.264420362710178e-14 0 0)
(-2.570376755437649e-14 0 0)
(-4.277970494474918e-14 0 0)
(-5.403692282320338e-14 0 0)
(-5.692297103397514e-14 0 0)
(-1.63130333051192e-14 0 0)
(-2.699745767100695e-14 0 0)
(-5.913474573105452e-14 0 0)
(-4.658383773596676e-14 0 0)
(9.176081234129121e-15 0 0)
(-1.061572062757986e-15 0 0)
(-9.509363162105947e-14 0 0)
(2.703946515219761e-14 0 0)
(-9.176081234128963e-15 0 0)
(-3.895810711478231e-14 0 0)
(3.273346759837696e-15 0 0)
(2.01346311350829e-14 0 0)
(-5.505648740477818e-14 0 0)
(4.120265807468209e-15 0 0)
(-1.31948670404727e-14 0 0)
(-3.729458348783288e-14 0 0)
(-3.139184901353938e-14 0 0)
(1.539494872467187e-14 0 0)
(-3.343097817667936e-14 0 0)
(-3.674633241770474e-14 0 0)
(2.816050973489118e-14 0 0)
(4.722217371663279e-15 0 0)
(-8.666298943343707e-14 0 0)
(6.605704478692026e-14 0 0)
(-6.433520505670577e-15 0 0)
(-6.627169780203937e-14 0 0)
(9.938654296247258e-14 0 0)
(-9.481950608600675e-14 0 0)
(3.041429191315866e-14 0 0)
(1.958638006495616e-14 0 0)
(1.450602219585338e-14 0 0)
(-5.324947629551049e-14 0 0)
(1.824476148012204e-15 0 0)
(3.445054275824645e-14 0 0)
(-3.733659096901921e-14 0 0)
(-7.840383636308585e-15 0 0)
(-7.415292509077511e-29 0 0)
(-1.174599642864797e-14 0 0)
(9.176081234128711e-15 0 0)
(-3.97630186812266e-14 0 0)
(-2.421288946136335e-14 0 0)
(4.636918472083507e-14 0 0)
(-7.952603736245262e-14 0 0)
(3.192263504491966e-14 0 0)
(7.094944589801295e-15 0 0)
(-1.835216246825892e-14 0 0)
(7.178959552177166e-15 0 0)
(2.65086791208181e-14 0 0)
(-3.019963889803108e-14 0 0)
(-3.94468856649727e-14 0 0)
(6.047044332887612e-14 0 0)
(-5.607605198634555e-14 0 0)
(1.405925112685167e-14 0 0)
(-3.192263504491979e-14 0 0)
(6.52521332204691e-14 0 0)
(2.200111476428277e-14 0 0)
(-7.399890842435106e-14 0 0)
(3.547010733981653e-14 0 0)
(-6.606166039610594e-15 0 0)
(6.665899635111629e-14 0 0)
(-4.781805533266295e-14 0 0)
(-9.921520280635791e-15 0 0)
(6.047044332887792e-14 0 0)
(1.16445164275248e-14 0 0)
(-5.252857969144546e-14 0 0)
(6.670100383229382e-14 0 0)
(-2.253782178268043e-15 0 0)
(-6.504686038486397e-15 0 0)
(4.401392254144591e-14 0 0)
(-4.277970494474829e-14 0 0)
(1.50788157084218e-14 0 0)
(4.465788158682771e-14 0 0)
(-1.417242414085551e-14 0 0)
(1.609823132884267e-15 0 0)
(-2.892341382014574e-14 0 0)
(4.893909991535485e-14 0 0)
(-3.111772347847596e-14 0 0)
(-4.954105147955077e-14 0 0)
(4.292911341407683e-15 0 0)
(4.036497024541997e-14 0 0)
(-7.765955373325272e-14 0 0)
(7.501847300591548e-14 0 0)
(-4.893909991536102e-14 0 0)
(-6.322660325018789e-16 0 0)
(4.710524358782002e-15 0 0)
(3.301336515930492e-14 0 0)
(-3.058693744709824e-15 0 0)
(-5.097822907849266e-15 0 0)
(8.117786797652351e-14 0 0)
(-1.453056463829419e-14 0 0)
(-8.458185278912265e-14 0 0)
(1.206959191743134e-13 0 0)
(-6.525213322047266e-14 0 0)
(3.954836566609909e-14 0 0)
(-5.013131003086535e-14 0 0)
(-3.325833264273986e-14 0 0)
(6.525213322047528e-14 0 0)
(-6.605704478691379e-14 0 0)
(-8.055036651436426e-15 0 0)
(1.572277475380372e-14 0 0)
(-7.454390465068268e-16 0 0)
(-4.460418109275823e-14 0 0)
(-2.795754973264438e-14 0 0)
(4.787752785259779e-14 0 0)
(-1.25089005139021e-14 0 0)
(-3.123089649247963e-14 0 0)
(7.034315653188416e-16 0 0)
(4.078258326279563e-15 0 0)
(1.249143547515422e-14 0 0)
(-7.608265582433016e-15 0 0)
(-9.551686770315827e-15 0 0)
(3.439107023831355e-14 0 0)
(-4.883761991423108e-14 0 0)
(3.199380057773382e-14 0 0)
(1.1429863412398e-14 0 0)
(-1.771989643575584e-14 0 0)
(1.202012196371113e-14 0 0)
(6.332040504547009e-15 0 0)
(-8.156516652559653e-15 0 0)
(2.221576777941009e-14 0 0)
(-2.429690442373783e-14 0 0)
(-2.09815501827143e-14 0 0)
(5.086129894968535e-15 0 0)
(-1.046977135076163e-14 0 0)
(-2.092207766277749e-14 0 0)
(-1.609823132884216e-15 0 0)
(-3.160650202866507e-14 0 0)
(-5.127595883936577e-29 0 0)
(-1.533547620473657e-14 0 0)
(-6.113186741300777e-14 0 0)
(2.548911453924841e-14 0 0)
(-6.100122936025083e-14 0 0)
(4.925177373909903e-15 0 0)
(-2.36646383912364e-14 0 0)
(-4.388328448869148e-14 0 0)
(-1.662916632137033e-14 0 0)
(-6.193677897945035e-14 0 0)
(2.333681236210409e-14 0 0)
(-8.838598558033331e-14 0 0)
(1.192210115509644e-15 0 0)
(-1.796486391919111e-14 0 0)
(-2.695545018982117e-14 0 0)
(-3.428959023718837e-14 0 0)
(-1.395170117756563e-15 0 0)
(-5.178314064493937e-14 0 0)
(1.609838028999144e-14 0 0)
(-9.905294490747598e-14 0 0)
(2.897711431421146e-14 0 0)
(-3.519598180475688e-14 0 0)
(-8.258473110716449e-14 0 0)
(3.164850950985336e-14 0 0)
(-6.197878646063817e-14 0 0)
(-7.319399685790769e-14 0 0)
(6.015431031262629e-14 0 0)
(-7.362330288816299e-14 0 0)
(-5.407893030438987e-14 0 0)
(5.509849488596412e-14 0 0)
(-7.92519118273912e-14 0 0)
(-3.589941337007271e-14 0 0)
(8.097044132624356e-15 0 0)
(-5.484183438964865e-14 0 0)
(4.841162411533862e-15 0 0)
(-7.991333591152235e-14 0 0)
(-1.631303330511751e-14 0 0)
(-4.066941024879291e-14 0 0)
(-3.852880108452985e-14 0 0)
(-5.914643874393236e-14 0 0)
(2.109472319671755e-14 0 0)
(-3.863028108565292e-14 0 0)
(-6.245009997208193e-14 0 0)
(-1.466120269104718e-14 0 0)
(-6.117387489419093e-14 0 0)
(-1.845364246938221e-14 0 0)
(-6.831082696518596e-14 0 0)
(-1.321233207921983e-14 0 0)
(-2.451155743886665e-14 0 0)
(-5.425157583833467e-14 0 0)
(-4.460418109276106e-14 0 0)
(-2.854780828395858e-14 0 0)
(-3.568476035494468e-14 0 0)
(-1.427390414197889e-14 0 0)
(-4.658383773596589e-14 0 0)
(-9.27209044029207e-14 0 0)
(1.921077452876995e-14 0 0)
(-7.56624320513033e-14 0 0)
(-2.468435193395481e-15 0 0)
(-8.574490485299774e-14 0 0)
(-1.223477497883839e-14 0 0)
(-3.536862733869665e-14 0 0)
(-6.739274238473889e-14 0 0)
(-2.344998537610658e-14 0 0)
(1.255090799509041e-14 0 0)
(-8.381894870386197e-14 0 0)
(-4.325101845619392e-14 0 0)
(1.879316151139539e-14 0 0)
(-7.814256025757113e-14 0 0)
(-1.79228564380038e-14 0 0)
(-5.037627751430207e-14 0 0)
(-3.23133927864918e-15 0 0)
(-5.527114041990299e-14 0 0)
(-2.253782178267801e-15 0 0)
(5.699774472045056e-15 0 0)
(-5.221244667519531e-14 0 0)
(-1.036829134963841e-14 0 0)
(-1.100055738214162e-14 0 0)
(-2.650867912081762e-14 0 0)
(-3.266807409142389e-14 0 0)
(-1.423189666079044e-14 0 0)
(-5.628608939228811e-15 0 0)
(-5.097822907849555e-14 0 0)
(-3.20952805788597e-14 0 0)
(-1.512082318960739e-14 0 0)
(-8.156516652559487e-15 0 0)
(-2.791554225145553e-14 0 0)
(-3.139184901353861e-14 0 0)
(3.462318829219474e-14 0 0)
(-9.4718026084875e-14 0 0)
(-2.291919934472922e-14 0 0)
(1.519198872242575e-14 0 0)
(-7.238908529145797e-14 0 0)
(-2.243042079453909e-14 0 0)
(-8.049115664420405e-16 0 0)
(-5.066209606224659e-14 0 0)
(2.119620319784055e-14 0 0)
(3.547472294900519e-15 0 0)
(-1.782137643687935e-14 0 0)
(-6.546678623560528e-14 0 0)
(-1.121521039726813e-14 0 0)
(3.487984878850639e-14 0 0)
(-3.653167940257705e-14 0 0)
(-2.576324007431182e-14 0 0)
(4.74902293035309e-14 0 0)
(-4.433005555769272e-14 0 0)
(-1.427390414197927e-14 0 0)
(3.09625429832847e-14 0 0)
(-3.384859119405182e-14 0 0)
(-2.650867912081767e-14 0 0)
(5.719709656904005e-14 0 0)
(-1.690329185643249e-14 0 0)
(-2.323533236098152e-14 0 0)
(1.395170117756529e-15 0 0)
(3.111772347847702e-14 0 0)
(-3.852880108452968e-14 0 0)
(-9.593694251502792e-15 0 0)
(1.061325883307338e-14 0 0)
(1.674233933537531e-14 0 0)
(3.606036589113343e-14 0 0)
(-5.017331751205577e-14 0 0)
(1.101225039502128e-14 0 0)
(5.054892304824207e-14 0 0)
(-1.148933593233218e-14 0 0)
(-2.650867912081563e-14 0 0)
(5.741174958416885e-14 0 0)
(-5.6177531987471e-14 0 0)
(3.852880108452857e-14 0 0)
(9.706867265508811e-15 0 0)
(3.075958298103369e-14 0 0)
(-4.036250845091979e-15 0 0)
(-2.366463839123589e-14 0 0)
(-3.100701225897333e-15 0 0)
(6.444722165403561e-14 0 0)
(6.535000506793847e-15 0 0)
(-3.015763141684331e-14 0 0)
(1.202012196371119e-14 0 0)
(5.297535076044505e-14 0 0)
(2.03912916313988e-14 0 0)
(-5.86072699310387e-15 0 0)
(3.016686263521666e-15 0 0)
(5.864596718086712e-14 0 0)
(2.141085621296799e-14 0 0)
(-7.453085087240843e-15 0 0)
(7.62526906026155e-14 0 0)
(-9.134073752940398e-15 0 0)
(-2.42548969425511e-14 0 0)
(9.301249497673703e-14 0 0)
(-3.285818466411029e-14 0 0)
(7.136952070989432e-15 0 0)
(-1.12572178784573e-14 0 0)
(6.423256863890777e-14 0 0)
(-1.223477497883913e-14 0 0)
(1.817951693431714e-14 0 0)
(4.20168008594938e-14 0 0)
(-2.978202588065692e-14 0 0)
(7.340864987302884e-14 0 0)
(-3.77238895180863e-14 0 0)
(2.548911453924889e-14 0 0)
(2.221576777941007e-14 0 0)
(-2.817220274777221e-14 0 0)
(3.795023554609337e-14 0 0)
(1.26103805150254e-14 0 0)
(4.689997075221729e-14 0 0)
(-1.240742051277818e-14 0 0)
(6.019515641950804e-16 0 0)
(2.344998537610916e-14 0 0)
(3.364563119180688e-14 0 0)
(-3.772388951808816e-14 0 0)
(6.304035852339014e-14 0 0)
(2.243042079453833e-14 0 0)
(-2.070742464765019e-14 0 0)
(9.803915235175933e-14 0 0)
(-6.998012261800699e-14 0 0)
(8.542877183674481e-14 0 0)
(-8.644833641831868e-14 0 0)
(6.831082696518788e-14 0 0)
(3.972101120003389e-14 0 0)
(-3.058693744709703e-15 0 0)
(3.284071962536485e-14 0 0)
(2.510181599017897e-14 0 0)
(3.219676057998228e-14 0 0)
(-5.515435925224356e-15 0 0)
(4.384127700750851e-14 0 0)
(4.184415532555379e-14 0 0)
(7.136952070989282e-15 0 0)
(2.956737286552775e-14 0 0)
(1.476268269216986e-14 0 0)
(2.14703287329015e-14 0 0)
(5.038350387914314e-15 0 0)
(3.547010733981882e-14 0 0)
(1.174599642864839e-14 0 0)
(3.058693744709543e-15 0 0)
(-5.944741955479098e-15 0 0)
(7.119687517595757e-14 0 0)
(-5.660683801772495e-14 0 0)
(1.041029883082605e-14 0 0)
(7.599603010629942e-14 0 0)
(-7.873859083476316e-14 0 0)
(7.59365575863637e-14 0 0)
(-3.804002253433912e-14 0 0)
(2.021864609745696e-14 0 0)
(-1.635504078630665e-14 0 0)
(1.958638006495735e-14 0 0)
(-4.197479337830416e-14 0 0)
(3.054492996590963e-14 0 0)
(7.178959552177479e-15 0 0)
(-2.553112202043598e-14 0 0)
(1.817951693431944e-14 0 0)
(-1.631303330511736e-14 0 0)
(4.486084158907809e-14 0 0)
(1.609823132884223e-15 0 0)
(1.878176642081149e-15 0 0)
(1.872776800444776e-14 0 0)
(3.648967192138757e-14 0 0)
(-5.037627751430052e-14 0 0)
(9.605372368270262e-14 0 0)
(-1.793454945088316e-14 0 0)
(3.05869374470989e-14 0 0)
(4.465788158682979e-14 0 0)
(1.592573475605157e-14 0 0)
(1.856681548338604e-14 0 0)
(3.262606661023604e-14 0 0)
(6.289687104108575e-14 0 0)
(2.790384923857373e-14 0 0)
(1.501934318848455e-14 0 0)
(3.381827672574817e-14 0 0)
(5.815718863067361e-14 0 0)
(1.202012196371124e-14 0 0)
(6.166265344438742e-14 0 0)
(2.978202588065235e-14 0 0)
(5.741174958417008e-14 0 0)
(3.44505427582489e-14 0 0)
(6.187730645951071e-14 0 0)
(2.682481213706939e-14 0 0)
(4.303636544106524e-14 0 0)
(2.344998537610846e-14 0 0)
(4.282171242593753e-14 0 0)
(7.154216624383016e-14 0 0)
(6.321300405733495e-14 0 0)
(2.956737286552901e-14 0 0)
(5.660683801771947e-14 0 0)
(7.625269060261607e-14 0 0)
(2.805902973376741e-14 0 0)
(6.729126238361561e-14 0 0)
(3.46651957733778e-14 0 0)
(8.279938412228381e-14 0 0)
(4.481883410789035e-14 0 0)
(2.907859431533625e-14 0 0)
(8.511263882048941e-14 0 0)
(2.500033598905767e-14 0 0)
(3.72351109678971e-14 0 0)
(3.852880108452968e-14 0 0)
(7.952603736245252e-14 0 0)
(2.393876392629825e-14 0 0)
(2.693798515107276e-14 0 0)
(2.559059454037267e-14 0 0)
(3.547472294900425e-15 0 0)
(6.521012573928898e-14 0 0)
(-1.272355352902973e-14 0 0)
(5.934939874618348e-14 0 0)
(-3.058693744709878e-14 0 0)
(3.44925502394346e-14 0 0)
(6.317099657614969e-14 0 0)
(-2.42128894613619e-14 0 0)
(1.831015498706971e-14 0 0)
(5.231392667631716e-14 0 0)
(-4.588040617064571e-14 0 0)
(2.291919934473044e-14 0 0)
(5.312475922977559e-15 0 0)
(2.548911453924673e-14 0 0)
(-1.670033185418579e-14 0 0)
(1.93717270498297e-14 0 0)
(-9.808347266630681e-15 0 0)
(2.752824370238799e-14 0 0)
(-2.14108562129687e-14 0 0)
(-8.156516652560153e-15 0 0)
(-3.872985490675202e-16 0 0)
(5.270468441788783e-15 0 0)
(2.854780828395892e-14 0 0)
(-3.058693744709669e-14 0 0)
(-3.954836566609646e-14 0 0)
(2.671395195642132e-15 0 0)
(4.525029395282696e-15 0 0)
(-5.405438786195318e-14 0 0)
(-6.332040504547518e-15 0 0)
(-1.835216246825785e-14 0 0)
(-4.774688979984392e-14 0 0)
(1.898442850076287e-14 0 0)
(-5.097822907849065e-14 0 0)
(-4.018063169860225e-14 0 0)
(1.405925112685139e-14 0 0)
(-6.321300405733493e-14 0 0)
(-4.588040617064846e-14 0 0)
(4.018063169859663e-14 0 0)
(-8.033094892890425e-14 0 0)
(-1.019564581569871e-14 0 0)
(-5.730088940351661e-15 0 0)
(-3.842732108340593e-14 0 0)
(-2.398077140748671e-14 0 0)
(-8.870211859658676e-14 0 0)
(6.202079394182497e-14 0 0)
(-9.137351379222206e-14 0 0)
(-3.48378413073152e-14 0 0)
(-3.262606661024018e-14 0 0)
(-1.715995235274678e-14 0 0)
(-5.505648740477608e-14 0 0)
(-4.48608415890776e-14 0 0)
(-2.113673067790575e-14 0 0)
(-7.899525133107496e-14 0 0)
(-5.056061606111462e-14 0 0)
(-6.809617395006395e-14 0 0)
(-4.731758376958809e-14 0 0)
(-2.253782178267365e-15 0 0)
(-7.421356143947666e-14 0 0)
(-7.309251685678651e-14 0 0)
(-6.77800409338043e-14 0 0)
(4.589787120939414e-14 0 0)
(-1.34814642821103e-13 0 0)
(-9.379994150442546e-14 0 0)
(-1.019564581569987e-15 0 0)
(-7.045143612944056e-14 0 0)
(-1.172499268805441e-13 0 0)
(-1.009416581457563e-14 0 0)
(-2.816050973488982e-14 0 0)
(-1.40872557790593e-13 0 0)
(1.911506655351295e-14 0 0)
(-7.621068312142945e-14 0 0)
(-8.241208557321096e-14 0 0)
(-6.117387489419702e-14 0 0)
(-1.975902559889608e-14 0 0)
(-7.221643975752313e-14 0 0)
(-9.154615932616776e-14 0 0)
(4.137730846214766e-15 0 0)
(-9.628584173657672e-14 0 0)
(-1.16328234146413e-14 0 0)
(-7.566243205130406e-14 0 0)
(-9.176081234129241e-14 0 0)
(-1.835216246826196e-14 0 0)
(-5.667800355053993e-14 0 0)
(-1.096836687793024e-13 0 0)
(-8.469190476299836e-16 0 0)
(-9.499215161994263e-14 0 0)
(-1.022725911732448e-13 0 0)
(3.360362371062051e-14 0 0)
(-1.352439488513606e-13 0 0)
(-8.768255401501157e-14 0 0)
(-7.913873881338837e-14 0 0)
(-4.320901097499754e-14 0 0)
(-1.080738456464132e-13 0 0)
(-7.221643975752658e-14 0 0)
(-6.627169780204775e-14 0 0)
(-7.175681925896115e-14 0 0)
(-1.667117380255737e-14 0 0)
(-1.862221779298619e-13 0 0)
(-8.049115664421462e-16 0 0)
(-6.7607395399866e-14 0 0)
(-1.029760227385469e-13 0 0)
(-2.172698922922055e-14 0 0)
(-9.542145765019641e-14 0 0)
(-3.121920347960049e-14 0 0)
(-7.073725467739419e-14 0 0)
(-7.72722551841874e-14 0 0)
(-5.505648740477673e-14 0 0)
(-3.058693744709161e-14 0 0)
(-5.435305583946e-14 0 0)
(-7.4428214454604e-14 0 0)
(-3.96615386801042e-14 0 0)
(-2.510181599018044e-14 0 0)
(-2.317585984104509e-14 0 0)
(-7.873859083476139e-14 0 0)
(-4.507549460420349e-14 0 0)
(-3.058693744709933e-14 0 0)
(-6.01543103126145e-14 0 0)
(-7.425556892066536e-14 0 0)
(-1.466120269104641e-14 0 0)
(-7.576391205242968e-14 0 0)
(-3.44505427582492e-14 0 0)
(-2.043329911258627e-14 0 0)
(-6.064308886281825e-14 0 0)
(-1.852480800219547e-14 0 0)
(-6.933039154675555e-14 0 0)
(-8.156516652559547e-15 0 0)
(-1.410125860803925e-14 0 0)
(-4.282171242593649e-14 0 0)
(1.121521039726907e-14 0 0)
(-2.668132465475818e-14 0 0)
(-4.388328448869633e-14 0 0)
(-4.036250845091809e-15 0 0)
(-2.24304207945345e-14 0 0)
(-4.078258326279907e-14 0 0)
(-3.262606661023684e-14 0 0)
(-2.858981576514643e-14 0 0)
(-2.340797789492033e-14 0 0)
(-6.690181001986431e-15 0 0)
(-4.717409628728079e-14 0 0)
(-4.707261628614914e-14 0 0)
(-4.158749482923958e-14 0 0)
(1.219276749765127e-14 0 0)
(-4.995866449692754e-14 0 0)
(3.262606661023766e-14 0 0)
(-5.340465679070246e-14 0 0)
(-6.922299055862021e-15 0 0)
(3.817066058709027e-14 0 0)
(-7.08387346785175e-14 0 0)
(-2.850580080276554e-14 0 0)
(2.211774697079762e-15 0 0)
(1.023765329688738e-14 0 0)
(1.019564581570084e-15 0 0)
(-6.648635081717339e-14 0 0)
(3.49393213084411e-14 0 0)
(7.566258101245111e-15 0 0)
(-4.883761991422528e-14 0 0)
(4.475936158795406e-14 0 0)
(-5.934939874618322e-14 0 0)
(1.72299614688872e-15 0 0)
(2.548911453924909e-14 0 0)
(-4.991665701573817e-14 0 0)
(4.87244469002294e-14 0 0)
(7.583723139992365e-15 0 0)
(-7.368277540809901e-14 0 0)
(1.490617017447882e-14 0 0)
(-2.221576777941102e-14 0 0)
(-3.160650202866773e-14 0 0)
(7.351605086117496e-15 0 0)
(-7.566243205130237e-14 0 0)
(2.362263091004858e-14 0 0)
(-5.044744304711904e-14 0 0)
(-4.018785806343692e-15 0 0)
(-9.579706318638521e-14 0 0)
(2.366463839123672e-14 0 0)
(-1.37641218511941e-13 0 0)
(-2.54891145392458e-14 0 0)
(-3.568476035494733e-14 0 0)
(-6.342765707246313e-14 0 0)
(-3.01996388980311e-14 0 0)
(-1.356020893487847e-13 0 0)
(-9.176081234129465e-15 0 0)
(-1.306769119748872e-13 0 0)
(-1.140185876018955e-13 0 0)
(-1.335209527044571e-13 0 0)
(-1.133863215693899e-13 0 0)
(-1.376832259931327e-13 0 0)
(-1.761280121152771e-13 0 0)
(-1.019984656381747e-13 0 0)
(-1.824600526198242e-13 0 0)
(-2.316558130315024e-13 0 0)
(-1.386607830935102e-13 0 0)
(-1.988150934061191e-13 0 0)
(-1.784238017747376e-13 0 0)
(-1.682281559590381e-13 0 0)
(-2.385781120873639e-13 0 0)
(-1.672085913774681e-13 0 0)
(-1.5491434387868e-13 0 0)
(-2.608533523867096e-13 0 0)
(-1.939739309946085e-13 0 0)
(-2.130469900669205e-13 0 0)
(-1.975808758094269e-13 0 0)
(-2.571449275707423e-13 0 0)
(-2.885367765842903e-13 0 0)
(-1.834621521626515e-13 0 0)
(-2.967527657567589e-13 0 0)
(-2.528520162293424e-13 0 0)
(-3.017911161446994e-13 0 0)
(-2.028338792124802e-13 0 0)
(-3.293788323669932e-13 0 0)
(-2.936345994921401e-13 0 0)
(-2.508128870662024e-13 0 0)
(-3.026380351923384e-13 0 0)
(-3.28687093814556e-13 0 0)
(-3.015764631295624e-13 0 0)
(-2.911486992600057e-13 0 0)
(-3.756465370867257e-13 0 0)
(-3.507302160600251e-13 0 0)
(-3.568476035494762e-13 0 0)
(-3.945714930675633e-13 0 0)
(-3.160650202866785e-13 0 0)
(-3.841611942367362e-13 0 0)
(-3.619454264573042e-13 0 0)
(-4.245681719633341e-13 0 0)
(-3.164231607841273e-13 0 0)
(-4.604850503721561e-13 0 0)
(-4.594363277389306e-13 0 0)
(-3.619454264573364e-13 0 0)
(-4.516251021542785e-13 0 0)
(-4.376078585086285e-13 0 0)
(-4.404518992381714e-13 0 0)
(-4.486084158907701e-13 0 0)
(-4.457643751611883e-13 0 0)
(-4.095908362560493e-13 0 0)
(-5.292134903546833e-13 0 0)
(-4.373932054935009e-13 0 0)
(-4.608431908696095e-13 0 0)
(-4.698046190886113e-13 0 0)
(-4.832736116641197e-13 0 0)
(-4.684094489708401e-13 0 0)
(-4.649634566770774e-13 0 0)
(-5.156430177780699e-13 0 0)
(-4.565502795281751e-13 0 0)
(-5.45681704155025e-13 0 0)
(-4.842931762457183e-13 0 0)
(-5.067235970402565e-13 0 0)
(-4.853127408272882e-13 0 0)
(-5.352714053241677e-13 0 0)
(-4.897071321698191e-13 0 0)
(-4.409232127496672e-13 0 0)
(-6.030094387768147e-13 0 0)
(-4.943161765274333e-13 0 0)
(-5.228219773302631e-13 0 0)
(-5.119940654820471e-13 0 0)
(-5.444474865583275e-13 0 0)
(-5.554900514216078e-13 0 0)
(-4.965279512245718e-13 0 0)
(-5.570695600862509e-13 0 0)
(-5.045118223431775e-13 0 0)
(-5.362489624245649e-13 0 0)
(-5.475061803030378e-13 0 0)
(-5.636465680742338e-13 0 0)
(-5.487403978997678e-13 0 0)
(-5.150527592267111e-13 0 0)
(-5.636045605930277e-13 0 0)
(-5.638612210893617e-13 0 0)
(-4.865049509427831e-13 0 0)
(-6.319153875582113e-13 0 0)
(-5.740148594238733e-13 0 0)
(-5.444474865583277e-13 0 0)
)
;

boundaryField
{
    inlet
    {
        type            calculated;
        value           uniform (-0.0001635129543236278 0 0);
    }
    outlet
    {
        type            calculated;
        value           uniform (-5.444474865583277e-13 0 0);
    }
    frontAndBack
    {
        type            empty;
    }
}


// ************************************************************************* //
