/*--------------------------------*- C++ -*----------------------------------*\
| =========                 |                                                 |
| \\      /  F ield         | OpenFOAM: The Open Source CFD Toolbox           |
|  \\    /   O peration     | Version:  v2012                                 |
|   \\  /    A nd           | Website:  www.openfoam.com                      |
|    \\/     M anipulation  |                                                 |
\*---------------------------------------------------------------------------*/
FoamFile
{
    version     2.0;
    format      ascii;
    class       volScalarField;
    location    "0.014";
    object      p;
}
// * * * * * * * * * * * * * * * * * * * * * * * * * * * * * * * * * * * * * //

dimensions      [1 -1 -2 0 0 0 0];


internalField   nonuniform List<scalar> 
1000
(
101303.4798299904
101308.7742041076
101304.8745037272
101294.3392715022
101292.114143936
101286.2086850867
101281.7043280442
101281.3520453288
101276.4341656712
101276.1449412139
101276.586267361
101276.5853733914
101278.287705784
101279.9311373722
101281.8224215427
101287.0058019378
101289.9552138867
101295.4002676439
101301.665645001
101306.3398188433
101312.6970502004
101318.9086695143
101325.2058382279
101331.6698513176
101338.1140416525
101344.5514250306
101350.0924672099
101356.5050717434
101360.7047857517
101365.9997769783
101371.2638123426
101373.0506195674
101373.8227161103
101374.3601098344
101373.5246547679
101373.5340879358
101372.5699648115
101369.7231325166
101368.2447127584
101363.937707238
101358.7591124354
101354.2437539223
101346.7996982947
101340.5114532123
101333.5743068778
101325.9071503892
101319.3663194935
101311.8068881872
101304.8218107546
101298.2412255678
101291.2038544536
101285.11312149
101279.5438062098
101273.5976119103
101271.0282267941
101269.0572566149
101267.9945535767
101267.6057577831
101267.616215305
101268.1674550253
101269.4468674501
101271.0235567152
101273.9085168299
101278.5510351991
101283.1620387243
101289.5422591805
101296.8521899742
101304.0687179861
101312.4886413926
101320.7978685022
101328.7079748691
101337.0450633477
101345.0403598549
101352.2750316175
101360.0067960869
101366.6066728656
101373.0570688305
101376.2152892208
101380.0549782013
101381.3884075145
101382.4248098265
101382.1731829657
101381.298810258
101380.4241189982
101378.2965058393
101375.1484184985
101372.0842078931
101367.3176659856
101361.0558009675
101354.9084642188
101347.064229007
101339.199981994
101331.501079173
101322.9798148154
101314.9943866365
101307.5260056601
101300.0274591379
101293.0806209346
101287.1143606237
101280.7308963802
101276.9337547276
101274.6487305137
101272.3842231635
101271.486819517
101271.2485464946
101271.6953773943
101272.6837750883
101274.1249771705
101276.6257651261
101279.4183643149
101283.3552146944
101288.743392562
101294.1924246497
101300.7988443277
101309.0395983508
101317.1230675699
101325.6416753054
101334.2450030035
101342.6793734571
101350.3748743327
101357.8187341277
101364.7283857251
101371.3005995852
101375.5430867601
101378.6417654664
101380.9192135084
101382.1701973651
101382.2856223236
101381.570824041
101380.5591309331
101378.9451449108
101375.7682375401
101372.6273460645
101368.8015896121
101363.1944657276
101358.001547331
101351.4821316164
101343.5902098833
101336.0121830537
101327.5778317806
101319.1152695206
101310.8824411829
101302.7663765204
101295.5682868578
101289.0613710332
101282.3102874301
101278.6434370289
101276.048612032
101273.5982602435
101272.5788433623
101272.1954505674
101272.503548078
101273.3410312892
101274.4103324184
101276.6893190621
101279.602590429
101282.7419361707
101287.6589408756
101292.5578287948
101298.1903299353
101305.7065053227
101313.3734874504
101321.6709645061
101330.3347153853
101339.1617807763
101347.5634206286
101355.3344686786
101362.6484112282
101370.1081733737
101374.2699340473
101377.9738650779
101380.0778835612
101381.8271336869
101382.1113684079
101381.5887592049
101380.7425561629
101379.2810124593
101376.606497648
101373.3207127242
101370.1398187352
101364.9865546702
101359.6384824009
101354.2543843773
101347.1646505759
101339.4660491229
101331.8518522522
101323.403141699
101314.7175367745
101306.5013230933
101298.7073004702
101291.2520750071
101284.1101422158
101279.4129400867
101276.7868792535
101274.5647434151
101273.0869571789
101272.8466869096
101273.0906051435
101273.7502026579
101274.599131305
101277.0207246619
101279.5894109223
101282.3712717922
101286.859970723
101291.5070720675
101296.4573701301
101303.5636581908
101310.8134173363
101318.0695775363
101326.6422081412
101335.3275874131
101343.870609743
101352.4688027844
101360.5899345922
101368.0650209148
101373.9877276255
101377.2885678731
101380.351462322
101381.7738525186
101382.5638374455
101382.1473827733
101381.2669560361
101380.1521354692
101377.5377420944
101374.8751592392
101371.4578558407
101366.931592794
101362.2458449898
101356.6550331841
101350.2168396969
101343.2045284482
101335.7110191881
101327.8369371909
101319.1622751762
101310.921605806
101302.5743522648
101294.0234759677
101287.5169799216
101280.2787915071
101277.8385455962
101274.9090750476
101273.711536752
101272.9511747495
101273.3160883082
101273.8834611128
101274.596943783
101276.7410352737
101279.0465319886
101281.670280249
101286.0187426335
101290.0371618246
101294.7747744463
101301.1054117126
101307.4487068605
101314.3279991932
101322.7004562403
101330.8010753929
101339.5227654835
101348.2387766848
101356.5299247322
101364.1434996592
101371.926333264
101376.1624605298
101379.0411884075
101381.2364639369
101382.1564385656
101381.9772450076
101381.2279513325
101380.398624879
101378.3594007339
101375.3102000311
101372.8678938345
101368.7992618247
101363.6290091906
101359.0034469157
101353.1203773707
101346.2310388394
101339.5726231655
101331.9941271855
101323.4122774937
101315.3963175868
101307.1926441759
101298.7675340145
101291.3105934535
101283.3866564944
101279.4548212957
101276.2770032519
101274.9095001364
101273.5583599535
101273.7066370931
101274.3384998406
101275.1320369114
101276.3321895766
101279.1820368007
101281.6878996507
101285.0783103413
101289.2970138708
101293.562795651
101299.1772274558
101305.5941281072
101311.9612902834
101319.5148510685
101327.5824809492
101335.7314073587
101344.3540634559
101352.7476748155
101360.9464604089
101369.0872800974
101374.7791845429
101378.3422661931
101381.2514181354
101382.1397633201
101382.4024730855
101382.0201315539
101380.8543031106
101378.6039448517
101376.7351692752
101373.6096523733
101369.0871161022
101365.4601212453
101360.1098326668
101354.4735412213
101348.3199041171
101341.1085685352
101334.3279505545
101326.4809782711
101318.0221246945
101310.1597124239
101301.7723254087
101292.9644793575
101287.0475151776
101279.2533565782
101276.9631215339
101274.5779061169
101273.0986021627
101273.0873535512
101273.6466406875
101274.7649529163
101275.6613070478
101278.0077314367
101280.6250574672
101283.6865704108
101287.9585419012
101292.1431319258
101296.6809362412
101302.9459863094
101309.3989611741
101315.73984448
101323.6297512986
101331.8659634885
101339.6406617084
101348.3146706109
101356.6907596813
101364.1110770059
101372.1987694906
101376.5927721392
101379.2034116287
101381.8144648977
101382.3637328157
101381.6753473238
101381.0384337623
101379.630039911
101376.8697965222
101374.3185484576
101371.0487875805
101366.1517896899
101361.7833693026
101356.3837863723
101350.0967500752
101343.6867693272
101336.8790769741
101329.2305606888
101321.2484258266
101313.1953559395
101304.9238132255
101296.8628626147
101289.2914665946
101281.4521172255
101277.3033627681
101274.3963669752
101272.9786567953
101272.0811806421
101272.7239291417
101273.2587408058
101274.8369518905
101276.3574681321
101278.8222941719
101282.2191819518
101285.5707099464
101289.6409340706
101294.5314892436
101299.6594796241
101305.3119647415
101312.4247236351
101319.5087210925
101326.7037966605
101335.1909038463
101343.4199233428
101350.7508540141
101359.6056286635
101367.2065890922
101373.491765428
101377.1447072327
101379.6270561014
101381.4458508474
101381.3694132515
101380.2431212751
101379.229272314
101377.4455059117
101374.0215596831
101371.0198059104
101367.0141005714
101361.6830023342
101356.9614643703
101350.9275334087
101344.5633240447
101337.762266917
101330.4360249725
101323.2070820772
101315.0491048028
101307.2678200091
101299.0684535948
101291.2172380967
101284.4049139258
101276.9842319915
101274.1379532376
101272.1545469811
101270.7184726341
101270.2435728793
101271.1204250576
101272.702176488
101273.7674132702
101275.9966913224
101279.3668530374
101282.096063019
101286.7371069217
101291.3440551621
101295.712838507
101301.9169262448
101308.1232812576
101314.4608070409
101322.1089402418
101329.838298874
101338.0580917078
101346.3053520946
101354.3809846701
101361.9089146139
101369.8326853013
101374.4359560936
101377.3872850583
101379.913634486
101380.6807935659
101380.134834459
101378.9781889125
101377.5103688899
101375.2638180286
101371.6913759162
101367.999639626
101363.4029095382
101358.0924511482
101352.864582074
101346.5399283432
101339.9046791028
101333.2436038085
101325.7170876488
101317.961879791
101310.3046363495
101302.635732226
101294.7668744723
101287.2903025724
101280.6831623303
101275.5041488769
101272.7036537615
101271.0583211737
101270.2556311951
101270.9543989403
101271.5566193619
101273.6708344042
101275.4989284765
101278.53444044
101282.1250691026
101285.6182964698
101289.9758822567
101294.9785916586
101299.9716335957
101305.5342956152
101312.609332678
101319.195559478
101326.2354972834
101334.215756335
101341.8663007997
101349.5729196119
101358.024917577
101365.0872993195
101371.5131376347
101375.5056841642
101377.9890888172
101379.8956764369
101379.9110203827
101378.9020594275
101377.6786412485
101375.538819659
101372.2380739816
101368.7326664139
101364.316942575
101358.9510071714
101353.7996769468
101347.7573705185
101341.0544032713
101334.4489590129
101327.38556857
101319.8112122299
101312.0593715946
101304.3963199429
101296.4625146958
101288.7629178818
101282.3145758765
101275.3356452592
101272.3233014939
101269.7722553225
101268.2970487022
101268.2053372463
101269.3016800938
101271.076301867
101272.4616368024
101274.9528628827
101278.6180492678
101281.8012109959
101286.2136420011
101291.1491076141
101295.5645499221
101301.5178372717
101307.6742639984
101313.8267206462
101321.3271980604
101328.4417918758
101336.0839157655
101344.4714959198
101351.5678279392
101359.5087064425
101366.6087812837
101371.6876499389
101375.0988600706
101378.0321963182
101378.5790935417
101378.1221233967
101377.3366074591
101375.7423831386
101372.4862186081
101369.1301251221
101365.3140316434
101359.5999355471
101354.7232083345
101348.9230896081
101342.0340820944
101335.7610389864
101328.8104041513
101320.7562393978
101313.6937196303
101305.7421325455
101297.9601049993
101290.693174767
101283.6285631377
101276.9510692263
101271.9639821218
101269.4611800148
101267.1021175243
101266.7417820336
101267.1253298468
101268.0259958437
101270.3776364384
101272.1868501908
101275.2193839311
101279.205936577
101282.387165258
101287.5344005261
101292.6849175806
101297.2951123783
101303.1759752123
101309.9725274038
101316.328029624
101323.0952939118
101330.8252272418
101338.2163215552
101345.6236531283
101353.5962454574
101361.5139970761
101366.8665999816
101371.6630064057
101374.6752715747
101376.7296525908
101376.9294051867
101376.303740169
101374.7767940159
101372.8245270653
101369.1165102944
101365.5612684674
101360.5112383858
101354.7656712318
101349.3488403284
101342.631505375
101336.1523627617
101329.1203358299
101321.7993001276
101314.7459948148
101306.6016665671
101299.3585026358
101292.1075568952
101284.0455323613
101278.1942582078
101271.5695662644
101268.6093574578
101266.040412671
101263.9940259829
101264.3341319207
101264.8799544067
101267.099004112
101268.8761034323
101271.4313926228
101275.3460481712
101278.9287348738
101283.4519586348
101288.4445796941
101293.1540972131
101299.0376155741
101304.9547801779
101311.0201370306
101318.107619765
101324.9023320009
101332.323860391
101340.0856050576
101346.9362823203
101354.5251758604
101361.2699083027
101366.7510383545
101370.5759701125
101373.8650632931
101374.7391698454
101374.8477570886
101374.041862151
101372.091555434
101369.2065189067
101365.4987818689
101360.9373799304
101355.4401940045
101349.6959957619
101343.1926460093
101336.317907654
101329.3711307801
101322.3573986125
101314.5879565347
101307.106105592
101299.9292631848
101291.5462807011
101284.8585121963
101278.2261326417
101271.345432698
101266.7848935168
101264.3324233675
101261.5110374782
101261.0141033015
101261.3365459205
101262.2999263399
101264.9747266969
101267.2699824619
101270.6930682653
101274.7148435755
101277.9638720151
101283.5918846655
101288.5259506836
101293.1568593932
101299.6081283074
101305.3887839227
101311.5297253366
101318.2376601805
101325.378841231
101332.8264280309
101339.8967423324
101347.1129609463
101354.6494029145
101360.2375303814
101365.260592785
101369.0338521958
101371.0778251322
101371.9195772275
101371.6586164492
101370.3315865647
101367.8881513576
101364.8933546704
101360.1350651255
101355.0652716114
101349.5165415282
101342.3244953689
101335.9443558506
101329.4681260899
101321.4765879239
101314.110265059
101307.1685246795
101299.4108976334
101292.1217345527
101285.3215103317
101277.6458646741
101271.615074557
101266.0979706859
101262.0279937393
101259.778797684
101257.8318899072
101257.5893340073
101258.2035831933
101260.013747977
101262.6867830216
101265.5035482384
101269.3721894388
101273.5631158068
101277.9143749795
101283.4989020656
101288.5603878523
101293.9023851715
101300.0692995177
101305.9696472333
101312.0780886778
101319.1274091378
101326.2526978594
101332.7690534999
101340.3455377342
101347.3663508312
101353.8861499677
101359.2574580788
101363.4469466414
101366.6305873607
101368.1437781199
101368.436360883
101367.5041378752
101365.9655930314
101363.4708938344
101358.590317202
101353.971432395
101349.2306883259
101341.9992832469
101335.5201802849
101329.0817348209
101321.3233972094
101314.0237539917
101306.68205692
101299.4870593143
101292.3443911158
101284.8980182214
101278.785213163
101272.4715973535
101266.2058440884
101262.5702699453
101259.0775898612
101257.1350618205
101255.5951393571
101255.7031451434
101257.2674661486
101259.3336004614
101261.5780365778
101265.9252289401
101270.1227102648
101274.1552930621
101279.9087294628
101285.3905288045
101290.098443642
101296.5302760576
101302.4050518952
101307.8260553628
101314.3337853551
101320.9365699902
101327.3731164742
101334.3926739402
101341.1583666975
101347.9881921017
101353.4947976266
101358.6571022583
101362.6072116776
101364.7831756919
101366.0220856064
101366.2190672705
101365.4472542739
101363.0763864024
101359.4539138351
101355.6072335403
101349.4946521648
101343.373445558
101337.0123087297
101329.2358878793
101322.3039367242
101314.4532820032
101306.4138751776
101299.3977975279
101291.4285721147
101284.5796481166
101278.0840095941
101271.2957534847
101264.9729616319
101260.9972662565
101256.8367301674
101254.1510198466
101252.8417598415
101251.5206915845
101252.8512082345
101254.0422279522
101256.5734091271
101259.54598168
101263.5982912776
101268.118812399
101273.276453964
101278.9445700776
101284.7939426227
101290.6406905684
101296.5918689246
101302.3815457472
101308.7823313229
101314.9626067458
101321.1327774793
101327.4703950927
101334.1547421537
101340.9539667623
101346.1923730156
101351.9897122926
101355.9388924481
101359.430005226
101361.4758954237
101362.074577174
101361.896720243
101360.5218144326
101357.4953670787
101353.4936828907
101349.1381500263
101342.8088674167
101335.996942718
101329.3987378947
101321.939426816
101314.1772397501
101306.4194812658
101298.9886515685
101291.7372276438
101284.608372762
101277.8812845132
101271.1911362338
101265.7182017107
101259.8326003415
101256.8996870939
101253.0480235833
101251.6684776032
101250.060605694
101249.9631472231
101251.3632727092
101253.3915910843
101255.5974043
101259.0580881011
101263.5300234139
101268.0153588808
101273.4701824737
101280.1004702486
101285.7956789679
101291.9537326987
101298.6362985803
101304.3480883332
101310.5710099952
101316.5217284202
101322.4550890933
101328.3754635494
101334.0343805285
101340.0340450991
101345.1497697278
101349.8307759372
101353.7862932093
101356.8146119763
101358.6052018605
101359.4347073366
101358.6760629337
101357.0575627563
101353.8438023099
101348.6281241112
101343.8996103057
101336.9416422342
101328.817540624
101322.3057340604
101313.7389604018
101305.2511200352
101297.7641922783
101289.7213676393
101282.077316841
101275.3684138864
101268.4470100727
101262.3622637519
101256.5509623513
101252.8689859449
101249.5098585897
101246.9766042448
101245.3534555836
101245.0214177775
101246.0749707439
101247.1697317108
101249.232693544
101252.4974061515
101255.9560545252
101260.2880871484
101265.8972542682
101271.4422920519
101277.2784653885
101283.8565926544
101290.6104623024
101296.6828804296
101303.4822576635
101309.8087875807
101315.2083141267
101321.1824515212
101326.9909925638
101331.3222234498
101336.9770567
101340.5777303228
101344.8225307763
101348.2468020271
101350.6165836325
101352.5340690563
101353.0797999665
101351.965705877
101349.4510601792
101346.0558610735
101340.8156262068
101334.083269948
101327.0496079327
101319.2818810524
101311.7005000706
101303.5370457096
101295.2536827479
101287.7492166258
101280.4458087118
101273.0099336231
101266.7972915298
101260.7034988271
101255.041423344
101250.3497920906
101246.8263758456
101244.4121745693
101241.9273368667
101240.9764391358
101241.3301582786
101242.1882351361
101244.3328026981
101246.8283815196
101249.7574241185
101254.3133263083
101259.0116497136
101263.9104490587
101270.4322715935
101276.7350222389
101282.766229769
101289.7555367316
101296.6079199761
101302.6910681208
101309.468945683
101315.3055928139
101320.7656338812
101326.0899094547
101330.9495314813
101334.4848249113
101337.5066873863
101340.3751400879
101342.7599281725
101344.3445875713
101345.778451628
101345.9676749307
101344.7400391209
101342.9055548306
101338.6908892215
101332.142459849
101325.8289936663
101317.9602299427
101309.3621363312
101302.3277680489
101294.0949115924
101286.0250134857
101279.6754406791
101272.4171022717
101265.6875548005
101260.1584684557
101254.0557407529
101249.1041981892
101246.0601188604
101242.8431183697
101240.6892202159
101239.1912851995
101239.0016819424
101240.1950094965
101240.8750527155
101243.5179702398
101246.9523494794
101249.6622392542
101254.5551823591
101260.4044832781
101264.9574528809
101270.8358982484
101279.399348028
101283.6421631459
101290.6572067122
101300.8743841722
)
;

boundaryField
{
    inlet
    {
        type            uniformFixedValue;
        uniformValue    sine;
        uniformValueCoeffs
        {
            frequency       constant 3000;
            scale           constant 50;
            level           constant 101325;
        }
        value           uniform 101312.8819131453;
    }
    outlet
    {
        type            waveTransmissive;
        gamma           1.4;
        fieldInf        101325;
        lInf            2.25;
        value           uniform 101302.4444471636;
    }
    frontAndBack
    {
        type            empty;
    }
}


// ************************************************************************* //
