/*--------------------------------*- C++ -*----------------------------------*\
| =========                 |                                                 |
| \\      /  F ield         | OpenFOAM: The Open Source CFD Toolbox           |
|  \\    /   O peration     | Version:  v2012                                 |
|   \\  /    A nd           | Website:  www.openfoam.com                      |
|    \\/     M anipulation  |                                                 |
\*---------------------------------------------------------------------------*/
FoamFile
{
    version     2.0;
    format      ascii;
    class       volScalarField;
    location    "0.014";
    object      pMean;
}
// * * * * * * * * * * * * * * * * * * * * * * * * * * * * * * * * * * * * * //

dimensions      [1 -1 -2 0 0 0 0];


internalField   nonuniform List<scalar> 
1000
(
101325.0342362307
101325.0187358159
101325.0089189144
101325.0246835072
101325.0370895016
101325.0539167829
101325.0660021573
101325.1008730161
101325.1054762268
101325.1426401673
101325.1652202701
101325.1889070348
101325.2102059759
101325.2514073585
101325.2622744269
101325.2772446882
101325.3187033352
101325.3359810639
101325.3331193622
101325.3546716775
101325.3782460262
101325.3802294397
101325.3630302783
101325.3838759074
101325.3876011849
101325.3678694439
101325.3436138388
101325.3559920831
101325.3412822701
101325.2964526517
101325.2894295654
101325.283456495
101325.2377666269
101325.2051720908
101325.2133460812
101325.174755713
101325.1329053731
101325.1324017968
101325.1175019972
101325.0755193569
101325.0632993639
101325.0579139925
101325.0382268891
101325.024800486
101325.0138562654
101325.0183346624
101325.0177132169
101325.0049093664
101325.0205303976
101325.0359042936
101325.0302220135
101325.0492986389
101325.0758821144
101325.074854096
101325.1009769993
101325.1309508305
101325.1376293851
101325.1572570646
101325.1881664956
101325.1928109791
101325.2115645142
101325.2352329528
101325.2402046048
101325.2488205216
101325.2767100107
101325.2752036891
101325.2715245093
101325.2895008717
101325.2937778191
101325.276197187
101325.2753851988
101325.2792598187
101325.2592763482
101325.2444669623
101325.2392213557
101325.2197145733
101325.196381312
101325.1840265541
101325.1641943656
101325.1391295595
101325.1205822367
101325.1092744831
101325.0838634761
101325.0676538195
101325.0552170744
101325.0403254144
101325.0250420184
101325.013855954
101325.0056113907
101324.9967775439
101324.9953982202
101324.987146854
101324.9908231071
101325.0000811152
101325.0021178561
101325.0105964489
101325.0279085629
101325.043571757
101325.0560102957
101325.0816644221
101325.0975727269
101325.1199167187
101325.1487644086
101325.1616631074
101325.1791192988
101325.2120698152
101325.2245101468
101325.2294378722
101325.2607490456
101325.2707956883
101325.2725429605
101325.2926387762
101325.3039470733
101325.2915707264
101325.3070732158
101325.3155971149
101325.2935391543
101325.2959709559
101325.3002834022
101325.2715064995
101325.2573019899
101325.2615638726
101325.2262312783
101325.2064179788
101325.2041463683
101325.1723915709
101325.1454568531
101325.1459197221
101325.1176279265
101325.0899233109
101325.095902278
101325.0722210065
101325.0468019236
101325.0523023521
101325.0443179754
101325.0162902775
101325.0245929234
101325.0313401595
101325.0055869876
101325.0196859151
101325.0411170533
101325.025526505
101325.0375758452
101325.0778771312
101325.0727788069
101325.087695739
101325.1296071388
101325.1365951417
101325.1556498023
101325.1922685426
101325.2031299102
101325.2179035053
101325.253199072
101325.2585532794
101325.2686769659
101325.3000337006
101325.3037857582
101325.3042671788
101325.3294002123
101325.3324138716
101325.3201745416
101325.3405041974
101325.342753833
101325.3171799331
101325.3268625264
101325.3232906865
101325.2927790657
101325.284920262
101325.2827391623
101325.2484702428
101325.2275643804
101325.2257752718
101325.1905659166
101325.1711175203
101325.166274343
101325.1387361938
101325.1170649363
101325.1222116781
101325.0949322326
101325.0762782807
101325.0857435722
101325.0650936331
101325.0520694493
101325.0640204832
101325.0546190932
101325.0450281955
101325.0664342971
101325.0677122207
101325.0625462943
101325.0968791957
101325.1061232073
101325.1134520757
101325.1423676391
101325.1722535965
101325.1787054387
101325.2092588094
101325.2358149342
101325.2479252237
101325.2662121457
101325.2947092724
101325.302547712
101325.3133984723
101325.3361095438
101325.3443422417
101325.3502536065
101325.3575225598
101325.3661856531
101325.3700688918
101325.3671031404
101325.3652428131
101325.36661803
101325.3522094515
101325.3433019939
101325.3347730588
101325.3175986931
101325.294047906
101325.284125053
101325.2645973824
101325.2360155017
101325.2243222702
101325.2124525818
101325.1823749313
101325.1725086655
101325.1613742966
101325.1454649065
101325.1277875024
101325.1255820825
101325.1150808787
101325.1057054798
101325.0994201453
101325.1028961386
101325.0967756107
101325.1019455479
101325.1099880558
101325.1111050494
101325.129189406
101325.1404114638
101325.1548426113
101325.1783563468
101325.201039914
101325.2183034592
101325.2460814164
101325.2659378293
101325.2860074891
101325.3082650794
101325.3233903852
101325.3447140301
101325.3537002768
101325.3707484737
101325.3828473295
101325.3904134183
101325.3963849846
101325.408445599
101325.405900518
101325.408925618
101325.4103587312
101325.4082830953
101325.3947450894
101325.3942713897
101325.3819005425
101325.3631892825
101325.3493991589
101325.3352958276
101325.3087150692
101325.2907935527
101325.277111841
101325.2565065233
101325.2326458913
101325.2239742943
101325.2091786206
101325.1900437141
101325.1785894598
101325.1734235765
101325.1616597005
101325.1502521402
101325.1501968917
101325.1456916
101325.1479052631
101325.1395668822
101325.1575923342
101325.1571194898
101325.1630485071
101325.1852164391
101325.1962878299
101325.2123571867
101325.2350324755
101325.2628531432
101325.2768808452
101325.305604149
101325.329228588
101325.3459025297
101325.3649012339
101325.3833177651
101325.3994814755
101325.4116877579
101325.4279288145
101325.4346886794
101325.4452616554
101325.4466812573
101325.4567959552
101325.4579041448
101325.4536449705
101325.4575923875
101325.4528602985
101325.4402110976
101325.4338756448
101325.4247632646
101325.4024589423
101325.3901939598
101325.3714475996
101325.352368518
101325.3321524164
101325.3143485963
101325.2965219639
101325.2806243455
101325.2641539114
101325.2476225922
101325.2399639555
101325.2257139679
101325.2169851217
101325.2089935494
101325.2037822182
101325.196838053
101325.1968118964
101325.1986963926
101325.2017148959
101325.2036489426
101325.2147436966
101325.2260110824
101325.2365073108
101325.2551368585
101325.2739762604
101325.2982404448
101325.315428311
101325.3420247117
101325.3641343112
101325.3811023586
101325.4074136865
101325.4228521826
101325.4328344544
101325.4560924713
101325.4680206714
101325.4706224196
101325.4846270925
101325.4942194894
101325.4887550394
101325.4992170379
101325.5010244652
101325.4946146798
101325.4930651076
101325.4900667129
101325.477860588
101325.4641247964
101325.4552571541
101325.4387734857
101325.4205370644
101325.3961726369
101325.3871658901
101325.3625320086
101325.3395486901
101325.3328544584
101325.3102000909
101325.2967883735
101325.282181292
101325.2751028869
101325.259572575
101325.2554550579
101325.2453155936
101325.2438475985
101325.238463485
101325.2394555878
101325.2423609703
101325.245228018
101325.2507920761
101325.2596900992
101325.2773142792
101325.2833624148
101325.3067404777
101325.324356896
101325.3454217196
101325.3695691377
101325.3877671352
101325.4146279011
101325.4309927883
101325.447871452
101325.4654315681
101325.4816596042
101325.4902965596
101325.5044165146
101325.5135473016
101325.5169319645
101325.5223325421
101325.523243815
101325.528444785
101325.5232239479
101325.5190423271
101325.5174082489
101325.5056519728
101325.4955893808
101325.4863947099
101325.464498949
101325.4513560611
101325.4373410341
101325.408897272
101325.392476301
101325.3802440939
101325.3547550141
101325.3367748141
101325.3286961945
101325.3084422148
101325.292849887
101325.2897444708
101325.2763547937
101325.2675102652
101325.2594603747
101325.2622055946
101325.2567740325
101325.2542983094
101325.2635876209
101325.264151817
101325.2721541981
101325.2838039702
101325.2949269976
101325.3053630467
101325.329470067
101325.348127693
101325.3645631911
101325.3893448927
101325.4106126462
101325.4254067997
101325.4484439861
101325.4637043669
101325.4723717004
101325.4920042283
101325.5004397776
101325.5061018514
101325.5151885784
101325.5147749042
101325.5221372445
101325.5199910915
101325.5149660625
101325.5162338869
101325.5089494799
101325.4982137288
101325.4927893123
101325.4783359979
101325.4610780367
101325.4479305096
101325.431083451
101325.4084530344
101325.3889982343
101325.3722079296
101325.3538159117
101325.3350288516
101325.3153143882
101325.3054167702
101325.29293055
101325.2718342497
101325.2698230784
101325.2643688828
101325.2466397564
101325.2447192257
101325.2538554987
101325.2384347777
101325.2463051466
101325.2507279298
101325.2602368844
101325.2611818874
101325.2790738557
101325.289882911
101325.3031709603
101325.3254767713
101325.3425198631
101325.3648695397
101325.3844208142
101325.4054392385
101325.4245381162
101325.4419329863
101325.4546137652
101325.4680242171
101325.4841857549
101325.4911079072
101325.4953884169
101325.5041801174
101325.5045494929
101325.5032037967
101325.5055748506
101325.498546974
101325.4942101009
101325.4910733434
101325.4759363638
101325.4672565124
101325.4542397759
101325.4364950636
101325.4214524467
101325.4016512186
101325.3806792443
101325.3641984841
101325.3460432138
101325.3259095664
101325.3092958199
101325.2930840589
101325.2776528158
101325.2650425481
101325.2544171894
101325.2447089751
101325.2357628389
101325.2307255332
101325.2266180725
101325.2243833889
101325.2221434932
101325.2297371226
101325.2355415434
101325.236825909
101325.2493249872
101325.2600436216
101325.2733449064
101325.2888835444
101325.3050003904
101325.3231906846
101325.3488456903
101325.3615872082
101325.3808663328
101325.3999652715
101325.4155382704
101325.4244711221
101325.4348845379
101325.4491092846
101325.4538947202
101325.4554626033
101325.4570774477
101325.4619283602
101325.4549112144
101325.4493849294
101325.4504648596
101325.4386002892
101325.4234644793
101325.4258105263
101325.4028756855
101325.3790171769
101325.3770776652
101325.3546726323
101325.3238007803
101325.3164078601
101325.29478238
101325.2706912621
101325.2640059839
101325.2360934822
101325.2198002047
101325.2167351283
101325.1938409485
101325.1831726582
101325.1858163859
101325.1649177038
101325.1615885708
101325.1674373373
101325.1608136394
101325.1545997327
101325.1707774673
101325.1775030874
101325.1698382881
101325.1896863521
101325.2049607851
101325.2041117633
101325.2276493899
101325.2482137132
101325.2607142201
101325.2772884642
101325.3025232728
101325.315846869
101325.3243215807
101325.3428161351
101325.3577207414
101325.356135767
101325.3673019765
101325.3800586774
101325.3713622488
101325.3672508411
101325.3793095627
101325.3628350015
101325.3569761568
101325.3532712994
101325.345113637
101325.3234587164
101325.3142179813
101325.305787472
101325.2749507138
101325.2635923989
101325.2479158442
101325.2187449164
101325.2020650931
101325.1923714336
101325.1638977487
101325.1445464441
101325.1310913326
101325.1161380431
101325.0989857138
101325.0918277242
101325.0788911609
101325.0669284643
101325.0637163921
101325.0559436479
101325.0527748022
101325.0540039617
101325.0564603891
101325.059950026
101325.064378857
101325.0725285421
101325.0813804382
101325.0907220769
101325.1030232082
101325.121887892
101325.1349454071
101325.1461444116
101325.1729495267
101325.1852798204
101325.1958529973
101325.2063651673
101325.2241920057
101325.2271749021
101325.2322619174
101325.2468536231
101325.2377641511
101325.2365162895
101325.2401366017
101325.2321139439
101325.2148300019
101325.2237926318
101325.2039977709
101325.1852270537
101325.185683178
101325.156800419
101325.1379591068
101325.1293517405
101325.1005821293
101325.0781508006
101325.0678587064
101325.0392600999
101325.0192882254
101325.0062310566
101324.9875742253
101324.9649476061
101324.947156889
101324.9421692771
101324.9303914639
101324.911276974
101324.903977035
101324.9045456678
101324.8906622714
101324.8865336487
101324.8994515616
101324.8920396528
101324.8950121534
101324.9067461742
101324.9062557698
101324.9139616331
101324.9313615976
101324.9368574176
101324.95219718
101324.96598252
101324.9767811026
101324.9990904324
101325.0066569875
101325.0133256144
101325.0294516773
101325.0362887371
101325.036835546
101325.0463950188
101325.0476282603
101325.0412643191
101325.0389356132
101325.0327621941
101325.0234834892
101325.0107373072
101325.0084611859
101324.9851143474
101324.971088121
101324.9559498306
101324.9332022583
101324.9126617519
101324.8920935076
101324.8763735145
101324.8445179556
101324.8296458333
101324.8123632084
101324.7829034284
101324.7665266444
101324.7539626177
101324.7294053568
101324.7101358573
101324.7101862723
101324.6866515077
101324.671562018
101324.6731080385
101324.6621356863
101324.6456781045
101324.6570272889
101324.6546663188
101324.6501277975
101324.6597513121
101324.6644741887
101324.6616285724
101324.6762770198
101324.6845532679
101324.6913190686
101324.7053148538
101324.7199010017
101324.7284744226
101324.7394771295
101324.7487366784
101324.7597411397
101324.7677564267
101324.763069428
101324.7733125265
101324.7804897693
101324.7676067873
101324.7601999075
101324.7649703319
101324.7477171059
101324.7283374859
101324.7286427983
101324.7136390484
101324.6857367214
101324.6737834779
101324.66032187
101324.6211938706
101324.6024212925
101324.5955254971
101324.555990863
101324.5325010896
101324.5263021499
101324.4925405863
101324.4645931373
101324.4611645024
101324.4342875062
101324.4045665982
101324.4075752917
101324.3887912511
101324.3596568381
101324.3633353623
101324.3552564938
101324.3275506082
101324.3396853489
101324.3384950452
101324.3260884155
101324.3368992171
101324.3399838563
101324.3377782054
101324.3447571375
101324.3556899977
101324.3547350784
101324.3719384485
101324.3852670645
101324.3892824181
101324.3987526876
101324.4173538947
101324.4154439889
101324.4223487133
101324.4295669805
101324.4340099768
101324.4287678673
101324.4349041032
101324.4221545779
101324.4180777239
101324.4094236202
101324.3958449556
101324.3782656476
101324.3738821656
101324.3503717705
101324.3302571749
101324.3098170119
101324.2889990114
101324.260698146
101324.2382763296
101324.214119876
101324.1895091049
101324.1707134324
101324.1461061852
101324.1181716954
101324.1091967868
101324.079938385
101324.0622446974
101324.0449300524
101324.0322902684
101324.0136532153
101324.0025317484
101323.9854189326
101323.9789346563
101323.9701421153
101323.9646360637
101323.9615336952
101323.9641381049
101323.9592696782
101323.9697079026
101323.9642222558
101323.9684354748
101323.9765484943
101323.9821209678
101323.9874490618
101324.0026065031
101324.0059283836
101324.0119194825
101324.0187726511
101324.0306589022
101324.0188621186
101324.0288196658
101324.0333169442
101324.0187942147
101324.0216411344
101324.0121576846
101323.9979155606
101323.981715605
101323.977892645
101323.9551634798
101323.9313971511
101323.9223748685
101323.8935234348
101323.8717129045
101323.8414391692
101323.8168566542
101323.7913854536
101323.7647507697
101323.7349914948
101323.7209370458
101323.695988803
101323.6622172889
101323.6481191159
101323.6353135601
101323.59877311
101323.5844912579
101323.5819653327
101323.5511332731
101323.5347799252
101323.536586324
101323.513402388
101323.5016142463
101323.513499105
101323.4988723603
101323.4964292449
101323.5023780215
101323.5060470794
101323.497622487
101323.5027129104
101323.5155880424
101323.5145274325
101323.5159472712
101323.533519618
101323.5408257343
101323.5332878361
101323.5478129111
101323.5457400197
101323.544244927
101323.5429404685
101323.544599155
101323.5312507494
101323.5321160413
101323.5118976845
101323.502017906
101323.48205987
101323.4788528698
101323.4454557659
101323.4352505678
101323.4129180479
101323.3821772903
101323.3555725699
101323.3300327595
101323.3034028664
101323.2668683361
101323.2464277803
101323.2208872972
101323.1958262223
101323.1702389815
101323.1498751382
101323.1276458072
101323.0987514851
101323.0867961388
101323.0676359488
101323.0439859194
101323.0318385696
101323.0199951798
101322.9993120276
101322.9834855702
101322.9861411075
101322.9740632575
101322.9693968508
101322.9722339074
101322.9659648804
101322.9565502301
101322.9709820141
101322.9618250497
101322.9668070297
101322.9678644301
101322.970974327
101322.9779026287
101322.9843034823
101322.9768558016
101322.978264353
101322.9831034475
101322.9716321918
101322.9655760696
101322.9642167567
101322.9492892519
101322.9360866616
101322.9248200664
101322.9024972371
101322.8772318985
101322.8768671158
101322.845008176
101322.8178760573
101322.7962939555
101322.7693293391
101322.7268492222
101322.7071963624
101322.6808440631
101322.6267176243
101322.6135382548
101322.5881328712
101322.5524750145
101322.5277534001
101322.5132906737
101322.4677960389
101322.4621452054
101322.4426702168
101322.4045681872
101322.3957242688
101322.3846038858
101322.3489162751
101322.3426577458
101322.3347548357
101322.3119786397
101322.3128441186
101322.3187687312
101322.2948043062
101322.2943649452
101322.3003170306
101322.2903742291
101322.2934374334
101322.2928211234
101322.2907184486
101322.2902647455
101322.2962519273
101322.2963334694
101322.2875368587
101322.2846976802
101322.2870972722
101322.2709551014
101322.2646239559
101322.2548817795
101322.2368076077
101322.2196796181
101322.2081660798
101322.1769333854
101322.1503121024
101322.1514823363
101322.1125393877
101322.0864490382
101322.053009905
101322.0275615591
101321.9877539754
101321.9602228435
101321.9272023253
101321.8847660521
101321.8613144834
101321.8261720151
101321.7996129061
101321.7684400483
101321.7439633536
101321.7186891931
101321.689285157
101321.6669611784
101321.654881268
101321.6183583851
101321.5991870169
101321.5916274674
101321.5665733499
101321.5404360233
101321.5569697047
101321.5425197021
101321.5240082178
101321.5269717851
101321.5200903923
101321.5079115638
101321.5159156436
101321.5086161765
101321.508408651
101321.5158474889
101321.4953467646
101321.5060341768
101321.5154115929
101321.4845084362
101321.4913168524
101321.4843117677
101321.4727603039
101321.4826084347
101321.4101662895
101321.4396962505
101321.4370035203
101321.3380340609
101321.3576486545
101321.3521328012
)
;

boundaryField
{
    inlet
    {
        type            calculated;
        value           uniform 101325.0025234012;
    }
    outlet
    {
        type            calculated;
        value           uniform 101321.3599622604;
    }
    frontAndBack
    {
        type            empty;
    }
}


// ************************************************************************* //
