/*--------------------------------*- C++ -*----------------------------------*\
| =========                 |                                                 |
| \\      /  F ield         | OpenFOAM: The Open Source CFD Toolbox           |
|  \\    /   O peration     | Version:  v2012                                 |
|   \\  /    A nd           | Website:  www.openfoam.com                      |
|    \\/     M anipulation  |                                                 |
\*---------------------------------------------------------------------------*/
FoamFile
{
    version     2.0;
    format      ascii;
    class       volVectorField;
    location    "0.014";
    object      UMean;
}
// * * * * * * * * * * * * * * * * * * * * * * * * * * * * * * * * * * * * * //

dimensions      [0 1 -1 0 0 0 0];


internalField   nonuniform List<vector> 
1000
(
(-2.886516284017699e-05 0 0)
(1.40153423231973e-05 0 0)
(2.067185147013428e-05 0 0)
(4.640806029627514e-05 0 0)
(8.927818003790339e-05 0 0)
(0.0001168623226855723 0 0)
(0.0001523425278579616 0 0)
(0.0002403090011097137 0 0)
(0.0002572560881934946 0 0)
(0.0003256338568967446 0 0)
(0.0004041535280443772 0 0)
(0.000445699049040543 0 0)
(0.0005028238786224381 0 0)
(0.0006018124724323214 0 0)
(0.0006223256187449751 0 0)
(0.0006592489095122896 0 0)
(0.0007683763698444682 0 0)
(0.0007993524736518925 0 0)
(0.0007963731726567424 0 0)
(0.0008540095947487873 0 0)
(0.0009055944399743095 0 0)
(0.0009140036146962162 0 0)
(0.0008775153956883621 0 0)
(0.0009301037841984428 0 0)
(0.0009393301282952303 0 0)
(0.000896185127679968 0 0)
(0.0008407117754512907 0 0)
(0.00087222392710747 0 0)
(0.0008416012895427724 0 0)
(0.0007272746050942226 0 0)
(0.0007164712816203789 0 0)
(0.0006983299841525148 0 0)
(0.0005804459552856589 0 0)
(0.0005059112869201578 0 0)
(0.0005158370376012689 0 0)
(0.0004171743017519478 0 0)
(0.0003110529461048582 0 0)
(0.0003059638747610876 0 0)
(0.0002566061443160839 0 0)
(0.0001549476635478752 0 0)
(0.0001149069321932111 0 0)
(9.962518038546924e-05 0 0)
(4.407445335518491e-05 0 0)
(6.604095100227555e-06 0 0)
(-2.086647801353141e-05 0 0)
(-1.048004687009459e-05 0 0)
(-2.051423586490315e-05 0 0)
(-4.302501211318962e-05 0 0)
(-6.452397779816896e-06 0 0)
(3.407137658409611e-05 0 0)
(3.220212700662039e-05 0 0)
(8.563023630974196e-05 0 0)
(0.0001568128583317647 0 0)
(0.0001807024849287227 0 0)
(0.0002545791221842797 0 0)
(0.0003470681841945876 0 0)
(0.0003946757580453142 0 0)
(0.0004652968170170385 0 0)
(0.000569672265787944 0 0)
(0.0006127518466404501 0 0)
(0.000694709680758467 0 0)
(0.0007845998607547434 0 0)
(0.000830290472825076 0 0)
(0.0008875418274200369 0 0)
(0.0009945270065292975 0 0)
(0.001015694764346272 0 0)
(0.001042525284635906 0 0)
(0.001118308578129051 0 0)
(0.001149286924090932 0 0)
(0.001127234494544025 0 0)
(0.001151888505214205 0 0)
(0.001165311100768831 0 0)
(0.001132444210394202 0 0)
(0.001101019921852437 0 0)
(0.001083482635072678 0 0)
(0.001030635707885844 0 0)
(0.0009712652817422309 0 0)
(0.0009207482269154405 0 0)
(0.0008541620452203788 0 0)
(0.000772853646599193 0 0)
(0.0006975834789317319 0 0)
(0.0006434830563974306 0 0)
(0.000550429886291696 0 0)
(0.0004752218718700557 0 0)
(0.0004210801853036717 0 0)
(0.0003435429923123274 0 0)
(0.0002729226822613121 0 0)
(0.0002210613218211523 0 0)
(0.0001598395418985177 0 0)
(0.0001156595698888182 0 0)
(8.794876076822333e-05 0 0)
(3.137001431540581e-05 0 0)
(2.751125128034755e-05 0 0)
(3.133617999564977e-05 0 0)
(9.256221604022676e-06 0 0)
(2.047659511011274e-05 0 0)
(6.123674634245291e-05 0 0)
(8.053768868737865e-05 0 0)
(0.0001149195128131757 0 0)
(0.0001785069790566611 0 0)
(0.0002172092053707333 0 0)
(0.0002869169853743842 0 0)
(0.0003656208617555191 0 0)
(0.0004170029637499472 0 0)
(0.0004789946203276354 0 0)
(0.0005846419281437167 0 0)
(0.000630142050612117 0 0)
(0.0006810912834860296 0 0)
(0.0007884594451926176 0 0)
(0.0008347913448023976 0 0)
(0.00086881667929428 0 0)
(0.0009601447470886719 0 0)
(0.001005464336097176 0 0)
(0.001003728172035194 0 0)
(0.001068883064862238 0 0)
(0.001108578728829344 0 0)
(0.001071875142539985 0 0)
(0.001098693753312657 0 0)
(0.001108564858894415 0 0)
(0.001049866644232795 0 0)
(0.001017387378402341 0 0)
(0.0010171108450416 0 0)
(0.0009279914266638025 0 0)
(0.0008654264284885538 0 0)
(0.0008399135504403156 0 0)
(0.0007395210226525612 0 0)
(0.0006514770863979683 0 0)
(0.0006186257929173264 0 0)
(0.0005262442715605265 0 0)
(0.0004244230440717466 0 0)
(0.0003957884251636421 0 0)
(0.0003202208773414768 0 0)
(0.0002185546946416852 0 0)
(0.0001896053796095844 0 0)
(0.0001476554039332839 0 0)
(5.271380102082257e-05 0 0)
(3.421668927827362e-05 0 0)
(2.640983813599561e-05 0 0)
(-5.063713517955296e-05 0 0)
(-4.928947324575917e-05 0 0)
(-1.759041155141767e-05 0 0)
(-5.316034840131858e-05 0 0)
(-4.927090652246112e-05 0 0)
(3.570370385278948e-05 0 0)
(3.571183956056755e-05 0 0)
(5.748862911637273e-05 0 0)
(0.0001649186664390557 0 0)
(0.0001945319906100905 0 0)
(0.0002473578920528467 0 0)
(0.0003441298046839368 0 0)
(0.0004003705571666384 0 0)
(0.0004441609141072743 0 0)
(0.0005604291633305907 0 0)
(0.000602260084110237 0 0)
(0.0006518176339082904 0 0)
(0.0007511181625811344 0 0)
(0.0007976922672788325 0 0)
(0.0008279714718879945 0 0)
(0.000909528420213828 0 0)
(0.0009504390112106686 0 0)
(0.0009484405880819232 0 0)
(0.001007855515825784 0 0)
(0.001036104724927901 0 0)
(0.0009935775813075204 0 0)
(0.001012627929937173 0 0)
(0.001025448073283428 0 0)
(0.0009505490480189288 0 0)
(0.000918232862401811 0 0)
(0.0009145813120491744 0 0)
(0.0008117397728864239 0 0)
(0.0007504098459854207 0 0)
(0.0007169830040987421 0 0)
(0.0006111962370936549 0 0)
(0.0005374232994135421 0 0)
(0.0004906888180418995 0 0)
(0.0003939450558785838 0 0)
(0.0003131452004989511 0 0)
(0.0002785114076293375 0 0)
(0.0001913605068978963 0 0)
(0.0001123941975729669 0 0)
(8.490010704626721e-05 0 0)
(2.787590408771168e-05 0 0)
(-4.158531239419304e-05 0 0)
(-5.243572731498246e-05 0 0)
(-8.15336126930756e-05 0 0)
(-0.0001343938260904097 0 0)
(-0.0001144870372206079 0 0)
(-0.0001021327153554081 0 0)
(-0.000135957171965337 0 0)
(-8.213320627214849e-05 0 0)
(-3.711340384252817e-05 0 0)
(-3.117226641836437e-05 0 0)
(3.342468427337208e-05 0 0)
(0.0001135147504400791 0 0)
(0.000149902469579322 0 0)
(0.0002158123783262551 0 0)
(0.00030680689542507 0 0)
(0.0003580946104142001 0 0)
(0.0004143275375863086 0 0)
(0.0005105203447157378 0 0)
(0.0005648938773777346 0 0)
(0.0006116582028226126 0 0)
(0.0006957416578714119 0 0)
(0.0007413102819020662 0 0)
(0.0007847977666826661 0 0)
(0.0008344377848435199 0 0)
(0.0008747493754850514 0 0)
(0.0008937413026067457 0 0)
(0.0009169402317474936 0 0)
(0.0009257315168646269 0 0)
(0.0009263004332341977 0 0)
(0.0009205982347562081 0 0)
(0.0008800853728701034 0 0)
(0.000859608755962295 0 0)
(0.0008179581766889676 0 0)
(0.00074632774746528 0 0)
(0.0006947937169278732 0 0)
(0.0006370129172325191 0 0)
(0.0005461558523959547 0 0)
(0.0004781240696195457 0 0)
(0.000414837529774996 0 0)
(0.0003261243821620179 0 0)
(0.0002499873576109357 0 0)
(0.0002000904686738794 0 0)
(0.0001146160081104938 0 0)
(4.829438799249629e-05 0 0)
(5.49537942859486e-06 0 0)
(-5.869831424312401e-05 0 0)
(-0.000114196802543856 0 0)
(-0.0001360827214542957 0 0)
(-0.0001823881609053627 0 0)
(-0.0002147761684768933 0 0)
(-0.0002090815147659161 0 0)
(-0.0002215696977172008 0 0)
(-0.0002254371947574716 0 0)
(-0.0002024427274031743 0 0)
(-0.0001602419595080301 0 0)
(-0.0001432915111037312 0 0)
(-0.0001024407969816733 0 0)
(-1.482877997908703e-05 0 0)
(2.471813452088574e-05 0 0)
(8.267946947575477e-05 0 0)
(0.0001743130406327686 0 0)
(0.0002281779957895449 0 0)
(0.000280982356675463 0 0)
(0.0003790508366322915 0 0)
(0.0004298271802570597 0 0)
(0.0004788019542373434 0 0)
(0.0005697262534241252 0 0)
(0.0006067940174509381 0 0)
(0.0006584069979505672 0 0)
(0.0007090857683097807 0 0)
(0.0007585270007667651 0 0)
(0.0007631997212724442 0 0)
(0.0008008883421950471 0 0)
(0.0008207784017254941 0 0)
(0.0008165055412490123 0 0)
(0.0008088256767646491 0 0)
(0.0007978820761226455 0 0)
(0.0007688872736943781 0 0)
(0.0007188924247553069 0 0)
(0.0006803994496437459 0 0)
(0.0006152795095124053 0 0)
(0.0005551414240728033 0 0)
(0.0004771402331792806 0 0)
(0.0004076461232902807 0 0)
(0.0003379388421862937 0 0)
(0.000252877332058339 0 0)
(0.0001846249142376356 0 0)
(0.0001198202941790107 0 0)
(4.354534400443153e-05 0 0)
(-2.5308854421931e-05 0 0)
(-7.63550932540748e-05 0 0)
(-0.0001370536288218271 0 0)
(-0.0001906190318446541 0 0)
(-0.0002314693531576862 0 0)
(-0.000263484319486908 0 0)
(-0.000300083678019788 0 0)
(-0.0003186057804095419 0 0)
(-0.0003258261205464115 0 0)
(-0.0003236777183409932 0 0)
(-0.0003128010731624021 0 0)
(-0.0002910899689698862 0 0)
(-0.0002683462302645531 0 0)
(-0.0002097971806435818 0 0)
(-0.0001746735461195045 0 0)
(-0.0001032658689774128 0 0)
(-4.562264349728879e-05 0 0)
(2.006618589826127e-05 0 0)
(8.903381014911995e-05 0 0)
(0.0001521517988905195 0 0)
(0.0002205060967123895 0 0)
(0.0002877669549414852 0 0)
(0.0003515471996507969 0 0)
(0.0004100095942435665 0 0)
(0.0004738841689589484 0 0)
(0.000514721370187933 0 0)
(0.0005749550266793128 0 0)
(0.0006070447836670189 0 0)
(0.000641860086541163 0 0)
(0.0006661001585448147 0 0)
(0.0006824733545016136 0 0)
(0.0006900616692604319 0 0)
(0.000688630731471308 0 0)
(0.0006818664116735986 0 0)
(0.0006386731987374571 0 0)
(0.0006250459379218964 0 0)
(0.0005766444586892561 0 0)
(0.0005074989987053385 0 0)
(0.0004507586534576593 0 0)
(0.000392780912496962 0 0)
(0.0003066242856151096 0 0)
(0.0002346907646947132 0 0)
(0.0001676173418684121 0 0)
(7.478504262414255e-05 0 0)
(1.795698827948505e-05 0 0)
(-4.763088081640772e-05 0 0)
(-0.0001291308346176718 0 0)
(-0.0001833383368548826 0 0)
(-0.0002351271256555072 0 0)
(-0.000295196241469719 0 0)
(-0.0003401873475562569 0 0)
(-0.0003684267813565246 0 0)
(-0.0004095557776721654 0 0)
(-0.000429958836709542 0 0)
(-0.0004409656122236851 0 0)
(-0.0004369613952757258 0 0)
(-0.0004375602169363483 0 0)
(-0.0004106707150004102 0 0)
(-0.0003953096108128775 0 0)
(-0.0003497173076957328 0 0)
(-0.0002937337307102261 0 0)
(-0.0002553240505357388 0 0)
(-0.000181288756053581 0 0)
(-0.0001069783190718323 0 0)
(-5.966072809387822e-05 0 0)
(1.776684354838059e-05 0 0)
(0.0001022132039908328 0 0)
(0.0001408403213588789 0 0)
(0.0002080421500236582 0 0)
(0.000292499031242474 0 0)
(0.0003415379903058052 0 0)
(0.0003848688356404036 0 0)
(0.0004392799082376363 0 0)
(0.0004951576148439465 0 0)
(0.0005170931831164325 0 0)
(0.0005467490587407075 0 0)
(0.000574885431921281 0 0)
(0.0005741220394759433 0 0)
(0.0005853646294778324 0 0)
(0.0005881920649272721 0 0)
(0.0005506136135825616 0 0)
(0.0005221356417303088 0 0)
(0.0005001307188139101 0 0)
(0.0004318131034998564 0 0)
(0.0003793635896993065 0 0)
(0.0003219851301576772 0 0)
(0.0002380967577691304 0 0)
(0.0001650679833036192 0 0)
(0.0001031009997897385 0 0)
(1.305076663624952e-05 0 0)
(-5.608276956075871e-05 0 0)
(-0.000117094670365647 0 0)
(-0.0002018205618571025 0 0)
(-0.0002489740750656635 0 0)
(-0.0003056837406257454 0 0)
(-0.000374894410333193 0 0)
(-0.000413484991506313 0 0)
(-0.0004424983475627189 0 0)
(-0.0004908961064637262 0 0)
(-0.0005173812520017513 0 0)
(-0.0005156573857924389 0 0)
(-0.0005426985115663406 0 0)
(-0.0005300463369043424 0 0)
(-0.0005006494163027484 0 0)
(-0.0004928840183005482 0 0)
(-0.0004704940367292599 0 0)
(-0.0003924918846298161 0 0)
(-0.000362438988264551 0 0)
(-0.0003024777794528763 0 0)
(-0.0002165002867234956 0 0)
(-0.0001696887586127752 0 0)
(-9.00792650934585e-05 0 0)
(-2.917373880229088e-05 0 0)
(4.72648843889358e-05 0 0)
(0.0001021037341053919 0 0)
(0.0001755748326849883 0 0)
(0.0002366177640118818 0 0)
(0.0002914248567842483 0 0)
(0.0003420713183906743 0 0)
(0.0003938516179658392 0 0)
(0.0004329194847396433 0 0)
(0.000458245265985136 0 0)
(0.0004915659126194966 0 0)
(0.0004995875054188882 0 0)
(0.0005140739307916413 0 0)
(0.0005092586713946424 0 0)
(0.0004963185696743457 0 0)
(0.0004741478549217214 0 0)
(0.0004353368403438042 0 0)
(0.0004021219947511534 0 0)
(0.0003425156515910383 0 0)
(0.0002792978030051027 0 0)
(0.0002183603376165981 0 0)
(0.000150270455405979 0 0)
(5.616120197399426e-05 0 0)
(9.293706293323259e-06 0 0)
(-7.972690795990771e-05 0 0)
(-0.000151752202778014 0 0)
(-0.0002107267429504688 0 0)
(-0.0002763423247812448 0 0)
(-0.0003364531634865386 0 0)
(-0.0003928451393810438 0 0)
(-0.0004268501035146335 0 0)
(-0.0004810824939897958 0 0)
(-0.0005175196137924383 0 0)
(-0.0005215159334474561 0 0)
(-0.0005597782882900368 0 0)
(-0.00057314890742612 0 0)
(-0.0005441717585299375 0 0)
(-0.0005441440365079168 0 0)
(-0.0005312318971226599 0 0)
(-0.0004914954300711702 0 0)
(-0.0004464619985834313 0 0)
(-0.0004049672700363261 0 0)
(-0.0003409195117332814 0 0)
(-0.0002660858997884173 0 0)
(-0.0002078569749173547 0 0)
(-0.0001400441119620603 0 0)
(-5.416647848856255e-05 0 0)
(1.208112687445088e-06 0 0)
(6.754218597998313e-05 0 0)
(0.0001508360499023943 0 0)
(0.0002106509861153622 0 0)
(0.0002616183622350082 0 0)
(0.0003262886474584428 0 0)
(0.0003790247996147443 0 0)
(0.0004213098526825988 0 0)
(0.0004555775118200651 0 0)
(0.000492529474443376 0 0)
(0.0005051923456963116 0 0)
(0.0005196657667353494 0 0)
(0.0005313952114255407 0 0)
(0.0005169845207579893 0 0)
(0.0004981868605373826 0 0)
(0.0004790018893250668 0 0)
(0.0004424042565062924 0 0)
(0.0003800503500287771 0 0)
(0.0003355314019097519 0 0)
(0.0002832939113174411 0 0)
(0.0001898278343596786 0 0)
(0.0001319938110428395 0 0)
(6.560267670744606e-05 0 0)
(-2.281000293269598e-05 0 0)
(-8.630492908148542e-05 0 0)
(-0.0001468688295006223 0 0)
(-0.0002262189055028656 0 0)
(-0.0002722430958556302 0 0)
(-0.0003341956500014275 0 0)
(-0.0003812192798265539 0 0)
(-0.0004247996927675348 0 0)
(-0.0004554202809174883 0 0)
(-0.0004910054931873227 0 0)
(-0.0005106030260295068 0 0)
(-0.0005183118549697642 0 0)
(-0.0005219975202050179 0 0)
(-0.000512615583083853 0 0)
(-0.0004857534355259701 0 0)
(-0.000471466794175744 0 0)
(-0.0004340872603916397 0 0)
(-0.0003732850250364522 0 0)
(-0.0003262436753134481 0 0)
(-0.0002702491598621891 0 0)
(-0.0001865080912969553 0 0)
(-0.0001302016398059907 0 0)
(-5.663942383769042e-05 0 0)
(2.465781950516316e-05 0 0)
(8.247262154918138e-05 0 0)
(0.0001423028980872804 0 0)
(0.0002237180462436389 0 0)
(0.0002806627417388546 0 0)
(0.0003359618305015255 0 0)
(0.0003896693629172707 0 0)
(0.0004392122114522341 0 0)
(0.0004766880650287755 0 0)
(0.0005068189798636493 0 0)
(0.0005342502245051473 0 0)
(0.000550507329869133 0 0)
(0.0005467101657042776 0 0)
(0.0005552326010143775 0 0)
(0.0005499137357096786 0 0)
(0.0005195697515795615 0 0)
(0.0004805501231680115 0 0)
(0.0004568559049327692 0 0)
(0.0003915794527945909 0 0)
(0.0003261113495819582 0 0)
(0.0002871357605244907 0 0)
(0.0001954487264784297 0 0)
(0.0001305062510360213 0 0)
(5.699031011448516e-05 0 0)
(-2.859029114183064e-06 0 0)
(-9.551567198716518e-05 0 0)
(-0.0001386747453720876 0 0)
(-0.000205699299701799 0 0)
(-0.0002618453731565452 0 0)
(-0.0003199769258059092 0 0)
(-0.0003395941909497566 0 0)
(-0.0004017400438874668 0 0)
(-0.0004245848553763379 0 0)
(-0.0004330588184452112 0 0)
(-0.0004609419623696171 0 0)
(-0.0004653880213647972 0 0)
(-0.0004435660690791606 0 0)
(-0.0004374335681752407 0 0)
(-0.0004162508974925664 0 0)
(-0.00036235934138445 0 0)
(-0.000335132350648036 0 0)
(-0.0002893243434527079 0 0)
(-0.0001936169004190073 0 0)
(-0.0001461080862306732 0 0)
(-8.393721498767804e-05 0 0)
(2.504195001265648e-05 0 0)
(5.831137782632921e-05 0 0)
(0.000141100537779477 0 0)
(0.0002260907122083968 0 0)
(0.0002809320042970444 0 0)
(0.0003401360257118111 0 0)
(0.0004282446854418 0 0)
(0.0004682448982437848 0 0)
(0.000515142657235758 0 0)
(0.0005775235603315754 0 0)
(0.0006115744471171811 0 0)
(0.0006225164048721887 0 0)
(0.0006681259096338779 0 0)
(0.0006638363480739088 0 0)
(0.000671878574611808 0 0)
(0.0006804700131078548 0 0)
(0.0006578174810953998 0 0)
(0.000627797743041036 0 0)
(0.0005984818184808685 0 0)
(0.0005485377970494127 0 0)
(0.0004933547854814283 0 0)
(0.0004498331242980048 0 0)
(0.0003683057065459869 0 0)
(0.0003015279438896831 0 0)
(0.000237978318468612 0 0)
(0.0001626479981461107 0 0)
(9.40298083706667e-05 0 0)
(1.715981776995123e-05 0 0)
(-2.618448022324324e-05 0 0)
(-7.440041206382038e-05 0 0)
(-0.0001566444717598987 0 0)
(-0.0001814495049612721 0 0)
(-0.000206141733792388 0 0)
(-0.000259826293529538 0 0)
(-0.0002780955174880281 0 0)
(-0.0002791111800230323 0 0)
(-0.000302852070428487 0 0)
(-0.0002927602228473027 0 0)
(-0.0002664081237017866 0 0)
(-0.0002425419929731125 0 0)
(-0.0002342148283811282 0 0)
(-0.0001583928885247497 0 0)
(-0.0001118909776694117 0 0)
(-8.297187007103696e-05 0 0)
(2.12678909905511e-05 0 0)
(9.07971807807663e-05 0 0)
(0.0001436927413995174 0 0)
(0.000233602224888121 0 0)
(0.0003198479373196463 0 0)
(0.0003646349180052578 0 0)
(0.000444718143605718 0 0)
(0.0005294459916397399 0 0)
(0.0005822144022625392 0 0)
(0.0006402824912382567 0 0)
(0.000712645202307764 0 0)
(0.000756913035177626 0 0)
(0.0007886835462300349 0 0)
(0.0008431493197042001 0 0)
(0.0008632992937974166 0 0)
(0.0008647869122238832 0 0)
(0.0008879654981834457 0 0)
(0.0009074350153474586 0 0)
(0.000881536509591237 0 0)
(0.0008577446282025302 0 0)
(0.0008454619553430935 0 0)
(0.0008064862721185363 0 0)
(0.0007382946055561233 0 0)
(0.0007007852305884086 0 0)
(0.0006551951656949776 0 0)
(0.0005650659277121535 0 0)
(0.0005021373054013368 0 0)
(0.0004486113169065933 0 0)
(0.0003594889316489818 0 0)
(0.0002950839606747788 0 0)
(0.0002591980824182241 0 0)
(0.0001822863864855729 0 0)
(0.000128422848538964 0 0)
(0.0001036414268662954 0 0)
(5.445779297531855e-05 0 0)
(1.201131262840485e-05 0 0)
(1.39792597859958e-05 0 0)
(-1.389882001601649e-05 0 0)
(-3.171703733665262e-05 0 0)
(-1.605690474620743e-05 0 0)
(8.121307502869419e-06 0 0)
(1.275349318456773e-05 0 0)
(5.070206921573127e-05 0 0)
(0.0001033362528102211 0 0)
(0.000136907662586781 0 0)
(0.0002040632463411995 0 0)
(0.0002797233971120837 0 0)
(0.00034133557644165 0 0)
(0.0004320045147513006 0 0)
(0.0004980300482470279 0 0)
(0.0005791902393852911 0 0)
(0.0006531789452716268 0 0)
(0.0007358529188327021 0 0)
(0.0007920218016381737 0 0)
(0.0008806055714923549 0 0)
(0.0009426423410129532 0 0)
(0.0009960800347357792 0 0)
(0.001066920539587989 0 0)
(0.001109560190551743 0 0)
(0.001146020411921567 0 0)
(0.001185129518005509 0 0)
(0.001202665579700016 0 0)
(0.001225678829352389 0 0)
(0.001234768953173895 0 0)
(0.00123680211264347 0 0)
(0.001215228152776281 0 0)
(0.001212495479331249 0 0)
(0.001169419846161454 0 0)
(0.001121558505287112 0 0)
(0.001099705087661082 0 0)
(0.001026006777500653 0 0)
(0.0009700288164798606 0 0)
(0.0009213842926361108 0 0)
(0.0008328139415816479 0 0)
(0.0007743277063194898 0 0)
(0.0007130986220295606 0 0)
(0.0006337805710349655 0 0)
(0.0006052941437200512 0 0)
(0.0005470380657904816 0 0)
(0.0004901587996030406 0 0)
(0.0004636033461083912 0 0)
(0.0004322593663867652 0 0)
(0.0004091721644444489 0 0)
(0.0003817075227861631 0 0)
(0.0003902224056133148 0 0)
(0.0003911787812900703 0 0)
(0.0003841616964416149 0 0)
(0.0004319984870962881 0 0)
(0.0004659590889995067 0 0)
(0.000486481886863083 0 0)
(0.0005535138495370021 0 0)
(0.0006107147041395022 0 0)
(0.0006739632459353033 0 0)
(0.0007457177124844989 0 0)
(0.0008434012304297037 0 0)
(0.0009165460924107968 0 0)
(0.0009889513664450194 0 0)
(0.00108102520987438 0 0)
(0.001154452811149027 0 0)
(0.001221403904477779 0 0)
(0.001313280327696175 0 0)
(0.001381470095641963 0 0)
(0.00144148167353568 0 0)
(0.001519992879897019 0 0)
(0.001564254061770072 0 0)
(0.001610791782589142 0 0)
(0.001668899629169795 0 0)
(0.001681268907706024 0 0)
(0.001705333005066138 0 0)
(0.001740154147862637 0 0)
(0.001743280105109033 0 0)
(0.001729679197789417 0 0)
(0.001732785609203162 0 0)
(0.001711447793299865 0 0)
(0.001652527442504739 0 0)
(0.001644732064788309 0 0)
(0.001594400203936424 0 0)
(0.001524281146190898 0 0)
(0.001489380252713706 0 0)
(0.001419464009110694 0 0)
(0.001344484028314489 0 0)
(0.001295783996218764 0 0)
(0.001223483893719885 0 0)
(0.001166642707839889 0 0)
(0.001139398642281036 0 0)
(0.001080858779754463 0 0)
(0.001041673768402792 0 0)
(0.00102233109848578 0 0)
(0.0009963565497540846 0 0)
(0.0009783106732151883 0 0)
(0.0009739559811989773 0 0)
(0.0009768888949105853 0 0)
(0.0009886108178299932 0 0)
(0.001016434935802429 0 0)
(0.001050984162202493 0 0)
(0.001084126386204397 0 0)
(0.001142353270589806 0 0)
(0.001195517216854117 0 0)
(0.001263972455839204 0 0)
(0.001350681913512648 0 0)
(0.001420540306053202 0 0)
(0.001513383436412637 0 0)
(0.00160150987946202 0 0)
(0.001687336396976203 0 0)
(0.001753075779227822 0 0)
(0.001843061179734318 0 0)
(0.001933864621073768 0 0)
(0.002006044349327364 0 0)
(0.00206858634369389 0 0)
(0.002174270410493344 0 0)
(0.002202801576674112 0 0)
(0.002260582024973017 0 0)
(0.002329088742354967 0 0)
(0.002363113076040505 0 0)
(0.002361535435158544 0 0)
(0.002425979416120695 0 0)
(0.002446767812610758 0 0)
(0.002414689989194005 0 0)
(0.002434450827970014 0 0)
(0.002438790159187477 0 0)
(0.002382760028351299 0 0)
(0.002355853085444551 0 0)
(0.002357940517312322 0 0)
(0.002263659816748361 0 0)
(0.002228381574106366 0 0)
(0.002198676726533471 0 0)
(0.002111327489049091 0 0)
(0.002056989454758695 0 0)
(0.001998095621822662 0 0)
(0.001955425420401251 0 0)
(0.00188728087756075 0 0)
(0.001868644996638043 0 0)
(0.001827242258700974 0 0)
(0.00179755854313593 0 0)
(0.001773463654901022 0 0)
(0.00175689957978564 0 0)
(0.001767734884796262 0 0)
(0.001755346643688254 0 0)
(0.00176366514619537 0 0)
(0.00179660474113767 0 0)
(0.001839060607935295 0 0)
(0.001872285225257795 0 0)
(0.001901789176995606 0 0)
(0.001994407848228825 0 0)
(0.002043113552820448 0 0)
(0.002114538699432312 0 0)
(0.002200454995333372 0 0)
(0.00230506838887742 0 0)
(0.00235695603710018 0 0)
(0.002476044163172733 0 0)
(0.002560899249391806 0 0)
(0.002618064258280611 0 0)
(0.002711311946902108 0 0)
(0.002820762151163926 0 0)
(0.002869285632517878 0 0)
(0.002943304800332982 0 0)
(0.003044530673076816 0 0)
(0.00308206044651966 0 0)
(0.003105954444003738 0 0)
(0.00320805425008388 0 0)
(0.003213441107264306 0 0)
(0.003222028186528161 0 0)
(0.003279962167078196 0 0)
(0.003296086861065235 0 0)
(0.003259013048226424 0 0)
(0.00329315805199214 0 0)
(0.00327353239800993 0 0)
(0.003222143623670921 0 0)
(0.003219449669080165 0 0)
(0.003179753749690569 0 0)
(0.003113567971028396 0 0)
(0.003084965845385253 0 0)
(0.003030485680341055 0 0)
(0.002962540841967753 0 0)
(0.002918773995645719 0 0)
(0.002838423170896799 0 0)
(0.002818476345517307 0 0)
(0.002755030317724772 0 0)
(0.002731026520550109 0 0)
(0.002705089194186112 0 0)
(0.002678493669438523 0 0)
(0.002663294128159145 0 0)
(0.002667555678125838 0 0)
(0.00264906001234093 0 0)
(0.002675183281707702 0 0)
(0.002699248404755836 0 0)
(0.002731140272156661 0 0)
(0.002767878938905452 0 0)
(0.002836357369156413 0 0)
(0.002877903523845347 0 0)
(0.002954384919334948 0 0)
(0.0030236666244669 0 0)
(0.00311715996283305 0 0)
(0.003192779322006567 0 0)
(0.00330783376430223 0 0)
(0.003380576605522016 0 0)
(0.003474116626022644 0 0)
(0.003580273690509387 0 0)
(0.003646733729180193 0 0)
(0.003739760241978284 0 0)
(0.003837776385291399 0 0)
(0.00390790839409643 0 0)
(0.00398304491808612 0 0)
(0.00407316833514162 0 0)
(0.004111381807350051 0 0)
(0.004169348566263264 0 0)
(0.004226636195917714 0 0)
(0.004228477455770303 0 0)
(0.004287455504988543 0 0)
(0.004300569681551097 0 0)
(0.004316666114709956 0 0)
(0.004312975758801885 0 0)
(0.004318386642444231 0 0)
(0.004294140578228821 0 0)
(0.004269135659793758 0 0)
(0.004245921489108673 0 0)
(0.004209344530303751 0 0)
(0.004163296343305187 0 0)
(0.004123945753623504 0 0)
(0.004071917296186191 0 0)
(0.004014462904134205 0 0)
(0.003963482022464103 0 0)
(0.003921375419795496 0 0)
(0.003868416760687039 0 0)
(0.003837674838197706 0 0)
(0.003824063378052773 0 0)
(0.00380359853241878 0 0)
(0.003770770346166759 0 0)
(0.003790068656280206 0 0)
(0.003788700745388706 0 0)
(0.003776979319556209 0 0)
(0.003817967505610805 0 0)
(0.003866836900039792 0 0)
(0.003880857616845213 0 0)
(0.003934952151997155 0 0)
(0.004027880011644257 0 0)
(0.004058560416288212 0 0)
(0.004133323717397478 0 0)
(0.004251520144332088 0 0)
(0.004308938063666956 0 0)
(0.004404121161035871 0 0)
(0.004528963724350936 0 0)
(0.004605047372195337 0 0)
(0.004679113846438043 0 0)
(0.004803177851525678 0 0)
(0.004887860555067164 0 0)
(0.004950393944325312 0 0)
(0.005057814172228623 0 0)
(0.005146745122467887 0 0)
(0.005216182038007553 0 0)
(0.005268299617280036 0 0)
(0.005367007888350575 0 0)
(0.005388661574023623 0 0)
(0.005414646964029104 0 0)
(0.005470078810829788 0 0)
(0.005503596832212 0 0)
(0.005495436773242658 0 0)
(0.005524861705592055 0 0)
(0.005536932652219267 0 0)
(0.005509561674690739 0 0)
(0.005500982341525515 0 0)
(0.005487527907396816 0 0)
(0.00544971178181887 0 0)
(0.005418066546269694 0 0)
(0.005388297760801386 0 0)
(0.00534634220224851 0 0)
(0.005276812727162152 0 0)
(0.005240474368575035 0 0)
(0.005194956531891254 0 0)
(0.00514227957257692 0 0)
(0.005118798253292933 0 0)
(0.005081980497238465 0 0)
(0.005070303293997312 0 0)
(0.005057981504198946 0 0)
(0.005057563607974204 0 0)
(0.005060899512425502 0 0)
(0.00507273807446548 0 0)
(0.00508091005220353 0 0)
(0.005138757612531515 0 0)
(0.005169577259335653 0 0)
(0.005234656804749149 0 0)
(0.005291816157175497 0 0)
(0.005368734172741815 0 0)
(0.005445337383401769 0 0)
(0.005527904338088734 0 0)
(0.005631306677624144 0 0)
(0.005715934691647659 0 0)
(0.005831332900216615 0 0)
(0.005937269241384972 0 0)
(0.006028508161470957 0 0)
(0.006119853745586735 0 0)
(0.006230781456111088 0 0)
(0.006310204537361083 0 0)
(0.00641661895409336 0 0)
(0.006504551244495167 0 0)
(0.006595984240254824 0 0)
(0.006662559283475839 0 0)
(0.006748901716062476 0 0)
(0.006806884115843585 0 0)
(0.006861145073600223 0 0)
(0.006879880891588986 0 0)
(0.006934027855046686 0 0)
(0.006964256164467 0 0)
(0.00697904942013767 0 0)
(0.006989428170433629 0 0)
(0.006996753607674928 0 0)
(0.006989500048348302 0 0)
(0.006985638299915769 0 0)
(0.006956079309055249 0 0)
(0.006948285327784827 0 0)
(0.006911409451031271 0 0)
(0.006885948698559482 0 0)
(0.006849723228831113 0 0)
(0.006795798513492319 0 0)
(0.006754295079333636 0 0)
(0.006719755138999088 0 0)
(0.006685297118221451 0 0)
(0.00667696217331337 0 0)
(0.006646700544064974 0 0)
(0.006629989784310546 0 0)
(0.0066532544657565 0 0)
(0.006667839146810287 0 0)
(0.006652343129208318 0 0)
(0.006705238518825403 0 0)
(0.006730456395266779 0 0)
(0.006773151684865354 0 0)
(0.006843768637132813 0 0)
(0.006923117308210318 0 0)
(0.006942394810403034 0 0)
(0.007067520324192782 0 0)
(0.007162961507697725 0 0)
(0.007226082568202087 0 0)
(0.007336553197489113 0 0)
(0.007471125233067885 0 0)
(0.007538636379857663 0 0)
(0.007674966464460536 0 0)
(0.007782854943418941 0 0)
(0.007847526769465183 0 0)
(0.007965150661229907 0 0)
(0.008093712935040114 0 0)
(0.008145558871975402 0 0)
(0.008282096848798185 0 0)
(0.00835321731339073 0 0)
(0.008410125046016717 0 0)
(0.008520710491904527 0 0)
(0.008570395185390817 0 0)
(0.008620514477614701 0 0)
(0.008645780087398707 0 0)
(0.008703383246983927 0 0)
(0.008722986921456956 0 0)
(0.00874023343018778 0 0)
(0.008760362709406576 0 0)
(0.008764904690992772 0 0)
(0.008735333015786896 0 0)
(0.008761512320140817 0 0)
(0.00874811136055733 0 0)
(0.008701688565443948 0 0)
(0.008700042167883745 0 0)
(0.008683394774092405 0 0)
(0.008653309621220332 0 0)
(0.008574726266207139 0 0)
(0.008589897658661302 0 0)
(0.008511936259718429 0 0)
(0.008532043400592538 0 0)
(0.008530865573503656 0 0)
(0.008472590645699198 0 0)
(0.008501476112797718 0 0)
(0.008548899243321655 0 0)
(0.008508939122326762 0 0)
(0.008567458016579472 0 0)
(0.008630869424073616 0 0)
(0.008621532668754808 0 0)
(0.008721035853357635 0 0)
(0.008782136335368784 0 0)
(0.008851282412023639 0 0)
(0.008915084458228124 0 0)
(0.009032382712933953 0 0)
(0.00912056306665536 0 0)
(0.009219138708661971 0 0)
(0.009346040439000886 0 0)
(0.009418611067138496 0 0)
(0.009546853824679407 0 0)
(0.0097092528118567 0 0)
(0.009714605138852325 0 0)
(0.009834799733742976 0 0)
(0.01003481435233233 0 0)
(0.009991222741735419 0 0)
(0.01020625284220176 0 0)
(0.01029239627833114 0 0)
(0.01027447380561614 0 0)
(0.01046485882171832 0 0)
(0.01055886222651973 0 0)
(0.01041573257998611 0 0)
(0.01063536828616449 0 0)
(0.01074311812129301 0 0)
)
;

boundaryField
{
    inlet
    {
        type            calculated;
        value           uniform (-2.886516284017699e-05 0 0);
    }
    outlet
    {
        type            calculated;
        value           uniform (0.01074311812129301 0 0);
    }
    frontAndBack
    {
        type            empty;
    }
}


// ************************************************************************* //
