/*--------------------------------*- C++ -*----------------------------------*\
| =========                 |                                                 |
| \\      /  F ield         | OpenFOAM: The Open Source CFD Toolbox           |
|  \\    /   O peration     | Version:  v2012                                 |
|   \\  /    A nd           | Website:  www.openfoam.com                      |
|    \\/     M anipulation  |                                                 |
\*---------------------------------------------------------------------------*/
FoamFile
{
    version     2.0;
    format      ascii;
    class       volScalarField;
    location    "0.008";
    object      p;
}
// * * * * * * * * * * * * * * * * * * * * * * * * * * * * * * * * * * * * * //

dimensions      [1 -1 -2 0 0 0 0];


internalField   nonuniform List<scalar> 
1000
(
101310.9427617875
101313.5815571019
101306.8395017315
101301.5385971395
101295.6982670375
101290.4564434699
101285.9442283858
101282.0842198382
101278.7721144358
101276.5433462694
101275.9383414146
101275.9586511004
101276.328402445
101277.349280966
101279.3300709044
101282.3347294379
101286.2512207197
101290.9043447411
101296.1477204681
101301.8789311476
101308.0137055753
101314.4613991792
101321.1156695609
101327.8546055575
101334.544762601
101341.0508128471
101347.2546878114
101353.0835563909
101358.530034678
101363.6115490502
101368.1756119096
101371.5681645054
101373.0180747173
101373.1817964125
101373.1181150569
101372.8510301619
101372.1112179375
101370.6571405282
101368.2821136143
101364.8914216412
101360.5257759843
101355.3385863115
101349.5334138149
101343.3010134739
101336.7897683306
101330.1128517853
101323.3705803095
101316.6661783687
101310.1053367091
101303.7772907832
101297.7258783478
101291.948549317
101286.4969273047
101281.7444373203
101278.5836240876
101277.5079696315
101277.4353103389
101277.477590019
101277.7365152312
101278.3785421602
101279.6274751904
101281.67560214
101284.6594230466
101288.6222517129
101293.5020588782
101299.146085393
101305.3496583861
101311.9036277154
101318.6293993956
101325.389540191
101332.081485687
101338.6332671531
101345.0088054591
101351.2065877678
101357.2209096514
101362.9238668797
101367.8265637596
101370.9818413235
101372.0179568625
101372.0932379695
101372.0372711369
101371.8319624025
101371.2859229692
101370.2242316712
101368.4615674189
101365.8467502367
101362.2892579512
101357.7830799425
101352.4128448342
101346.3394802912
101339.7704504899
101332.9231353282
101325.9895664004
101319.1110103552
101312.3690130656
101305.7920963352
101299.3750444003
101293.1295436343
101287.2272355298
101282.268580371
101279.2675593477
101278.3936781767
101278.3493651742
101278.3857325985
101278.5937418064
101279.0989977279
101280.0777365375
101281.6955280879
101284.0978668741
101287.3843815525
101291.5892590501
101296.6682410523
101302.4994311991
101308.9016659072
101315.6660262595
101322.5903421027
101329.5092073692
101336.3162440578
101342.9720170385
101349.4837797284
101355.8388748936
101361.8616004485
101366.9728102927
101370.1768811143
101371.202053677
101371.2803167128
101371.2378326732
101371.0798731451
101370.6530213118
101369.8135747253
101368.4015685202
101366.2704690972
101363.3042973855
101359.4383977996
101354.6745949995
101349.0874841895
101342.8195573638
101336.0627252953
101329.0260918035
101321.8977204663
101314.8144317129
101307.8509129175
101301.03547237
101294.4125924132
101288.2021331896
101283.0627097515
101280.0134806287
101279.1360967394
101279.086555872
101279.1139199911
101279.2779496927
101279.685405107
101280.4839224313
101281.8178440039
101283.8239433586
101286.6135113896
101290.2564304469
101294.7659268595
101300.0897146204
101306.1124728639
101312.670208815
101319.5736156909
101326.6379103261
101333.7147387905
101340.7135283891
101347.5926212032
101354.2992662391
101360.6283360885
101365.9840757539
101369.3685168589
101370.4945188444
101370.5948018356
101370.5639976492
101370.4457212013
101370.1090547713
101369.4312293793
101368.2706291976
101366.4910732249
101363.97304281
101360.6295528417
101356.4199382227
101351.3603296856
101345.5286076223
101339.0595727797
101332.1265936613
101324.9125192908
101317.5795900647
101310.2495184878
101303.0068512661
101295.9534330233
101289.3650948198
101283.9470518167
101280.7314454548
101279.778992536
101279.7137857965
101279.7343552642
101279.8651994044
101280.1974609751
101280.8592831489
101281.978962394
101283.6836378669
101286.0854224867
101289.2688929662
101293.2777016324
101298.104347719
101303.6867763905
101309.9128556832
101316.6325500672
101323.6787878759
101330.8952910194
101338.1601945425
101345.3858302458
101352.471307625
101359.1733919197
101364.875815365
101368.5591796431
101369.8621498584
101370.0009701975
101369.9793554931
101369.8899686098
101369.6211931574
101369.0664053475
101368.0995177671
101366.5949072313
101364.4351692286
101361.5237443781
101357.7965604752
101353.2325963714
101347.8618984076
101341.7671529644
101335.0748303842
101327.9368220397
101320.5083694033
101312.9295208453
101305.3228843362
101297.8393966143
101290.8073266859
101284.983621391
101281.4601890792
101280.3602001767
101280.268973635
101280.2822725757
101280.3847295389
101280.6554578507
101281.2088303749
101282.1596548321
101283.6249791197
101285.7131822962
101288.5144446399
101292.0895487407
101296.460163447
101301.6032538313
101307.4504226295
101313.89293575
101320.7948332582
101328.0138679129
101335.421416855
101342.9048047953
101350.3298384727
101357.4259398079
101363.5628898476
101367.6791402472
101369.2623056014
101369.4677327802
101369.4540582081
101369.3894848408
101369.1762500576
101368.7206963342
101367.9088622706
101366.6253982362
101364.7581307236
101362.2078631323
101358.8977562069
101354.7829102299
101349.858982933
101344.1666439542
101337.7886298388
101330.8395396785
101323.4514701337
101315.7600190507
101307.9022335654
101300.0574798326
101292.5856173947
101286.2722085925
101282.2835658766
101280.9158425929
101280.7715486389
101280.7796274693
101280.858589134
101281.0784159236
101281.5416010811
101282.3524626317
101283.6195421528
101285.4467044174
101287.9254158514
101291.1255680669
101295.0872322806
101299.8148598817
101305.2741783113
101311.3929176705
101318.0683251099
101325.1817162666
101332.6130473182
101340.2427386651
101347.9219104486
101355.3730588136
101361.9775128439
101366.6453263044
101368.6473102082
101368.9739788919
101368.9688218751
101368.9257111756
101368.7590142755
101368.3868719463
101367.7045153426
101366.6053024788
101364.982824669
101362.7385965866
101359.7894339456
101356.0756140441
101351.5688889433
101346.2778914937
101340.2486093794
101333.559885952
101326.3153892852
101318.6345682902
101310.6522177552
101302.5543311187
101294.7013573779
101287.8653374529
101283.270926656
101281.4874055128
101281.2430023132
101281.244574113
101281.3023144044
101281.4770102565
101281.8619871205
101282.5532400104
101283.6519351303
101285.2570042834
101287.4589752088
101290.3324843035
101293.9294275381
101298.2734510931
101303.3557740549
101309.1336874941
101315.534511592
101322.4650373854
101329.8210109305
101337.4877498484
101345.3170215942
101353.0442308402
101360.093103283
101365.3881379888
101367.9631855543
101368.4996901858
101368.5126876123
101368.4860193314
101368.3590312157
101368.0583122593
101367.4869820807
101366.5455874978
101365.1330125736
101363.1527411163
101360.5187558627
101357.1623566739
101353.0389772817
101348.1335561429
101342.4631104636
101336.0760083006
101329.0480776115
101321.477407479
101313.4860673158
101305.2510776513
101297.1090376119
101289.7769440438
101284.4872516242
101282.1242909328
101281.6993599331
101281.6926658271
101281.7292868906
101281.8637360013
101282.1784770172
101282.7637092823
101283.7148412244
101285.1263806429
101287.0869162987
101289.6731241379
101292.9442351286
101296.9370613965
101301.6614899363
101307.0979402633
101313.1990801909
101319.8953904561
101327.1005776541
101334.7113040228
101342.5899288508
101350.4979643425
101357.9245087572
101363.8599495736
101367.1450933873
101368.0219662028
101368.0766677982
101368.0615020555
101367.9681935053
101367.7298281328
101367.2555896361
101366.4522884858
101365.2233507307
101363.4746757678
101361.1192576061
101358.0828579244
101354.309902954
101349.768457079
101344.453509015
101338.3884275506
101331.6242810604
101324.2376977736
101316.333505609
101308.0702221377
101299.7458587743
101291.9939124109
101285.9879520027
101282.8865590009
101282.1553100136
101282.1205695043
101282.1438810434
101282.2431284966
101282.496489338
101282.9878093911
101283.8078583928
101285.0474015691
101286.7930669099
101289.1225875505
101292.1000125123
101295.7710366424
101300.1589460403
101305.2621112036
101311.0538796009
101317.4847906563
101324.4857216257
101331.968204274
101339.8112802873
101347.8079167434
101355.5212339664
101362.0484528308
101366.1289350614
101367.5025809697
101367.6465396973
101367.638246137
101367.5757539693
101367.3929596509
101367.0065072021
101366.3272693325
101365.2626540319
101363.7208349846
101361.6147274674
101358.8668906857
101355.4146588258
101351.2142899652
101346.244216821
101340.5080554114
101334.0363085556
101326.8858279811
101319.1423087334
101310.9413752205
101302.5376538236
101294.4695171271
101287.7951739166
101283.8433476331
101282.6407795308
101282.5360568935
101282.5518381013
101282.62017916
101282.8197170602
101283.2269093808
101283.9291536039
101285.0140079373
101286.566346304
101288.6639892154
101291.3740255056
101294.7487535214
101298.8214525422
101303.6036029762
101309.0845529373
101315.2323086581
101321.9938701792
101329.2944549026
101337.0292716566
101345.0243650954
101352.9202770013
101359.9477123659
101364.853659151
101366.9033908045
101367.2307695015
101367.235713775
101367.1927593247
101367.0565778075
101366.7445262971
101366.1736114095
101365.2543191475
101363.8971883048
101362.0157831005
101359.5308895151
101356.374660267
101352.4944743112
101347.8565954139
101342.4495148026
101336.2861223909
101329.4048088757
101321.8733466602
101313.8055187377
101305.4128834028
101297.1379221621
101289.8930486737
101285.0544986643
101283.2059709381
101282.9557415514
101282.9601063197
101283.0049846852
101283.1558426238
101283.4865218387
101284.0808318361
101285.0237158278
101286.398571921
101288.2834392041
101290.7475511092
101293.8476356643
101297.6243245504
101302.0995568533
101307.2752576547
101313.1327555617
101319.6326614152
101326.7144496028
101334.2900092554
101342.2140583581
101350.1956213523
101357.6046817409
101363.2871124187
101366.1560828937
101366.8052165508
101366.8327524713
101366.8093217103
101366.7118312784
101366.4658218975
101365.9918563022
101365.2035673527
101364.013694035
101362.3368676681
101360.0929814122
101357.21071931
101353.6312187215
101349.3116605102
101344.2285075686
101338.3801763049
101331.7894874058
101324.5079275684
101316.6281869878
101308.3226082759
101299.947660062
101292.260380572
101286.5675495857
101283.9011650383
101283.3739799333
101283.359456279
101283.3864255575
101283.4966809648
101283.7607606751
101284.2583341025
101285.072413657
101286.2851800075
101287.9747093981
101290.2117707718
101293.0564237429
101296.5548270366
101300.7368451304
101305.6144058981
101311.1801940382
101317.4068826073
101324.2466412781
101331.6264422035
101339.4262305723
101347.4123917654
101355.0798408684
101361.4257780301
101365.185618342
101366.3301452934
101366.4295055728
101366.4160211571
101366.3505841982
101366.1619524534
101365.7753248301
101365.107187524
101364.072143184
101362.5854063279
101360.5661687002
101357.9406104711
101354.64505563
101350.6295422615
101345.8613635575
101340.3278110002
101334.03863516
101327.0304802952
101319.3774199674
101311.2190592194
101302.8384080304
101294.8436732493
101288.3946722479
101284.7979794783
101283.8205870473
101283.7535982113
101283.7669189073
101283.8439618667
101284.0489589921
101284.4599293252
101285.1571666678
101286.2216960415
101287.7313242418
101289.7577282356
101292.3634206381
101295.5989359044
101299.5004548879
101304.0878122501
101309.3629153378
101315.3088480663
101321.889105024
101329.0437109929
101336.6737081326
101344.5934978642
101352.4078937356
101359.2872155488
101363.9467422114
101365.7769475582
101366.0376603931
101366.0352211423
101365.9938979287
101365.8539446644
101365.5436698131
101364.9821651134
101364.0859333936
101362.7712968961
101360.9573826765
101358.5689257011
101355.5391925397
101351.8130725955
101347.3502376001
101342.1282452291
101336.145699084
101329.4263263426
101322.0270076848
101314.0589657234
101305.74652229
101297.5718813124
101290.5149098996
101285.967208036
101284.3461547862
101284.1524146132
101284.1577623511
101284.2078126684
101284.3624912916
101284.6952184236
101285.2845191961
101286.2102201878
101287.5502199649
101289.3773652157
101291.7564547784
101294.7416508587
101298.3743181071
101302.6809066507
101307.6709906049
101313.3362268285
101319.6498601632
101326.56368902
101333.9963496133
101341.7991091456
101349.6642169097
101356.9278342247
101362.4047896348
101365.0684306318
101365.6307822706
101365.649241148
101365.6276968259
101365.5270777435
101365.2834208286
101364.8180778184
101364.0495994858
101362.8951831617
101361.2738985232
101359.1092016786
101356.3317015306
101352.8821049092
101348.7142311302
101343.7980142314
101338.1226852902
101331.7007153219
101324.5744008427
101316.8315354403
101308.6485203238
101300.4018594475
101292.8886248702
101287.4409567886
101284.9990931256
101284.5526696387
101284.5436520281
101284.5726211405
101284.6846940683
101284.9486487392
101285.4405821782
101286.2395342665
101287.4232450609
101289.0652705766
101291.2321982577
101293.9811600482
101297.3575862434
101301.3931570082
101306.1041012788
101311.4899843136
101317.5325844462
101324.1933681768
101331.4056732121
101339.0507084949
101346.8893693869
101354.4010814028
101360.5635923416
101364.1373197857
101365.1821130036
101365.2658093968
101365.2540097436
101365.1862211198
101364.9996016551
101364.6196300437
101363.966981962
101362.9600696998
101361.5181391064
101359.5637914741
101357.0256297118
101353.8410636782
101349.9590708019
101345.3429912924
101339.9737768201
101333.8539820292
101327.0132929942
101319.5200556662
101311.5126887474
101303.2833653365
101295.4631343623
101289.232477535
101285.8512060375
101284.9761472373
101284.9217754571
101284.9382030594
101285.0149223004
101285.2197724867
101285.6253573788
101286.3093069641
101287.3488892481
101288.8180565441
101290.7847483004
101293.3086509643
101296.4389763569
101300.2121629605
101304.6500510279
101309.758863442
101315.5281348755
101321.9281927639
101328.9043414942
101336.3607187691
101344.1117215877
101351.7562098116
101358.4547393572
101362.9356456689
101364.6531062619
101364.8872262443
101364.8860835884
101364.842480067
101364.7047078428
101364.3999056283
101363.8515183816
101362.9792852249
101361.7029593065
101359.944679273
101357.6315291772
101354.6981236641
101351.0893264379
101346.7631172044
101341.6936694296
101335.8748608968
101329.325118134
101322.0967015017
101314.2987165599
101306.1582295233
101298.1671427092
101291.316605661
101286.9751979078
101285.4761887868
101285.3070576691
101285.3134052952
101285.3641898875
101285.518386889
101285.8466749752
101286.4247071293
101287.3291497577
101288.634513835
101290.4103276183
101292.7187081322
101295.61206878
101299.1309868084
101303.3024891325
101308.1387783164
101313.6359448228
101319.7720148422
101326.5029419476
101333.7511787921
101341.3708181848
101349.0534249692
101356.1323178879
101361.4327147361
101363.973120169
101364.4967059393
101364.5139174736
101364.4895934471
101364.3915241581
101364.1520319704
101363.697349303
101362.9486251801
101361.8262645329
101360.2522050275
101358.1523970794
101355.4592695112
101352.1142530752
101348.0705677037
101343.2963328343
101337.7779100732
101331.5240221135
101324.5730673755
101317.0102204895
101309.01182728
101300.9573154684
101293.6473112343
101288.4006025353
101286.0975911885
101285.6926702303
101285.6863986821
101285.71491983
101285.8265528049
101286.0865724453
101286.5691479418
101287.3502845145
101288.5045442082
101290.1023454504
101292.2075555032
101294.8752500765
101298.1496767765
101302.0625303335
101306.6314822436
101311.8587422207
101317.7293952244
101324.2085112007
101331.2330471163
101338.6871368873
101346.3333310935
101353.653298707
101359.6358111242
101363.0752567201
101364.0652555972
101364.1424147311
101364.1309477623
101364.0650611955
101363.8814580732
101363.5083863287
101362.8688867813
101361.8848824946
101360.479915142
101358.5813100871
101356.1217623509
101353.0408668717
101349.2871999689
101344.8210023608
101339.6170878913
101333.6686408981
101326.9956337122
101319.6595459536
101311.7959231613
101303.7022680742
101296.0074991226
101289.9096317584
101286.6822911565
101285.793284973
101285.6942417418
101285.7526742783
101285.9045253635
101286.1839638098
101286.6323660623
101287.3121780563
101288.2949874638
101289.6575380527
101291.4815232713
101293.8496851462
101296.8361015609
101300.4965657214
101304.8626459956
101309.939032442
101315.7027942767
101322.1071973111
101329.085235674
101336.5297055263
101344.2479828971
101351.8423755214
101358.4375971744
101362.7776144368
101364.5494346033
101364.9751604345
101365.0126354185
101364.8779515456
101364.6025098042
101364.1480952685
101363.4935835272
101362.579604284
101361.3268690323
101359.6510486952
101357.4661452048
101354.6839364745
101351.2190119948
101347.0007682918
101341.9876240664
101336.1768198878
101329.6035468514
101322.3398280873
101314.5272520164
101306.4301058959
101298.5382312873
101291.8316228013
101287.5788092023
101285.9146912724
101285.5206047427
101285.447406034
101285.5611118246
101285.8400682389
101286.31819687
101287.0227344239
101288.0005356113
101289.3086954249
101291.0109086745
101293.1808198315
101295.9010528739
101299.2519156167
101303.2951221759
101308.0607798137
101313.54274658
101319.7004812782
101326.4640334596
101333.7218873578
101341.2842534877
101348.8327794564
101355.7387646435
101360.9077682864
101363.582852064
101364.4049669409
101364.5442934473
101364.5289270441
101364.3432511647
101363.9551630408
101363.3307504353
101362.4322126407
101361.2172398356
101359.6378520523
101357.632321653
101355.1172888219
101351.9919367033
101348.1546168846
101343.523933939
101338.057867191
101331.7729816703
101324.750564952
101317.1441137297
101309.2034213449
101301.3033704706
101294.1654069107
101289.0082257222
101286.5054153012
101285.792271888
101285.6752804218
101285.6930521305
101285.8701244462
101286.2430267322
101286.8640765335
101287.7933633061
101289.0822388012
101290.7632944297
101292.8599162545
101295.4041585627
101298.4492407851
101302.0774093324
101306.4014388071
101311.5321824366
101317.4986004266
101324.1535868502
101331.3030254957
101338.4823328044
101346.7362846042
)
;

boundaryField
{
    inlet
    {
        type            uniformFixedValue;
        uniformValue    sine;
        uniformValueCoeffs
        {
            frequency       constant 3000;
            scale           constant 50;
            level           constant 101325;
        }
        value           uniform 101323.6421297957;
    }
    outlet
    {
        type            pressureOutletNSCBC;
        pInf            101325;
        gamma           1.4;
        etaAc           1;
        fieldInf        1;
        lInf            2.25;
        value           uniform 101350.4173318206;
    }
    frontAndBack
    {
        type            empty;
    }
}


// ************************************************************************* //
