/*--------------------------------*- C++ -*----------------------------------*\
| =========                 |                                                 |
| \\      /  F ield         | OpenFOAM: The Open Source CFD Toolbox           |
|  \\    /   O peration     | Version:  v2012                                 |
|   \\  /    A nd           | Website:  www.openfoam.com                      |
|    \\/     M anipulation  |                                                 |
\*---------------------------------------------------------------------------*/
FoamFile
{
    version     2.0;
    format      ascii;
    class       volScalarField;
    location    "0.008";
    object      pMean;
}
// * * * * * * * * * * * * * * * * * * * * * * * * * * * * * * * * * * * * * //

dimensions      [1 -1 -2 0 0 0 0];


internalField   nonuniform List<scalar> 
1000
(
101325.0314914037
101325.0047436464
101325.0221479069
101325.0386266607
101325.0619138531
101325.0900329334
101325.1213715681
101325.1584478268
101325.1980180054
101325.2410288803
101325.2851273009
101325.3293185287
101325.373287817
101325.4167242128
101325.4588385133
101325.4988513577
101325.5357714723
101325.5689814541
101325.5977156266
101325.6216476464
101325.6402049675
101325.6531953925
101325.660239983
101325.6613325464
101325.656315458
101325.6454064702
101325.6286887947
101325.6065975887
101325.5793449654
101325.5473775157
101325.5109173779
101325.4707277588
101325.4281102635
101325.384821804
101325.3414792104
101325.2982995339
101325.2555327424
101325.2137032688
101325.1735143826
101325.1358322717
101325.1015504535
101325.0714900592
101325.0463120939
101325.0265070529
101325.0123995762
101325.0042039154
101325.0020381492
101325.0059277121
101325.0158003384
101325.0314873591
101325.0527636505
101325.0793907789
101325.1111259301
101325.1475749101
101325.1878135509
101325.2301301649
101325.2729408728
101325.315742966
101325.3583920362
101325.4007066781
101325.4421716011
101325.482266
101325.5201260699
101325.5549971759
101325.5859179855
101325.6122239988
101325.6332022505
101325.6485278208
101325.6578496355
101325.6611596914
101325.6583670987
101325.6496565058
101325.6350685075
101325.6148568301
101325.5890858038
101325.5580382874
101325.5220280062
101325.482191867
101325.4402753716
101325.3979442268
101325.3555786464
101325.3133477732
101325.2714199503
101325.2301803834
101325.1901446615
101325.1520126804
101325.1165677187
101325.0846747788
101325.0571389229
101325.0346965058
101325.017883808
101325.0070855416
101325.0024635185
101325.0040659465
101325.0117930635
101325.0255311182
101325.0451174303
101325.0704409885
101325.1012897633
101325.1371981368
101325.1769225235
101325.2185373468
101325.2605202069
101325.302507373
101325.3443561934
101325.3859553299
101325.4268744053
101325.4667271096
101325.5047905219
101325.5404176243
101325.5727040644
101325.6009383409
101325.624280635
101325.6422206892
101325.6542198869
101325.6601312216
101325.6597685105
101325.6532817405
101325.640676332
101325.622187199
101325.5978398143
101325.5679121713
101325.5327695891
101325.4936777777
101325.4524940727
101325.4108963527
101325.369254751
101325.3277298931
101325.2864254121
101325.2456783275
101325.2058728095
101325.1676225698
101325.1315693342
101325.098534839
101325.0692800774
101325.0446314718
101325.0252329847
101325.0116676829
101325.0042588103
101325.0032300177
101325.0085725728
101325.0202578366
101325.0381327496
101325.0621073484
101325.0919114264
101325.1270216066
101325.1660462915
101325.2069969614
101325.248306538
101325.2896374788
101325.3308470189
101325.3718663282
101325.4123242396
101325.4519182661
101325.4900171518
101325.5260752654
101325.5592628116
101325.5889068126
101325.6141486283
101325.634395158
101325.648978771
101325.6575897455
101325.6598844438
101325.655877881
101325.6454831361
101325.62889004
101325.6061110323
101325.5774560019
101325.5433281822
101325.5050631841
101325.4645632763
101325.4235929844
101325.3825595911
101325.3416286873
101325.300857486
101325.2605415143
101325.2209851242
101325.1827243309
101325.1463060746
101325.1124780669
101325.0819451554
101325.0555345872
101325.0339269776
101325.0178228472
101325.0076760205
101325.0038951891
101325.0066139064
101325.0159538895
101325.0318258004
101325.0541919722
101325.0827471043
101325.1169201397
101325.1552116566
101325.1955496803
101325.2362843309
101325.277054974
101325.3177176574
101325.3582386609
101325.3982860001
101325.4376234638
101325.4756875342
101325.5120154113
101325.5458456826
101325.576563747
101325.6033251283
101325.6255223052
101325.6424087307
101325.6535703973
101325.6585160339
101325.6571190638
101325.6491593871
101325.6347344013
101325.6137985982
101325.5866506337
101325.5537048879
101325.5163278209
101325.4764827208
101325.4360599673
101325.395555916
101325.3551411075
101325.3148426753
101325.2749207626
101325.2356200563
101325.1974129869
101325.1607677243
101325.1263672366
101325.0948510589
101325.0670220863
101325.0435589947
101325.0252205974
101325.0125480548
101325.006089097
101325.006121663
101325.0129207545
101325.026516962
101325.0469597414
101325.0739820331
101325.1070085732
101325.1444878147
101325.1842358168
101325.2244624363
101325.2647353921
101325.3049181779
101325.3449936526
101325.3846702648
101325.4237550546
101325.4617452264
101325.4982420917
101325.5325485111
101325.5641051666
101325.5921037653
101325.6159413125
101325.6348427729
101325.6483211916
101325.655785918
101325.6569809863
101325.6515613829
101325.6395041644
101325.6206762563
101325.5953109893
101325.5637821477
101325.5274281699
101325.4882576607
101325.4483396747
101325.4083094019
101325.3683602242
101325.3284882558
101325.2889330147
101325.2498829697
101325.2117698486
101325.1749877557
101325.1401679622
101325.1078822675
101325.0789010338
101325.053878865
101325.0335986644
101325.0186523219
101325.0096843671
101325.0070909838
101325.0112856844
101325.0224290893
101325.0406849871
101325.065870827
101325.0974734308
101325.1339690192
101325.1730921364
101325.2128471274
101325.2526696715
101325.2924163333
101325.3320829747
101325.37141508
101325.4102502616
101325.44814248
101325.4847379136
101325.5194051534
101325.5516273655
101325.580646433
101325.6058696103
101325.6265260362
101325.6420792879
101325.651879507
101325.6555632983
101325.6526856028
101325.6430983252
101325.6265760872
101325.6032471936
101325.5734059594
101325.538278152
101325.4998707001
101325.4604409471
101325.4208523186
101325.3813291431
101325.3418601798
101325.3026468846
101325.2638531384
101325.2258537035
101325.1890038101
101325.1538677108
101325.1209762638
101325.0910443378
101325.0647096628
101325.04274322
101325.0257723247
101325.0144954414
101325.0094035407
101325.0110186338
101325.019622506
101325.0354966765
101325.0585691689
101325.0884512364
101325.1237330784
101325.1621455105
101325.2014370026
101325.240841042
101325.2801774235
101325.3194630048
101325.3584647557
101325.397057124
101325.4348293878
101325.4714787964
101325.5064166358
101325.5391803883
101325.5690446944
101325.5954526687
101325.617632082
101325.63503922
101325.6469701997
101325.6530032141
101325.6525944215
101325.6455085775
101325.6314081004
101325.6103297619
101325.5824313977
101325.548785655
101325.5112807816
101325.4723670291
101325.4331893023
101325.3940746758
101325.3549824508
101325.3161067458
101325.277564455
101325.2397067853
101325.2028311526
101325.1674671951
101325.1340860444
101325.1033705669
101325.0759169783
101325.0524898035
101325.0337178842
101325.0203400241
101325.0129054857
101325.0120232432
101325.0180736004
101325.031445536
101325.0521904463
101325.0800714683
101325.1138802133
101325.151431622
101325.1902420262
101325.2292395587
101325.2681869122
101325.3070974957
101325.3457839729
101325.3841241204
101325.4217680854
101325.4584247959
101325.4935758836
101325.5267721408
101325.5573564898
101325.58477174
101325.6082925717
101325.6273413657
101325.6412214647
101325.6494331986
101325.6513994512
101325.6467738501
101325.6351622986
101325.6164691763
101325.5907473559
101325.5588314216
101325.5224402602
101325.4840970235
101325.4453306986
101325.4065983279
101325.3678806846
101325.3293281004
101325.2910512113
101325.2533463277
101325.2164928751
101325.1809588532
101325.1471916214
101325.1158154025
101325.0874107225
101325.0627039749
101325.0423361106
101325.0270469321
101325.0174399368
101325.0141699258
101325.017708604
101325.0285236525
101325.0467933502
101325.0724332125
101325.1044921349
101325.1409768369
101325.1792494706
101325.2178522736
101325.2564229143
101325.2949716371
101325.3333418951
101325.3714280599
101325.4089207634
101325.4455541789
101325.4808573928
101325.51440892
101325.5455985104
101325.5738880283
101325.5985840665
101325.6191030853
101325.6347509107
101325.644986294
101325.6491997284
101325.6469694588
101325.6378431615
101325.6216197018
101325.5982343308
101325.5682847069
101325.5332371643
101325.4955852715
101325.4572415947
101325.4188901911
101325.3805414637
101325.3423215744
101325.3043152579
101325.2667896247
101325.2299887009
101325.1943444915
101325.160265406
101325.1283388986
101325.0991124807
101325.073288079
101325.0514946521
101325.0344750398
101325.02285498
101325.017328975
101325.0184271323
101325.026690213
101325.0423974303
101325.0656203469
101325.0956696087
101325.1308430667
101325.1684664906
101325.2066717734
101325.2448717518
101325.2830679386
101325.3211154736
101325.3589454108
101325.3962621279
101325.4328465619
101325.4682462682
101325.5020902536
101325.5337856733
101325.5628402978
101325.5885667907
101325.6104106599
101325.6276594451
101325.6397737653
101325.6460962822
101325.646179246
101325.6394943614
101325.6257831425
101325.6048448541
101325.5770861
101325.5436388349
101325.5068589986
101325.4689526139
101325.4309724676
101325.3929760746
101325.3550835293
101325.317352437
101325.280022798
101325.2433072843
101325.2076035614
101325.1732841458
101325.1409015466
101325.1109703628
101325.084166537
101325.0611004845
101325.0425111092
101325.0290323611
101325.0213853767
101325.0201390319
101325.0258946443
101325.0390136542
101325.0597088878
101325.0875341536
101325.1211323088
101325.1579387007
101325.1957160549
101325.2335449539
101325.271380844
101325.3091028387
101325.3466557545
101325.3837806331
101325.4202777828
101325.4557356323
101325.4898055136
101325.5219350643
101325.5516510337
101325.5782983661
101325.6013283948
101325.6200439516
101325.6338893717
101325.6421988334
101325.6444824768
101325.6401804627
101325.6289609846
101325.6105360759
101325.5851112588
101325.5535173362
101325.5178235119
101325.4804398566
101325.4428220391
101325.4051816595
101325.3676183404
101325.3301741162
101325.2930584336
101325.2564602619
101325.2207398266
101325.1862431369
101325.1534824351
101325.1229484122
101325.0952813406
101325.0710794077
101325.051061259
101325.0358704544
101325.0262316108
101325.0227510897
101325.0260636848
101325.0366090231
101325.0547049131
101325.0801355492
101325.1118873205
101325.1476619359
101325.1849488049
101325.2224172753
101325.2598967751
101325.2972956869
101325.334561236
101325.3714797069
101325.4078589527
101325.4433366462
101325.4775745052
101325.5100687603
101325.5403550071
101325.5678194426
101325.5919141001
101325.6119676043
101325.6274098061
101325.6375782562
101325.6419494729
101325.6399415291
101325.6311645916
101325.6152571208
101325.5922637742
101325.5627309277
101325.5283835103
101325.4916491168
101325.45441771
101325.4171335209
101325.3799130868
101325.3427704339
101325.3058982126
101325.2694481192
101325.2337611785
101325.199139343
101325.166077355
101325.1350203793
101325.1065983014
101325.0813694792
101325.0600563736
101325.0432772776
101325.0317822613
101325.026173445
101325.0271382049
101325.0351461865
101325.0506317134
101325.0735407214
101325.1032162692
101325.1376906233
101325.1743850158
101325.2114789794
101325.2486153418
101325.2856777519
101325.3226594814
101325.3593433485
101325.3955899307
101325.4310389267
101325.4654047298
101325.4981889437
101325.5289752758
101325.5571539361
101325.5822144224
101325.6034820133
101325.6204064205
101325.6323089176
101325.638663806
101325.6388577109
101325.6324696477
101325.6190693735
101325.5985768654
101325.5712871848
101325.5385492798
101325.502642416
101325.4658189862
101325.4288828995
101325.391993685
101325.3551554218
101325.3185299867
101325.282252238
101325.2466242698
101325.211931246
101325.1786239361
101325.1471335327
101325.1180454977
101325.0919123492
101325.0694191207
101325.051193152
101325.0379617279
101325.0303578137
101325.0290686178
101325.0346266275
101325.0475167968
101325.0678576586
101325.0952587805
101325.1281703754
101325.1640851026
101325.2007810809
101325.2375567649
101325.2742848659
101325.3109508929
101325.3473880425
101325.3834558152
101325.4188465977
101325.4532785894
101325.4863030911
101325.5175091109
101325.5463288124
101325.5722544146
101325.5946399343
101325.6129309886
101325.6264596615
101325.6346843622
101325.6369815442
101325.6328970452
101325.6219538271
101325.603971227
101325.5790388829
101325.5481531156
101325.5133041554
101325.4769714573
101325.4403841899
101325.4038345642
101325.3673108666
101325.3309543508
101325.294875741
101325.2593484166
101325.2246301221
101325.1911410913
101325.1592852182
101325.1296193635
101325.102673629
101325.079111177
101325.0595481208
101325.0447021524
101325.0352126814
101325.0317761407
101325.0349596267
101325.0452994507
101325.0630391844
101325.0880238236
101325.1191057361
101325.1540242755
101325.190263255
101325.2266859112
101325.2630784254
101325.299428723
101325.335604532
101325.3714759569
101325.4067761229
101325.4412341396
101325.4744443089
101325.5060031878
101325.535384971
101325.5620823934
101325.5854865668
101325.6050316651
101325.6200769348
101325.6300551592
101325.6343552892
101325.6324785393
101325.6239325282
101325.6084374456
101325.5859431398
101325.5571090245
101325.523583795
101325.4878623894
101325.4516454398
101325.4154324831
101325.3792344933
101325.343161087
101325.3073082959
101325.2719154335
101325.2372193472
101325.2036054294
101325.171454865
101325.141292263
101325.1136272294
101325.0890977889
101325.0683068807
101325.0519596173
101325.0406954993
101325.0352171385
101325.0361143495
101325.0439661121
101325.0591086733
101325.0815819189
101325.1105990122
101325.1442629185
101325.1799365605
101325.2160058923
101325.2520631045
101325.2880987927
101325.3239980194
101325.3596580895
101325.3948324839
101325.429281063
101325.4626195538
101325.4944745194
101325.5243392919
101325.5517318841
101325.5760566939
101325.5967642434
101325.6132173769
101325.6248526441
101325.6310504045
101325.6312984925
101325.6250737308
101325.6120383217
101325.5920149457
101325.5653996482
101325.5334545011
101325.498527484
101325.4627048713
101325.4268259359
101325.3909508801
101325.3551660307
101325.3195531095
101325.2843175014
101325.249678524
101325.2159851199
101325.183599146
101325.1530106176
101325.124711363
101325.0993106404
101325.0773993181
101325.0596647937
101325.0467452478
101325.0393424558
101325.0380628185
101325.0435162547
101325.0561093623
101325.0760344645
101325.1028065983
101325.1349387577
101325.1698720787
101325.2055571183
101325.2412718297
101325.2769797218
101325.3125837721
101325.3480029106
101325.3830169259
101325.4174101493
101325.4508261629
101325.4829147171
101325.5131949013
101325.541203404
101325.5663649078
101325.5881407927
101325.6059057393
101325.6190964192
101325.6270932241
101325.6293694264
101325.6253832353
101325.6147480586
101325.597193426
101325.5729007408
101325.54277388
101325.5088710685
101325.4735189686
101325.4379765275
101325.4024289894
101325.3669456031
101325.3315914957
101325.2965432746
101325.2619996347
101325.2282762587
101325.1957146642
101325.1647700409
101325.1359174782
101325.1097341013
101325.0868011248
101325.0677807872
101325.0533133639
101325.0440880744
101325.0407317873
101325.0438659757
101325.0539633896
101325.0713215327
101325.0957190711
101325.1260573684
101325.160039531
101325.1952819104
101325.230662619
101325.2660403271
101325.3013476995
101325.3365112613
101325.3713471822
101325.4056519648
101325.4391065304
101325.4713733461
101325.5020069673
101325.5305540675
101325.5564697736
101325.579219204
101325.5981993266
101325.6128409997
101325.6225357828
101325.6267382905
101325.6249015105
101325.6165930484
101325.6014802056
101325.5795691541
101325.5514594486
101325.5188353446
101325.4840804488
101325.4488877063
101325.4136732736
101325.3785015365
101325.3434254094
101325.3085901393
101325.2741746357
101325.2404608743
101325.2077696227
101325.1765259955
101325.1471880996
101325.1203094591
101325.0964594916
101325.0762840438
101325.0604153119
101325.0495349315
101325.0442511973
101325.0451908381
101325.05286782
101325.0676027122
101325.0894205749
101325.1176003198
101325.1501477699
101325.1844996943
101325.2192218932
101325.2540341551
101325.2888262737
101325.3235569213
101325.3580670037
101325.3921537838
101325.4254646823
101325.4577282981
101325.4884251112
101325.5171463508
101325.543357992
101325.5666420869
101325.5863723915
101325.6020106631
101325.6132762753
101325.6193573685
101325.6197159123
101325.6141128431
101325.6017815218
101325.5828730324
101325.5577089085
101325.5276096074
101325.4947956921
101325.4609230464
101325.4269799229
101325.3930235057
101325.3590757145
101325.3253914286
101325.2918340123
101325.2587669133
101325.2266353158
101325.1957731349
101325.1666603148
101325.139884877
101325.1159336077
101325.0953982746
101325.0788339908
101325.0669894266
101325.0601595207
101325.059205885
101325.064640454
101325.0768305125
101325.0959759211
101325.1216338646
101325.1522608003
101325.1855273198
101325.2195092368
101325.2536651545
101325.2878576825
101325.3217258145
101325.3557976954
101325.389174238
101325.4221659725
101325.4542365139
101325.4850250577
101325.514036144
101325.5407894017
101325.5646767813
101325.5852630832
101325.6020009001
101325.6142602804
101325.6218909739
101325.6239875321
101325.6201887113
101325.610107755
101325.5933303072
101325.5703005734
101325.5418471037
101325.5098351189
101325.4763054692
101325.4423055048
101325.4083938846
101325.3746179003
101325.3408448077
101325.3077356509
101325.2744279343
101325.2421594532
101325.2110047331
101325.1812729156
101325.1537212815
101325.1287934747
101325.1070613638
101325.0892585166
101325.0757938405
101325.0674259369
101325.0643702033
101325.0675215922
101325.0771847759
101325.0937030524
101325.1168546349
101325.1456146078
101325.1778476395
101325.2114587926
101325.2452944511
101325.2791082367
101325.3129300838
101325.3461966417
101325.3798750436
101325.4120916327
101325.4442762308
101325.4751853539
101325.5044869399
101325.5320036367
101325.5566598696
101325.578241807
101325.5960980975
101325.609683247
101325.6185281453
101325.6223247776
101325.620872789
101325.6126722759
101325.5999791995
)
;

boundaryField
{
    inlet
    {
        type            calculated;
        value           uniform 101324.9999999999;
    }
    outlet
    {
        type            calculated;
        value           uniform 101325.5875266923;
    }
    frontAndBack
    {
        type            empty;
    }
}


// ************************************************************************* //
