/*--------------------------------*- C++ -*----------------------------------*\
| =========                 |                                                 |
| \\      /  F ield         | OpenFOAM: The Open Source CFD Toolbox           |
|  \\    /   O peration     | Version:  v2012                                 |
|   \\  /    A nd           | Website:  www.openfoam.com                      |
|    \\/     M anipulation  |                                                 |
\*---------------------------------------------------------------------------*/
FoamFile
{
    version     2.0;
    format      ascii;
    class       volScalarField;
    location    "0.008";
    object      rho;
}
// * * * * * * * * * * * * * * * * * * * * * * * * * * * * * * * * * * * * * //

dimensions      [1 -3 0 0 0 0 0];


internalField   nonuniform List<scalar> 
1000
(
1.17629815471719
1.176321892219646
1.176268391348455
1.176225031857806
1.176174506693923
1.176128565218057
1.176089742041291
1.176057135128427
1.176029289480378
1.176010354215037
1.176004938803644
1.176004640197139
1.17600724476778
1.176015592966294
1.176032090956235
1.176057134728352
1.176089765014108
1.176128521666639
1.176172180716744
1.176219877746834
1.176270897026535
1.176324473509677
1.176379718907376
1.176435623041512
1.17649108564368
1.176544994080707
1.176596379941437
1.176644649623444
1.176689751049393
1.176731835659506
1.176769643355402
1.176797752903354
1.176809770633673
1.176811132449019
1.176810618562064
1.17680842765563
1.176802314464576
1.176790273623281
1.176770592788449
1.176742486548942
1.176706292123185
1.176663281940309
1.176615144806317
1.176563463520651
1.176509469491222
1.176454101931394
1.176398193087655
1.176342598960607
1.176288195734218
1.176235722997476
1.176185543860517
1.176137636824524
1.176092429726061
1.176053019210468
1.176026807336763
1.176017887027435
1.176017284219226
1.176017634201068
1.176019780641054
1.176025104369082
1.176035461374633
1.176052446167868
1.176077190574808
1.176110053553866
1.176150520391293
1.176197323962699
1.176248766706234
1.176303114043633
1.176358884902635
1.176414939632934
1.176470427801164
1.176524752726509
1.17657761534456
1.176629003203938
1.17667886909391
1.176726152644182
1.176766800610426
1.176792960557627
1.176801550802489
1.17680217495011
1.176801710944636
1.176800008769964
1.176795481657342
1.176786679360698
1.176772065373537
1.176750386188824
1.176720891131197
1.176683530130902
1.176639004563561
1.176588648415201
1.17653418158158
1.176477406281137
1.176419914678129
1.176362878116036
1.17630697281436
1.176252435350418
1.176199222549707
1.176147431397404
1.176098485357563
1.176057364129728
1.176032476942821
1.176025229887883
1.176024862396585
1.176025163982701
1.176026888989173
1.176031079051048
1.176039195671063
1.176052611870665
1.176072534140311
1.176099788544517
1.176134658379803
1.176176776360797
1.176225131361308
1.176278220818225
1.176334312098557
1.176391728648225
1.176449098879583
1.176505540749799
1.176560727337857
1.1766147188559
1.176667410429239
1.176717345384336
1.176759722232116
1.176786286768481
1.176794786290825
1.176795435149787
1.17679508291714
1.176793773299082
1.176790234347236
1.176783274639774
1.17677156790551
1.176753899190906
1.176729306808192
1.176697254519367
1.176657757208851
1.17661143306876
1.176559463243265
1.176503438684226
1.176445093003747
1.17638598547767
1.176327250591038
1.176269507695064
1.176212991594083
1.176158071236063
1.176106569961038
1.17606394976495
1.17603866285023
1.176031386763601
1.176030975919085
1.176031202840353
1.176032563122849
1.176035942122383
1.176042564165917
1.176053626247171
1.176070262558326
1.17609339591581
1.17612360567919
1.176161001310682
1.176205148955996
1.1762550920328
1.17630947038962
1.176366714046837
1.176425290644014
1.176483969998475
1.176542001119501
1.176599038645998
1.176654645269736
1.176707120357117
1.176751524730434
1.17677958476315
1.176788920262642
1.176789751684528
1.17678949628447
1.176788515666574
1.176785724417782
1.176780104673217
1.176770482298559
1.176755728190958
1.176734851348156
1.176707130442192
1.176672228119177
1.176630277867307
1.176581925122117
1.17652828727479
1.176470801557801
1.176410983907762
1.176350179488171
1.176289397505304
1.176229339056091
1.176170848740747
1.176116214049116
1.176071283447197
1.17604461684425
1.176036718227849
1.176036177466253
1.176036348037864
1.176037433109383
1.176040188524035
1.176045676955005
1.176054962335156
1.176069098974904
1.176089016533615
1.176115416264577
1.17614865998538
1.176188685263474
1.176234977239379
1.176286605792396
1.176342326535116
1.176400753891196
1.176460591881353
1.176520829967308
1.176580741232846
1.176639489193369
1.176695057245948
1.176742336140613
1.176772874594432
1.176783677330245
1.176784828259803
1.176784649046982
1.176783907943779
1.176781679561852
1.17677707989441
1.176769063555057
1.17675658898645
1.176738682736461
1.176714544129692
1.176683641782791
1.176645801191433
1.176601271212136
1.176550737133892
1.176495247294005
1.176436060866193
1.176374464886888
1.176311620508479
1.176248544358753
1.176186488071232
1.176128173949104
1.176079879452006
1.176050660162992
1.176041538060663
1.176040781519405
1.176040891795994
1.176041741452529
1.176043986572549
1.17604857563336
1.176056460711049
1.176068612440408
1.176085929534679
1.176109159743768
1.17613880697629
1.176175050727966
1.176217699739123
1.176266186560714
1.176319609265294
1.176376840206635
1.176436699675019
1.176498121015858
1.17656016988913
1.176621733622555
1.17668056885731
1.176731450639857
1.176765578221203
1.176778704044297
1.176780407204289
1.176780293822675
1.176779758443707
1.176777990538152
1.17677421360139
1.176767482784637
1.176756841715247
1.176741360326301
1.176720216101551
1.176692771837971
1.176658655087373
1.176617829614346
1.176570632348764
1.176517749000275
1.176460129488042
1.176398868867791
1.176335091302238
1.176269933061514
1.17620488144431
1.176142920651716
1.176090565397025
1.176057488290087
1.176046145918149
1.176044949296656
1.176045016285203
1.176045671097163
1.176047494093533
1.176051335235724
1.17605805961211
1.176068567322509
1.176083719657139
1.176104275052347
1.176130812983161
1.176163665581309
1.17620286954795
1.17624814042899
1.176298878667538
1.176354231949258
1.176413215897203
1.176474834925163
1.176538097370909
1.176601768716316
1.176663548109442
1.176718306273973
1.176757006974342
1.176773605212516
1.176776313574734
1.176776270812754
1.176775913379041
1.176774531311684
1.176771445924881
1.176765788586
1.176756675121857
1.17674322327225
1.17672461643626
1.176700164829716
1.176669373136791
1.176632006947286
1.176588137588662
1.176538146077555
1.176482685845249
1.176422616182066
1.176358927279225
1.17629273664958
1.176225586459938
1.176160465708252
1.176103776888874
1.176065676394537
1.176050885896602
1.176048859084252
1.176048872113048
1.176049350939702
1.176050799669264
1.176053992236388
1.176059724709355
1.17606883602981
1.176082146589389
1.17610040705592
1.176124236273871
1.17615406446074
1.176190087519922
1.176232232408795
1.176280144710677
1.176333221474889
1.176390689538399
1.176451684194148
1.176515254323983
1.1765801707065
1.176644239438782
1.176702682665377
1.176746583830678
1.176767933342468
1.176772381436408
1.176772489192447
1.176772268083465
1.17677121523639
1.176768722010262
1.176763985175868
1.176756180165386
1.176744468608504
1.176728050244198
1.176706211820392
1.176678383614779
1.17664419594838
1.176603523718918
1.176556507754804
1.176503548801084
1.176445275285539
1.176382500243045
1.176316235603508
1.176247949048039
1.176180431702168
1.176119629478899
1.176075763349845
1.176056167694559
1.176052643792597
1.176052588275389
1.176052891965266
1.176054006932835
1.17605661704083
1.176061470295683
1.176069357894138
1.176081063547654
1.17609732185679
1.176118768597269
1.17614589483611
1.176179005681971
1.1762181829197
1.176263263939351
1.176313855983216
1.176369382312861
1.176429127118264
1.176492233301625
1.176557559404153
1.176623127912357
1.176684702879305
1.17673391390739
1.17676115086105
1.176768420924307
1.176768874446634
1.176768748705994
1.176767975092819
1.176765998831827
1.176762066971669
1.176755406878506
1.176745217845376
1.17673071964957
1.176711190857748
1.176686015851979
1.176654733714353
1.176617079462117
1.17657301129966
1.176522722702284
1.176466636795529
1.176405388640946
1.176339847157986
1.176271326532681
1.176202297813447
1.176138014349258
1.176088208639633
1.176062489366007
1.176056425220887
1.176056137120483
1.176056330437899
1.176057153482754
1.176059254571378
1.176063329022532
1.176070129567446
1.176080408886749
1.176094885330498
1.176114203455924
1.17613889430377
1.176169336666116
1.176205723463295
1.176248040962052
1.176296067897799
1.176349393860664
1.176407445403822
1.176469488693885
1.176534520549167
1.176600824193049
1.17666477730714
1.176718895110579
1.176752726304771
1.176764115091605
1.176765308637706
1.176765239875334
1.176764721758106
1.176763206229733
1.176760002192523
1.176754370694274
1.176745544046638
1.176732760891407
1.176715299155624
1.176692516687618
1.176663893790948
1.176629067619096
1.176587859128967
1.176540298034366
1.176486636946109
1.176427346935256
1.176363138246206
1.176295135183828
1.176225448954363
1.176158543956055
1.176103195864717
1.176070424230791
1.176060451526273
1.176059583075528
1.176059713946257
1.176060280688875
1.176061935429913
1.176065312219311
1.176071135824664
1.176080132335762
1.176093005564391
1.176110400804287
1.176132874320623
1.176160859685611
1.176194632709989
1.176234288394098
1.176279738171603
1.176330716477819
1.176386783551979
1.176447319022148
1.176511453726593
1.176577745096872
1.17664321264486
1.176701478169877
1.176742153459384
1.176759147664815
1.176761861932536
1.176761902924681
1.17676154679346
1.176760417726399
1.176757830538221
1.176753097133837
1.176745475348002
1.176734223438223
1.17671862472268
1.176698022363148
1.1766718537228
1.176639682359499
1.176601228357412
1.176556396045288
1.176505292009434
1.17644823424979
1.176385784385383
1.176318885578121
1.176249291840346
1.176180672282338
1.176120593368507
1.176080468507107
1.176065139003232
1.176063063889668
1.176063100086144
1.176063472256317
1.176064723300338
1.176067465575521
1.176072394096492
1.176080213270825
1.176091614678068
1.176107245434504
1.176127679603583
1.176153387508556
1.176184705950115
1.176221816676907
1.1762647354328
1.176313307137146
1.17636720489449
1.176425926543185
1.176488741208966
1.176554444028652
1.176620622251128
1.176682052317793
1.176729165697569
1.176752952239693
1.176758334159967
1.176758562458299
1.176758368196504
1.176757559913123
1.176755520272476
1.176751590664082
1.176745055015751
1.176735189832002
1.176721287287151
1.176702683153503
1.176678786052278
1.176649107811943
1.17661329323065
1.176571146927826
1.176522655500627
1.176468007857768
1.176407630578076
1.176342291903166
1.176273420615886
1.176203972479091
1.17614022532031
1.176093016371087
1.176070904596915
1.17606653274057
1.176066412298794
1.176066635951805
1.176067550284351
1.176069740258035
1.176073866555495
1.176080617575247
1.17609067480606
1.17610468568065
1.176123237007805
1.176146826753649
1.176175837570244
1.176210516946679
1.176250963592167
1.176297116608579
1.176348749130443
1.17640546426481
1.176466656190932
1.176531329190847
1.176597546056782
1.176661118947259
1.176713733813316
1.176744906646821
1.176754395857497
1.176755219646939
1.176755107849641
1.176754565318484
1.176753001389431
1.176749795890814
1.176744256409331
1.176735674905333
1.176723348395806
1.176706606848638
1.176684838140222
1.176657514209285
1.176624220652722
1.176584686082751
1.176538804874596
1.176486657579542
1.176428547712189
1.176365089138083
1.176297439145549
1.17622794428176
1.176161648037442
1.176108168714718
1.176078342196248
1.176070236863644
1.176069681337337
1.176069791804697
1.176070430711085
1.176072130720603
1.176075538830354
1.176081320896051
1.176090148827095
1.176102667828668
1.176119472249667
1.176141080411535
1.176167911268785
1.176200264707282
1.176238305020969
1.176282047805175
1.176331352535255
1.176385916230139
1.176445241295486
1.176508506924267
1.176574173988672
1.176638965750533
1.176696003342909
1.176734635648988
1.176749809819966
1.176751971374957
1.176751951152309
1.176751608546148
1.176750448205456
1.176747875739932
1.176743220340211
1.176735789724284
1.176724890099212
1.176709850905806
1.176690048051119
1.176664928141056
1.176634034103487
1.17659703138032
1.176553733660808
1.176504129088361
1.176448414084156
1.17638705995267
1.176320988614784
1.17625205990663
1.176184272324291
1.17612575170116
1.176088038855107
1.176074595795775
1.176072989144555
1.176073033493543
1.176073448553958
1.176074731279048
1.176077490528872
1.176082377493499
1.176090054147299
1.176101166462379
1.176116318496643
1.17613604754233
1.176160802652205
1.176190926715793
1.176226638903092
1.176268018401659
1.176314995789469
1.176367348944173
1.176424677898591
1.176486307720463
1.176551004925031
1.176616217661111
1.176676441934184
1.176721851808853
1.176743936033593
1.176748598465784
1.176748751508252
1.176748572887124
1.176747738662508
1.176745718519893
1.176741860388527
1.176735488968454
1.176725917727011
1.176712475637204
1.176694528014357
1.176671499444254
1.176642898194384
1.176608341203064
1.17656757897014
1.176520521946155
1.176467273235006
1.176408183218379
1.176343979535283
1.176276124618109
1.176207740363788
1.176145436579174
1.176100260791452
1.176080010979584
1.176076308877793
1.176076234097478
1.176076474334645
1.176077403737092
1.176079592666983
1.176083672179767
1.176090297728622
1.176100113976028
1.176113730869666
1.176131700544544
1.1761544966936
1.176182495936517
1.176215960830227
1.17625502576358
1.176299686908274
1.176349792914119
1.176405023986811
1.176464827092013
1.176528216989734
1.176593210947357
1.176655492686443
1.176706586858016
1.176736216710419
1.176744879061069
1.176745572984874
1.176745475155802
1.176744913125768
1.176743365875585
1.176740215551433
1.176734804472863
1.176726456184389
1.176714501126348
1.176698297536633
1.176677253382467
1.176650849612261
1.176618663038403
1.176580389509831
1.176535870849001
1.176485127954431
1.176428406655818
1.176366273332657
1.176299875438232
1.176231635501414
1.176166786426574
1.176115117864157
1.176087077858376
1.176079821181916
1.176079370288392
1.176079506520598
1.176080142740547
1.176081841526065
1.176085204964317
1.176090876818629
1.17609949784085
1.176111681271488
1.176127990466519
1.176148920314474
1.176174878808104
1.176206167978848
1.176242968763605
1.176285332556923
1.176333172338665
1.176386241797978
1.176444087127311
1.176505913192304
1.176570180829637
1.17663356393232
1.176689102663014
1.176726254118018
1.176740493568478
1.176742434649868
1.176742425177249
1.176742063664083
1.17674092140247
1.176738394301999
1.17673384764367
1.176726615975899
1.176716033950591
1.176701455978328
1.17668227744514
1.17665795613898
1.176628034782367
1.176592164798493
1.176550131829175
1.176501884846905
1.176447576334432
1.176387639296198
1.176322978106407
1.17625547536269
1.176189209983677
1.176132401350274
1.176096399336819
1.17608396840116
1.176082565832731
1.17608261847336
1.176083039621513
1.176084318348342
1.176087040776974
1.176091834277413
1.176099334615855
1.176110159671177
1.176124885983017
1.176144028606674
1.176168022097617
1.176197202823304
1.176231794746891
1.176271898864309
1.17631748253143
1.176368363286423
1.17642417562816
1.1764842762788
1.176547455188063
1.176611154829303
1.176669847627552
1.176713793750344
1.176734856290694
1.176739197330105
1.176739340031289
1.176739138362972
1.17673832527564
1.17673633965596
1.176732569896717
1.176726362238283
1.176717056741095
1.176704006156712
1.176686596482522
1.17666426739722
1.176636533176745
1.176603005798695
1.176563420728721
1.176517664638258
1.176465809565344
1.176408173582819
1.17634546262498
1.176279138673701
1.176212347874413
1.176151729497572
1.176108220307668
1.176089122020612
1.176085764101388
1.176085712093604
1.176085948614797
1.176086874365545
1.176089030655743
1.176093032551809
1.176099510339458
1.176109082325644
1.176122332438927
1.176139790258356
1.17616191242903
1.176189065769312
1.176221512965683
1.176259400380322
1.176302746126178
1.176351426285478
1.176405150956759
1.176463397127649
1.176525203819979
1.176588602029393
1.176649294072404
1.176698895969658
1.176727412567316
1.176735620644167
1.176736260369595
1.176736165298176
1.176735619035872
1.176734096788901
1.176731003661157
1.176725701579704
1.176717543195434
1.176705894564853
1.176690153094303
1.176669760682314
1.176644216400256
1.176613093744092
1.176576062875886
1.176532914740369
1.176483592554908
1.176428261616197
1.176367431374766
1.176302225459899
1.176235110590221
1.176171301990567
1.176120734689206
1.176093971249927
1.176086598924896
1.176085777580459
1.176086262150333
1.176087521421418
1.176089838747036
1.176093557250479
1.176099194775979
1.176107344970583
1.176118644227183
1.176133769965987
1.176153408275263
1.176178173358277
1.176208527747994
1.176244733047366
1.176286827931459
1.176334622003185
1.176387727466869
1.176445588435558
1.176507315735936
1.176571311999079
1.176634279720332
1.176688961903358
1.176724945247103
1.176739635391302
1.176743165067286
1.176743475771286
1.17674235911531
1.176740075441891
1.176736307909288
1.176730881370394
1.176723303577548
1.176712917131231
1.176699022823703
1.176680907584637
1.176657839869564
1.176629111399899
1.176594136610617
1.17655257050917
1.176504389936784
1.176449886364418
1.176389656650539
1.176324874512026
1.176257731204309
1.176192288588929
1.17613667356435
1.176101406288155
1.176087606156647
1.176084338080619
1.176083731059662
1.176084674001203
1.176086987332199
1.176090952352787
1.176096794925012
1.176104903593054
1.17611575181151
1.176129867750928
1.176147862070126
1.176170419861538
1.176198206970247
1.176231735004768
1.176271253426787
1.176316711065719
1.176367771478785
1.176423854354861
1.176484034753117
1.176546738783812
1.176609326729345
1.176666585956079
1.176709442738407
1.176731621919928
1.176738438059296
1.176739593211826
1.176739465811539
1.176737926381913
1.176734708755657
1.176729531762946
1.176722081989797
1.176712008628931
1.17669891384954
1.176682285819195
1.17666143332229
1.176635520363887
1.176603704003194
1.176565309165639
1.176519987193701
1.176467875155129
1.176409646760576
1.176346574467715
1.176280729228917
1.176215219349748
1.176156027393068
1.176113260136615
1.176092504252973
1.176086589426561
1.176085618624846
1.176085765572169
1.176087234835187
1.176090332268447
1.176095493595017
1.176103214379414
1.176113908084827
1.176127825652994
1.176145154561192
1.176166193818049
1.176191453794793
1.176221658346116
1.176257672852814
1.17630021395042
1.176349254023952
1.176403446481538
1.17646188453769
1.176522701762411
1.176595936306871
)
;

boundaryField
{
    inlet
    {
        type            calculated;
        value           uniform 1.176395950917642;
    }
    outlet
    {
        type            calculated;
        value           uniform 1.176628455333788;
    }
    frontAndBack
    {
        type            empty;
    }
}


// ************************************************************************* //
