/*--------------------------------*- C++ -*----------------------------------*\
| =========                 |                                                 |
| \\      /  F ield         | OpenFOAM: The Open Source CFD Toolbox           |
|  \\    /   O peration     | Version:  v2012                                 |
|   \\  /    A nd           | Website:  www.openfoam.com                      |
|    \\/     M anipulation  |                                                 |
\*---------------------------------------------------------------------------*/
FoamFile
{
    version     2.0;
    format      ascii;
    class       volScalarField;
    location    "0.008";
    object      T;
}
// * * * * * * * * * * * * * * * * * * * * * * * * * * * * * * * * * * * * * //

dimensions      [0 0 0 1 0 0 0];


internalField   nonuniform List<scalar> 
1000
(
299.987338151554
299.9890980408493
299.9827785060824
299.9781396004001
299.9737304610379
299.9699243487553
299.9664631842777
299.9633478979001
299.9606407642579
299.9588693912117
299.9584587788022
299.958595096202
299.9590258858491
299.9599201668792
299.9615787292345
299.9640899248228
299.9673665074164
299.9712619083539
299.9756546829059
299.9804618980473
299.9856164498653
299.9910449571072
299.9966590117207
300.0023552253076
300.0080190757566
300.0135336612397
300.0187964393871
300.0237432418319
300.0283655683789
300.0326764622429
300.0365459293403
300.039420386687
300.0406477444689
300.0407851127349
300.0407276519315
300.0404957381955
300.0398646861941
300.0386308709523
300.0366190870162
300.033749160182
300.0300554920697
300.0256676001894
300.0207573036161
300.0154855801653
300.0099776171409
300.0043289117014
299.9986242067009
299.9929508294072
299.9873982955432
299.9820422623951
299.9769199927126
299.9720294776448
299.9674145394553
299.9633913767079
299.9607156074668
299.9598050322359
299.9597435873843
299.9597795419692
299.9599989368091
299.9605425718462
299.9615998920062
299.9633336693045
299.9658594260555
299.9692137843241
299.9733441861255
299.9781212724957
299.9833717519855
299.9889185621209
299.9946105240122
300.0003313143015
300.0059941351944
300.0115380931882
300.0169326730527
300.022176611607
300.0272651003423
300.0320899496892
300.0362375957426
300.0389068550421
300.0397833580255
300.0398470402017
300.0397996940235
300.039626013299
300.0391640909021
300.0382659446506
300.0367747869009
300.0345626984272
300.0315530563174
300.0277407153304
300.0231972010485
300.0180585929583
300.0125003602535
300.0067063892589
300.0008391488291
299.9950181780391
299.9893124966566
299.9837462603825
299.9783150738104
299.9730288462675
299.9680328830578
299.963835502752
299.9612951365847
299.9605553856308
299.9605178753449
299.9605486628464
299.9607247470127
299.9611524525138
299.9619809615238
299.963350419399
299.9653839654987
299.9681658976339
299.9717251007852
299.9760240455228
299.9809594833005
299.9863780116238
299.9921027593637
299.9979625967285
300.0038175362608
300.0095775652
300.0152093299935
300.0207189854314
300.0260958389973
300.0311912606919
300.0355153367559
300.0382258920998
300.039093146821
300.0391593551807
300.0391234169754
300.0389897914422
300.0386286927842
300.0379185517195
300.036724035744
300.0349211645938
300.0324117918433
300.0291411727032
300.025110788785
300.0203836780129
300.01508032479
300.0093630418897
300.0034087163399
299.9973764625192
299.9913820593289
299.9854887231082
299.9797204279784
299.9741148417959
299.9688580872861
299.9645077171861
299.9619265562096
299.961183843829
299.9611419081909
299.9611650742181
299.9613039286666
299.9616488436714
299.9623247920325
299.9634539528319
299.9651520892769
299.9675133808848
299.970596939866
299.9744139055424
299.9789199540375
299.9840174064289
299.9895673992165
299.9954096658609
300.0013877958748
300.0073762346427
300.0132983433963
300.0191188849528
300.0247932429107
300.0301478943442
300.034678878023
300.0375420401255
300.0384945979515
300.0385794351444
300.0385533780571
300.0384533229835
300.03816851703
300.0375951005532
300.0366132658485
300.0351077954111
300.0329775564914
300.0301489245303
300.0265874456072
300.022306702411
300.0173725136535
300.0118988606816
300.0060323729857
299.9999277264874
299.9937221856787
299.9875187430334
299.9813889561293
299.9754190375712
299.9698424859981
299.9652563057915
299.962534322678
299.9617280682622
299.9616728720123
299.9616902866475
299.9618010495172
299.9620823119401
299.9626425463267
299.9635903506793
299.9650333365825
299.967066386004
299.969761058733
299.9731542585926
299.9772395777751
299.9819644248685
299.987233824466
299.992920732317
299.9988837061867
300.0049904627309
300.0111378633407
300.0172517244187
300.0232466899905
300.0289169924821
300.0337413161536
300.0368573819185
300.037959654322
300.0380770932805
300.0380588102695
300.0379831949579
300.0377558219971
300.0372864902833
300.0364685301108
300.0351956587199
300.0333685374546
300.0309054501678
300.0277521501519
300.0238907977698
300.0193467469135
300.0141898839581
300.008527146057
300.0024869949012
299.9962007485939
299.989786892441
299.9833491753582
299.9770153451662
299.9710632762657
299.9661337601409
299.9631512231931
299.9622200830415
299.9621428612822
299.9621541215451
299.9622408543792
299.9624700280314
299.9629384586187
299.9637433269901
299.9649837051037
299.9667513189389
299.9691224785059
299.9721485963027
299.975847963433
299.9802010215376
299.9851498123066
299.9906022404545
299.9964431801355
300.0025522028577
300.0088204306972
300.0151525009312
300.0214348642515
300.0274386070325
300.0326306016281
300.0361129086698
300.0374522237129
300.0376260100808
300.0376144438292
300.0375598196298
300.0373794316087
300.0369940477348
300.0363072574791
300.0352214713642
300.0336417800024
300.0314842423207
300.0286838186706
300.0252024763555
300.0210364822341
300.0162201764988
300.0108234892019
300.0049433159412
299.9986913718148
299.9921823539144
299.9855322083478
299.9788927235637
299.972568494996
299.9672245232607
299.9638482165535
299.9626904440106
299.9625683005494
299.962575141436
299.9626419849722
299.9628280696576
299.9632201554905
299.9639065446705
299.9649791104532
299.9665257609111
299.9686238999969
299.9713326576102
299.9746859092197
299.9786873684321
299.983307963827
299.9884864608542
299.9941358301874
300.00015557082
300.0064440473643
300.0129000360251
300.0193975424496
300.0257017756834
300.0312893604489
300.035238320715
300.0369319534692
300.037208306641
300.037203945456
300.0371674773507
300.0370264581724
300.036711636788
300.036134379858
300.0352044658672
300.0338318652202
300.0319332432093
300.0294381987242
300.026296166239
300.0224831950673
300.0180065256428
300.0129049959749
300.0072452424492
300.0011149129264
299.9946150217437
299.9878595883606
299.9810059880899
299.974359292313
299.9685730331303
299.9646839908735
299.9631742539713
299.9629673681137
299.9629687001627
299.9630175790952
299.9631654596846
299.9634913412565
299.964076481157
299.9650065107977
299.966365165082
299.9682290574288
299.9706613396355
299.9737059029368
299.9773827147458
299.981684285154
299.9865744012466
299.9919914829145
299.9978565808772
300.0040814092682
300.0105688724638
300.017193506043
300.0237314208674
300.0296950869607
300.0341747251329
300.0363531704125
300.036807039804
300.0368180362833
300.0367954770885
300.0366880497098
300.0364336495418
300.0359503170525
300.0351539133852
300.0339588886527
300.0322835775689
300.0300551874707
300.0272155643087
300.0237269586567
300.0195765704429
300.0147787298518
300.0093742868522
300.0034273260141
299.9970207752189
299.9902578685886
299.9832883672316
299.9763971318159
299.9701910726677
299.9657135436068
299.9637133274715
299.963353626084
299.9633479605146
299.9633789611767
299.9634927723995
299.9637591986668
299.9642545917634
299.9650597102033
299.9662545459583
299.967914074293
299.9701031779258
299.9728719625008
299.9762515457689
299.9802502442552
299.9848514243586
299.9900149594047
299.9956819451917
300.0017792871154
300.0082194776082
300.0148859993884
300.0215770336034
300.0278603322739
300.0328818253083
300.0356610223269
300.0364028366636
300.0364491134312
300.0364362844153
300.036357348375
300.0361556969564
300.0357545007755
300.035074920696
300.0340352509007
300.0325558724361
300.0305631603151
300.0279942805925
300.0248021775593
300.0209597812142
300.0164627890063
300.0113309010311
300.0056072497363
299.9993565963434
299.992667572938
299.9856742649996
299.9786288508563
299.972067531528
299.9669837762792
299.9643585073761
299.9637395111805
299.9637101040407
299.9637298376585
299.9638138502757
299.964028317877
299.9644442141652
299.9651383718449
299.9661876163591
299.9676652657303
299.9696371012369
299.9721573115885
299.9752645387753
299.9789784461785
299.983297598384
299.9881993735976
299.9936418430444
299.999566438981
300.0058982288432
300.0125347996271
300.0193009299205
300.0258269733153
300.031349205283
300.0348012853929
300.0359633637227
300.0360851497967
300.0360781339738
300.0360252673092
300.0358706271005
300.0355436952237
300.0349690696898
300.0340684145953
300.0327640371965
300.0309822492493
300.0286575120639
300.0257367754932
300.022182986961
300.0179778420211
300.0131243319233
300.0076481889705
300.0015974372623
299.995044511008
299.988104109194
299.9809916716476
299.9741628538732
299.9685134324735
299.9651683218237
299.9641503621908
299.9640617155919
299.9640750744046
299.9641329245364
299.9643018309153
299.9646465132161
299.9652409501277
299.9661592535904
299.9674732588674
299.9692488242345
299.9715427155546
299.9743991692193
299.9778463123498
299.9818938106616
299.9865325884559
299.9917355011359
299.9974576240522
300.0036356012839
300.010180691969
300.0169456493596
300.0236263090349
300.0295718404082
300.0337223133261
300.0354563583896
300.0357333142035
300.0357374970488
300.0357011584406
300.0355859512389
300.0353219604822
300.0348389737246
300.0340612599694
300.0329131290731
300.0313214445446
300.0292191714153
300.0265488808465
300.0232660138254
300.0193419759446
300.0147669664316
300.0095518179186
300.0037289335411
299.9973555774807
299.9905279566258
299.9834250455864
299.9764213108816
299.9702890762755
299.966193428622
299.9646286811586
299.9644168648188
299.9644205595192
299.9644585483867
299.9645862472871
299.9648661616157
299.9653692332635
299.9661673615583
299.9673311341739
299.9689265969371
299.9710123345002
299.973636337066
299.9768329599078
299.980620725903
299.9850012083909
299.9899585408194
299.9954593180371
300.0014522471214
300.0078626967341
300.0145676719356
300.0213209326328
300.0275894501325
300.0323969040275
300.0348240343044
300.0353731901646
300.0353964849661
300.0353766627989
300.0352941872021
300.0350860664649
300.0346850967734
300.0340182100443
300.0330115788671
300.0315929717767
300.0296946017585
300.0272561097287
300.0242276612311
300.0205729828049
300.0162721020604
300.011323609607
300.0057467361174
299.9995849640002
299.9929166453829
299.9858875548895
299.9787993374339
299.9722927610545
299.9674740661799
299.9652170346945
299.9647707799114
299.9647584856887
299.9647813145386
299.9648746436284
299.965098181993
299.9655193672394
299.9662084650292
299.9672350338509
299.9686651531024
299.9705587101674
299.9729665190785
299.9759276178336
299.9794672421725
299.983595436094
299.9883059478386
299.9935755826485
299.9993637910304
300.0056087021476
300.0122086603213
300.0189659447897
300.0254531979726
300.0308220780714
300.0340029117492
300.0349711664463
300.0350552235079
300.035043815656
300.0349884565474
300.0348288760496
300.0345017926119
300.0339365525622
300.0330609062571
300.0318031175062
300.0300948087002
300.0278735062203
300.025085308013
300.0216879027251
300.017653565087
300.0129714776808
300.0076498154838
300.0017195026468
299.9952431350154
299.9883387740452
299.98124587532
299.9744791990739
299.9690205327624
299.9659760480607
299.9651487027396
299.9650919975701
299.9651032730535
299.9651684881104
299.9653420137119
299.9656898906013
299.9662800837205
299.9671811744182
299.9684590157869
299.9701742663844
299.9723798199633
299.9751184223644
299.9784206601026
299.9823032739254
299.9867678217792
299.9917999228105
299.9973686128552
300.0034230655795
300.0098794727074
300.0165807306698
300.0231924414875
300.0290126848669
300.0329547048328
300.0345030442562
300.034723603649
300.0347215398156
300.0346865804485
300.0345681810383
300.034305690762
300.0338306605592
300.033072449189
300.0319602591327
300.0304256604151
300.0284049600343
300.0258416734681
300.0226891382891
300.0189131862881
300.0144947694776
300.0094326353507
300.0037467806223
299.997485252051
299.9907420870678
299.9837070585755
299.9767882504879
299.9708150816992
299.9669656456363
299.9655934610972
299.9654294633974
299.9654339898671
299.96547635601
299.9656072876885
299.9658889329009
299.9663877598371
299.9671713362822
299.9683055945224
299.9698521854764
299.9718659410682
299.9743926814917
299.9774673851234
299.9811123964008
299.9853357663279
299.9901303730509
299.9954735061545
300.0013243029977
300.0076138407999
300.0142162023503
300.0208709511195
300.0270164403815
300.0316500826301
300.0339035207981
300.034379264236
300.0343948799938
300.0343766533242
300.0342915299979
300.034085397519
300.0336917189866
300.0330415863759
300.0320649437663
300.0306933146625
300.0288619270109
300.0265120515955
300.0235934919058
300.020067133315
300.0159074827902
300.0111053623261
300.0056712477448
299.9996408460965
299.9930883656629
299.9861630145519
299.979183393071
299.9728241533052
299.9682130001391
299.9661460344221
299.965768146167
299.9657605126798
299.9657850339898
299.9658799006356
299.9661033311637
299.9665197386755
299.9671960257183
299.9681979916547
299.9695878897354
299.9714220684903
299.9737488651496
299.9766067032468
299.9800223581722
299.9840095176386
299.9885677567901
299.9936815899796
299.9993183376524
300.0054215167222
300.0118905406961
300.0185230423713
300.0248785565601
300.0300922797044
300.0331156816247
300.0339995697119
300.0340703758904
300.0340603931606
300.0340030439968
300.0338451644935
300.0335237092789
300.0329715684721
300.0321197150359
300.0308998232283
300.0292464003238
300.0270990233637
300.024404710672
300.0211202559636
300.0172145924782
300.0126715419461
300.0074931937141
300.0017045865978
299.9953634711934
299.9885869054996
299.9816220997942
299.9750031465864
299.9697293212673
299.9668672027011
299.9661264867795
299.9660804620719
299.9660943673245
299.9661593077705
299.9663327075199
299.966676022888
299.9672549634942
299.9681349301503
299.9693785131992
299.9710432079111
299.973179516782
299.9758290677615
299.9790226677598
299.9827787579935
299.9871025522627
299.9919851325307
299.9974013201383
300.0033047588036
300.0096142610198
300.0161727197719
300.0226406985259
300.0283080122732
300.0320989416772
300.0335519109565
300.0337499747636
300.0337490078048
300.0337121190159
300.0335955638134
300.0333377012647
300.0328737646433
300.0321358502263
300.0310560628745
300.029568520622
300.0276115185092
300.0251297138154
300.0220764243396
300.0184160529156
300.014126691291
300.0092030916242
300.0036607685751
299.9975438618447
299.9909446192862
299.9840551375697
299.97729170895
299.9714932989134
299.9678185054437
299.966549638172
299.9664064727768
299.9664118456106
299.9664548329789
299.9665853559322
299.9668632413615
299.9673525257892
299.9681181016302
299.9692230335242
299.9707261636561
299.9726800545994
299.9751290475645
299.9781074563818
299.9816381162602
299.9857313059433
299.9903836592551
299.9955765155202
300.0012725313837
300.0074060159506
300.0138534443864
300.0203538010005
300.0263430311787
300.0308273284355
300.0329765252681
300.0334194767667
300.0334340374256
300.0334134590361
300.0333304922207
300.0331278815077
300.0327432185803
300.0321097931221
300.0311602625886
300.0298285768468
300.0280520745033
300.0257735670243
300.0229434719827
300.0195221699049
300.0154826353004
300.0108132655318
300.0055213682193
299.9996393551907
299.9932392213709
299.9864701302397
299.979653157618
299.973465961693
299.9690249366124
299.9670755196561
299.966732765218
299.9667274563139
299.9667515983199
299.9668460918625
299.9670661897852
299.9674746728655
299.9681358744976
299.9691129037209
299.9704653579861
299.9722472837777
299.974505278835
299.9772767672357
299.9805885389318
299.9844555053844
299.9888794830645
299.9938477881381
299.9993307938468
300.0052750827749
300.0115825457668
300.0180522172432
300.0242455287466
300.0293069962008
300.0322168152665
300.0330543543168
300.0331196306198
300.033109929342
300.0330541889649
300.0328988601253
300.0325832397803
300.0320422185157
300.031209739068
300.0300211098755
300.0284148351245
300.0263339547467
300.023727337321
300.0205514395675
300.0167725753451
300.0123693765336
300.0073360071459
300.0016892889083
299.9954811633025
299.9888262569604
299.981976289837
299.9754635489243
299.9703021431913
299.967570335671
299.9668178187749
299.9667339814847
299.9667834426583
299.9669119795473
299.9671485147516
299.9675280712593
299.9681035056146
299.9689354106146
299.9700887403173
299.9716326336057
299.9736371099696
299.976164846086
299.979263031214
299.9829583391975
299.9872546841523
299.9921325953994
299.997552453233
300.0034574834517
300.0097569023293
300.0162876643544
300.0227132527777
300.0282931606116
300.0319648977672
300.0334638581919
300.033824020079
300.0338557235212
300.0337417812619
300.0335087580779
300.0331243235215
300.0325706046127
300.0317973709509
300.0307375386934
300.0293197554644
300.0274712507964
300.0251173640655
300.0221858017944
300.0186167838301
300.01437506976
300.0094582531005
300.0038960299661
299.9977492606596
299.9911376813798
299.9842848931718
299.9776054511256
299.9719288823634
299.9683290946998
299.9669204746224
299.9665868914922
299.9665249305406
299.9666211786737
299.9668573062922
299.9672620263131
299.9678583915862
299.9686860593876
299.9697933526507
299.9712341771973
299.9730708555398
299.975373303336
299.9782094656613
299.9816315374624
299.9856649493852
299.9903044416097
299.9955156351043
300.0012392617892
300.007380885953
300.0137798553542
300.0201667722932
300.0260097237147
300.0303828729076
300.0326460176087
300.0333415256749
300.0334593951607
300.0334463947225
300.0332893127107
300.0329609900633
300.0324327350457
300.0316725646355
300.0306446789996
300.0293084785139
300.027611729112
300.0254838897809
300.022839641072
300.0195929459871
300.0156748843112
300.0110498297144
300.0057317086661
299.9997892062422
299.9933521269886
299.9866318205796
299.9799455824719
299.9739040976942
299.9695390114186
299.9674206688726
299.9668172410327
299.966718368268
299.9667335211193
299.966883193496
299.9671975593911
299.9677204252109
299.9685033480393
299.9695929424753
299.9710217082455
299.972811062406
299.9749796380579
299.9775548285224
299.9805955218837
299.9842148869506
299.9885582974704
299.9937183940501
299.9996028393635
300.0058679838875
300.0116142462756
300.0173749289921
)
;

boundaryField
{
    inlet
    {
        type            fixedValue;
        value           uniform 300;
    }
    outlet
    {
        type            temperatureOutletNSCBC;
        pInf            101325;
        gamma           1.4;
        etaAc           1;
        fieldInf        1;
        lInf            2.25;
        value           uniform 300.019979935352;
    }
    frontAndBack
    {
        type            empty;
    }
}


// ************************************************************************* //
