/*--------------------------------*- C++ -*----------------------------------*\
| =========                 |                                                 |
| \\      /  F ield         | OpenFOAM: The Open Source CFD Toolbox           |
|  \\    /   O peration     | Version:  v2012                                 |
|   \\  /    A nd           | Website:  www.openfoam.com                      |
|    \\/     M anipulation  |                                                 |
\*---------------------------------------------------------------------------*/
FoamFile
{
    version     2.0;
    format      ascii;
    class       volVectorField;
    location    "0.008";
    object      U;
}
// * * * * * * * * * * * * * * * * * * * * * * * * * * * * * * * * * * * * * //

dimensions      [0 1 -1 0 0 0 0];


internalField   nonuniform List<vector> 
1000
(
(-0.002778948414744707 0 0)
(-0.03443130291970606 0 0)
(-0.0426204503880086 0 0)
(-0.05779572725090058 0 0)
(-0.07167971880873704 0 0)
(-0.08459571342322625 0 0)
(-0.09561640594152185 0 0)
(-0.1050408675309562 0 0)
(-0.1131585905885473 0 0)
(-0.1186635673716773 0 0)
(-0.1201511190558037 0 0)
(-0.1200082136163911 0 0)
(-0.1191772878452954 0 0)
(-0.1166560057332455 0 0)
(-0.1118096275842048 0 0)
(-0.1044526646974708 0 0)
(-0.09486272734923824 0 0)
(-0.08346806365839805 0 0)
(-0.07063007993713974 0 0)
(-0.05660063712578876 0 0)
(-0.04158228194907206 0 0)
(-0.02579476154901183 0 0)
(-0.009504015040125584 0 0)
(0.006986555678040416 0 0)
(0.02335740629103078 0 0)
(0.03928687061003671 0 0)
(0.0544781806579802 0 0)
(0.06873631424106123 0 0)
(0.08204955141379207 0 0)
(0.09448877249320142 0 0)
(0.105680648781831 0 0)
(0.1139822971881938 0 0)
(0.1175008592858403 0 0)
(0.1178871588548505 0 0)
(0.1177842171808012 0 0)
(0.1170951311798335 0 0)
(0.115296329016208 0 0)
(0.1117367468520731 0 0)
(0.1059245612167086 0 0)
(0.0976275629503594 0 0)
(0.08694668542748767 0 0)
(0.07425396444821786 0 0)
(0.06004520404200558 0 0)
(0.04479106323730202 0 0)
(0.02885858967457538 0 0)
(0.01251957426084803 0 0)
(-0.003987985113087892 0 0)
(-0.02040559027161575 0 0)
(-0.03646146338130501 0 0)
(-0.05194226552620705 0 0)
(-0.06676201569393406 0 0)
(-0.08092556668307184 0 0)
(-0.09427315200739864 0 0)
(-0.1058827617107127 0 0)
(-0.1136143779979698 0 0)
(-0.1162810488063815 0 0)
(-0.1164805920469358 0 0)
(-0.1163193203300101 0 0)
(-0.115720315683858 0 0)
(-0.1141376621918652 0 0)
(-0.1110809119883688 0 0)
(-0.1060665472513582 0 0)
(-0.09876073236109814 0 0)
(-0.08905595860422257 0 0)
(-0.07710726356459018 0 0)
(-0.06329101543597443 0 0)
(-0.04810474981753197 0 0)
(-0.0320568866906864 0 0)
(-0.01558952930024435 0 0)
(0.0009539595408099553 0 0)
(0.01732795544013657 0 0)
(0.03336834060582055 0 0)
(0.048981973584321 0 0)
(0.06414536070486263 0 0)
(0.07884638816723025 0 0)
(0.09280296825354444 0 0)
(0.1048242878899736 0 0)
(0.1125510615381073 0 0)
(0.1150568225469562 0 0)
(0.1152223646403629 0 0)
(0.1151372394442732 0 0)
(0.1146030020762073 0 0)
(0.1132765882463958 0 0)
(0.110677510619896 0 0)
(0.1063638593980232 0 0)
(0.09996516388437096 0 0)
(0.09126161819257129 0 0)
(0.08023578268457369 0 0)
(0.06709213637575143 0 0)
(0.05222745789678197 0 0)
(0.03615326859736157 0 0)
(0.0193975303900485 0 0)
(0.002423220082258046 0 0)
(-0.01441989506400238 0 0)
(-0.03092049080298452 0 0)
(-0.04701137691717529 0 0)
(-0.06272409576239417 0 0)
(-0.07803129062293926 0 0)
(-0.09248428851336585 0 0)
(-0.1046038397088584 0 0)
(-0.1119424739145196 0 0)
(-0.1141069437369961 0 0)
(-0.1142385902739343 0 0)
(-0.1141011610291549 0 0)
(-0.1136191825596406 0 0)
(-0.112373959249713 0 0)
(-0.1099784531932261 0 0)
(-0.1060176439486841 0 0)
(-0.1001355820001882 0 0)
(-0.09208709595519243 0 0)
(-0.08179094716653681 0 0)
(-0.0693573971444327 0 0)
(-0.05508210199698373 0 0)
(-0.0394059494794196 0 0)
(-0.02284452722018075 0 0)
(-0.005897994066018803 0 0)
(0.01103334496348606 0 0)
(0.02769809154204153 0 0)
(0.04399526871483602 0 0)
(0.05992762387884006 0 0)
(0.07546692659746856 0 0)
(0.09020702743322113 0 0)
(0.1027327103488046 0 0)
(0.1105756201811591 0 0)
(0.1130624229092328 0 0)
(0.113239863526601 0 0)
(0.113176160777499 0 0)
(0.1127643341802757 0 0)
(0.1117276437564423 0 0)
(0.10967255077194 0 0)
(0.1062171482833265 0 0)
(0.1010022091426761 0 0)
(0.09374523355403391 0 0)
(0.08428599410808606 0 0)
(0.07262707639934543 0 0)
(0.05895324793775562 0 0)
(0.04361574313172418 0 0)
(0.02708080968388551 0 0)
(0.009855256316195217 0 0)
(-0.007597028054439159 0 0)
(-0.02493295808264212 0 0)
(-0.04197300214788102 0 0)
(-0.05866135951200405 0 0)
(-0.0748877562973756 0 0)
(-0.09009288071059116 0 0)
(-0.1026604917388562 0 0)
(-0.1101222338337009 0 0)
(-0.1122901956821513 0 0)
(-0.1124247744139735 0 0)
(-0.1123231107755163 0 0)
(-0.1119423448512864 0 0)
(-0.11093827151824 0 0)
(-0.1089839428745534 0 0)
(-0.1057181646937321 0 0)
(-0.1008061427202395 0 0)
(-0.09397460132423964 0 0)
(-0.08505462260118882 0 0)
(-0.07401504391106431 0 0)
(-0.06098127480126835 0 0)
(-0.04623399444566165 0 0)
(-0.03017881222338555 0 0)
(-0.01328298303382172 0 0)
(0.004006045527919529 0 0)
(0.02133185102419885 0 0)
(0.03846699922965352 0 0)
(0.05529758480613065 0 0)
(0.07170001686513125 0 0)
(0.08719226142490023 0 0)
(0.100313514035203 0 0)
(0.1085938035381675 0 0)
(0.1113299884543118 0 0)
(0.1115664138800703 0 0)
(0.1115262371030376 0 0)
(0.1112127503057321 0 0)
(0.1103966696082106 0 0)
(0.108736905857699 0 0)
(0.1058967740203219 0 0)
(0.1015421121056764 0 0)
(0.09538155586591447 0 0)
(0.08720054973113435 0 0)
(0.07689814604484735 0 0)
(0.06451573437191455 0 0)
(0.05024576402566855 0 0)
(0.03441502285749781 0 0)
(0.01744392067288746 0 0)
(-0.0002166857888287283 0 0)
(-0.0181634389287284 0 0)
(-0.03610208615134256 0 0)
(-0.05383626961096855 0 0)
(-0.07111394387701404 0 0)
(-0.0872429330153664 0 0)
(-0.1004959885488795 0 0)
(-0.1083680177399886 0 0)
(-0.1107156217122875 0 0)
(-0.1108849609546805 0 0)
(-0.1108061593287991 0 0)
(-0.1105037952754895 0 0)
(-0.1096845222867948 0 0)
(-0.1080649090827876 0 0)
(-0.1053236205183837 0 0)
(-0.1011495728031995 0 0)
(-0.09526773597327474 0 0)
(-0.08747285077009018 0 0)
(-0.07765877258757084 0 0)
(-0.06584165006988361 0 0)
(-0.05217251585555562 0 0)
(-0.03692956752553768 0 0)
(-0.02048262716076812 0 0)
(-0.003236188397547272 0 0)
(0.01443160941016275 0 0)
(0.03221648397795377 0 0)
(0.04989542607254877 0 0)
(0.06722837660435423 0 0)
(0.0836348164646228 0 0)
(0.09760024489136671 0 0)
(0.1066092228279972 0 0)
(0.1097831163977434 0 0)
(0.1101177958383986 0 0)
(0.1100933914995523 0 0)
(0.1098533254861683 0 0)
(0.1092029408971813 0 0)
(0.1078441529516105 0 0)
(0.105478046230463 0 0)
(0.1017962675759954 0 0)
(0.09651236552566915 0 0)
(0.08938844566419311 0 0)
(0.08026674890108498 0 0)
(0.06909775362669825 0 0)
(0.05595620327886532 0 0)
(0.04104124183907807 0 0)
(0.02465949395422089 0 0)
(0.007186429936204396 0 0)
(-0.01099332808264811 0 0)
(-0.02954190499271464 0 0)
(-0.04816771692383068 0 0)
(-0.06649610798400782 0 0)
(-0.08370917935802734 0 0)
(-0.09795738624460945 0 0)
(-0.1065868264510351 0 0)
(-0.1092937358163139 0 0)
(-0.1095224770996295 0 0)
(-0.1094650974269739 0 0)
(-0.1092317359447121 0 0)
(-0.108562983543463 0 0)
(-0.1072091138722255 0 0)
(-0.1048811797897981 0 0)
(-0.1012930903593739 0 0)
(-0.09617922553251641 0 0)
(-0.08932035719476122 0 0)
(-0.08056790197616998 0 0)
(-0.06986683627157249 0 0)
(-0.05727337635684637 0 0)
(-0.04295836812068347 0 0)
(-0.02718935003870839 0 0)
(-0.01029481823205875 0 0)
(0.007379479864743802 0 0)
(0.02551227825533568 0 0)
(0.04382215818072156 0 0)
(0.06198894453612826 0 0)
(0.07936110919369059 0 0)
(0.09438671474322319 0 0)
(0.104452617299955 0 0)
(0.1083153431894464 0 0)
(0.1088155747526564 0 0)
(0.1088077086827572 0 0)
(0.108628398160573 0 0)
(0.1081143585632185 0 0)
(0.1069981055327053 0 0)
(0.1050115541389976 0 0)
(0.1018709932540327 0 0)
(0.0973025518148596 0 0)
(0.09106222471718825 0 0)
(0.08296147844259723 0 0)
(0.07289193724393903 0 0)
(0.06084350640398673 0 0)
(0.04691309353233825 0 0)
(0.03130147193328336 0 0)
(0.01429218213704352 0 0)
(-0.003788846373440651 0 0)
(-0.02261427995434042 0 0)
(-0.04185407913321369 0 0)
(-0.06106381235431459 0 0)
(-0.07935308718149127 0 0)
(-0.09480404585001456 0 0)
(-0.1045739900331938 0 0)
(-0.1079321829745971 0 0)
(-0.1082882409494028 0 0)
(-0.1082496472182948 0 0)
(-0.1080708640636873 0 0)
(-0.1075273880744999 0 0)
(-0.1063943725841191 0 0)
(-0.1044090835877632 0 0)
(-0.1013063041931746 0 0)
(-0.09683175412902478 0 0)
(-0.09076282803082608 0 0)
(-0.08292817988373979 0 0)
(-0.07322797539701326 0 0)
(-0.06165180269342521 0 0)
(-0.04828663766681739 0 0)
(-0.03330962265684427 0 0)
(-0.01696822074157502 0 0)
(0.000447634521230869 0 0)
(0.01863751913381044 0 0)
(0.03730590386798158 0 0)
(0.05609752969505691 0 0)
(0.07433957746845005 0 0)
(0.0905060363502784 0 0)
(0.1019202159798478 0 0)
(0.106810504916454 0 0)
(0.107609354291776 0 0)
(0.1076209547243722 0 0)
(0.1074927937337346 0 0)
(0.1070937250298664 0 0)
(0.1061811082342362 0 0)
(0.1045115552332633 0 0)
(0.1018219164177454 0 0)
(0.09785228880206266 0 0)
(0.09236069575931023 0 0)
(0.08514347294225544 0 0)
(0.0760556086409126 0 0)
(0.06502794801538321 0 0)
(0.05207951095877143 0 0)
(0.03732210420999468 0 0)
(0.0209512031380948 0 0)
(0.003221538602327443 0 0)
(-0.01557872297285868 0 0)
(-0.03512261025356563 0 0)
(-0.05494949004653121 0 0)
(-0.07417140903302728 0 0)
(-0.09090473165217171 0 0)
(-0.1021586893676791 0 0)
(-0.106531955362165 0 0)
(-0.1071314945369977 0 0)
(-0.1071123536370876 0 0)
(-0.1069842131716227 0 0)
(-0.1065513748290174 0 0)
(-0.1056099730350611 0 0)
(-0.1039174468238365 0 0)
(-0.1012269056607802 0 0)
(-0.09729633774215841 0 0)
(-0.09190512592866996 0 0)
(-0.08486996193926129 0 0)
(-0.07606246644026055 0 0)
(-0.06542574481973236 0 0)
(-0.05298375053844116 0 0)
(-0.03884031746354177 0 0)
(-0.02317004033054024 0 0)
(-0.006202127325513797 0 0)
(0.01180240327331039 0 0)
(0.03056268886155159 0 0)
(0.04972439087435843 0 0)
(0.06864182035502082 0 0)
(0.08589283222777838 0 0)
(0.0988407749031298 0 0)
(0.1051358480508467 0 0)
(0.1064566010834288 0 0)
(0.1065014261730421 0 0)
(0.1064162055258539 0 0)
(0.1061153289422458 0 0)
(0.1053769652564943 0 0)
(0.1039793626881233 0 0)
(0.1016758784376057 0 0)
(0.09821959915775368 0 0)
(0.09337388851025741 0 0)
(0.08692834539159049 0 0)
(0.07871522972525442 0 0)
(0.06862515113385689 0 0)
(0.05662031617654343 0 0)
(0.04274231343204134 0 0)
(0.02711039119665168 0 0)
(0.009909783016580775 0 0)
(-0.008621426700052197 0 0)
(-0.02818489598314241 0 0)
(-0.04834486941318883 0 0)
(-0.06827649386825337 0 0)
(-0.08622773169059383 0 0)
(-0.09918195293813717 0 0)
(-0.1049705073172842 0 0)
(-0.1060084978235019 0 0)
(-0.1060208688737495 0 0)
(-0.105936915146201 0 0)
(-0.1056048583828142 0 0)
(-0.1048350375204132 0 0)
(-0.1034020675783454 0 0)
(-0.101072810768242 0 0)
(-0.0976163100324782 0 0)
(-0.09281630422710536 0 0)
(-0.08648427595358406 0 0)
(-0.07847440564452086 0 0)
(-0.06869789198782565 0 0)
(-0.05713218229236359 0 0)
(-0.0438238176508914 0 0)
(-0.02888642496554876 0 0)
(-0.01249245934985578 0 0)
(0.005142428057479586 0 0)
(0.0237673349130109 0 0)
(0.04305209357204592 0 0)
(0.06241105933133625 0 0)
(0.08058338309050413 0 0)
(0.09509913101704459 0 0)
(0.1031366205152189 0 0)
(0.1052917116933265 0 0)
(0.1054314781374584 0 0)
(0.1053768661975092 0 0)
(0.1051594919859905 0 0)
(0.1045730293219373 0 0)
(0.1034131438624032 0 0)
(0.1014475830719157 0 0)
(0.09844064298907128 0 0)
(0.09416155933622074 0 0)
(0.088397706753155 0 0)
(0.08096781824342028 0 0)
(0.07173532795574976 0 0)
(0.06062115847920218 0 0)
(0.04761340981591589 0 0)
(0.0327702072231991 0 0)
(0.01621555937166708 0 0)
(-0.001865150050244498 0 0)
(-0.02121487082603676 0 0)
(-0.04144283271738444 0 0)
(-0.06182011223065266 0 0)
(-0.08080000592498687 0 0)
(-0.09550890497514906 0 0)
(-0.1031036509534067 0 0)
(-0.1048905882974014 0 0)
(-0.1049731450575312 0 0)
(-0.1049225884712716 0 0)
(-0.1046756771910536 0 0)
(-0.1040564377285452 0 0)
(-0.1028531645672803 0 0)
(-0.1008451435029361 0 0)
(-0.09781000722240682 0 0)
(-0.09353574410946368 0 0)
(-0.08783185873358453 0 0)
(-0.08054157548257347 0 0)
(-0.07155345277122258 0 0)
(-0.06081072809920005 0 0)
(-0.0483171203872392 0 0)
(-0.03413790347816573 0 0)
(-0.01839507814506907 0 0)
(-0.0012585204917385 0 0)
(0.01705593838313106 0 0)
(0.03625287684923315 0 0)
(0.05582417710090813 0 0)
(0.07469911944468824 0 0)
(0.09067031711953406 0 0)
(0.1006559560103841 0 0)
(0.1040186511396521 0 0)
(0.1043711156780847 0 0)
(0.1043473305028918 0 0)
(0.1041975035873105 0 0)
(0.1037490131026991 0 0)
(0.1028034938771405 0 0)
(0.1011417598459946 0 0)
(0.09853689151270263 0 0)
(0.09476368530744739 0 0)
(0.08960990661671493 0 0)
(0.08288662603270053 0 0)
(0.07443908074164682 0 0)
(0.06415900337841914 0 0)
(0.05199527880599509 0 0)
(0.03795838398423046 0 0)
(0.02212013257230002 0 0)
(0.004616103437557857 0 0)
(-0.01434089483664282 0 0)
(-0.03441346403005941 0 0)
(-0.05498236755439465 0 0)
(-0.07473884946835656 0 0)
(-0.09108794588896484 0 0)
(-0.1007624365980315 0 0)
(-0.1036984247520864 0 0)
(-0.1039514049122486 0 0)
(-0.1039295960639302 0 0)
(-0.1037501469968058 0 0)
(-0.1032656311678558 0 0)
(-0.1022677048534602 0 0)
(-0.1005479990102178 0 0)
(-0.09789175097861369 0 0)
(-0.09409120688134678 0 0)
(-0.08895486251415301 0 0)
(-0.08231869821072627 0 0)
(-0.074056237058504 0 0)
(-0.06408600993443267 0 0)
(-0.05237785178050695 0 0)
(-0.03895795321220651 0 0)
(-0.02390827387405537 0 0)
(-0.007359533368329422 0 0)
(0.0105100526252651 0 0)
(0.02944589629525041 0 0)
(0.04901471187998648 0 0)
(0.06833198189524189 0 0)
(0.08552504995445896 0 0)
(0.0975357299678524 0 0)
(0.1025578984658264 0 0)
(0.1033585107434136 0 0)
(0.103352325213792 0 0)
(0.1032648281382679 0 0)
(0.1029247273893858 0 0)
(0.1021627703611522 0 0)
(0.1007656698127185 0 0)
(0.09851627140509038 0 0)
(0.0951952452547362 0 0)
(0.09059155546292477 0 0)
(0.08451132524654584 0 0)
(0.07678777664473252 0 0)
(0.06729192498972184 0 0)
(0.05594200621874083 0 0)
(0.04270985355780629 0 0)
(0.0276253189061903 0 0)
(0.01078154908533479 0 0)
(-0.00765378031536573 0 0)
(-0.02740128391882884 0 0)
(-0.04794624733945373 0 0)
(-0.06820774282043283 0 0)
(-0.08594783383358878 0 0)
(-0.09779289210979968 0 0)
(-0.1023167294928624 0 0)
(-0.102929232731833 0 0)
(-0.102925418476307 0 0)
(-0.1028092743002796 0 0)
(-0.1024423347600342 0 0)
(-0.1016319972369036 0 0)
(-0.1001767480773545 0 0)
(-0.09786812983661947 0 0)
(-0.09450185681623306 0 0)
(-0.08988649738286213 0 0)
(-0.08385292269032138 0 0)
(-0.07626287498139712 0 0)
(-0.06701655141769366 0 0)
(-0.05605954960437305 0 0)
(-0.04338792881522992 0 0)
(-0.02904896987779898 0 0)
(-0.01313866227274093 0 0)
(0.004196723102115187 0 0)
(0.02274060917277673 0 0)
(0.04213386536964248 0 0)
(0.06166460481863699 0 0)
(0.07979591704385777 0 0)
(0.09370449702383597 0 0)
(0.1007256866536822 0 0)
(0.1023097978942382 0 0)
(0.1023746264172998 0 0)
(0.1023241847763503 0 0)
(0.1020816162796488 0 0)
(0.1014807747430801 0 0)
(0.1003208182629416 0 0)
(0.09839197747928849 0 0)
(0.09548042854287145 0 0)
(0.09137731064672108 0 0)
(0.08588653557684116 0 0)
(0.07883348135162406 0 0)
(0.07007399879720674 0 0)
(0.05950318707711863 0 0)
(0.04706323160642455 0 0)
(0.03274994744594271 0 0)
(0.01661892057107393 0 0)
(-0.001204022099515522 0 0)
(-0.02049229163951008 0 0)
(-0.04082443476714375 0 0)
(-0.061327987526907 0 0)
(-0.0801492070263112 0 0)
(-0.09408791759487417 0 0)
(-0.1006166558429945 0 0)
(-0.1019076680626559 0 0)
(-0.1019434788894037 0 0)
(-0.1018770443196968 0 0)
(-0.1016073553685439 0 0)
(-0.1009605627204749 0 0)
(-0.09974217788429962 0 0)
(-0.09774898200999713 0 0)
(-0.09477948536358891 0 0)
(-0.09064237885577894 0 0)
(-0.08516486914281626 0 0)
(-0.07820025593602267 0 0)
(-0.06963499519384801 0 0)
(-0.05939561437975853 0 0)
(-0.04745401785930566 0 0)
(-0.03382925440304536 0 0)
(-0.01858716402995169 0 0)
(-0.001843367610944799 0 0)
(0.01622145045267103 0 0)
(0.03531015165851415 0 0)
(0.05485271955861035 0 0)
(0.07361816455253579 0 0)
(0.0891511375321223 0 0)
(0.09835051471076693 0 0)
(0.1011460828924818 0 0)
(0.101387043189834 0 0)
(0.1013637175917354 0 0)
(0.1011967928349884 0 0)
(0.1007373886457064 0 0)
(0.09979101713034309 0 0)
(0.09815607113741824 0 0)
(0.09562328019440247 0 0)
(0.0919855137319403 0 0)
(0.08704459650166743 0 0)
(0.08061943667583781 0 0)
(0.07255465825382548 0 0)
(0.06272845136098783 0 0)
(0.0510598260558116 0 0)
(0.03751649482925314 0 0)
(0.02212309691362669 0 0)
(0.004970604965921115 0 0)
(-0.01376130449053574 0 0)
(-0.0337337409542909 0 0)
(-0.05425255912974147 0 0)
(-0.07382480781813379 0 0)
(-0.08961186437248329 0 0)
(-0.09841925190152116 0 0)
(-0.1008159654164834 0 0)
(-0.1009810583604112 0 0)
(-0.1009424048733181 0 0)
(-0.1007580447274745 0 0)
(-0.1002546954087713 0 0)
(-0.09924867766665885 0 0)
(-0.09754146763902723 0 0)
(-0.09493488295446018 0 0)
(-0.09123838556099352 0 0)
(-0.08627676108377813 0 0)
(-0.07989700526447528 0 0)
(-0.07197514450149951 0 0)
(-0.06242271822936285 0 0)
(-0.0511918321851843 0 0)
(-0.03827807755649328 0 0)
(-0.02372234807971412 0 0)
(-0.007614046595043022 0 0)
(0.009898688661118624 0 0)
(0.02857290922523513 0 0)
(0.04795568094275476 0 0)
(0.06708075154092911 0 0)
(0.08391593290508596 0 0)
(0.09531656343523044 0 0)
(0.09979375838141083 0 0)
(0.1004315852259853 0 0)
(0.1004291228633599 0 0)
(0.1003247967070699 0 0)
(0.09998355996917561 0 0)
(0.09922405984838838 0 0)
(0.09785015096518217 0 0)
(0.09565712553989626 0 0)
(0.09244028130017735 0 0)
(0.0880016596494461 0 0)
(0.08215702171324805 0 0)
(0.07474300478356077 0 0)
(0.06562463416164102 0 0)
(0.05470301426705693 0 0)
(0.04192299214712879 0 0)
(0.02728096067354631 0 0)
(0.01083475693769907 0 0)
(-0.007276775547462059 0 0)
(-0.0267817658022356 0 0)
(-0.04713122305488394 0 0)
(-0.06714459803234128 0 0)
(-0.08442276214467503 0 0)
(-0.09555796888553225 0 0)
(-0.09952739073902085 0 0)
(-0.1000018171556684 0 0)
(-0.09998838200786911 0 0)
(-0.0998661594937158 0 0)
(-0.09948718597482031 0 0)
(-0.09867257718118015 0 0)
(-0.09722973172608282 0 0)
(-0.09496297431390203 0 0)
(-0.0916817701196177 0 0)
(-0.0872081713933974 0 0)
(-0.0813833092249875 0 0)
(-0.07407405688643232 0 0)
(-0.06517960861202202 0 0)
(-0.0546363274851061 0 0)
(-0.04242053829636983 0 0)
(-0.02855128884001105 0 0)
(-0.01309468837714156 0 0)
(0.00382845975515103 0 0)
(0.02201883587476962 0 0)
(0.04111620367275376 0 0)
(0.06036794680533149 0 0)
(0.0781438040083933 0 0)
(0.09154183696173752 0 0)
(0.0980569262650567 0 0)
(0.09943729295237046 0 0)
(0.09948815258941933 0 0)
(0.09942594330918238 0 0)
(0.09918450376091201 0 0)
(0.09858707211231471 0 0)
(0.09744861238566239 0 0)
(0.09556817649915089 0 0)
(0.0927434170356667 0 0)
(0.08877614066979655 0 0)
(0.08347902853824474 0 0)
(0.07668232065532947 0 0)
(0.06824077391512237 0 0)
(0.0580410498768956 0 0)
(0.04600942067147008 0 0)
(0.0321195698823832 0 0)
(0.01640172538283484 0 0)
(-0.001041286470110162 0 0)
(-0.01999488869776225 0 0)
(-0.04002693840090224 0 0)
(-0.06021576127846369 0 0)
(-0.07861061378167451 0 0)
(-0.09194970847081717 0 0)
(-0.09792905332005075 0 0)
(-0.09902173799774205 0 0)
(-0.09904297337935863 0 0)
(-0.09897326727068045 0 0)
(-0.09869823275846706 0 0)
(-0.09805209596706088 0 0)
(-0.09684754408659775 0 0)
(-0.09489122859423414 0 0)
(-0.09199284629795695 0 0)
(-0.08797237756990073 0 0)
(-0.08266673411621656 0 0)
(-0.0759360311763458 0 0)
(-0.06766928137132576 0 0)
(-0.05778917990887944 0 0)
(-0.04625596108774167 0 0)
(-0.03307067098246763 0 0)
(-0.01827841487615689 0 0)
(-0.001974138375224209 0 0)
(0.01567908966936954 0 0)
(0.03439092754164313 0 0)
(0.05357559915817185 0 0)
(0.07195804622051617 0 0)
(0.08703734498297661 0 0)
(0.09578231855749975 0 0)
(0.09833981710942788 0 0)
(0.09854502315901005 0 0)
(0.09851428469561938 0 0)
(0.09834975110225753 0 0)
(0.09789266290472438 0 0)
(0.09696294833044333 0 0)
(0.09536601200597018 0 0)
(0.09290219515073431 0 0)
(0.08937371899295792 0 0)
(0.08459132333534246 0 0)
(0.07838044927737622 0 0)
(0.07058758678914459 0 0)
(0.06108737034532843 0 0)
(0.04979026051045946 0 0)
(0.03665007573127531 0 0)
(0.02167237001586062 0 0)
(0.004928401054877968 0 0)
(-0.01341433942615602 0 0)
(-0.03301542929778831 0 0)
(-0.05316022033176641 0 0)
(-0.07230672314350831 0 0)
(-0.08756439744477967 0 0)
(-0.09584392724331729 0 0)
(-0.09798388215427378 0 0)
(-0.09811522815030632 0 0)
(-0.09807998486185798 0 0)
(-0.09788904373848083 0 0)
(-0.09738843557765911 0 0)
(-0.09639515875424774 0 0)
(-0.09472034008153302 0 0)
(-0.0921749043362029 0 0)
(-0.08857784385295017 0 0)
(-0.08376238869296128 0 0)
(-0.07758244379817779 0 0)
(-0.06991827979366334 0 0)
(-0.06068087979857597 0 0)
(-0.04981592835297251 0 0)
(-0.03730814889686383 0 0)
(-0.02318485162003047 0 0)
(-0.007519460299070571 0 0)
(0.009556049892611313 0 0)
(0.0278079986759889 0 0)
(0.04677888582160412 0 0)
(0.0654846004096663 0 0)
(0.08187501574905201 0 0)
(0.09284219101014517 0 0)
(0.09704722988018372 0 0)
(0.09762031611236152 0 0)
(0.09761048463850097 0 0)
(0.09751014124415447 0 0)
(0.09717065622637071 0 0)
(0.09642537864749576 0 0)
(0.09508341502891604 0 0)
(0.09294911614464091 0 0)
(0.08982596712338595 0 0)
(0.08552344213864975 0 0)
(0.07986306221607016 0 0)
(0.07268471820484171 0 0)
(0.06385335591431011 0 0)
(0.05326602134177748 0 0)
(0.04085933401642823 0 0)
(0.02661802706084087 0 0)
(0.01058689310773062 0 0)
(-0.007106376231113245 0 0)
(-0.02619493392645734 0 0)
(-0.04612326202326344 0 0)
(-0.06568733006528678 0 0)
(-0.08246016272396353 0 0)
(-0.09309003528941179 0 0)
(-0.09676032852708634 0 0)
(-0.09717443063020628 0 0)
(-0.09715915027453777 0 0)
(-0.09703456906855581 0 0)
(-0.09665713039806899 0 0)
(-0.09585324723004414 0 0)
(-0.09443786295903413 0 0)
(-0.0922233439449178 0 0)
(-0.08902719864385442 0 0)
(-0.08467906877921 0 0)
(-0.07902702147084452 0 0)
(-0.07194304908957978 0 0)
(-0.06332777602181235 0 0)
(-0.05311477070491342 0 0)
(-0.0412744825197677 0 0)
(-0.02781734654748093 0 0)
(-0.01279726064221618 0 0)
(0.003678801237536151 0 0)
(0.02142083442380633 0 0)
(0.04006979928414013 0 0)
(0.05887023174920006 0 0)
(0.07619311085704057 0 0)
(0.08916520428954089 0 0)
(0.09538287428412613 0 0)
(0.09666239665051986 0 0)
(0.09670150591047251 0 0)
(0.09664636602630756 0 0)
(0.09640430038783841 0 0)
(0.09581879865712181 0 0)
(0.0947061710724395 0 0)
(0.09287406627315797 0 0)
(0.09012761226874402 0 0)
(0.08627592285071628 0 0)
(0.08113769939112211 0 0)
(0.07454731729184028 0 0)
(0.06636141097402191 0 0)
(0.05646566130975706 0 0)
(0.04478179978756526 0 0)
(0.03127577705112836 0 0)
(0.01596873628658215 0 0)
(-0.001044937106683881 0 0)
(-0.01955701774248889 0 0)
(-0.03913709838836074 0 0)
(-0.05885667279150066 0 0)
(-0.07675414084283158 0 0)
(-0.08959968493740807 0 0)
(-0.09523777375099708 0 0)
(-0.09623050256846669 0 0)
(-0.09624687185601015 0 0)
(-0.0961751552252564 0 0)
(-0.09590276868367445 0 0)
(-0.09526583348516286 0 0)
(-0.09408425013555062 0 0)
(-0.09217164338699592 0 0)
(-0.08934543825634461 0 0)
(-0.08543317185464565 0 0)
(-0.08027862289316898 0 0)
(-0.07374710047731811 0 0)
(-0.06573021456131922 0 0)
(-0.05615036555914697 0 0)
(-0.04496469402854742 0 0)
(-0.03216823842374209 0 0)
(-0.01779740284153226 0 0)
(-0.001937422210960337 0 0)
(0.01525690422248415 0 0)
(0.03350114256783352 0 0)
(0.05221437762597858 0 0)
(0.07012916546024686 0 0)
(0.08477036792647029 0 0)
(0.09318546131950312 0 0)
(0.09560435955349271 0 0)
(0.09579099913044156 0 0)
(0.09575935328078587 0 0)
(0.09559484814146599 0 0)
(0.09514862861164282 0 0)
(0.09424527053847881 0 0)
(0.09269711470265725 0 0)
(0.09030943256961883 0 0)
(0.08688747578509005 0 0)
(0.08224287973329859 0 0)
(0.07620117263281403 0 0)
(0.06860997326695702 0 0)
(0.05934670836533221 0 0)
(0.04832601849701527 0 0)
(0.03550855584929167 0 0)
(0.02091014201893113 0 0)
(0.004613201210677186 0 0)
(-0.01321064578414077 0 0)
(-0.03222524238736538 0 0)
(-0.05171749480993557 0 0)
(-0.07019480914802589 0 0)
(-0.08478814597270373 0 0)
(-0.09241541901341072 0 0)
(-0.0944141006038805 0 0)
(-0.09461477339039022 0 0)
(-0.0946637507023796 0 0)
(-0.09457775254643776 0 0)
(-0.09421424267717436 0 0)
(-0.09335283873180909 0 0)
(-0.09175942176408371 0 0)
(-0.08921497396476384 0 0)
(-0.08555119100853791 0 0)
(-0.08065307732870783 0 0)
(-0.07444576222524081 0 0)
(-0.06687798426400884 0 0)
(-0.05790994396220168 0 0)
(-0.04750881324446656 0 0)
(-0.03564862456063758 0 0)
(-0.02231699803881531 0 0)
(-0.007530535669589562 0 0)
(0.00863632314700321 0 0)
(0.02598060729110602 0 0)
(0.04406543804351145 0 0)
(0.06192994786890588 0 0)
(0.07742469817137763 0 0)
(0.08751587695096663 0 0)
(0.09151565206979514 0 0)
(0.09237706274780644 0 0)
(0.09235418723898944 0 0)
(0.09236684928313986 0 0)
(0.09214562236930604 0 0)
(0.09159570560922434 0 0)
(0.0905122904364673 0 0)
(0.0886280954871997 0 0)
(0.08567489546685099 0 0)
(0.08144372559625093 0 0)
(0.07579704163077478 0 0)
(0.06865300263893045 0 0)
(0.05996547796721769 0 0)
(0.04970604018172439 0 0)
(0.03784693130704052 0 0)
(0.02435572435864191 0 0)
(0.009213166055172641 0 0)
(-0.007532859698722767 0 0)
(-0.02564153140477848 0 0)
(-0.04453906506612983 0 0)
(-0.06306102213491439 0 0)
(-0.07879023211906168 0 0)
(-0.08861568325458162 0 0)
(-0.09226132574463966 0 0)
(-0.09294122217245296 0 0)
(-0.09285269276850863 0 0)
(-0.09268539565805274 0 0)
(-0.09230210376992476 0 0)
(-0.09160932583685702 0 0)
(-0.09041451157501544 0 0)
(-0.08845839461207435 0 0)
(-0.085472534292433 0 0)
(-0.08123816436436508 0 0)
(-0.0756136730824986 0 0)
(-0.06853789917200637 0 0)
(-0.0600124331698371 0 0)
(-0.05006688842790027 0 0)
(-0.03872417611373698 0 0)
(-0.02598513375574566 0 0)
(-0.0118431483646097 0 0)
(0.003679879836643079 0 0)
(0.02045172929243878 0 0)
(0.03810090056470655 0 0)
(0.05587153782925663 0 0)
(0.07219603438437289 0 0)
(0.08437277374761196 0 0)
(0.09051605675470353 0 0)
(0.09217949497313944 0 0)
(0.09233257353094176 0 0)
(0.09214917171706936 0 0)
(0.09184482188802594 0 0)
(0.09127638939863304 0 0)
(0.09032753134497908 0 0)
(0.08878201801578278 0 0)
(0.08635451784223699 0 0)
(0.08275393865882352 0 0)
(0.07774001914445153 0 0)
(0.07115754071384438 0 0)
(0.06294420474130982 0 0)
(0.05311154939946903 0 0)
(0.04170821065179074 0 0)
(0.02877686129195943 0 0)
(0.01433079277508408 0 0)
(-0.001633025450221203 0 0)
(-0.0190134987755101 0 0)
(-0.03740192146936699 0 0)
(-0.05593509392310814 0 0)
(-0.07278762026010047 0 0)
(-0.08492691760349641 0 0)
(-0.09067188354268407 0 0)
(-0.0920716939205739 0 0)
(-0.09213739085142723 0 0)
(-0.09189566353473394 0 0)
(-0.09145117133647247 0 0)
(-0.09070336452603395 0 0)
(-0.08957133732828848 0 0)
(-0.08789477547592373 0 0)
(-0.08543764347160084 0 0)
(-0.08192592693593168 0 0)
(-0.07709141006493529 0 0)
(-0.07071577996825726 0 0)
(-0.06267711535108342 0 0)
(-0.05299590420125213 0 0)
(-0.04185405295451045 0 0)
(-0.02952353292709201 0 0)
(-0.01614849270440595 0 0)
(-0.001626914729575799 0 0)
(0.01449975822114969 0 0)
(0.03115434556021032 0 0)
(0.05109980691148629 0 0)
)
;

boundaryField
{
    inlet
    {
        type            zeroGradient;
    }
    outlet
    {
        type            velocityOutletNSCBCx;
        pInf            101325;
        gamma           1.4;
        etaAc           1;
        fieldInf        (-1 0 0);
        lInf            2.25;
        value           uniform (0.05854435429538726 0 0);
    }
    frontAndBack
    {
        type            empty;
    }
}


// ************************************************************************* //
