/*--------------------------------*- C++ -*----------------------------------*\
| =========                 |                                                 |
| \\      /  F ield         | OpenFOAM: The Open Source CFD Toolbox           |
|  \\    /   O peration     | Version:  v2012                                 |
|   \\  /    A nd           | Website:  www.openfoam.com                      |
|    \\/     M anipulation  |                                                 |
\*---------------------------------------------------------------------------*/
FoamFile
{
    version     2.0;
    format      ascii;
    class       volVectorField;
    location    "0.008";
    object      UMean;
}
// * * * * * * * * * * * * * * * * * * * * * * * * * * * * * * * * * * * * * //

dimensions      [0 1 -1 0 0 0 0];


internalField   nonuniform List<vector> 
1000
(
(-3.643385270110258e-05 0 0)
(1.015195397491118e-05 0 0)
(3.52428260887484e-05 0 0)
(8.411348814219648e-05 0 0)
(0.0001412259813806366 0 0)
(0.0002066164607243902 0 0)
(0.0002867173350139475 0 0)
(0.0003738782372726676 0 0)
(0.0004728384385549471 0 0)
(0.0005773154735197753 0 0)
(0.0006856781802029378 0 0)
(0.0007937476399470112 0 0)
(0.0009014729450100678 0 0)
(0.001007676866290454 0 0)
(0.001110891704305757 0 0)
(0.001208762321804011 0 0)
(0.001299266374574539 0 0)
(0.001380414180546164 0 0)
(0.001450921580418708 0 0)
(0.00150934237902725 0 0)
(0.001554940957286349 0 0)
(0.001586579459051512 0 0)
(0.001603988887947339 0 0)
(0.001606510504401703 0 0)
(0.001594381409015269 0 0)
(0.001567530117970785 0 0)
(0.001526767420280462 0 0)
(0.001472558839169062 0 0)
(0.001406001574552283 0 0)
(0.001327620642483936 0 0)
(0.001238525591147349 0 0)
(0.001140061791914082 0 0)
(0.001035886443446517 0 0)
(0.0009298262641458969 0 0)
(0.0008238456726490376 0 0)
(0.0007181360186007151 0 0)
(0.0006134925581654329 0 0)
(0.0005111202619608478 0 0)
(0.0004127710753000484 0 0)
(0.0003205505703438355 0 0)
(0.0002366572205886128 0 0)
(0.0001630836378624017 0 0)
(0.000101472662146454 0 0)
(5.29928854090975e-05 0 0)
(1.846831946292089e-05 0 0)
(-1.588626987219026e-06 0 0)
(-6.885278266156978e-06 0 0)
(2.635792402160985e-06 0 0)
(2.679892559765812e-05 0 0)
(6.520846524516295e-05 0 0)
(0.0001172958659217545 0 0)
(0.0001824893328357211 0 0)
(0.0002601611910374143 0 0)
(0.0003494046872604312 0 0)
(0.0004479309733527195 0 0)
(0.0005515400376775227 0 0)
(0.0006563417482346658 0 0)
(0.0007611015040141793 0 0)
(0.0008656013053686953 0 0)
(0.0009690950311052148 0 0)
(0.001070723561882572 0 0)
(0.00116877222378004 0 0)
(0.00126158059082315 0 0)
(0.001346829877817127 0 0)
(0.001422654519864012 0 0)
(0.001486931976919538 0 0)
(0.001538411317178602 0 0)
(0.001575805522869268 0 0)
(0.001598748443535482 0 0)
(0.001606737944587688 0 0)
(0.001600018220125617 0 0)
(0.001578579157073494 0 0)
(0.001542996182148245 0 0)
(0.001493421060512816 0 0)
(0.00143046181251182 0 0)
(0.0013543546398012 0 0)
(0.001266339803508385 0 0)
(0.001168755231876283 0 0)
(0.001066288879068097 0 0)
(0.0009625780836110462 0 0)
(0.0008589799256268674 0 0)
(0.0007555937159268218 0 0)
(0.0006530086368178608 0 0)
(0.000552069515469145 0 0)
(0.0004541100132715071 0 0)
(0.0003607731302991495 0 0)
(0.0002740479330432647 0 0)
(0.0001959770973574717 0 0)
(0.0001286086577032649 0 0)
(7.366032134631216e-05 0 0)
(3.253403399374963e-05 0 0)
(6.084344238236284e-06 0 0)
(-5.200345353017597e-06 0 0)
(-1.301801422461429e-06 0 0)
(1.763567644209676e-05 0 0)
(5.124439154372375e-05 0 0)
(9.922614695214348e-05 0 0)
(0.0001611932929987053 0 0)
(0.0002367348689195786 0 0)
(0.0003246158865591448 0 0)
(0.0004219156729387457 0 0)
(0.0005237726227215924 0 0)
(0.0006265858799495678 0 0)
(0.0007293159464604512 0 0)
(0.0008318795391535178 0 0)
(0.0009336065993038079 0 0)
(0.001033906981768277 0 0)
(0.001131361724141039 0 0)
(0.001224664592175651 0 0)
(0.001311771521389559 0 0)
(0.001390934120524205 0 0)
(0.001459936310058473 0 0)
(0.001517201492144556 0 0)
(0.00156099631694387 0 0)
(0.001590497959558628 0 0)
(0.001604844825847916 0 0)
(0.001604085611751357 0 0)
(0.00158807862600493 0 0)
(0.001557357630371804 0 0)
(0.001511988356920122 0 0)
(0.001452518367348394 0 0)
(0.001379152200643043 0 0)
(0.001293261503559762 0 0)
(0.001197494212054035 0 0)
(0.001096822203712406 0 0)
(0.0009949017435274322 0 0)
(0.0008930922514702032 0 0)
(0.0007914054712626151 0 0)
(0.000690378740532543 0 0)
(0.0005906080534103596 0 0)
(0.0004932506919975301 0 0)
(0.0003995844008637316 0 0)
(0.0003114109465259972 0 0)
(0.0002305086908358177 0 0)
(0.0001589682230931647 0 0)
(9.859012502591665e-05 0 0)
(5.116374522083546e-05 0 0)
(1.791639967228876e-05 0 0)
(-1.666789358078299e-07 0 0)
(-2.731408408412056e-06 0 0)
(1.03931057676351e-05 0 0)
(3.89526755287036e-05 0 0)
(8.276819222555542e-05 0 0)
(0.0001414044468548387 0 0)
(0.0002144209069056529 0 0)
(0.0003003171562223365 0 0)
(0.0003959331358416085 0 0)
(0.0004961287439217335 0 0)
(0.0005973250408793571 0 0)
(0.0006984313968097561 0 0)
(0.0007994342649447586 0 0)
(0.0008997399878573427 0 0)
(0.0009989147463161138 0 0)
(0.001095729629868034 0 0)
(0.00118912613845596 0 0)
(0.00127728369055671 0 0)
(0.001358654844361594 0 0)
(0.001431108252965411 0 0)
(0.001493022779703638 0 0)
(0.001542467243161059 0 0)
(0.001578292485732454 0 0)
(0.00159924996228586 0 0)
(0.001604993660421096 0 0)
(0.001595058459580522 0 0)
(0.001569750683343525 0 0)
(0.001529014027505982 0 0)
(0.00147339185493108 0 0)
(0.001403127818572569 0 0)
(0.001319737541564354 0 0)
(0.00122597482012069 0 0)
(0.001126990136931949 0 0)
(0.001026591063035524 0 0)
(0.0009262866013193609 0 0)
(0.0008260363401889945 0 0)
(0.000726328377453656 0 0)
(0.0006276015732700104 0 0)
(0.0005308619660724975 0 0)
(0.0004371638198007715 0 0)
(0.0003481024924304943 0 0)
(0.0002652516500802185 0 0)
(0.0001905936479622303 0 0)
(0.0001258897114619733 0 0)
(7.307468216826208e-05 0 0)
(3.359350154211176e-05 0 0)
(8.831039864185911e-06 0 0)
(-4.940394498755709e-07 0 0)
(6.234246012858488e-06 0 0)
(2.902669209468462e-05 0 0)
(6.796171152299326e-05 0 0)
(0.0001226379281677497 0 0)
(0.0001926174993610096 0 0)
(0.0002762027692424305 0 0)
(0.0003700365286867678 0 0)
(0.0004687169519863893 0 0)
(0.0005685202223368733 0 0)
(0.000668244797759214 0 0)
(0.0007679148243088562 0 0)
(0.0008669942070979827 0 0)
(0.0009651701588578827 0 0)
(0.001061350636244331 0 0)
(0.001154667368320699 0 0)
(0.001243480160095137 0 0)
(0.001326431077355459 0 0)
(0.001401506665939802 0 0)
(0.001467150934620192 0 0)
(0.001521360756686793 0 0)
(0.001562834134040057 0 0)
(0.001590025436025522 0 0)
(0.001602266407608248 0 0)
(0.001598713438420169 0 0)
(0.001579369996215105 0 0)
(0.001543934567722243 0 0)
(0.001492826368255142 0 0)
(0.001426248881389205 0 0)
(0.00134575506535081 0 0)
(0.001254160226325671 0 0)
(0.001156777356854834 0 0)
(0.001057719965208979 0 0)
(0.0009587137579858844 0 0)
(0.0008597196231894532 0 0)
(0.0007611752623036718 0 0)
(0.0006634064712164158 0 0)
(0.0005672984664099397 0 0)
(0.0004737252745974961 0 0)
(0.0003841162026279415 0 0)
(0.0002998557789711586 0 0)
(0.0002228005552288012 0 0)
(0.0001546165187405312 0 0)
(9.72706414364829e-05 0 0)
(5.231129525743411e-05 0 0)
(2.137662857711615e-05 0 0)
(5.487850962740659e-06 0 0)
(5.648309167067123e-06 0 0)
(2.221618656273905e-05 0 0)
(5.55827489248149e-05 0 0)
(0.0001055468478024134 0 0)
(0.0001717762106167414 0 0)
(0.0002525548082820503 0 0)
(0.0003443984263934565 0 0)
(0.000441632894957084 0 0)
(0.0005401914337729879 0 0)
(0.0006387027391152163 0 0)
(0.0007371906038277621 0 0)
(0.0008351852612020581 0 0)
(0.0009324488756841061 0 0)
(0.001028012976189195 0 0)
(0.001121148304152864 0 0)
(0.00121037459425556 0 0)
(0.001294491600332981 0 0)
(0.001371620790301479 0 0)
(0.001440292662161523 0 0)
(0.00149852187383727 0 0)
(0.001544923975057833 0 0)
(0.00157779145934417 0 0)
(0.00159619366894529 0 0)
(0.001598991209467916 0 0)
(0.0015858601704227 0 0)
(0.00155622251232641 0 0)
(0.001510269943693377 0 0)
(0.001448057878410936 0 0)
(0.001371031919448676 0 0)
(0.001281938068686883 0 0)
(0.001186206079529929 0 0)
(0.001088381260819282 0 0)
(0.000990543507642339 0 0)
(0.0008926755990371929 0 0)
(0.0007951888860367388 0 0)
(0.0006983024345525997 0 0)
(0.0006028228803636431 0 0)
(0.0005094646646382228 0 0)
(0.0004195350296375074 0 0)
(0.0003342355753633156 0 0)
(0.0002553085569901103 0 0)
(0.0001842953895283407 0 0)
(0.0001231421820962634 0 0)
(7.342431582797249e-05 0 0)
(3.692890602424142e-05 0 0)
(1.4895925509106e-05 0 0)
(8.63244244094913e-06 0 0)
(1.882227243208001e-05 0 0)
(4.618494118468478e-05 0 0)
(9.079448827136854e-05 0 0)
(0.0001525290686697342 0 0)
(0.0002298221163778625 0 0)
(0.0003192544526707134 0 0)
(0.0004149581515523753 0 0)
(0.0005123632990476501 0 0)
(0.0006097753548894221 0 0)
(0.0007071870223713226 0 0)
(0.0008041903978504497 0 0)
(0.0009006001029309831 0 0)
(0.0009955635973652593 0 0)
(0.001088448117350503 0 0)
(0.001177927170772228 0 0)
(0.001262915835038036 0 0)
(0.001341686610261054 0 0)
(0.001412844610851504 0 0)
(0.001474479359126382 0 0)
(0.001525164652253149 0 0)
(0.001563124523408438 0 0)
(0.001587230413378365 0 0)
(0.001596134427819423 0 0)
(0.001589210671888859 0 0)
(0.001565631899506089 0 0)
(0.00152530664739129 0 0)
(0.001468095468533139 0 0)
(0.0013951832629675 0 0)
(0.001309104730372496 0 0)
(0.001215221620178992 0 0)
(0.001118609186240895 0 0)
(0.001021838919169701 0 0)
(0.0009250250291316371 0 0)
(0.0008285112040824063 0 0)
(0.0007324758313374542 0 0)
(0.000637608235830487 0 0)
(0.0005445435242781605 0 0)
(0.0004544329392148034 0 0)
(0.0003683739331915845 0 0)
(0.0002879507878149175 0 0)
(0.0002146239035841776 0 0)
(0.0001502478150220967 0 0)
(9.641248491757898e-05 0 0)
(5.495426952312623e-05 0 0)
(2.727604089800567e-05 0 0)
(1.48939409586975e-05 0 0)
(1.877050936577082e-05 0 0)
(3.99163197246075e-05 0 0)
(7.869211764230638e-05 0 0)
(0.0001352591596091859 0 0)
(0.0002083325506712607 0 0)
(0.0002947997550424061 0 0)
(0.0003887531106219192 0 0)
(0.0004850342227053124 0 0)
(0.0005814142176187617 0 0)
(0.0006778257054588014 0 0)
(0.000773891667953759 0 0)
(0.0008694972808500806 0 0)
(0.000963860472637431 0 0)
(0.001056457769688318 0 0)
(0.001146061593591699 0 0)
(0.001231721142898655 0 0)
(0.001311808158556962 0 0)
(0.001385046400410584 0 0)
(0.001449570687646065 0 0)
(0.001503996270230795 0 0)
(0.001546481921127089 0 0)
(0.001575817157414356 0 0)
(0.001590458817117663 0 0)
(0.001589591554003165 0 0)
(0.001572120067308165 0 0)
(0.001537736708714052 0 0)
(0.001486019819951457 0 0)
(0.001417876821798141 0 0)
(0.001335407419077099 0 0)
(0.001243747622318975 0 0)
(0.001148384403421569 0 0)
(0.001052637152164617 0 0)
(0.0009568018138522409 0 0)
(0.0008612302743419755 0 0)
(0.0007660016494111691 0 0)
(0.000671767385519159 0 0)
(0.0005790324933058539 0 0)
(0.0004888748751582622 0 0)
(0.0004022433291695317 0 0)
(0.0003206351394550506 0 0)
(0.000245379334482486 0 0)
(0.0001782751658005965 0 0)
(0.0001208563046772574 0 0)
(7.499667708827862e-05 0 0)
(4.217228991237527e-05 0 0)
(2.405941979489031e-05 0 0)
(2.182116298166226e-05 0 0)
(3.671454888049517e-05 0 0)
(6.936841736552353e-05 0 0)
(0.0001202339354351705 0 0)
(0.0001884124850171778 0 0)
(0.0002712629903693166 0 0)
(0.0003631177179314015 0 0)
(0.0004582128283493409 0 0)
(0.0005536112717732105 0 0)
(0.0006490465705798463 0 0)
(0.0007442233613098438 0 0)
(0.0008390255310449873 0 0)
(0.0009328035509237712 0 0)
(0.001025053165281407 0 0)
(0.001114709361729475 0 0)
(0.001200855316824534 0 0)
(0.001282037629815446 0 0)
(0.00135700182042609 0 0)
(0.001424030065552563 0 0)
(0.001481701160551388 0 0)
(0.00152824428332628 0 0)
(0.001562312499096321 0 0)
(0.001582326809421052 0 0)
(0.001587233314107046 0 0)
(0.001575821836187979 0 0)
(0.001547491841968114 0 0)
(0.001501652019615039 0 0)
(0.001438796206111345 0 0)
(0.001360595336555349 0 0)
(0.001271623780940708 0 0)
(0.001177695117616761 0 0)
(0.001082920427802585 0 0)
(0.0009880485692859279 0 0)
(0.0008933667136084959 0 0)
(0.0007989553415948376 0 0)
(0.0007053442872932781 0 0)
(0.0006130083384430597 0 0)
(0.0005228806856791778 0 0)
(0.0004358562450112727 0 0)
(0.0003532807220362854 0 0)
(0.0002764295750957463 0 0)
(0.0002069772188201499 0 0)
(0.0001464468278005789 0 0)
(9.666206532779572e-05 0 0)
(5.917819415192912e-05 0 0)
(3.573058245539998e-05 0 0)
(2.766465405400162e-05 0 0)
(3.639302435732317e-05 0 0)
(6.280316659952163e-05 0 0)
(0.0001075940909060069 0 0)
(0.0001703001654914319 0 0)
(0.0002488513304513992 0 0)
(0.0003381072303955244 0 0)
(0.0004318729665769465 0 0)
(0.0005263180459644337 0 0)
(0.0006208176868884432 0 0)
(0.0007151203068335515 0 0)
(0.0008091365034313992 0 0)
(0.0009023041469041308 0 0)
(0.0009941715541205627 0 0)
(0.001083782640227048 0 0)
(0.001170288180533183 0 0)
(0.001252353688168811 0 0)
(0.0013287861972999 0 0)
(0.001397968830565255 0 0)
(0.001458501761935783 0 0)
(0.00150866025608703 0 0)
(0.00154704043161037 0 0)
(0.001572024609614731 0 0)
(0.001582413061410248 0 0)
(0.001576883285249188 0 0)
(0.001554619214059668 0 0)
(0.001514842016010054 0 0)
(0.001457680746524829 0 0)
(0.001384312027230271 0 0)
(0.001298610923582076 0 0)
(0.00120639643077295 0 0)
(0.001112631195650551 0 0)
(0.001018705477477161 0 0)
(0.0009249230404417574 0 0)
(0.0008313246304547218 0 0)
(0.0007383771295119631 0 0)
(0.0006464781230794403 0 0)
(0.000556480242669805 0 0)
(0.0004691851647869763 0 0)
(0.0003858468023681157 0 0)
(0.0003076486901073013 0 0)
(0.0002361856706717569 0 0)
(0.0001729203467441657 0 0)
(0.0001196457933074182 0 0)
(7.792733812675201e-05 0 0)
(4.955247137390095e-05 0 0)
(3.596590076742144e-05 0 0)
(3.871801566947396e-05 0 0)
(5.888144275982535e-05 0 0)
(9.739898628306031e-05 0 0)
(0.0001541904222967548 0 0)
(0.0002278176788704046 0 0)
(0.0003138620946756695 0 0)
(0.0004060375305531444 0 0)
(0.0004995130993490256 0 0)
(0.0005931060493237989 0 0)
(0.0006865347587300468 0 0)
(0.0007797767907224215 0 0)
(0.0008722987156607633 0 0)
(0.0009637538287569149 0 0)
(0.00105322595866513 0 0)
(0.001139986892639115 0 0)
(0.001222748464343387 0 0)
(0.001300439498697 0 0)
(0.001371475302760442 0 0)
(0.0014345515524621 0 0)
(0.001487931799926152 0 0)
(0.001530252833038213 0 0)
(0.001559815678436643 0 0)
(0.001575388784482126 0 0)
(0.001575497095105642 0 0)
(0.001559231118344066 0 0)
(0.001525581339534059 0 0)
(0.001474432698041571 0 0)
(0.001406398233027877 0 0)
(0.00132463526998543 0 0)
(0.00123453300309631 0 0)
(0.001141865288223287 0 0)
(0.001048822684463362 0 0)
(0.0009559147889406738 0 0)
(0.0008631138926645759 0 0)
(0.0007708400619626537 0 0)
(0.0006794207291410959 0 0)
(0.0005896315703787442 0 0)
(0.000502190391400421 0 0)
(0.0004182644850078059 0 0)
(0.0003389496091676481 0 0)
(0.0002657625416293901 0 0)
(0.0002000987799925299 0 0)
(0.000143711586860546 0 0)
(9.81499340515732e-05 0 0)
(6.522743031591837e-05 0 0)
(4.644614594961881e-05 0 0)
(4.346279842928099e-05 0 0)
(5.748641358957277e-05 0 0)
(8.967039970764872e-05 0 0)
(0.000140267053585116 0 0)
(0.0002084535859207798 0 0)
(0.0002906389811545653 0 0)
(0.0003808191809386127 0 0)
(0.000473239498857794 0 0)
(0.000565923188766409 0 0)
(0.0006584783095034659 0 0)
(0.0007509110802047821 0 0)
(0.0008427670561858407 0 0)
(0.0009337401063429442 0 0)
(0.001023010046510461 0 0)
(0.001109901724604138 0 0)
(0.00119322777734607 0 0)
(0.001271970372420852 0 0)
(0.001344636289173471 0 0)
(0.001409955406326401 0 0)
(0.001466251860198595 0 0)
(0.001512151541188569 0 0)
(0.001545964011182916 0 0)
(0.001566387225570574 0 0)
(0.001571897361618663 0 0)
(0.00156144947777502 0 0)
(0.001533912116630711 0 0)
(0.001488896132457868 0 0)
(0.001426592687565591 0 0)
(0.001349348398559118 0 0)
(0.001261921845553324 0 0)
(0.001170508640535985 0 0)
(0.001078373071163704 0 0)
(0.000986325188217349 0 0)
(0.0008943358147032331 0 0)
(0.0008027581352112402 0 0)
(0.0007118685565538843 0 0)
(0.0006223590990563553 0 0)
(0.0005348848349286659 0 0)
(0.0004505165002324084 0 0)
(0.000370285509857309 0 0)
(0.0002956130380889511 0 0)
(0.0002278471008047369 0 0)
(0.0001686694174529663 0 0)
(0.0001196223802998207 0 0)
(8.249728454922715e-05 0 0)
(5.885284194247568e-05 0 0)
(5.038887438916817e-05 0 0)
(5.84453913810617e-05 0 0)
(8.43145112758696e-05 0 0)
(0.0001285603068869796 0 0)
(0.0001908712285144231 0 0)
(0.0002685506776057763 0 0)
(0.0003561890481176243 0 0)
(0.000447420878262688 0 0)
(0.0005392074448957825 0 0)
(0.000630909753245172 0 0)
(0.0007225275800376811 0 0)
(0.0008137044519847235 0 0)
(0.0009041472755159855 0 0)
(0.0009931527393672067 0 0)
(0.001080068818668807 0 0)
(0.001163829527083807 0 0)
(0.00124344230508836 0 0)
(0.001317526000983393 0 0)
(0.001384824808873875 0 0)
(0.001443747267047495 0 0)
(0.001492904293945877 0 0)
(0.001530642202253844 0 0)
(0.001555600720263044 0 0)
(0.00156623420119973 0 0)
(0.001561390371937296 0 0)
(0.001539840055149763 0 0)
(0.001500977419733427 0 0)
(0.0014446286788235 0 0)
(0.001372426568465342 0 0)
(0.001288294166097224 0 0)
(0.001198472065562991 0 0)
(0.001107274971882349 0 0)
(0.001016107615477315 0 0)
(0.000924948015158947 0 0)
(0.0008341177789615587 0 0)
(0.0007438123377777495 0 0)
(0.0006546786111531469 0 0)
(0.000567270605215736 0 0)
(0.000482613094649537 0 0)
(0.0004016259190229645 0 0)
(0.0003256941264329751 0 0)
(0.0002560584622888686 0 0)
(0.0001943904971281386 0 0)
(0.0001421504229430162 0 0)
(0.0001011632685191524 0 0)
(7.294942356169454e-05 0 0)
(5.930213555987394e-05 0 0)
(6.158485425435177e-05 0 0)
(8.127085311219299e-05 0 0)
(0.0001190972062220007 0 0)
(0.0001752614177397209 0 0)
(0.0002478293632478533 0 0)
(0.0003323138643077372 0 0)
(0.000422066158113309 0 0)
(0.0005129620342931998 0 0)
(0.0006037950141997957 0 0)
(0.0006946214355141755 0 0)
(0.000785069475517286 0 0)
(0.0008749704901651356 0 0)
(0.0009636195665827646 0 0)
(0.001050495013096854 0 0)
(0.001134540867246114 0 0)
(0.001214889554844811 0 0)
(0.00129017319908185 0 0)
(0.001359242933327602 0 0)
(0.001420509876744746 0 0)
(0.001472656854452219 0 0)
(0.001514007366085749 0 0)
(0.001543224111378283 0 0)
(0.001558703163530546 0 0)
(0.001559256120523825 0 0)
(0.001543546774063724 0 0)
(0.001510822703048828 0 0)
(0.0014605960660293 0 0)
(0.00139387922863094 0 0)
(0.001313689804432324 0 0)
(0.001225882648261825 0 0)
(0.001135697345700704 0 0)
(0.00104537003715463 0 0)
(0.0009550296626806937 0 0)
(0.0008649347892096917 0 0)
(0.0007752442477623008 0 0)
(0.0006865186551844576 0 0)
(0.0005992702549871848 0 0)
(0.0005144212159256669 0 0)
(0.0004328524385774134 0 0)
(0.00035583917347766 0 0)
(0.0002845959807130668 0 0)
(0.0002206915713968354 0 0)
(0.0001655875926395815 0 0)
(0.0001210333916259997 0 0)
(8.8596542651906e-05 0 0)
(7.003901316103351e-05 0 0)
(6.683191172347587e-05 0 0)
(8.049121796882081e-05 0 0)
(0.0001119932746652547 0 0)
(0.0001618420097051536 0 0)
(0.0002288695732490544 0 0)
(0.0003094968572191949 0 0)
(0.0003973688896041662 0 0)
(0.0004872632151799683 0 0)
(0.0005772423603080035 0 0)
(0.0006672168707033845 0 0)
(0.0007569257262829615 0 0)
(0.0008461896157143214 0 0)
(0.0009344318570887155 0 0)
(0.001021135243773774 0 0)
(0.001105370427092373 0 0)
(0.001186282122556168 0 0)
(0.001262616012587026 0 0)
(0.001333234578419052 0 0)
(0.001396637516252976 0 0)
(0.001451506192715519 0 0)
(0.001496214753684957 0 0)
(0.001529401804101524 0 0)
(0.001549466094614267 0 0)
(0.001555161937313805 0 0)
(0.001545094149205883 0 0)
(0.001518380749367528 0 0)
(0.00147429687088837 0 0)
(0.001413351630455303 0 0)
(0.001337691009784466 0 0)
(0.001252475245300444 0 0)
(0.001163483937762833 0 0)
(0.001074018573363177 0 0)
(0.0009845043560639678 0 0)
(0.0008951792376435523 0 0)
(0.0008061479918340636 0 0)
(0.0007179078694081393 0 0)
(0.0006309071696287609 0 0)
(0.0005459945387671188 0 0)
(0.0004639826422246593 0 0)
(0.0003860730278606504 0 0)
(0.000313417836037189 0 0)
(0.0002475222083953001 0 0)
(0.000189804610026956 0 0)
(0.0001419741605443007 0 0)
(0.0001055901941279534 0 0)
(8.241205670706401e-05 0 0)
(7.395531816173347e-05 0 0)
(8.179451263681722e-05 0 0)
(0.0001070613740392567 0 0)
(0.0001505324792195279 0 0)
(0.0002116542677220918 0 0)
(0.0002877897516111775 0 0)
(0.0003732349597080542 0 0)
(0.0004619961014412214 0 0)
(0.000551125802636706 0 0)
(0.0006402629665515256 0 0)
(0.0007292145162301487 0 0)
(0.0008178214099626098 0 0)
(0.0009056007673336269 0 0)
(0.0009920629774303423 0 0)
(0.001076382080322529 0 0)
(0.001157726482442717 0 0)
(0.001234947178486228 0 0)
(0.001306917774030536 0 0)
(0.001372235593123768 0 0)
(0.001429571108518839 0 0)
(0.001477377475499667 0 0)
(0.001514249252594617 0 0)
(0.001538634441289312 0 0)
(0.001549203513019906 0 0)
(0.001544568163823817 0 0)
(0.001523694574234436 0 0)
(0.00148572681633398 0 0)
(0.001430717992724155 0 0)
(0.00136010480817529 0 0)
(0.001278102676440177 0 0)
(0.001190635153217625 0 0)
(0.001102048664055806 0 0)
(0.001013377797909115 0 0)
(0.0009248361026468958 0 0)
(0.0008365081302725786 0 0)
(0.0007488109503614565 0 0)
(0.0006621476473519581 0 0)
(0.0005772815334843461 0 0)
(0.0004949707905351474 0 0)
(0.000416333724890116 0 0)
(0.0003424681552419202 0 0)
(0.0002748076201491726 0 0)
(0.000214727422610526 0 0)
(0.0001638885201618868 0 0)
(0.0001238327032216613 0 0)
(9.630899164001538e-05 0 0)
(8.285642614030515e-05 0 0)
(8.509729745846583e-05 0 0)
(0.000104274423136825 0 0)
(0.0001413860333156153 0 0)
(0.0001963610756587396 0 0)
(0.0002674393225083477 0 0)
(0.0003498125341621625 0 0)
(0.0004371880420734762 0 0)
(0.0005254545237544523 0 0)
(0.0006137709042367232 0 0)
(0.0007019483002890992 0 0)
(0.0007898830974083107 0 0)
(0.0008771389649164604 0 0)
(0.0009632989233942168 0 0)
(0.001047589035795843 0 0)
(0.001129253133770805 0 0)
(0.00120719301927209 0 0)
(0.001280351341156739 0 0)
(0.001347366242050041 0 0)
(0.001406960142441529 0 0)
(0.001457607865062912 0 0)
(0.001497929795287571 0 0)
(0.001526368640578523 0 0)
(0.001541585055781164 0 0)
(0.001542148298421482 0 0)
(0.001526956931206845 0 0)
(0.001495009478389078 0 0)
(0.001446047446623974 0 0)
(0.001380863494514726 0 0)
(0.001302725520055544 0 0)
(0.00121720487585301 0 0)
(0.001129581950575794 0 0)
(0.001041730412437811 0 0)
(0.0009539719153216387 0 0)
(0.0008663601001984011 0 0)
(0.0007792384804249381 0 0)
(0.0006929710654846419 0 0)
(0.0006082336211006242 0 0)
(0.0005257385444120637 0 0)
(0.0004465156457291959 0 0)
(0.0003716166524973415 0 0)
(0.0003023957261233775 0 0)
(0.0002401903826228541 0 0)
(0.0001866031611785997 0 0)
(0.0001431576224001087 0 0)
(0.0001115776792483347 0 0)
(9.341744535443674e-05 0 0)
(9.032827457046267e-05 0 0)
(0.0001036354335661456 0 0)
(0.0001345061799921951 0 0)
(0.0001832396904148306 0 0)
(0.0002488243563627785 0 0)
(0.0003274442314785589 0 0)
(0.0004130118979178519 0 0)
(0.0005003308126281972 0 0)
(0.0005878120041759301 0 0)
(0.0006751865075070422 0 0)
(0.0007623969451145243 0 0)
(0.0008490645884251619 0 0)
(0.0009348297186065013 0 0)
(0.001018986258303906 0 0)
(0.001100837579872156 0 0)
(0.001179352027151293 0 0)
(0.001253524410962042 0 0)
(0.001322050168474483 0 0)
(0.001383688959924471 0 0)
(0.001436955914039919 0 0)
(0.001480485460630456 0 0)
(0.001512735623435844 0 0)
(0.001532351316240483 0 0)
(0.00153788373976351 0 0)
(0.001528166949173879 0 0)
(0.001502098447980807 0 0)
(0.001459172105129779 0 0)
(0.001399678028521887 0 0)
(0.001325984041545222 0 0)
(0.001242975736167141 0 0)
(0.001156496028182447 0 0)
(0.001069474634262695 0 0)
(0.0009825122482635194 0 0)
(0.0008956428806583443 0 0)
(0.000809148733260381 0 0)
(0.0007233462805896539 0 0)
(0.0006388344589560511 0 0)
(0.0005562743908067734 0 0)
(0.0004766120489086531 0 0)
(0.0004008520308521154 0 0)
(0.0003302657068770699 0 0)
(0.0002661568977351602 0 0)
(0.000210056572207862 0 0)
(0.0001634774075257612 0 0)
(0.0001280952335970182 0 0)
(0.0001054885935499296 0 0)
(9.730103052031023e-05 0 0)
(0.0001049465102260735 0 0)
(0.000129691834766006 0 0)
(0.0001721573586155624 0 0)
(0.0002319106200963361 0 0)
(0.0003061554404106686 0 0)
(0.0003893767474841609 0 0)
(0.0004756299420816449 0 0)
(0.0005622745354879199 0 0)
(0.0006488577751789552 0 0)
(0.0007353254918693097 0 0)
(0.0008213827833491808 0 0)
(0.0009066964035558449 0 0)
(0.0009906512235761875 0 0)
(0.001072582065968261 0 0)
(0.001151547349023153 0 0)
(0.001226570660670744 0 0)
(0.001296429080078108 0 0)
(0.001359900258501599 0 0)
(0.001415564702544354 0 0)
(0.001462055071137098 0 0)
(0.00149787104231925 0 0)
(0.001521628963824817 0 0)
(0.001531890575569007 0 0)
(0.001527420414555961 0 0)
(0.001507060286263533 0 0)
(0.001470095782172524 0 0)
(0.001416445801315317 0 0)
(0.001347675199636033 0 0)
(0.001267810638940223 0 0)
(0.001182777808577456 0 0)
(0.00109662355055067 0 0)
(0.001010458188360654 0 0)
(0.0009243520226486085 0 0)
(0.0008385209036952082 0 0)
(0.0007532453579605891 0 0)
(0.000669049236569362 0 0)
(0.0005865466278016024 0 0)
(0.0005066031966088184 0 0)
(0.0004301668844742956 0 0)
(0.0003584249850616883 0 0)
(0.0002926226282789173 0 0)
(0.000234218060390947 0 0)
(0.0001846830095381854 0 0)
(0.0001456525585783597 0 0)
(0.000118726399037234 0 0)
(0.0001055596050185072 0 0)
(0.0001076829724445973 0 0)
(0.0001265442465937768 0 0)
(0.0001628886680466083 0 0)
(0.0002168769380616027 0 0)
(0.0002866736848290828 0 0)
(0.0003674559628370014 0 0)
(0.0004528963606625779 0 0)
(0.0005394970882698289 0 0)
(0.0006259864615602159 0 0)
(0.000712304715082917 0 0)
(0.0007981233964980038 0 0)
(0.0008832387070256057 0 0)
(0.0009671541238495708 0 0)
(0.00104929814376931 0 0)
(0.001129036648227867 0 0)
(0.001205287443691575 0 0)
(0.001276985705966373 0 0)
(0.00134284304727295 0 0)
(0.001401707070440583 0 0)
(0.001451943279517358 0 0)
(0.001491600668898312 0 0)
(0.001519834280185189 0 0)
(0.001534282395183691 0 0)
(0.001534190349030204 0 0)
(0.001518799083570966 0 0)
(0.001486469804077225 0 0)
(0.001437061174402893 0 0)
(0.001371778593435815 0 0)
(0.00129373575464277 0 0)
(0.001208721361600822 0 0)
(0.001120967963339458 0 0)
(0.001033051815576462 0 0)
(0.0009452112944340758 0 0)
(0.0008574931655671426 0 0)
(0.0007708096262118175 0 0)
(0.000685097215371293 0 0)
(0.0006013005803543719 0 0)
(0.0005198877274533834 0 0)
(0.0004414576814144007 0 0)
(0.0003670440670935083 0 0)
(0.0002979261697653443 0 0)
(0.0002356072058576268 0 0)
(0.00018159694599587 0 0)
(0.0001375657742901788 0 0)
(0.0001055351244037379 0 0)
(8.655597017663646e-05 0 0)
(8.308375039698013e-05 0 0)
(9.59836948644667e-05 0 0)
(0.0001264400088721157 0 0)
(0.0001745397889338858 0 0)
(0.0002392265573166617 0 0)
(0.0003166188803912576 0 0)
(0.0004009193429651939 0 0)
(0.0004874646124372216 0 0)
(0.0005747176976033902 0 0)
(0.0006618592701261507 0 0)
(0.0007479261614102735 0 0)
(0.0008341308107640002 0 0)
(0.0009185789743855018 0 0)
(0.001001535063559981 0 0)
(0.001081784296416549 0 0)
(0.00115893955756187 0 0)
(0.001231806502281377 0 0)
(0.001299466802896041 0 0)
(0.001360535877070869 0 0)
(0.001413681350610594 0 0)
(0.001457440175049451 0 0)
(0.001489674863733305 0 0)
(0.001509642692156788 0 0)
(0.001514835672998221 0 0)
(0.001505017997898694 0 0)
(0.001479253018398855 0 0)
(0.001436499537938246 0 0)
(0.001377630382486134 0 0)
(0.001304935911712483 0 0)
(0.001222979492122352 0 0)
(0.001137188914540936 0 0)
(0.001050087832198832 0 0)
(0.0009632307709144075 0 0)
(0.0008765788675409752 0 0)
(0.0007897280821800654 0 0)
(0.0007050186486012228 0 0)
(0.0006207900706911381 0 0)
(0.0005403914910773439 0 0)
(0.0004619894786549626 0 0)
(0.0003874749103666791 0 0)
(0.0003176935840293213 0 0)
(0.0002540986420772354 0 0)
(0.0001979430102981435 0 0)
(0.0001511377421954193 0 0)
(0.0001151620160249923 0 0)
(9.222527298622365e-05 0 0)
(8.328092484761271e-05 0 0)
(9.097370363764634e-05 0 0)
(0.000115370246703705 0 0)
(0.000157406085725988 0 0)
(0.000216257264345569 0 0)
(0.0002892659748734485 0 0)
(0.0003711844893889726 0 0)
(0.0004569080065361092 0 0)
(0.0005434537410532806 0 0)
(0.0006301689074492846 0 0)
(0.0007168435766541414 0 0)
(0.000801884870944097 0 0)
(0.0008873733556827088 0 0)
(0.0009700849911832991 0 0)
(0.001051776556767736 0 0)
(0.001128658160614077 0 0)
(0.001202229579956049 0 0)
(0.001270685517971822 0 0)
(0.00133333964471909 0 0)
(0.001388403596353876 0 0)
(0.001435310086185815 0 0)
(0.001471803241244014 0 0)
(0.001496098789508775 0 0)
(0.001506486523263636 0 0)
(0.00150172665803386 0 0)
(0.001479909408418927 0 0)
(0.001446265350216406 0 0)
)
;

boundaryField
{
    inlet
    {
        type            calculated;
        value           uniform (-3.643385270110258e-05 0 0);
    }
    outlet
    {
        type            calculated;
        value           uniform (0.001419977687545594 0 0);
    }
    frontAndBack
    {
        type            empty;
    }
}


// ************************************************************************* //
