/*--------------------------------*- C++ -*----------------------------------*\
| =========                 |                                                 |
| \\      /  F ield         | OpenFOAM: The Open Source CFD Toolbox           |
|  \\    /   O peration     | Version:  v2012                                 |
|   \\  /    A nd           | Website:  www.openfoam.com                      |
|    \\/     M anipulation  |                                                 |
\*---------------------------------------------------------------------------*/
FoamFile
{
    version     2.0;
    format      ascii;
    class       volScalarField;
    location    "0.007";
    object      p;
}
// * * * * * * * * * * * * * * * * * * * * * * * * * * * * * * * * * * * * * //

dimensions      [1 -1 -2 0 0 0 0];


internalField   nonuniform List<scalar> 
100
(
100000
100000
100000
100000
100000
100000
100000
100000
100000
100000
100000
100000
100000
100000
100000
100000
100000
100000
100000
99999.5
99974
99682.1
98541.2
96330.1
93407.4
90161.4
86805.9
83440.2
80112.8
76849.1
73663.9
70565.5
67558.6
64645.4
61826.6
59101.8
56469.8
53928.8
51476.9
49111.8
46831.4
44633.9
42517.5
40481.4
38525.5
36651.6
34866.3
33190.4
31692.5
30547.3
30036
30087
30383.5
30328.1
30299.9
30291.5
30285.9
30280
30271.5
30267.9
30275.4
30281.1
30282.3
30280.7
30281.3
30283.6
30286.7
30292
30303
30321.9
30341.4
30342.9
30365.4
30337.9
30238.6
30248.7
30257.5
30271.5
30298.2
30333.5
30352.4
30337.7
30317.9
30294.3
30267.9
30220
30029.4
29043.8
24682.5
15350.9
10377.9
10002.5
10000
10000
10000
10000
10000
10000
10000
10000
)
;

boundaryField
{
    sides
    {
        type            zeroGradient;
    }
    empty
    {
        type            empty;
    }
}


// ************************************************************************* //
