/*--------------------------------*- C++ -*----------------------------------*\
| =========                 |                                                 |
| \\      /  F ield         | OpenFOAM: The Open Source CFD Toolbox           |
|  \\    /   O peration     | Version:  v2012                                 |
|   \\  /    A nd           | Website:  www.openfoam.com                      |
|    \\/     M anipulation  |                                                 |
\*---------------------------------------------------------------------------*/
FoamFile
{
    version     2.0;
    format      ascii;
    class       volScalarField;
    location    "0.007";
    object      rho;
}
// * * * * * * * * * * * * * * * * * * * * * * * * * * * * * * * * * * * * * //

dimensions      [1 -3 0 0 0 0 0];


internalField   nonuniform List<scalar> 
100
(
0.999645
0.999645
0.999645
0.999645
0.999645
0.999645
0.999645
0.999645
0.999645
0.999645
0.999645
0.999645
0.999645
0.999645
0.999645
0.999645
0.999645
0.999645
0.999645
0.999642
0.99946
0.997373
0.989201
0.97329
0.952103
0.928352
0.903541
0.87838
0.853217
0.828246
0.80358
0.779292
0.755428
0.732017
0.709076
0.686614
0.664634
0.643134
0.622112
0.601562
0.581478
0.561857
0.542699
0.524008
0.505798
0.488102
0.471001
0.454715
0.439972
0.428513
0.423382
0.423909
0.426913
0.426374
0.426004
0.425852
0.425766
0.425716
0.425709
0.425841
0.426135
0.426276
0.426241
0.425942
0.425041
0.4228
0.417928
0.408502
0.392385
0.368541
0.338798
0.308386
0.284236
0.269954
0.264221
0.263377
0.26341
0.26358
0.26394
0.264437
0.264852
0.265033
0.265126
0.265136
0.265094
0.264882
0.263732
0.257524
0.229493
0.165272
0.128021
0.124977
0.124955
0.124955
0.124955
0.124955
0.124955
0.124955
0.124955
0.124955
)
;

boundaryField
{
    sides
    {
        type            calculated;
        value           nonuniform List<scalar> 2(0.124955 0.999645);
    }
    empty
    {
        type            empty;
    }
}


// ************************************************************************* //
