/*--------------------------------*- C++ -*----------------------------------*\
| =========                 |                                                 |
| \\      /  F ield         | OpenFOAM: The Open Source CFD Toolbox           |
|  \\    /   O peration     | Version:  v2012                                 |
|   \\  /    A nd           | Website:  www.openfoam.com                      |
|    \\/     M anipulation  |                                                 |
\*---------------------------------------------------------------------------*/
FoamFile
{
    version     2.0;
    format      ascii;
    class       volScalarField;
    location    "0.007";
    object      T;
}
// * * * * * * * * * * * * * * * * * * * * * * * * * * * * * * * * * * * * * //

dimensions      [0 0 0 1 0 0 0];


internalField   nonuniform List<scalar> 
100
(
348.432
348.432
348.432
348.432
348.432
348.432
348.432
348.432
348.432
348.432
348.432
348.432
348.432
348.432
348.432
348.432
348.432
348.432
348.432
348.431
348.406
348.116
346.974
344.733
341.713
338.277
334.63
330.87
327.044
323.18
319.293
315.396
311.495
307.596
303.701
299.814
295.936
292.067
288.209
284.361
280.523
276.696
272.881
269.08
265.299
261.545
257.839
254.236
250.897
248.297
247.1
247.213
247.892
247.753
247.737
247.757
247.762
247.743
247.676
247.57
247.461
247.426
247.456
247.616
248.146
249.48
252.415
258.284
268.99
286.573
311.931
342.709
372.103
391.434
398.62
400.03
400.097
400.024
399.83
399.545
399.166
398.7
398.301
397.976
397.691
397.379
396.596
392.824
374.615
323.519
282.353
278.768
278.746
278.746
278.746
278.746
278.746
278.746
278.746
278.746
)
;

boundaryField
{
    sides
    {
        type            zeroGradient;
    }
    empty
    {
        type            empty;
    }
}


// ************************************************************************* //
