/*--------------------------------*- C++ -*----------------------------------*\
| =========                 |                                                 |
| \\      /  F ield         | OpenFOAM: The Open Source CFD Toolbox           |
|  \\    /   O peration     | Version:  v2012                                 |
|   \\  /    A nd           | Website:  www.openfoam.com                      |
|    \\/     M anipulation  |                                                 |
\*---------------------------------------------------------------------------*/
FoamFile
{
    version     2.0;
    format      ascii;
    class       volVectorField;
    location    "0.007";
    object      U;
}
// * * * * * * * * * * * * * * * * * * * * * * * * * * * * * * * * * * * * * //

dimensions      [0 1 -1 0 0 0 0];


internalField   nonuniform List<vector> 
100
(
(-4.8757e-13 0 0)
(-4.84068e-13 0 0)
(-3.73909e-13 0 0)
(-2.97432e-13 0 0)
(-2.61843e-13 0 0)
(-2.96548e-13 0 0)
(-3.00882e-13 0 0)
(-3.15138e-13 0 0)
(-3.70608e-13 0 0)
(-3.81354e-13 0 0)
(-2.84007e-13 0 0)
(-2.62416e-13 0 0)
(-2.10918e-13 0 0)
(-1.89718e-13 0 0)
(-1.56221e-13 0 0)
(-5.26271e-14 0 0)
(3.07971e-14 0 0)
(1.41288e-09 0 0)
(4.25345e-06 0 0)
(0.00136948 0 0)
(0.0693936 0 0)
(0.850587 0 0)
(3.92149 0 0)
(9.95832 0 0)
(18.124 0 0)
(27.4563 0 0)
(37.4136 0 0)
(47.7391 0 0)
(58.3052 0 0)
(69.0409 0 0)
(79.9025 0 0)
(90.8615 0 0)
(101.899 0 0)
(113.001 0 0)
(124.159 0 0)
(135.368 0 0)
(146.624 0 0)
(157.926 0 0)
(169.273 0 0)
(180.666 0 0)
(192.104 0 0)
(203.589 0 0)
(215.117 0 0)
(226.682 0 0)
(238.271 0 0)
(249.858 0 0)
(261.382 0 0)
(272.665 0 0)
(283.197 0 0)
(291.523 0 0)
(295.352 0 0)
(294.969 0 0)
(292.769 0 0)
(293.155 0 0)
(293.378 0 0)
(293.42 0 0)
(293.467 0 0)
(293.522 0 0)
(293.594 0 0)
(293.633 0 0)
(293.597 0 0)
(293.542 0 0)
(293.529 0 0)
(293.536 0 0)
(293.524 0 0)
(293.502 0 0)
(293.483 0 0)
(293.48 0 0)
(293.515 0 0)
(293.63 0 0)
(293.742 0 0)
(293.719 0 0)
(293.954 0 0)
(293.724 0 0)
(292.775 0 0)
(292.872 0 0)
(292.91 0 0)
(293.029 0 0)
(293.269 0 0)
(293.585 0 0)
(293.747 0 0)
(293.605 0 0)
(293.402 0 0)
(293.159 0 0)
(292.903 0 0)
(292.446 0 0)
(290.64 0 0)
(281.245 0 0)
(236.572 0 0)
(108.663 0 0)
(8.92845 0 0)
(0.0595589 0 0)
(2.15663e-05 0 0)
(5.7037e-10 0 0)
(-2.65504e-13 0 0)
(-3.65122e-13 0 0)
(-3.74083e-13 0 0)
(-3.76317e-13 0 0)
(-4.44997e-13 0 0)
(-3.99574e-13 0 0)
)
;

boundaryField
{
    sides
    {
        type            zeroGradient;
    }
    empty
    {
        type            empty;
    }
}


// ************************************************************************* //
