/*--------------------------------*- C++ -*----------------------------------*\
| =========                 |                                                 |
| \\      /  F ield         | OpenFOAM: The Open Source CFD Toolbox           |
|  \\    /   O peration     | Version:  v2012                                 |
|   \\  /    A nd           | Website:  www.openfoam.com                      |
|    \\/     M anipulation  |                                                 |
\*---------------------------------------------------------------------------*/
FoamFile
{
    version     2.0;
    format      ascii;
    class       volScalarField;
    location    "0.009";
    object      rho;
}
// * * * * * * * * * * * * * * * * * * * * * * * * * * * * * * * * * * * * * //

dimensions      [1 -3 0 0 0 0 0];


internalField   nonuniform List<scalar> 
1000
(
1.176432129053363
1.176523275388625
1.176451422557558
1.176288404671576
1.176094265540483
1.175945539299342
1.175898969487557
1.175971830793539
1.176092420552255
1.176190995858056
1.176181551415566
1.176067587640433
1.175934499097842
1.17583172173541
1.175850935096018
1.175968029493828
1.176131106030311
1.176275639643295
1.176367708723575
1.176346887204026
1.176272918367681
1.176207211999838
1.176224350896032
1.176302899070776
1.176408859021894
1.176476970361316
1.17658931510599
1.176731480796572
1.176821763615156
1.176834009146846
1.176877907197974
1.176859569641004
1.176788883951448
1.17675968547641
1.176702676952123
1.176722914088043
1.176807070508832
1.176866805944852
1.176927403524275
1.176879639738521
1.176728113016634
1.176565932047766
1.176490008097804
1.176479568082104
1.176515582446846
1.176551494947268
1.176528525025989
1.176433651571592
1.176265642951473
1.176093572447068
1.176074106168685
1.176106034106847
1.176143964147523
1.176139571098388
1.176080951089992
1.175996901132724
1.175924264642928
1.175900678259929
1.17593755437225
1.176006089898556
1.17607753451644
1.176089543666022
1.176082957785413
1.17607062954572
1.176073040037914
1.176119398082875
1.176200916955035
1.176306214606766
1.176415676899365
1.176503495099477
1.176542717927553
1.176541777520073
1.176532468308093
1.176552946342542
1.176623756725659
1.176713082487208
1.176814246128208
1.176878901553651
1.176907230216955
1.176884745221756
1.176824909185349
1.176781440278441
1.176751817651532
1.176777339796358
1.176831385042407
1.176853663211503
1.17684221856384
1.17677059469115
1.176660933332618
1.176528415738459
1.176456151882009
1.176398558329079
1.176394920715775
1.176405439073704
1.176393100734821
1.176327156086032
1.176199147464407
1.176058437593995
1.175964783875803
1.175941056231735
1.175993823695443
1.176062730731516
1.176106212271171
1.176071205510724
1.175977049210473
1.175897088722644
1.175869217994146
1.17591700864996
1.1760252317989
1.176128185273565
1.176235163210496
1.176287365314516
1.176297039165164
1.176270728874301
1.17628376789233
1.176304201479035
1.176361685274479
1.176403192871928
1.176532084025182
1.176691420740867
1.176778773726709
1.176826227205034
1.17685598160873
1.176826299352415
1.176804516726396
1.1767466681975
1.176737428351123
1.176795477970443
1.176857139465747
1.176934783582802
1.176939017192632
1.176872559522228
1.176759330391025
1.176650303023018
1.176590649826659
1.176588422902882
1.176612561871663
1.176612226095014
1.176548183784109
1.176408149591487
1.176235431667248
1.17612190304893
1.176110294352989
1.176141590932913
1.17614906615029
1.176106681063577
1.176021932975325
1.175943267840492
1.175897373672883
1.175909508824984
1.175951252273023
1.175988178400174
1.175994368787447
1.176005522454876
1.176038312402472
1.176088066014396
1.176142278886458
1.176179225216368
1.176181059039392
1.176169989048996
1.176174418181827
1.176233227747225
1.176368863590358
1.176565880658262
1.176733836464293
1.176758180070993
1.176720491953737
1.176690489044971
1.176706810674374
1.176765771739954
1.176838178350034
1.176900344992757
1.176919204552139
1.17689265812618
1.176844815164977
1.17679912438375
1.176803836059839
1.176813574544033
1.176818263659678
1.17677998361549
1.176714210505638
1.176635255073329
1.176568947629681
1.176546182682128
1.176553610100546
1.176533423562809
1.176421356534912
1.176210979118838
1.176061886438706
1.176010763174608
1.17601904958422
1.176052715016674
1.176073573288601
1.176050579013232
1.175996601472715
1.175938584984501
1.175899343815022
1.175905553068267
1.175934760187494
1.175955534717836
1.175977414490214
1.176038978305588
1.176117220085251
1.176171755370399
1.176199533302294
1.17620379595719
1.176198546245937
1.176250182773446
1.176401860218869
1.176611158065154
1.176717273195965
1.176716028789082
1.176693170105712
1.176670854766646
1.176671184554383
1.176696862526809
1.176727258386013
1.176793380383256
1.176892046929897
1.17694091744696
1.176949801499187
1.176939102596006
1.176896031079035
1.176830573660316
1.176763486957348
1.176728470306335
1.17672220948377
1.176719048722253
1.17669579636083
1.176624752076878
1.176480621613911
1.176307446335903
1.176238429762379
1.176237982786829
1.176235659704925
1.17620957426069
1.17616022317932
1.176065945503327
1.175961856378657
1.175930529358806
1.17593102781365
1.17592487457983
1.175941687567351
1.175977336417209
1.176004933609624
1.176013117739798
1.176007092222374
1.176005160913228
1.176018686759338
1.176045046739265
1.176066983973952
1.176100727394434
1.176157591403205
1.176232701331105
1.176321364703156
1.176434255061688
1.176592332333128
1.176750955493241
1.176808855341923
1.17681477349947
1.17682062583315
1.17682343226549
1.176819404584119
1.176825692014155
1.176850867179828
1.176879261263642
1.176890257969691
1.17688625614442
1.176877554730509
1.176882609932002
1.176857640916507
1.176792674948797
1.176715066914612
1.17666969452456
1.176655798215836
1.176644466465562
1.1766002711824
1.176489873598791
1.176289190608366
1.176150491700675
1.176127624534315
1.176123141401227
1.176117294021389
1.176114441561226
1.17607749389964
1.175998787236334
1.175939869735567
1.175932325873477
1.175932744793993
1.175930992046049
1.175941775099981
1.175970405627069
1.176008650758787
1.176034380663453
1.176044110403964
1.176054130133289
1.176061608617591
1.176057663330371
1.176102477663275
1.176216202312635
1.176458318747686
1.176651160255243
1.17668878603729
1.176696258534827
1.176695098702698
1.176689026187892
1.176689991039479
1.17670205355712
1.176719407844046
1.176785280292562
1.176881633865312
1.176917607855873
1.176921507720984
1.176914073811371
1.176900549325157
1.176891484008536
1.176856982735739
1.176794476029681
1.17673251689891
1.176696156805562
1.176670949822215
1.176637862160967
1.176584604452082
1.176450807353794
1.176272760502229
1.17619451856636
1.176179346685434
1.176167500211979
1.176156520335137
1.176127565283742
1.176051073212444
1.17597529696117
1.175953282359871
1.175946314443605
1.175947793581371
1.175960270447376
1.175980657913045
1.176005373881836
1.17601449507724
1.176011646233179
1.17600744219997
1.176009630573009
1.17601922545239
1.176033210484045
1.176039720049498
1.176085346572417
1.17623220862433
1.176525740600139
1.17674721200275
1.176784199952708
1.176784594325079
1.176781395538408
1.176779232364176
1.17678081681512
1.176784766215531
1.176785635295478
1.176793847479165
1.176822350035493
1.176866519933316
1.176888341742199
1.176892890994642
1.176892138344905
1.176888281227287
1.176883743939735
1.176878742963081
1.176870856188519
1.176854398210932
1.17681624270887
1.176718633903531
1.176486646662768
1.176174071078224
1.176046255810772
1.176036978513991
1.176037432880199
1.176037909122429
1.176038181390287
1.176038356056
1.176039472681012
1.17603471667512
1.176023163536416
1.175994363030962
1.175954931885766
1.175938789213542
1.175936923623358
1.175937597454449
1.175939577915026
1.175941705000028
1.175945112374768
1.175954969154751
1.175973310631251
1.176003894956435
1.176064239526055
1.176200387951098
1.176467960363485
1.17674589589228
1.17682750490228
1.176831895723482
1.176832620426613
1.176831184680329
1.176828186239998
1.176826257201668
1.176826188898443
1.176826006253289
1.176825399241093
1.176825955344785
1.176829593111817
1.176836084642579
1.176846641824587
1.176855593921064
1.176858919694837
1.176861551274509
1.176857963703994
1.176846857792264
1.176831025744415
1.176753804375583
1.176564947512766
1.176279318998815
1.176128452987347
1.176106699581254
1.176101824243907
1.176097864723396
1.176078952948736
1.176032812930975
1.175990051009339
1.175980613194263
1.175981035331948
1.175981892416321
1.175981802997194
1.17598255239987
1.175984055291394
1.175982597855184
1.17597979459366
1.175982715983589
1.175987772749396
1.175990821025769
1.175996515779029
1.176025139644932
1.176089372712696
1.176275131488178
1.17655786848595
1.176691255339973
1.1767024656689
1.176701573654954
1.176703314427421
1.176708094780562
1.176710720034137
1.176731352031935
1.176783995688749
1.176834855571192
1.176846793734352
1.176846313762621
1.176845938467226
1.17684728852714
1.176846456102533
1.176841835144696
1.176840134250796
1.176845183904133
1.176835768352071
1.176811889535243
1.176789154028822
1.176684879247798
1.176474907872522
1.17629107062218
1.17624736418229
1.176242325395936
1.176233707862476
1.17622028454999
1.176165023460348
1.176052081813737
1.175977438910819
1.175966890734021
1.175968549122199
1.175969205227192
1.175963326512731
1.175959274143817
1.175960861888482
1.175949568452484
1.175929543597873
1.175920602370054
1.175927330747758
1.175935222162255
1.175929909593875
1.175939823987494
1.175970537024231
1.176010768069305
1.176182083291784
1.17654584270681
1.176845822937646
1.176898318513615
1.176899119649095
1.176899005358441
1.176898650324668
1.176897064900099
1.176894282552872
1.176888181656804
1.176868710980156
1.176839215370024
1.176823297016922
1.176821336044593
1.176820592880444
1.176819036715233
1.176821143684515
1.176824773786527
1.176821405740744
1.176814239635462
1.176814156935717
1.176812182973902
1.176778930236909
1.176712910855383
1.176495509476288
1.176142404264106
1.175958649363273
1.175941293523569
1.175941842173498
1.175942586431679
1.175943689015469
1.175951024414205
1.175966385021368
1.175993052740934
1.176011047012156
1.176014359073715
1.176015279025502
1.176013984899962
1.176012335107871
1.176011852936241
1.176013871385452
1.176015806974875
1.176015690251736
1.176021557717542
1.176040885539701
1.176091516120399
1.176245164411021
1.1765340686502
1.17673512799496
1.176763703011461
1.176764106100126
1.17676426338829
1.176764164270785
1.176763842267371
1.176762249530193
1.176764828139101
1.176771160620234
1.176776591259292
1.176804119338351
1.176851767416903
1.176877832646605
1.176879924756567
1.176879378359076
1.176879527650084
1.176878034903181
1.176874694812351
1.176870364354708
1.176863616408432
1.176839579305135
1.176770938218805
1.176560855928789
1.1761863774133
1.175947403830556
1.175917597482419
1.175916110985883
1.17591353806269
1.175918354867625
1.17592496587648
1.175927276148638
1.175930769092637
1.175939338743458
1.175946806590774
1.175951258766329
1.175949556647643
1.175952574601776
1.175965907967879
1.175988471371164
1.176044104727523
1.176160610511845
1.176281032446793
1.176325139167044
1.176335177453972
1.176340027448179
1.176370005781811
1.176452422974574
1.176601148660673
1.176692988484555
1.176705086778683
1.17670741002946
1.17670988157175
1.176709721660163
1.17672657806032
1.176763872792274
1.176816541904367
1.176836904490743
1.176838716884924
1.176837474744508
1.176835006229777
1.176833991269475
1.176832125470064
1.176828266653039
1.17682474245996
1.176823409496957
1.176820562267735
1.176798586373626
1.176749540091613
1.176588042503804
1.176265048855417
1.176015070820589
1.1759737354989
1.175972646562354
1.175971797028204
1.175972918909181
1.175976451629736
1.175981381230103
1.175993564924256
1.176012250684329
1.17602159869629
1.176023455779329
1.17602105446013
1.17601867749094
1.176020327553917
1.176021283759592
1.176018751742346
1.176018423141686
1.176026697551713
1.176037565135841
1.176040809625968
1.176087437703161
1.176221200356437
1.176513368054294
1.1767602474142
1.176805717602482
1.17680698350663
1.176806942143699
1.176805974880566
1.176805531311077
1.176806366738153
1.176806328173642
1.176804391362832
1.176806113008954
1.176810560379173
1.176813115784
1.176817288930808
1.176839451663346
1.176863713148116
1.176870834847132
1.176867321039144
1.176865965099277
1.176862751887628
1.176834659432848
1.176774109444575
1.176570147419408
1.176217288346003
1.176016080630129
1.175994986155245
1.175994262068135
1.175993674326413
1.175995181647984
1.175997419043347
1.175998630430903
1.176001497375835
1.176004632472805
1.176006511240121
1.176004503637314
1.176001792115233
1.176002019537532
1.176003774654168
1.176001756429593
1.175996982778343
1.176002122164936
1.176010710074527
1.176013762876768
1.176018542569087
1.176054168987998
1.176135107997525
1.176371422465524
1.176700530773711
1.176830721533327
1.176838606590081
1.176839024288402
1.176840154304112
1.176838274281842
1.176835606859433
1.176834852807989
1.176834441909231
1.176829265704658
1.176821430771248
1.176817643920441
1.176817986534582
1.176816917420451
1.176812447684
1.176811968493151
1.176818422210233
1.176814347608258
1.17680039072061
1.176790575379311
1.176790467182339
1.176740028206181
1.176605271667058
1.176294817433868
1.176011167085008
1.175951462173892
1.175948343284228
1.175950287621632
1.175953696109993
1.175955004139394
1.175954585454005
1.175958000160101
1.175963501000397
1.175967117417828
1.175968938500315
1.175972399595466
1.175976926927985
1.175980076036014
1.175979686224955
1.175983773299567
1.175991997644654
1.176002279677585
1.176008486416751
1.176049520069349
1.176167769458345
1.176448988052005
1.176735363212875
1.176811649399365
1.176827473898261
1.176832275483712
1.176830292264516
1.176822769514186
1.176801313632614
1.176788234594795
1.176788116371879
1.176796179405625
1.176824336137787
1.176847984321874
1.176859897236407
1.176858304705719
1.176840824172725
1.176819638733988
1.176816318952998
1.176820727430045
1.176852018358951
1.176893569648984
1.176907705266385
1.176843077439991
1.17663265119941
1.176223785756749
1.175931427357563
1.175829286413519
1.175820646368426
1.175849680132601
1.175957708090112
1.17608339554331
1.176141543344511
1.176161676320175
1.176160343349261
1.176080318847322
1.175911270786075
1.175792276517111
1.175740991503564
1.175720463230937
1.175728358432151
1.175727899190864
1.175750140211095
1.175825915490808
1.175912281218155
1.175999651487341
1.176063098990287
1.176148451339204
1.17630656100338
1.176450815587315
1.176516841948378
1.176522923308664
1.176517056111113
1.17657688601991
1.176772418439858
1.176914293836246
1.176972778075377
1.176985278152488
1.176995308943716
1.177028122548815
1.177082903631707
1.177127440805744
1.177136974441171
1.17711211725088
1.177013980820298
1.176873561752287
1.176777662563886
1.176739289805097
1.17668705932613
1.176740893116621
1.176830609315722
1.176836574741015
1.176666874278632
1.176463962598193
1.176396816485377
1.176323751808234
1.176138369793066
1.175936878738693
1.175854469440838
1.175804506623563
1.175815656873751
1.175846803482077
1.175862777683041
1.175842267365951
1.175788344032636
1.175744145733539
1.175750074302585
1.175759297664251
1.175834800103337
1.17594076137527
1.176000816793219
1.176050559488386
1.176072203004396
1.176067804261337
1.176119116041537
1.176293121926295
1.176466802282013
1.176548396225819
1.176577111564718
1.176679680919331
1.176843128510814
1.176924970797893
1.176977849839385
1.176990298299746
1.176975727424219
1.176966284409465
1.176998374534694
1.177087937778281
1.177153513867338
1.177156873402997
1.177126084548076
1.177018452487654
1.176885260043691
1.176814659304858
1.17677311393547
1.176724211055314
1.176760548281016
1.17678899683424
1.176672756122723
1.176464827831678
1.176315832269087
1.176300521392954
1.176193359586294
1.176011067661572
1.175895059175893
1.175876246203082
1.175831144948059
1.175827766305385
1.175817045206254
1.175829554364807
1.175819709406106
1.175806261423695
1.17580574545233
1.175809063441193
1.175842535207005
1.17589823404417
1.175951264550201
1.175982237339308
1.176048695397714
1.176045072736157
1.176046636891821
1.176191244580812
1.176438896762763
1.176606952214436
1.176631537023706
1.17671378157987
1.176840790150588
1.176939582181637
1.176946555567234
1.176982646779938
1.176998206200493
1.17701257582088
1.177002173044135
1.177022182153302
1.177038028937762
1.177040624387051
1.177030677405535
1.177002875863028
1.17693696468886
1.176858298812688
1.176824839825153
1.176786299465076
1.17679048655065
1.176822968261716
1.176769332989652
1.176548491259179
1.176322333598395
1.17621185886439
1.176157670371093
1.176026910701466
1.175868433023769
1.175812372641688
1.175829606073756
1.175826193114625
1.17585386495569
1.175893714554262
1.175915501558658
1.175907172086013
1.175869141757083
1.175831910821413
1.175823431270246
1.175845858394315
1.175895568146517
1.175930612910809
1.175963844961145
1.175999141449519
1.176000450800739
1.176021353520081
1.176224406270302
1.176516489878228
1.176696482952674
1.176711774173543
1.176817983331988
1.176945813706713
1.177008613011593
1.176971852806288
1.176955703491523
1.176945583800246
1.176929897793686
1.17691608412137
1.176925305636163
1.176963066102384
1.176995173983847
1.177013248811146
1.176989332363651
1.176930205211102
1.176877673936629
1.17684965949617
1.176791786109691
1.176808629289854
1.176791774565212
1.176589507992126
1.176279848789819
1.176093183507686
1.176069419918832
1.175988272720792
1.175873714836847
1.175784942280394
1.175792230462507
1.175831108433458
1.175831412997327
1.175843854439472
1.175870224477818
1.175880075895924
1.175864047759535
1.175834738303487
1.175809618505333
1.175799428804648
1.175800341589107
1.17581793326065
1.175837876137283
1.175884257099119
1.175898298379825
1.175952318042174
1.176178168566664
1.176521585325765
1.176707427220409
1.17674441147579
1.17678374808858
1.176842502662889
1.176903963102765
1.176906789707588
1.176870087757046
1.176878875857249
1.176876309471737
1.176870942633358
1.176861817507362
1.176875513098681
1.176916309886904
1.176948106298582
1.176955243294964
1.176941677720234
1.176909777005961
1.17688379641985
1.176835874112373
1.176819201574038
1.176756205121522
1.176558958633969
1.176208770151322
1.17599431396148
1.175937021315396
1.17590984113581
1.175838655956581
1.175776925580447
1.175781868090645
1.175830664496476
1.175851825962329
1.175827945071241
1.175811273769505
1.175802224303645
1.175795611481969
1.175787865206552
1.175779927061759
1.175767802116061
1.17574379272368
1.175727529552517
1.175734022334187
1.175763106308604
1.175782595643099
1.175838340287323
1.17603544481019
1.176419063289059
1.176694583212172
1.176742711145257
)
;

boundaryField
{
    inlet
    {
        type            calculated;
        value           uniform 1.176411716172193;
    }
    outlet
    {
        type            calculated;
        value           uniform 1.176738530517328;
    }
    frontAndBack
    {
        type            empty;
    }
}


// ************************************************************************* //
