/*--------------------------------*- C++ -*----------------------------------*\
| =========                 |                                                 |
| \\      /  F ield         | OpenFOAM: The Open Source CFD Toolbox           |
|  \\    /   O peration     | Version:  v2012                                 |
|   \\  /    A nd           | Website:  www.openfoam.com                      |
|    \\/     M anipulation  |                                                 |
\*---------------------------------------------------------------------------*/
FoamFile
{
    version     2.0;
    format      ascii;
    class       volScalarField;
    location    "0.009";
    object      T;
}
// * * * * * * * * * * * * * * * * * * * * * * * * * * * * * * * * * * * * * //

dimensions      [0 0 0 1 0 0 0];


internalField   nonuniform List<scalar> 
1000
(
300.0035931877317
300.0110773461391
300.0015825250785
299.9835120231002
299.9649003361847
299.9512459211713
299.9469953979574
299.9544750886262
299.9667836661965
299.976846640841
299.9759379092334
299.9644293925916
299.9509995717211
299.940591996646
299.9425841572715
299.9545698643148
299.9712393226081
299.9860167571226
299.9954292654683
299.9933182700659
299.9857874820157
299.979089747698
299.9808417129832
299.9888609407485
299.9996757475612
300.0066268728333
300.0180915380249
300.0325980909143
300.0418096938746
300.0430585411011
300.0475369055273
300.0456653999765
300.0384527800001
300.0354734057919
300.029656266851
300.03172128056
300.0403084145782
300.0464035299304
300.0525863378288
300.0477131881782
300.0322524136824
300.0157028884557
300.0079548277187
300.0068893571112
300.0105646293259
300.0142294430897
300.0118854134337
300.0022033467621
299.9850568318922
299.9674940843341
299.9655067907073
299.9687655987956
299.9726370524985
299.9721886267336
299.9662050671522
299.9576254867587
299.9502107556345
299.9478029541874
299.9515672414682
299.958563080348
299.9658557548764
299.9670815878618
299.9664093065415
299.9651508928805
299.9653969615845
299.9701289221762
299.9784494890304
299.9891965764701
300.0003681890742
300.0093304359925
300.0133331812837
300.0132371966706
300.0122871748961
300.0143769791339
300.0216029940477
300.0307180273672
300.0410405130264
300.0476375461145
300.05052802384
300.0482339660193
300.0421287233657
300.037693371238
300.0346708320446
300.0372750931635
300.0427895741447
300.0450625889136
300.0438948501464
300.0365866988406
300.0253966152776
300.011873623585
300.0044991539148
299.9986215540028
299.9982501928783
299.999323438762
299.998064174688
299.991333969369
299.9782686780782
299.9639062510328
299.9543464054522
299.9519241400654
299.9573104043294
299.9643438878591
299.9687820662964
299.9652087063349
299.9555972800288
299.9474346396625
299.9445893980676
299.9494679043418
299.9605148729556
299.9710235888165
299.9819426383559
299.9872702908521
299.9882573060993
299.985571624149
299.9869021997623
299.9889873347834
299.9948537791581
299.9990898565022
300.0122438874658
300.0285030963703
300.0374159392875
300.0422575026312
300.0452931701345
300.0422642766821
300.0400412661015
300.0341381130371
300.0331950225237
300.0391180584978
300.0454092053186
300.053330680824
300.0537622654347
300.0469813767643
300.0354277364824
300.0243022661779
300.0182145631277
300.0179869669868
300.0204498768464
300.0204152606389
300.013879658202
299.9995884525389
299.9819606547739
299.970372616614
299.9691873349279
299.9723815208985
299.9731442851759
299.9688178965138
299.9601671387356
299.9521371022064
299.9474521975994
299.9486910009534
299.952952192461
299.9567218040239
299.9573541011843
299.9584929905955
299.9618403954724
299.9669193511411
299.9724534282342
299.9762252551222
299.9764131835832
299.975283966709
299.9757369153318
299.9817402975665
299.9955841828121
300.0156913430015
300.0328311971695
300.0353157114125
300.0314707736446
300.028410135881
300.0300762659187
300.0360932619245
300.0434821077863
300.0498261694879
300.0517510474268
300.0490430193215
300.0441621092891
300.0395008057541
300.0399822345321
300.0409764366297
300.0414554011633
300.0375499482872
300.0308390798009
300.0227827102335
300.0160166889627
300.0136940280307
300.014452421063
300.0123929009665
300.0009567218303
299.9794862575588
299.9642685273719
299.9590503336416
299.9598965059644
299.963333333289
299.9654626534018
299.963115851024
299.9576065150702
299.9516847271789
299.947679229328
299.9483134721483
299.9512955145697
299.9534166222867
299.9556505159221
299.9619352362577
299.9699220042998
299.9754887009503
299.9783242311699
299.9787596477349
299.9782242147582
299.9834949802283
299.9989756562055
300.0203351835852
300.031163403766
300.0310366105337
300.0287044441887
300.0264277724327
300.0264617147385
300.0290821218978
300.0321840932302
300.0389313757013
300.0489988773693
300.0539852717351
300.0548919105893
300.053800583769
300.0494063118356
300.0427278277827
300.0358829252187
300.0323101417807
300.0316714730847
300.0313493074375
300.0289771073893
300.0217278148347
300.0070198869523
299.989346602548
299.9823025702517
299.9822571593821
299.9820202877043
299.9793580661553
299.9743212316429
299.9646985314752
299.9540737368131
299.9508759965681
299.9509270857507
299.9502991843374
299.9520157154651
299.9556549583141
299.9584722400024
299.9593078738159
299.9586930112347
299.9584960166799
299.9598768566393
299.9625677980707
299.9648072124511
299.9682516632179
299.9740559909711
299.9817224713627
299.9907719669243
300.0022936303149
300.0184260228834
300.0346125221309
300.0405203449509
300.0411242551259
300.0417214673761
300.0420079125535
300.0415970329007
300.0422386639439
300.0448074469074
300.0477045874463
300.0488266085673
300.048418313476
300.0475304984034
300.0480462586842
300.0454985814426
300.0388697898166
300.0309508176964
300.0263208921534
300.0249027959035
300.0237463738199
300.0192363588448
300.0079704191399
299.9874896518667
299.9733328308294
299.9709985791424
299.9705408947318
299.9699439663783
299.9696527511395
299.9658813651391
299.9578473543646
299.951832983837
299.9510628343143
299.9511055588135
299.9509265771786
299.9520272808731
299.9549498778613
299.9588539045924
299.9614803335339
299.9624735194308
299.9634963170344
299.9642597449135
299.9638571323122
299.9684315751589
299.9800395500725
300.0047506463313
300.0244294798933
300.0282688086617
300.0290314849258
300.0289133017834
300.0282938182918
300.0283924161041
300.0296233790837
300.0313943458474
300.0381159990937
300.0479474761261
300.051617943198
300.0520158890196
300.0512574576749
300.0498776084208
300.0489527023727
300.0454325129725
300.0390547574838
300.032732656256
300.0290224946656
300.0264503632724
300.0230740186444
300.0176393704468
300.0039855594127
299.9858145220351
299.9778285004193
299.9762798969556
299.9750707151496
299.9739499772895
299.9709945193104
299.9631868388011
299.955451788503
299.9532045044727
299.9524932120173
299.9526441965508
299.9539178233929
299.9559989569958
299.9585219186117
299.9594529854925
299.9591621988816
299.9587330794378
299.9589564720556
299.9599358970971
299.9613634362373
299.962027897775
299.9666851880343
299.9816754048313
300.0116333530444
300.0342325203325
300.0380063672796
300.0380465946265
300.037720196008
300.0374994693604
300.0376611430299
300.0380641324086
300.0381528218195
300.0389907735087
300.0418990543001
300.0464058840765
300.0486324040742
300.049096579075
300.0490198071375
300.0486262998709
300.0481633946364
300.0476531822163
300.0468485368923
300.0451693621124
300.0412763031919
300.0313167696066
300.0076441748495
299.9757432964937
299.9626962415146
299.9617492274546
299.9617956485533
299.9618443267132
299.9618721741375
299.9618900497924
299.9620040692207
299.9615186342195
299.9603393543609
299.9573994936961
299.9533744130168
299.9517265348033
299.9515360743935
299.9516048440008
299.9518069870778
299.9520240957018
299.9523718998179
299.9533780612042
299.9552503333498
299.9583723303928
299.9645321154246
299.9784291347668
300.0057385609173
300.0341007420437
300.0424272576627
300.0428752648759
300.0429492354
300.0428027754711
300.0424968744912
300.0423000856757
300.0422931415067
300.0422745199287
300.0422125943445
300.0422693287705
300.0426404835141
300.0433028071164
300.0443799599403
300.0452933382279
300.0456326436506
300.0459011237672
300.0455350521055
300.0444018625431
300.0427864661188
300.0349071357201
300.0156360018203
299.9864867276058
299.9710876801731
299.9688671598618
299.9683695054641
299.9679653237266
299.9660349183248
299.9613251848355
299.9569601245026
299.95599668423
299.956039730362
299.9561271583577
299.9561179843772
299.9561944309409
299.9563478037864
299.956198983753
299.9559127873345
299.9562109701292
299.9567271151712
299.957038248036
299.9576195443754
299.9605413658311
299.96709796499
299.9860582963
300.0149136790674
300.0285244196917
300.0296682705825
300.0295772681139
300.0297549264886
300.0302427454538
300.030510661209
300.0326159767232
300.0379876704869
300.0431771840128
300.0443952786912
300.0443463253383
300.0443080561221
300.0444458361108
300.0443609299326
300.0438894650502
300.0437159506961
300.0442312045733
300.0432705278803
300.0408340705882
300.0385142547357
300.0278742427831
300.006447759214
299.987685647297
299.9832246046784
299.982710314036
299.9818307641968
299.9804607155106
299.9748204025177
299.9632923907911
299.955673039415
299.9545963040687
299.9547656363728
299.9548326578272
299.9542326237065
299.9538190464838
299.9539811919232
299.9528284442217
299.9507843973468
299.949871731171
299.950558631872
299.9513642751807
299.9508220267332
299.9518341533558
299.9549693474481
299.9590760949974
299.9765627892716
300.0136888214736
300.0442980476625
300.0496537074904
300.049735464818
300.0497238418835
300.0496876522396
300.0495259256096
300.0492420743522
300.0486196300374
300.0466330464661
300.0436235769009
300.0419993925034
300.0417993380768
300.0417235516452
300.0415648059296
300.0417798365605
300.0421502778924
300.0418066599328
300.0410755104398
300.0410671133366
300.0408657413217
300.0374727809231
300.0307363278657
300.0085518284655
299.9725145456551
299.9537566630128
299.951984796536
299.9520407772645
299.9521167059349
299.9522292022957
299.9529779459455
299.9545459032544
299.957268058001
299.9591048085528
299.9594428426184
299.9595367137714
299.9594045781913
299.9592361223004
299.9591868721712
299.9593928777184
299.9595904158826
299.959578470906
299.9601773769228
299.9621502552098
299.9673183238412
299.9830011585332
300.012486676892
300.0330028998344
300.0359184068674
300.0359595415292
300.035975599654
300.0359655000754
300.0359326619387
300.0357701553723
300.0360332897641
300.03667945862
300.0372336000982
300.0400424757121
300.0449042386824
300.0475637255635
300.0477771919524
300.0477214526813
300.0477367026962
300.0475844108269
300.0472436305019
300.0468018018574
300.046113316376
300.0436607628262
300.0366570287304
300.0152200727162
299.9770029828371
299.9526087925943
299.9495658492711
299.9494141424261
299.9491515278477
299.9496432741469
299.9503181872815
299.9505540695604
299.9509106707631
299.9517854947966
299.9525478373568
299.953002336414
299.9528285993952
299.9531366770108
299.9544977267304
299.9568009382292
299.9624797902737
299.9743718900214
299.9866628128372
299.9911642917347
299.9921887581598
299.992683706008
299.9957432129256
300.0041543724665
300.0193319284689
300.0287033081021
300.0299377259913
300.0301747276088
300.0304268589648
300.0304104826089
300.0321304573793
300.0359359401807
300.0413100771312
300.0433877192679
300.0435726376708
300.043445897897
300.0431940331491
300.0430904893352
300.042900134047
300.0425064234863
300.0421468595071
300.0420108750554
300.04172038208
300.0394780810229
300.0344735896559
300.0179941904969
299.9850321665883
299.9595160893142
299.9552962903427
299.9551851257099
299.9550984017469
299.955212913549
299.9555735160674
299.9560767084547
299.9573203852402
299.9592277659922
299.9601819677881
299.9603715271509
299.96012640648
299.9598837695158
299.9600521971411
299.9601497909553
299.9598913137068
299.9598577545199
299.9607023467071
299.9618116310676
299.9621428042192
299.9669023065701
299.9805554569234
300.0103744288863
300.0355663306342
300.0402055550546
300.0403347272888
300.0403305155605
300.0402318339054
300.0401865882615
300.0402718416099
300.0402679173574
300.0400703014078
300.0402459785415
300.0406997781192
300.0409605324591
300.0413863527951
300.0436477224146
300.046123208843
300.0468498601574
300.046491349989
300.0463530162856
300.0460251786312
300.04315881041
300.0369806008447
300.0161681545819
299.9801574776598
299.9596187627295
299.9574652953201
299.9573913936846
299.9573314104235
299.9574852940717
299.9577137125318
299.9578373978208
299.9581300755779
299.9584501309825
299.9586419381088
299.9584370352588
299.9581602924741
299.9581835384573
299.9583627134967
299.9581567231872
299.9576694579369
299.9581940803756
299.9590707130018
299.9593823331955
299.9598702240667
299.9635067739713
299.971768444359
299.9958881693316
300.0294738344801
300.0427571612154
300.0435616201824
300.0436042303918
300.0437195213158
300.0435276862788
300.0432555067359
300.0431785591994
300.0431366275355
300.0426084756189
300.0418090437662
300.0414226549978
300.0414576154138
300.0413485322375
300.0408924687154
300.0408435793731
300.0415020874157
300.0410863416221
300.0396622480045
300.0386607335661
300.0386496998079
300.0335030222814
300.0197522411357
299.9880701992161
299.9591175111627
299.9530223771692
299.9527039830202
299.952902456146
299.9532503852033
299.9533838996591
299.9533411536999
299.9536897189505
299.9542512361521
299.9546203970842
299.9548062938754
299.9551596013018
299.9556217494342
299.9559432130155
299.9559034309721
299.9563206445539
299.9571601854838
299.9582097652379
299.9588433506578
299.9630319176449
299.9751019624996
300.0038043586362
300.0330275969004
300.0408110394564
300.0424256872114
300.0429156387749
300.0427133000807
300.0419457448763
300.0397565184271
300.0384220114123
300.0384099680374
300.0392327092591
300.0421056945171
300.0445186098655
300.0457341121639
300.0455716162705
300.0437880165738
300.0416263518367
300.0412875536702
300.0417372846066
300.0449299232596
300.0491693857544
300.050611642294
300.0440176364734
300.0225461071514
299.9808208636001
299.9509780357631
299.9405508354872
299.9396687377112
299.9426326916891
299.9536604993045
299.9664899852181
299.9724250597887
299.9744798185749
299.9743436712599
299.9661756229943
299.9489191906028
299.9367713330025
299.9315354600895
299.9294395605273
299.9302455231726
299.9301986116487
299.93246927057
299.9402050249413
299.9490214072707
299.9579398968344
299.9644163617365
299.9731289089372
299.989267997959
300.003989765883
300.0107274112938
300.0113476014652
300.0107486779418
300.0168545474337
300.0368066343926
300.0512823911352
300.0572493142945
300.058524463892
300.0595475954044
300.0628950479233
300.0684836266317
300.0730271243153
300.073999681977
300.0714638661787
300.0614520183201
300.0471252107495
300.0373400062902
300.0334242012893
300.0280944616038
300.0335877649714
300.0427418664215
300.0433506532204
300.0260355497415
300.0053291893196
299.9984761591811
299.9910194506323
299.972099065908
299.9515307123717
299.9431176767773
299.9380168294848
299.9391545932223
299.9423335917814
299.9439640306596
299.9418701487868
299.93636526885
299.9318532000017
299.9324586072719
299.9334003511743
299.9411083309195
299.9519250120159
299.9580550312452
299.963132046029
299.9653410476841
299.964892324185
299.9701307178786
299.9878909090165
300.0056158193455
300.0139422836945
300.0168728944582
300.0273401831701
300.0440179378071
300.0523682896992
300.0577629240956
300.0590323645471
300.0575451197639
300.0565811211236
300.0598548514031
300.0689919910535
300.0756819542372
300.07602484683
300.072884097816
300.0619037750738
300.0483145612923
300.0411106765885
300.0368708096185
300.0318805409603
300.0355886315008
300.0384918122709
300.026630976638
300.0054122176752
299.9902060536673
299.9886435636519
299.9777068390111
299.9591004492419
299.947257726625
299.9453367919708
299.9407321516792
299.9403866543225
299.9392915385176
299.9405679530367
299.9395626068641
299.9381896499027
299.9381370178671
299.9384759092401
299.9418932243929
299.9475794938898
299.9529929869607
299.9561546025803
299.9629382051132
299.962568230183
299.9627276135567
299.977488471549
300.0027639210892
300.0199137446334
300.0224225442674
300.0308155802846
300.0437758075007
300.0538556265569
300.0545671784903
300.0582491896085
300.0598361982056
300.061301488392
300.0602393236651
300.0622802523416
300.0638967855208
300.0641615374167
300.0631468981724
300.0603107905637
300.0535864287901
300.0455603208395
300.0421464321128
300.0382135541564
300.0386404323028
300.0419546109332
300.0364825293918
300.0139475220408
299.9908664727355
299.9795905993233
299.9740601815182
299.9607140038759
299.9445369261932
299.9388139819701
299.9405730367067
299.9402243130942
299.9430484926563
299.9471153885598
299.9493388876425
299.9484882723375
299.9446057065032
299.9408051819796
299.9399398594992
299.9422296600949
299.9473047077473
299.950882629867
299.9542750967838
299.9578779010733
299.9580112196925
299.9601446477809
299.9808710660888
300.0106802785353
300.0290474238049
300.0306077122993
300.0414453203689
300.0544886323095
300.0608961131259
300.0571458043214
300.0554977715441
300.0544648719015
300.0528638440848
300.0514537620526
300.0523942487681
300.0562465911991
300.0595222922416
300.0613664770225
300.0589267023362
300.0528946371073
300.0475353619644
300.044677351626
300.0387723519046
300.0404907393946
300.038770581045
300.0181315828219
299.9865289387092
299.9674756134856
299.9650497114328
299.9567669102686
299.9450734352797
299.9360114113525
299.9367557207236
299.940724586889
299.9407554712526
299.9420250970695
299.9447164397455
299.9457217973257
299.9440853267691
299.9410928875111
299.93852833975
299.937488255747
299.9375816264633
299.9393778808818
299.9414145021281
299.9461498113298
299.9475832549779
299.9530975550006
299.9761517324952
300.0112003889392
300.0301632271421
300.0339364268059
300.0379503652334
300.0439461060661
300.050217776371
300.0505066096032
300.0467622156909
300.0476589739089
300.0473969832029
300.0468488903652
300.0459172844535
300.0473141131166
300.0514758330119
300.054719490709
300.0554475356424
300.0540635679008
300.0508092980158
300.0481595787788
300.0432709006998
300.0415702555229
300.0351425512338
300.0150154330079
299.9792758365778
299.9573820960337
299.9515296307914
299.9487510859373
299.9414809900565
299.935177995489
299.9356827925519
299.9406753253826
299.9428589580296
299.9404551076274
299.938785376004
299.9378713169002
299.9371915617164
299.936389411737
299.9355529192095
299.9342311348275
299.9315215546548
299.9295599195966
299.9294415142975
299.9312054535091
299.9324433260164
299.9385095180569
299.9604075026406
300.0021409627952
300.0334878117322
300.0413633637071
)
;

boundaryField
{
    inlet
    {
        type            fixedValue;
        value           uniform 300;
    }
    outlet
    {
        type            inletOutlet;
        inletValue      uniform 300;
        value           uniform 300.0415215833737;
    }
    frontAndBack
    {
        type            empty;
    }
}


// ************************************************************************* //
