/*--------------------------------*- C++ -*----------------------------------*\
| =========                 |                                                 |
| \\      /  F ield         | OpenFOAM: The Open Source CFD Toolbox           |
|  \\    /   O peration     | Version:  v2012                                 |
|   \\  /    A nd           | Website:  www.openfoam.com                      |
|    \\/     M anipulation  |                                                 |
\*---------------------------------------------------------------------------*/
FoamFile
{
    version     2.0;
    format      ascii;
    class       volVectorField;
    location    "0.009";
    object      UMean;
}
// * * * * * * * * * * * * * * * * * * * * * * * * * * * * * * * * * * * * * //

dimensions      [0 1 -1 0 0 0 0];


internalField   nonuniform List<vector> 
1000
(
(2.71915230647093e-05 0 0)
(-1.10821450115562e-05 0 0)
(2.217683679055489e-05 0 0)
(-1.328341866620292e-06 0 0)
(6.649744474907265e-05 0 0)
(8.698978051864097e-05 0 0)
(0.0002896847430717861 0 0)
(0.0004075792112035949 0 0)
(0.0004219348174159942 0 0)
(0.0004982092618426719 0 0)
(0.0006182055238547254 0 0)
(0.0006175909237426704 0 0)
(0.0007525077879929123 0 0)
(0.0008684497129989794 0 0)
(0.001014297647676719 0 0)
(0.001083274459046144 0 0)
(0.00124869623200588 0 0)
(0.001271626792831018 0 0)
(0.001250743596610096 0 0)
(0.001277510746199397 0 0)
(0.001389453727275513 0 0)
(0.00135479059450404 0 0)
(0.001364668064491329 0 0)
(0.001477391359095905 0 0)
(0.001474098483062791 0 0)
(0.001482937434884715 0 0)
(0.001369123423497982 0 0)
(0.001427855894147412 0 0)
(0.001334515233229127 0 0)
(0.001169391402954861 0 0)
(0.001101548921257095 0 0)
(0.001007600756354108 0 0)
(0.0008948967745354476 0 0)
(0.0007889339118521983 0 0)
(0.0007532932506815079 0 0)
(0.0006820667576335791 0 0)
(0.0005530655772922522 0 0)
(0.0004808301896270193 0 0)
(0.0003833893162235683 0 0)
(0.0002697016091126729 0 0)
(0.0001381551476801605 0 0)
(0.0001109507311957086 0 0)
(6.81918113029846e-05 0 0)
(6.676617639621341e-05 0 0)
(4.168543687466072e-05 0 0)
(-4.013996778194969e-06 0 0)
(-9.197886578638009e-06 0 0)
(-6.361113561749053e-05 0 0)
(-9.170993869105008e-06 0 0)
(1.325548096427366e-05 0 0)
(8.94122408711735e-05 0 0)
(0.0001507252243453846 0 0)
(0.0002514585833104773 0 0)
(0.0003144069667577614 0 0)
(0.0003554158158588656 0 0)
(0.0004307745038051069 0 0)
(0.0005835038012892252 0 0)
(0.0006643084552406457 0 0)
(0.0008026320002974381 0 0)
(0.000894381669385359 0 0)
(0.0009584966471288287 0 0)
(0.001069375420365677 0 0)
(0.001172890343050441 0 0)
(0.001220226204124497 0 0)
(0.00125938704185455 0 0)
(0.001426832843203893 0 0)
(0.001473576893140777 0 0)
(0.001445349029205623 0 0)
(0.001480787098524122 0 0)
(0.001537220136588235 0 0)
(0.001467869873293036 0 0)
(0.001375733692826769 0 0)
(0.001441689926758879 0 0)
(0.00141700769499157 0 0)
(0.001332598381014735 0 0)
(0.001243831382943699 0 0)
(0.001245949572214142 0 0)
(0.001109999096070592 0 0)
(0.000932020228168465 0 0)
(0.0008910687714259685 0 0)
(0.000836363345119094 0 0)
(0.0006054087515527794 0 0)
(0.0006141898674157586 0 0)
(0.0005366356653622271 0 0)
(0.0004107922005324167 0 0)
(0.0002473893561910467 0 0)
(0.0002906371204856104 0 0)
(9.775440172497226e-05 0 0)
(-1.172752596218715e-05 0 0)
(1.704957091199724e-05 0 0)
(3.92120589929332e-05 0 0)
(-8.332963052614731e-05 0 0)
(-4.143867919855922e-05 0 0)
(-5.58289456990171e-06 0 0)
(-3.693904437392204e-05 0 0)
(-1.783044703584718e-05 0 0)
(5.074871300645032e-06 0 0)
(6.553150114066474e-05 0 0)
(0.0001921488946238224 0 0)
(0.0003094932142805144 0 0)
(0.0003457683854866043 0 0)
(0.0004566767207299532 0 0)
(0.0005448700629712287 0 0)
(0.0006492427838341062 0 0)
(0.000683391402697447 0 0)
(0.0007897823741233844 0 0)
(0.0009528810537006018 0 0)
(0.001097199558955293 0 0)
(0.001137041514852542 0 0)
(0.001225188045259293 0 0)
(0.001356298666308844 0 0)
(0.001328829421725852 0 0)
(0.001340544927106691 0 0)
(0.001432703661807911 0 0)
(0.001485012403705439 0 0)
(0.00140806785949325 0 0)
(0.001493870045645166 0 0)
(0.001528095462518565 0 0)
(0.001500583441025691 0 0)
(0.001398699624532207 0 0)
(0.001370492402957695 0 0)
(0.001309359447729452 0 0)
(0.001196555424014274 0 0)
(0.001003247017155824 0 0)
(0.00099061848308189 0 0)
(0.0009026007214381124 0 0)
(0.0008212107811358424 0 0)
(0.0006708234691290115 0 0)
(0.0006622787614046202 0 0)
(0.0005340116456433267 0 0)
(0.0003453564830282207 0 0)
(0.0002814610835819514 0 0)
(0.0001867350217717076 0 0)
(9.06692004324792e-05 0 0)
(3.368211474155247e-05 0 0)
(2.731671739183903e-05 0 0)
(-4.088594687023298e-05 0 0)
(-0.0001079082074470454 0 0)
(-0.000137635418387599 0 0)
(-0.0001445636929231916 0 0)
(-0.0001426371798254483 0 0)
(-0.0001012847284807297 0 0)
(2.321128157762571e-05 0 0)
(1.658541013871751e-05 0 0)
(8.316720801239739e-05 0 0)
(0.0002109744199723576 0 0)
(0.0002671394729331851 0 0)
(0.0002959192793975468 0 0)
(0.00047462752494777 0 0)
(0.0006265777638767097 0 0)
(0.0006509702758876066 0 0)
(0.0007738009632042561 0 0)
(0.0009335650107914985 0 0)
(0.0009982385164762173 0 0)
(0.001051799676875287 0 0)
(0.001188344927233292 0 0)
(0.001251908811664038 0 0)
(0.00130309737271502 0 0)
(0.001333922781070548 0 0)
(0.001437523188607211 0 0)
(0.001512528640607765 0 0)
(0.001509810850617895 0 0)
(0.001537830250309849 0 0)
(0.001610338954189671 0 0)
(0.001507005198819554 0 0)
(0.001375681571578901 0 0)
(0.001381792348776867 0 0)
(0.001302572998647304 0 0)
(0.00120653821866276 0 0)
(0.001137975768563707 0 0)
(0.001067702653989179 0 0)
(0.0009402743324517277 0 0)
(0.0008254141685566473 0 0)
(0.0007278934688444346 0 0)
(0.0005986345301005326 0 0)
(0.0005082529358163188 0 0)
(0.0004328027601753949 0 0)
(0.0003170838236701985 0 0)
(0.0002154903909132023 0 0)
(0.0001329709151865714 0 0)
(6.001642166804533e-05 0 0)
(-8.452784672433366e-06 0 0)
(-6.659896879508811e-05 0 0)
(-8.048342501570252e-05 0 0)
(-0.0001080987339761836 0 0)
(-0.0001769452017268865 0 0)
(-0.0001885220080418491 0 0)
(-0.0001345060328645677 0 0)
(-9.658347857552463e-05 0 0)
(-4.287988911906618e-05 0 0)
(9.925145403737079e-05 0 0)
(0.0002060190971432111 0 0)
(0.0002262752447150962 0 0)
(0.0003133910857826536 0 0)
(0.0004614201549452581 0 0)
(0.0005386940226884417 0 0)
(0.0005925382970921954 0 0)
(0.0007826882013367038 0 0)
(0.0008967191833616411 0 0)
(0.0009831645326637364 0 0)
(0.001059895350201457 0 0)
(0.001217227777100836 0 0)
(0.001286931848179977 0 0)
(0.001311864081609272 0 0)
(0.001380675158739272 0 0)
(0.001450638411166596 0 0)
(0.001494300270453788 0 0)
(0.001508427196206471 0 0)
(0.001566118948459793 0 0)
(0.001552700213664144 0 0)
(0.001454537429022655 0 0)
(0.001406589935078066 0 0)
(0.001348294954631242 0 0)
(0.001253630878919777 0 0)
(0.001209743449386824 0 0)
(0.001163655844359396 0 0)
(0.001060007686989709 0 0)
(0.0009884898079345105 0 0)
(0.0009015609654986564 0 0)
(0.000773535809311178 0 0)
(0.000635615591713584 0 0)
(0.000522439236110561 0 0)
(0.0004016825742177331 0 0)
(0.0002786896109649467 0 0)
(0.0001919448188672311 0 0)
(0.0001157587624647924 0 0)
(3.328436367114716e-05 0 0)
(-5.544472737775497e-05 0 0)
(-0.0001049574816858689 0 0)
(-0.0001744039070190419 0 0)
(-0.0002171520064806234 0 0)
(-0.0002238638071320924 0 0)
(-0.0001691554782205681 0 0)
(-0.0001463246700428148 0 0)
(-0.0001121643300584674 0 0)
(-5.839341674552559e-05 0 0)
(5.762578583047948e-07 0 0)
(4.793216951636817e-05 0 0)
(0.0001574857768992894 0 0)
(0.0002607778044035567 0 0)
(0.0003724687362026986 0 0)
(0.0004867513806714062 0 0)
(0.000606248451604646 0 0)
(0.0007121787184663222 0 0)
(0.0007983834335657273 0 0)
(0.0009113679180597651 0 0)
(0.0009953945111091037 0 0)
(0.001090718470344495 0 0)
(0.001189001927388723 0 0)
(0.001279529026452979 0 0)
(0.001355552653152381 0 0)
(0.001448580259499775 0 0)
(0.001509316638405772 0 0)
(0.001569022442184018 0 0)
(0.001595234448980719 0 0)
(0.001622668011764818 0 0)
(0.001597054336980264 0 0)
(0.001542201845112703 0 0)
(0.001455405222421822 0 0)
(0.001360303689085635 0 0)
(0.001270227592820753 0 0)
(0.001172758268023474 0 0)
(0.001071922330968295 0 0)
(0.0009740106140661951 0 0)
(0.0008846043602272954 0 0)
(0.0007696294028281745 0 0)
(0.0006590512322858596 0 0)
(0.0005443785931465891 0 0)
(0.0004413280864387604 0 0)
(0.0003244573856524035 0 0)
(0.0002186090105856394 0 0)
(0.0001125473620923287 0 0)
(4.234882453531158e-05 0 0)
(-3.51176924428908e-05 0 0)
(-9.099803531564511e-05 0 0)
(-0.0001524666396729361 0 0)
(-0.0001953446438347502 0 0)
(-0.0002409516046942231 0 0)
(-0.0002335434195298204 0 0)
(-0.0001968248683407633 0 0)
(-0.0001186462137773864 0 0)
(-6.220105382349751e-05 0 0)
(1.585974543839248e-05 0 0)
(7.80580920150413e-05 0 0)
(0.000161086780289273 0 0)
(0.000236827863811815 0 0)
(0.0003522713002374784 0 0)
(0.0004577272350120809 0 0)
(0.0005772435382225298 0 0)
(0.0006855943476078893 0 0)
(0.0008060680033351963 0 0)
(0.000907690538637343 0 0)
(0.001012604798651039 0 0)
(0.001102576877644381 0 0)
(0.001196343042197264 0 0)
(0.00127760706374004 0 0)
(0.001365006398929284 0 0)
(0.001446362103562541 0 0)
(0.001532486187485634 0 0)
(0.0015871161631397 0 0)
(0.001624124278806035 0 0)
(0.001583296204954321 0 0)
(0.001531431104362447 0 0)
(0.001457008593862763 0 0)
(0.001401576588740867 0 0)
(0.001327084435871337 0 0)
(0.001272465419927768 0 0)
(0.001198738995547711 0 0)
(0.00113565892675224 0 0)
(0.001052468124202346 0 0)
(0.0009622677578938445 0 0)
(0.000842322975047713 0 0)
(0.0007270233405275333 0 0)
(0.0006029457963108608 0 0)
(0.0004915380239709906 0 0)
(0.0003718991401011182 0 0)
(0.000265000747046821 0 0)
(0.0001619945961595088 0 0)
(8.29228482501672e-05 0 0)
(2.535003747266148e-06 0 0)
(-5.70083769656786e-05 0 0)
(-0.0001177957427008721 0 0)
(-0.0001644187463118317 0 0)
(-0.0002027842949932941 0 0)
(-0.0001878265409189048 0 0)
(-0.0001510538616531006 0 0)
(-9.491558748623052e-05 0 0)
(-4.060075613228201e-05 0 0)
(1.992446518712053e-05 0 0)
(8.068648742785876e-05 0 0)
(0.0001531720609405465 0 0)
(0.0002496861219859471 0 0)
(0.0003524223673074513 0 0)
(0.0004612980752955171 0 0)
(0.0005722154279811226 0 0)
(0.0006809147783336294 0 0)
(0.0007836400085040944 0 0)
(0.0008845131035969467 0 0)
(0.0009791348878235484 0 0)
(0.001073593238181144 0 0)
(0.001167611897538292 0 0)
(0.001263785502495743 0 0)
(0.001360181138821849 0 0)
(0.001446987561319646 0 0)
(0.001541598018484522 0 0)
(0.001620767667509255 0 0)
(0.001696277930128293 0 0)
(0.001703851883419152 0 0)
(0.001664364507564114 0 0)
(0.001568509593327664 0 0)
(0.001492092715391494 0 0)
(0.001395657973277338 0 0)
(0.001317618712178292 0 0)
(0.001223366420622848 0 0)
(0.001144007246164265 0 0)
(0.001047048576430853 0 0)
(0.0009685454339250337 0 0)
(0.0008682280369691522 0 0)
(0.000774693845650127 0 0)
(0.0006566037789699661 0 0)
(0.0005519477993135641 0 0)
(0.0004300005582946492 0 0)
(0.0003251714918920071 0 0)
(0.0002049392476048769 0 0)
(0.0001009011468953597 0 0)
(-1.695561659893009e-05 0 0)
(-0.0001177372192377508 0 0)
(-0.000226261962147678 0 0)
(-0.0003104311673868586 0 0)
(-0.0003703514103219109 0 0)
(-0.0003508967969400523 0 0)
(-0.000285737187340838 0 0)
(-0.0001912722799774283 0 0)
(-0.0001088100154645933 0 0)
(-1.453906669578415e-05 0 0)
(6.884653726600618e-05 0 0)
(0.0001631789742144779 0 0)
(0.0002453366150798328 0 0)
(0.0003407185503763958 0 0)
(0.0004241758105053362 0 0)
(0.0005250280544584829 0 0)
(0.0006219228732738562 0 0)
(0.0007381256701063396 0 0)
(0.0008452119346005161 0 0)
(0.0009635511440995016 0 0)
(0.001069957005813602 0 0)
(0.001186770272701564 0 0)
(0.001293880536336497 0 0)
(0.001407573747610952 0 0)
(0.001511359341907284 0 0)
(0.001616666366980526 0 0)
(0.001707916297021496 0 0)
(0.001781677911117712 0 0)
(0.001811021410581889 0 0)
(0.001768241957414257 0 0)
(0.001680381831492447 0 0)
(0.001580871877599173 0 0)
(0.001484895201847723 0 0)
(0.001382722395008812 0 0)
(0.001287075158660342 0 0)
(0.001185388061360088 0 0)
(0.00109247828811145 0 0)
(0.0009898969365672331 0 0)
(0.0008975320243414063 0 0)
(0.0007936281633690651 0 0)
(0.0007023996631924043 0 0)
(0.0005951634220252655 0 0)
(0.0005015171651804441 0 0)
(0.0003898163521477952 0 0)
(0.0002920809521547525 0 0)
(0.0001780856018633498 0 0)
(7.952092021314934e-05 0 0)
(-3.208401162483316e-05 0 0)
(-0.000126169709697679 0 0)
(-0.0002294543712060654 0 0)
(-0.0002845892726154818 0 0)
(-0.0003056971925348839 0 0)
(-0.0002463408802402973 0 0)
(-0.0001880917020639746 0 0)
(-0.000105376274630544 0 0)
(-4.294687677299334e-05 0 0)
(4.242554086990028e-05 0 0)
(0.0001146509925559662 0 0)
(0.0002192988384932003 0 0)
(0.0003084372646613687 0 0)
(0.0004213382255908639 0 0)
(0.0005108730273557355 0 0)
(0.0006239623595504487 0 0)
(0.0007127713011204152 0 0)
(0.0008269776762508947 0 0)
(0.000913903685764197 0 0)
(0.001029441817693264 0 0)
(0.001116660884183971 0 0)
(0.001232325505322164 0 0)
(0.00131615677380168 0 0)
(0.00143212735394848 0 0)
(0.001511371685385208 0 0)
(0.001615171341483705 0 0)
(0.001659094773359593 0 0)
(0.001682592138799613 0 0)
(0.001612504358811693 0 0)
(0.001565061356774702 0 0)
(0.001475485656257022 0 0)
(0.001428117193680907 0 0)
(0.001336840133524217 0 0)
(0.001288272361751805 0 0)
(0.001194928261489137 0 0)
(0.001136101532320925 0 0)
(0.001021910769394507 0 0)
(0.0009415578650879017 0 0)
(0.0008182679824671918 0 0)
(0.0007355088946740745 0 0)
(0.0006137916312746504 0 0)
(0.000529133300585969 0 0)
(0.0004101534201670211 0 0)
(0.0003247006105579862 0 0)
(0.0002091270204669788 0 0)
(0.0001203085449791504 0 0)
(1.125073509394077e-05 0 0)
(-6.984294686731509e-05 0 0)
(-0.0001631827922125221 0 0)
(-0.0001982459086385429 0 0)
(-0.0002037424855471525 0 0)
(-0.0001612971191567121 0 0)
(-0.0001291648497815264 0 0)
(-8.223505299534589e-05 0 0)
(-4.339285342651921e-05 0 0)
(9.831853684035839e-06 0 0)
(7.557691518529943e-05 0 0)
(0.0001713836361795156 0 0)
(0.0002736991813083518 0 0)
(0.0003795962042376534 0 0)
(0.0004835746221970015 0 0)
(0.0005882750045511561 0 0)
(0.0006953857032201987 0 0)
(0.0008007188269288667 0 0)
(0.0009091217141557771 0 0)
(0.001018600959054191 0 0)
(0.001134421919403349 0 0)
(0.001248097321220906 0 0)
(0.001362351958120466 0 0)
(0.001473790962719872 0 0)
(0.001587590190639733 0 0)
(0.001695378791027392 0 0)
(0.001793788596626162 0 0)
(0.001879986309168287 0 0)
(0.001896289044153746 0 0)
(0.001836802000933154 0 0)
(0.00172001540466039 0 0)
(0.001611263191438031 0 0)
(0.001489056112491215 0 0)
(0.001380900332218019 0 0)
(0.001258509898945229 0 0)
(0.001151515302582989 0 0)
(0.001029953859249047 0 0)
(0.0009266943808989522 0 0)
(0.0008132758778227236 0 0)
(0.0007223354007920836 0 0)
(0.0006166748249123921 0 0)
(0.0005289285563529103 0 0)
(0.0004232306599151964 0 0)
(0.0003363782913618596 0 0)
(0.0002295157124705966 0 0)
(0.0001419837466208508 0 0)
(3.605208453143033e-05 0 0)
(-4.838921037423949e-05 0 0)
(-0.0001539480278348854 0 0)
(-0.0002355653532765415 0 0)
(-0.0003244676541024375 0 0)
(-0.0003723168028463711 0 0)
(-0.0003641699950497579 0 0)
(-0.0002722241993413039 0 0)
(-0.0001681061027119328 0 0)
(-5.142223143031183e-05 0 0)
(5.372577133887919e-05 0 0)
(0.000170301820956644 0 0)
(0.0002747335279856034 0 0)
(0.0003877304479938919 0 0)
(0.0004849162207854046 0 0)
(0.0005873551421781728 0 0)
(0.0006756709250584043 0 0)
(0.000775179139731691 0 0)
(0.0008628559128763945 0 0)
(0.0009628323214177679 0 0)
(0.00105130563180416 0 0)
(0.00115123841482066 0 0)
(0.001239289189014598 0 0)
(0.00133821513168489 0 0)
(0.00142634238422159 0 0)
(0.001521918702945874 0 0)
(0.001600746938319427 0 0)
(0.001670251883658113 0 0)
(0.001678335643055678 0 0)
(0.001631792113486996 0 0)
(0.001546160291597404 0 0)
(0.001468293974012441 0 0)
(0.00138019807594213 0 0)
(0.001301882546050739 0 0)
(0.001214260720406297 0 0)
(0.001135875262835266 0 0)
(0.001049021689246362 0 0)
(0.0009692028597680075 0 0)
(0.0008795655042530631 0 0)
(0.0007961590402052613 0 0)
(0.0006941888595578212 0 0)
(0.0005916179099229003 0 0)
(0.0004768761849086725 0 0)
(0.0003704150342422822 0 0)
(0.0002559657929366078 0 0)
(0.0001494110913429175 0 0)
(3.565612405702514e-05 0 0)
(-6.971990238351138e-05 0 0)
(-0.0001813663165945031 0 0)
(-0.0002831154695300232 0 0)
(-0.0003827066310389886 0 0)
(-0.0004490605560235016 0 0)
(-0.0004528874479449422 0 0)
(-0.0003696824214338991 0 0)
(-0.0002579429534391006 0 0)
(-0.0001387277753197577 0 0)
(-2.405473509234739e-05 0 0)
(9.612411372658436e-05 0 0)
(0.0002087306860345205 0 0)
(0.0003266737186504816 0 0)
(0.0004380024276969171 0 0)
(0.0005538943866344379 0 0)
(0.000661668649757845 0 0)
(0.0007740476320591186 0 0)
(0.0008803242219630249 0 0)
(0.0009920964760543824 0 0)
(0.001096929391388249 0 0)
(0.001202224246640876 0 0)
(0.001296096184964712 0 0)
(0.001376028198134545 0 0)
(0.001420663137516525 0 0)
(0.001449756758847333 0 0)
(0.001467354717408786 0 0)
(0.00148781418302461 0 0)
(0.001501352912422605 0 0)
(0.001505430187549904 0 0)
(0.001482154210824557 0 0)
(0.001426639655555768 0 0)
(0.001358826083544575 0 0)
(0.001288929582203069 0 0)
(0.001219782046845212 0 0)
(0.00114826131053674 0 0)
(0.001078598148985072 0 0)
(0.0009986042320235381 0 0)
(0.0009132166802080938 0 0)
(0.0008121014478317259 0 0)
(0.0007142468747251903 0 0)
(0.0006108108498664407 0 0)
(0.0005129986349826811 0 0)
(0.0004105389870179214 0 0)
(0.0003132687384945719 0 0)
(0.0002117994366323609 0 0)
(0.000115944778510486 0 0)
(1.62918063225758e-05 0 0)
(-7.885827820923937e-05 0 0)
(-0.0001763158256997287 0 0)
(-0.0002609605770668627 0 0)
(-0.0003331562169058758 0 0)
(-0.0003420534948145226 0 0)
(-0.000284228726994987 0 0)
(-0.0001802509111991247 0 0)
(-8.140859495322768e-05 0 0)
(2.651761600032216e-05 0 0)
(0.0001260991327333832 0 0)
(0.0002327945329051953 0 0)
(0.0003313717467188169 0 0)
(0.0004351841711261522 0 0)
(0.0005291349088539076 0 0)
(0.0006245522234768209 0 0)
(0.0007144199335711535 0 0)
(0.0008079431967352714 0 0)
(0.0008989716121853525 0 0)
(0.0009925834900299003 0 0)
(0.001084142413261452 0 0)
(0.001176790577292715 0 0)
(0.001269530612708395 0 0)
(0.001361939706615877 0 0)
(0.001451548767078739 0 0)
(0.001539335085868485 0 0)
(0.001625492498697555 0 0)
(0.001688396940344162 0 0)
(0.001712145711124414 0 0)
(0.001656214066018234 0 0)
(0.0015717199922995 0 0)
(0.001474005117124191 0 0)
(0.001385166524548737 0 0)
(0.001287335484126421 0 0)
(0.001199035490336302 0 0)
(0.0011009718666566 0 0)
(0.00101276474692187 0 0)
(0.0009146925643829549 0 0)
(0.0008269353695899163 0 0)
(0.0007284148902562136 0 0)
(0.0006385914002288996 0 0)
(0.000539017606301934 0 0)
(0.0004462620493605557 0 0)
(0.0003376810348495136 0 0)
(0.0002353756995077896 0 0)
(0.0001224940662906052 0 0)
(2.027369859997376e-05 0 0)
(-9.1597944378471e-05 0 0)
(-0.0001916511967446337 0 0)
(-0.0002888779277759487 0 0)
(-0.000357984442347133 0 0)
(-0.0003627315508497893 0 0)
(-0.00029265115442434 0 0)
(-0.0001956986535097483 0 0)
(-9.743827626691308e-05 0 0)
(1.698873464050105e-06 0 0)
(0.0001000250941719538 0 0)
(0.0001987406882180717 0 0)
(0.0002962152298140829 0 0)
(0.0003942885651153908 0 0)
(0.0004903958956866631 0 0)
(0.0005870563479432617 0 0)
(0.0006824121132027447 0 0)
(0.0007796978368264966 0 0)
(0.0008758309914809949 0 0)
(0.0009732420503526316 0 0)
(0.001068889295918083 0 0)
(0.001167037035778424 0 0)
(0.001263955402393143 0 0)
(0.001360229736045351 0 0)
(0.00145402063229399 0 0)
(0.001548172312604981 0 0)
(0.001639263831306988 0 0)
(0.00171489189863769 0 0)
(0.001765533923415818 0 0)
(0.001738320106172985 0 0)
(0.001658030437351736 0 0)
(0.001553618951363984 0 0)
(0.001457330094194941 0 0)
(0.001352312984029475 0 0)
(0.001255580171622277 0 0)
(0.001151302806745974 0 0)
(0.001055418863861999 0 0)
(0.0009517356685180276 0 0)
(0.000856326209228361 0 0)
(0.0007550286402098873 0 0)
(0.0006624219565503907 0 0)
(0.0005630940869853772 0 0)
(0.0004710146572489796 0 0)
(0.0003722372275066562 0 0)
(0.0002813829108030107 0 0)
(0.0001828787518209079 0 0)
(9.041205785588038e-05 0 0)
(-6.514857227930152e-06 0 0)
(-9.341415263732629e-05 0 0)
(-0.0001863039058935762 0 0)
(-0.0002703085593580747 0 0)
(-0.0003365775092313007 0 0)
(-0.0003571875364120418 0 0)
(-0.0002969919563655118 0 0)
(-0.0001954582648026978 0 0)
(-8.508799423263353e-05 0 0)
(2.284904398534412e-05 0 0)
(0.0001325260502085433 0 0)
(0.0002394475402984945 0 0)
(0.0003482721440753535 0 0)
(0.0004550275409118974 0 0)
(0.0005622153028092916 0 0)
(0.0006670229589657857 0 0)
(0.0007725113772159715 0 0)
(0.000876253323174566 0 0)
(0.0009798426557472396 0 0)
(0.001081855695025829 0 0)
(0.001184191483157273 0 0)
(0.00128564709789466 0 0)
(0.001386063182500554 0 0)
(0.001483841247465668 0 0)
(0.00158023122635691 0 0)
(0.001673728540357837 0 0)
(0.001750363292308005 0 0)
(0.001785455232402459 0 0)
(0.001744261277834883 0 0)
(0.001659392119132751 0 0)
(0.001562317306385737 0 0)
(0.001464479172333593 0 0)
(0.001364832383771409 0 0)
(0.001267853068962 0 0)
(0.001173637463277088 0 0)
(0.001082029701430593 0 0)
(0.0009942652646425963 0 0)
(0.0009060292185194282 0 0)
(0.000812114789471106 0 0)
(0.0007079619661849145 0 0)
(0.000604444212987744 0 0)
(0.0005027164854781101 0 0)
(0.000403156552064646 0 0)
(0.0002981493229833319 0 0)
(0.0002037967661458814 0 0)
(0.0001137665209168145 0 0)
(1.877692098039446e-05 0 0)
(-0.0001004369099682392 0 0)
(-0.0002213761609566085 0 0)
(-0.0003362614597000087 0 0)
(-0.0004054076780035289 0 0)
(-0.0004292485023654051 0 0)
(-0.0003470022849176852 0 0)
(-0.0002247460870638496 0 0)
(-8.353265130071768e-05 0 0)
(4.509989771724267e-05 0 0)
(0.0001673625225340713 0 0)
(0.0002586477291321682 0 0)
(0.0003340181785265454 0 0)
(0.000379054633093143 0 0)
(0.0004426106954268093 0 0)
(0.0005123739533916861 0 0)
(0.0006243076783846615 0 0)
(0.0007584445268720563 0 0)
(0.0008905116277025929 0 0)
(0.001063779340446309 0 0)
(0.001235524198676923 0 0)
(0.001387439008419596 0 0)
(0.001576548331758789 0 0)
(0.00168866176814171 0 0)
(0.001823863806275511 0 0)
(0.001924128032115063 0 0)
(0.002006222833453942 0 0)
(0.002112680040661099 0 0)
(0.002183624803194808 0 0)
(0.002160205241358507 0 0)
(0.002162768424471588 0 0)
(0.00212991026052201 0 0)
(0.002124617245783769 0 0)
(0.002096684057979721 0 0)
(0.002025798398328649 0 0)
(0.001915260817679423 0 0)
(0.001776836480716918 0 0)
(0.001618549678020758 0 0)
(0.001509331372319675 0 0)
(0.001378908830313223 0 0)
(0.001228801881753367 0 0)
(0.001033037752066558 0 0)
(0.0008508835436992003 0 0)
(0.0007019766353735208 0 0)
(0.0005633748479346593 0 0)
(0.0004408526285529598 0 0)
(0.000333437487817197 0 0)
(0.0002690687743786033 0 0)
(0.0001860496417551786 0 0)
(0.000109624064868809 0 0)
(4.343094799171828e-06 0 0)
(-8.080422373792296e-05 0 0)
(-0.000174064172592262 0 0)
(-0.0002617091586929626 0 0)
(-0.0002697057507787051 0 0)
(-0.0002158520729767214 0 0)
(-0.0001900419970391309 0 0)
(-5.418050385123984e-05 0 0)
(4.578736182452496e-05 0 0)
(0.0002009242521564376 0 0)
(0.0003097592851842198 0 0)
(0.0004440022199191834 0 0)
(0.0005933898450995055 0 0)
(0.0007405308061306219 0 0)
(0.000850743402653757 0 0)
(0.001052442749559103 0 0)
(0.001133443190328706 0 0)
(0.001338659113787034 0 0)
(0.001506666625897955 0 0)
(0.001588145533180456 0 0)
(0.001699787213800209 0 0)
(0.001778393533531582 0 0)
(0.001862253141728433 0 0)
(0.001958586950122348 0 0)
(0.002065321291656955 0 0)
(0.00212538674112225 0 0)
(0.002136250937582235 0 0)
(0.002102471109769243 0 0)
(0.002058196958362628 0 0)
(0.002033648981760388 0 0)
(0.001947253279065865 0 0)
(0.001806083841438658 0 0)
(0.001697450195026338 0 0)
(0.001530391343202281 0 0)
(0.001395864052559949 0 0)
(0.001283413138208719 0 0)
(0.001153267665455418 0 0)
(0.001002235676804436 0 0)
(0.0008198204664948934 0 0)
(0.0006060328560752733 0 0)
(0.0004821573037666579 0 0)
(0.0003336940677319974 0 0)
(0.0001766988332416552 0 0)
(9.774344392797363e-05 0 0)
(1.958195768460561e-05 0 0)
(-7.249103164231851e-05 0 0)
(-0.0001500001442336249 0 0)
(-0.000275285923704191 0 0)
(-0.000294866098839503 0 0)
(-0.0004009825536169592 0 0)
(-0.0004257013261183049 0 0)
(-0.0003818993538914418 0 0)
(-0.0003028287776777356 0 0)
(-0.0002505837910273641 0 0)
(-0.0001072074209741491 0 0)
(-1.515119881081365e-05 0 0)
(0.0001666899253635778 0 0)
(0.0002483042314174016 0 0)
(0.0003900431913824813 0 0)
(0.0005444705750665693 0 0)
(0.0007043110299666506 0 0)
(0.0008119916775950835 0 0)
(0.0009788827121511392 0 0)
(0.001112680189906045 0 0)
(0.001263689187409144 0 0)
(0.001394102653379645 0 0)
(0.001480302372094312 0 0)
(0.001589790685101627 0 0)
(0.00167798234532753 0 0)
(0.001785109185455362 0 0)
(0.00186852237957989 0 0)
(0.001970377481422805 0 0)
(0.002002468715474119 0 0)
(0.001962077155886957 0 0)
(0.001930214652642339 0 0)
(0.001861429477016758 0 0)
(0.001770413873879197 0 0)
(0.001664946331755817 0 0)
(0.00151982585384977 0 0)
(0.001378910369146539 0 0)
(0.001255143924042331 0 0)
(0.001095055204941074 0 0)
(0.0009776836804011005 0 0)
(0.0008317916539112709 0 0)
(0.0006851183638021098 0 0)
(0.0004959990148460402 0 0)
(0.0003659096717997426 0 0)
(0.000244977822332372 0 0)
(0.0001097180589310622 0 0)
(-4.13340650450088e-05 0 0)
(-8.134513965580354e-05 0 0)
(-0.0001928385338709385 0 0)
(-0.0002801168091890049 0 0)
(-0.0003831208130389681 0 0)
(-0.0005026720983125052 0 0)
(-0.000537951080567978 0 0)
(-0.0005948728930046936 0 0)
(-0.0005696068406837877 0 0)
(-0.0004773919624106022 0 0)
(-0.0004031309855884946 0 0)
(-0.000289359150738605 0 0)
(-0.0001461842592047442 0 0)
(-3.002471938572993e-06 0 0)
(0.0001489747825514376 0 0)
(0.0002438798708335693 0 0)
(0.0003868586461155315 0 0)
(0.0005184882186948579 0 0)
(0.000626602033432383 0 0)
(0.0007580506227132889 0 0)
(0.0008854044499385436 0 0)
(0.001021331870401473 0 0)
(0.001181214187158286 0 0)
(0.00126701344967061 0 0)
(0.001413922393996921 0 0)
(0.001504108785140633 0 0)
(0.001618367043944172 0 0)
(0.001721161953108047 0 0)
(0.001798495344240462 0 0)
(0.001927967439218395 0 0)
(0.001926089655897839 0 0)
(0.001882108084600045 0 0)
(0.001823296712030992 0 0)
(0.001735517075395725 0 0)
(0.001604319224582652 0 0)
(0.001484414984022875 0 0)
(0.001325187501615282 0 0)
(0.001202359191227204 0 0)
(0.00104709435390748 0 0)
(0.0009349901513405305 0 0)
(0.0008229956956179838 0 0)
(0.0006953299268379004 0 0)
(0.0005785471443143413 0 0)
(0.0004050382524685787 0 0)
(0.0003077833580108019 0 0)
(0.0001773523271362421 0 0)
(1.208694216920358e-05 0 0)
(-8.643508487248532e-05 0 0)
(-0.0001612947014515488 0 0)
(-0.0002750526987473221 0 0)
(-0.0003664263359756705 0 0)
(-0.0004999215542065464 0 0)
(-0.0005267649013885517 0 0)
(-0.0005715231970565499 0 0)
(-0.0005575890006426539 0 0)
(-0.0004702616255362593 0 0)
(-0.0003441493410881168 0 0)
(-0.0002253698269584831 0 0)
(-0.0001023670432774163 0 0)
(6.239564410312991e-05 0 0)
(0.000230096785141147 0 0)
(0.0003440184560632229 0 0)
(0.0004538838202483618 0 0)
(0.0006161223704337006 0 0)
(0.000740536272986793 0 0)
(0.0008565619166479028 0 0)
(0.001018012702396693 0 0)
(0.001128479467878582 0 0)
(0.001287600581920499 0 0)
(0.001429485296350975 0 0)
(0.001551197376967898 0 0)
(0.001709528631801165 0 0)
(0.001836808957880058 0 0)
(0.001959164191235599 0 0)
(0.002069155607138467 0 0)
(0.002186162672682943 0 0)
(0.002213675861288972 0 0)
(0.002157135983779372 0 0)
(0.002098251254624498 0 0)
(0.002013504109191133 0 0)
(0.00190215802768319 0 0)
(0.001791688782020894 0 0)
(0.001666810160475177 0 0)
(0.001548323204271853 0 0)
(0.001446350991267734 0 0)
(0.001306938378898851 0 0)
(0.001208449536682073 0 0)
(0.001112064737055236 0 0)
(0.0009946270132710606 0 0)
(0.0008905514724971441 0 0)
(0.000748021792849426 0 0)
(0.0006523644118627376 0 0)
(0.0005172606236993994 0 0)
(0.0003704301841533311 0 0)
(0.0002944127597636134 0 0)
(0.0001933192581534457 0 0)
(7.965078038702296e-05 0 0)
(-2.335276676450806e-05 0 0)
(-9.308334504496243e-05 0 0)
(-8.869708153775084e-05 0 0)
(-3.798765460766223e-05 0 0)
(6.391235474190383e-05 0 0)
(0.0001893551431302575 0 0)
(0.000325865458352287 0 0)
(0.0004677146745325492 0 0)
(0.0006254445316518598 0 0)
(0.000782083268174991 0 0)
(0.0009372635442495946 0 0)
(0.001027080523235801 0 0)
(0.001175575662928284 0 0)
(0.001322819485701372 0 0)
(0.001469548326652294 0 0)
(0.001635097662074297 0 0)
(0.001742324594492113 0 0)
(0.00192299844852618 0 0)
(0.002090882505836434 0 0)
(0.002220244057256173 0 0)
(0.002391196611011701 0 0)
(0.002558187313861995 0 0)
(0.002713290984302618 0 0)
(0.002859449338680556 0 0)
(0.00298312417526649 0 0)
(0.003032930220157139 0 0)
(0.003071907212412335 0 0)
(0.00290861174713766 0 0)
)
;

boundaryField
{
    inlet
    {
        type            calculated;
        value           uniform (2.71915230647093e-05 0 0);
    }
    outlet
    {
        type            calculated;
        value           uniform (0.00290861174713766 0 0);
    }
    frontAndBack
    {
        type            empty;
    }
}


// ************************************************************************* //
