/*--------------------------------*- C++ -*----------------------------------*\
| =========                 |                                                 |
| \\      /  F ield         | OpenFOAM: The Open Source CFD Toolbox           |
|  \\    /   O peration     | Version:  v2012                                 |
|   \\  /    A nd           | Website:  www.openfoam.com                      |
|    \\/     M anipulation  |                                                 |
\*---------------------------------------------------------------------------*/
FoamFile
{
    version     2.0;
    format      ascii;
    class       volScalarField;
    location    "0.015";
    object      p;
}
// * * * * * * * * * * * * * * * * * * * * * * * * * * * * * * * * * * * * * //

dimensions      [1 -1 -2 0 0 0 0];


internalField   nonuniform List<scalar> 
1000
(
101302.2244286318
101304.4054763838
101299.6869823813
101287.8296804328
101284.1143721808
101276.4222006554
101270.0634160661
101266.0984932881
101263.1015774339
101260.0885701603
101258.8183349963
101258.0391579966
101259.8570591749
101261.3026982914
101264.5538165332
101270.4224813216
101274.1629320717
101281.9631536462
101290.070471667
101297.2581505309
101306.7470863137
101315.586424071
101324.4734614657
101334.0680228203
101343.0310760612
101352.5191714868
101361.0349399377
101368.8475516093
101375.639103825
101381.7376096006
101385.8042060275
101388.3767169107
101391.1168282963
101391.8819571149
101391.641342248
101390.7443774367
101387.9300889444
101385.2923643049
101380.7126070337
101374.41001645
101368.8590683138
101360.7268396735
101352.3183973844
101344.9098001492
101335.6422539873
101326.4585309048
101318.4979050752
101309.7854045021
101301.1900604642
101293.520863526
101285.8146017171
101278.911645936
101271.8748060907
101267.4761467251
101264.4970837978
101261.877985004
101260.4155098218
101260.5316123357
101260.5569891244
101262.6341619318
101265.0673735259
101267.4326880034
101273.4278817047
101279.4516829696
101285.9288896809
101295.1740533248
101303.0552354794
101312.6677751343
101322.9346370377
101331.8459570233
101341.2176204685
101350.9785065242
101359.0851838478
101367.2199137944
101375.0993871068
101382.3306845548
101387.2593397163
101391.0554857979
101393.698691039
101394.9177772761
101395.2907139806
101394.5630021681
101392.438587902
101390.9266248709
101387.5834110897
101382.4885137778
101377.9433713935
101371.2410698955
101363.8195715859
101356.4155110215
101347.7205613747
101339.1393071254
101330.6786239334
101321.8527958661
101313.9900608558
101305.8959193594
101298.5987824068
101291.968739507
101285.7206219666
101279.3655790755
101275.944161613
101272.7558058427
101270.4706530956
101269.5333171217
101269.2388786866
101269.9497936276
101271.1086320855
101272.681385413
101276.3488348049
101279.8039208073
101284.6539275387
101291.1225078488
101296.8990089478
101304.5065681745
101312.2616030066
101319.9845736362
101328.6379928764
101336.4768181527
101343.9498606109
101352.1595809522
101358.6183631836
101364.8269173626
101371.1137825479
101375.4944765291
101378.4906265565
101381.472870157
101382.821801502
101383.4848381179
101383.1623655871
101381.6917741278
101380.4277750215
101377.9452127967
101373.1417586491
101369.559709599
101364.1637934042
101357.3302845548
101351.7812750979
101343.7207925571
101335.8710667168
101328.6240362752
101320.1552931102
101312.2515137555
101304.7622152756
101297.3664222516
101290.3161442205
101284.7707719216
101279.4776069531
101276.2597085392
101273.8727221733
101272.3048725182
101271.3459476843
101271.523640494
101272.0021969272
101273.8810865218
101275.9175179195
101278.8639762276
101283.8896977795
101288.2054127182
101294.1683513615
101301.2267003835
101307.6992431561
101315.618370614
101323.689097325
101331.8211732078
101339.8691478715
101348.0241719866
101355.7250890918
101363.0453347809
101369.0902022639
101375.3522313604
101378.0161880144
101381.7001113414
101383.0486581971
101384.0759413369
101383.7330166845
101382.5141925306
101381.174201234
101378.7133767155
101374.6723819821
101370.9051213605
101365.8052303132
101359.5245412589
101353.4783463995
101346.1350759107
101338.4680692917
101331.0762301696
101322.8395519789
101315.0010693847
101307.3862904788
101299.3454828937
101292.500265582
101286.23675972
101279.9228295895
101276.4032140624
101274.370248977
101272.2029245957
101271.3677703591
101271.5035878219
101271.8897188731
101273.4983169512
101275.2542966541
101277.8147238343
101281.8752933032
101286.0809572706
101291.423872338
101297.7093860076
101304.0725983879
101311.424301383
101319.1688337709
101327.3860892577
101335.3120499847
101343.8515694729
101351.7011448399
101359.1449468801
101366.3222849192
101373.1660566336
101377.1220629272
101380.2448697645
101382.4622101362
101383.3946649415
101383.4026672037
101382.6829956169
101381.2608056512
101379.2396634461
101375.675715649
101372.1329019042
101367.6657568871
101361.6217876461
101355.854584251
101348.9846743153
101341.6803076466
101334.2332491765
101326.069994769
101318.2610166976
101310.5725434838
101301.5203410874
101295.4944738989
101287.787155187
101281.0517070525
101276.5964249972
101274.7096733434
101271.7528126895
101270.9521762474
101270.5556661589
101270.9844273664
101272.580862328
101273.4959515595
101276.349449816
101280.042428813
101283.2400795108
101288.8917011276
101294.3085998345
101299.6852756067
101307.599877636
101314.7921052742
101322.1366564757
101330.5341993849
101338.8687875009
101346.6360007874
101354.6688879294
101362.3094977407
101369.6082393487
101374.4317300685
101378.2665842407
101381.0117810169
101381.9687037842
101382.5885800848
101381.9107702964
101380.2719714926
101378.7762734307
101375.9163112141
101371.6273062358
101367.8569409828
101362.7402477912
101356.3573310159
101350.5430468481
101343.8152073955
101335.6919388847
101328.3801794151
101320.6493766572
101312.2108955618
101304.2608455828
101297.0090421436
101289.343744207
101282.4099189086
101276.5289607436
101273.6450845125
101271.067900893
101269.2580538998
101268.8308680486
101269.2966837397
101270.3489228026
101271.1633017754
101273.9365984153
101277.1854736285
101280.2057564468
101285.3748839025
101290.5280802018
101295.8327453661
101302.8485798397
101309.7237054579
101316.932212228
101325.2943063333
101333.1565069649
101341.2734633404
101349.9155364844
101357.6173378729
101364.6406722819
101372.0822994834
101375.682626943
101379.0377076909
101380.9913212309
101381.8203850975
101381.4453967015
101380.1585958717
101379.2301828887
101376.5153763047
101372.365506941
101369.1818985537
101364.1745473871
101358.1485215982
101352.5927529162
101345.6628467623
101338.5762568389
101331.4703837547
101323.4679889161
101315.6014326698
101307.5513936568
101299.9404592045
101292.3420448325
101285.4968062712
101278.5341429188
101274.6770832839
101271.7785148317
101270.1979651243
101269.2414645148
101269.4137627555
101270.1178161131
101271.4927165724
101273.4703903858
101276.1500085233
101279.9184010355
101283.9907295547
101288.7241586503
101294.2558654969
101300.1175270907
101306.757632541
101314.2158995345
101321.8144736666
101329.2631715024
101337.5869827403
101345.6134342279
101353.1052359648
101361.0529222241
101368.2564846977
101373.6580575706
101377.3486466339
101379.8217993819
101381.1067865383
101381.2375535552
101380.2200714446
101378.9180484595
101376.5001595261
101373.2923121972
101369.6879382755
101364.9517757161
101359.3614376686
101353.5715274643
101347.1150304887
101340.3857629395
101332.6227066005
101325.2122978555
101317.5875836542
101309.3547416523
101301.8593757509
101294.2658395379
101286.2811494258
101280.2975581835
101273.7599281716
101271.078727456
101268.7318974344
101267.2402952739
101266.9399564279
101267.6996773554
101269.0892710429
101270.3447734091
101272.8534713239
101276.6547110977
101279.9617618934
101284.6089463161
101290.3859430931
101295.5599445655
101301.7388957124
101308.9032964035
101315.9342337531
101323.3949899445
101331.6218912192
101339.5673730452
101347.6712684401
101355.4027916188
101362.5858748673
101369.6791014141
101374.1396556078
101376.9379886479
101379.3904031756
101380.126085313
101379.631376533
101378.0936671656
101376.8406657202
101374.1191367536
101369.3806553199
101366.0208304352
101360.800387344
101354.2223847531
101348.5059181614
101341.3337264577
101333.9736005243
101327.0110794234
101318.980235962
101311.3050134188
101303.4300098044
101295.6996980159
101288.4600490407
101281.4875865209
101274.8352250827
101270.849355517
101268.2944962776
101266.0277173837
101265.5764802967
101265.8304799663
101266.5205253807
101268.4377484659
101270.069568421
101273.0953223723
101277.5612915931
101280.7835821714
101285.8489423203
101291.8836362104
101297.0899932966
101303.7343334214
101311.2090846707
101318.2399746598
101326.1009754465
101333.9959093453
101341.6801511274
101349.7658715984
101357.2827632041
101364.7041770168
101369.9130672664
101373.9445477169
101376.8807844019
101378.1040777149
101378.2307592528
101377.4457115359
101376.0932398291
101373.2884543276
101369.9947587342
101366.1201193674
101360.7633661055
101355.2683464525
101348.8762620766
101342.053586725
101335.1892715122
101327.6252021579
101319.7539000102
101312.4451543731
101304.3327899623
101296.2903343822
101289.6154953374
101282.0928297865
101275.632783717
101269.9169744298
101266.8229225325
101264.8924791775
101263.5246336604
101262.8977629041
101263.8319917926
101265.9980253036
101267.0387404087
101269.8785608096
101274.0127303719
101276.688106426
101282.0139446536
101287.6976748351
101292.3581477634
101299.0582842642
101305.8566847373
101312.3180867979
101320.1985228056
101327.9676051011
101335.5974608286
101343.7966770436
101350.9268245982
101358.5258561297
101365.3721195509
101369.5114076793
101373.2879679296
101375.7616355387
101376.1284439325
101375.9728918177
101374.425964924
101372.9912919251
101369.2851488639
101365.4777126945
101361.4110797616
101355.2427929204
101349.3466558336
101342.9722012424
101335.4669121155
101328.2969373203
101320.6496353062
101312.5268121211
101304.7791864244
101297.2701704194
101289.2414352929
101282.3324607855
101275.8198977761
101269.1370399281
101265.345566142
101263.0283030967
101260.6341295487
101259.8694031211
101260.6946666837
101261.8038107363
101263.409980259
101265.789583972
101268.8848278216
101272.8413489363
101276.8396747153
101281.7530084087
101287.4778271528
101292.8344621581
101299.3545316435
101306.3141880693
101313.3557174626
101320.9144088563
101328.2688335506
101336.2210790858
101344.5865776183
101350.8929362819
101359.1513341396
101364.0919368571
101368.4258707251
101371.4555637299
101373.2236873709
101373.1025800288
101372.3739980276
101370.8837036778
101367.9724830661
101364.6835147064
101360.3676868829
101354.7065683076
101349.0993551035
101342.5342956458
101335.1896315732
101328.4986551019
101320.3559420877
101312.5262970859
101305.1448155768
101296.7978403636
101289.5127663014
101282.409373251
101274.8767378311
101269.0597464768
101263.7178716194
101260.4379344787
101258.7271379601
101256.8929378278
101256.8974988889
101257.9776638118
101259.7322743172
101261.4194057781
101264.0879757787
101268.1628910943
101271.6521061819
101276.3299253313
101282.1557433834
101287.2394308129
101293.3713256805
101300.3001011099
101306.9184043855
101314.1159598549
101321.9331277706
101329.5119788978
101337.0260049678
101344.5494273257
101351.7789875327
101357.997997114
101362.4865082145
101366.7708863825
101368.953102284
101369.6823528386
101369.5175087271
101368.2236587359
101366.013656735
101362.8540217433
101358.4483282516
101353.9645500101
101347.9932713889
101341.7472720333
101335.2047289966
101327.8055908021
101320.6851439973
101313.1747687597
101305.2868779015
101297.740760985
101290.3738189725
101282.6354742811
101275.475748625
101269.8393036382
101263.268076344
101260.094960275
101257.2877647606
101255.4283553287
101255.0789768474
101255.6073563556
101256.5330939183
101259.2302329077
101261.5914718497
101264.6892570183
101269.0119349758
101272.7010958576
101278.180613899
101283.5739218633
101289.0472025613
101295.6722325877
101302.0315163585
101309.3497283215
101316.4191009791
101323.3065293649
101331.2280362567
101339.0632621619
101345.1559413908
101352.8297443379
101357.7787891802
101362.644655234
101365.7118319524
101367.2079017262
101368.0717084864
101367.3026051259
101365.3118558203
101363.0233054488
101359.3116900179
101354.0941768464
101349.1712685625
101342.6882191504
101335.3494794315
101328.4966320301
101320.8870480729
101313.394798614
101305.5939480774
101297.6364727918
101290.1154736012
101282.1924922622
101275.7480508057
101268.5118259027
101262.3927575891
101257.7989134052
101255.0451813449
101252.5867785411
101250.8280977326
101251.2553208429
101252.0586780055
101254.3736795644
101256.5933111187
101259.2454905655
101263.6461214702
101267.4185434252
101272.2603808237
101278.0488809275
101283.2507910465
101289.4538033837
101295.9440529827
101302.4633426783
101309.1718025946
101316.6707948567
101324.3437577298
101330.826565821
101338.4148597457
101345.4853289678
101351.0466814442
101356.1738672874
101360.1021178095
101362.3597228772
101363.7508145855
101363.6990755945
101362.4175835713
101360.5588148484
101357.398981924
101352.5484569446
101347.692174647
101342.0897958697
101334.8313307914
101327.9821057686
101321.2251363646
101312.998503086
101305.1473584834
101297.8496935368
101290.2065608076
101282.8290074573
101275.8635371344
101268.8859450132
101263.2297863316
101257.2727299343
101254.1842001184
101250.8331314024
101249.1645930247
101248.5292315454
101248.8999729136
101250.5256077392
101252.962293149
101255.4088076345
101259.4118377859
101264.0056769754
101268.1128783746
101273.5648953188
101279.4528393595
101284.9314665588
101291.1270837959
101297.3265603039
101304.3104269376
101310.9379276917
101317.7119768775
101325.0941200019
101332.0668192665
101338.6220493515
101345.1406632602
101350.4394813121
101355.2866826756
101358.4925788988
101360.2772420022
101361.1838516304
101360.6419181111
101358.9662422067
101356.2981752304
101352.4611505596
101347.3505048431
101341.656758949
101335.0331017751
101327.5273604517
101319.9344099592
101312.2647499936
101304.2652374679
101295.9728259959
101288.6317353555
101281.0355444455
101273.2829076467
101267.3863314283
101260.2232591792
101254.7022473359
101250.802484928
101247.3347559889
101244.5729218707
101243.4468476991
101243.2032832478
101244.4627622588
101246.0087834076
101249.11158456
101252.350612784
101256.3030362577
101261.2153280453
101266.1775474244
101272.0799522296
101277.4798026731
101283.7299768379
101290.1572510273
101295.8830194883
101302.7727802954
101309.5206126637
101315.9713823357
101323.0913003773
101329.8290128242
101336.2693155327
101341.7855413809
101346.8736316716
101351.0174564947
101353.2237308398
101354.5965026232
101354.88294115
101353.90014696
101351.6546736232
101348.0206302551
101344.1152112667
101338.2064094058
101332.1109403091
101325.7192567733
101317.7039375286
101310.5399117373
101302.5230748869
101294.1766254145
101286.4872631573
101278.9509607207
101271.7749064622
101264.9357802927
101258.6233272851
101252.8949650341
101248.1786374519
101244.8675540913
101241.5728090439
101240.1066416885
101239.3343952573
101239.3849893598
101240.8697558752
101243.3070280096
101245.9650532293
101249.6152436236
101254.7488690315
101259.4493732064
101265.0824506135
101271.7523855227
101277.3788664316
101283.5147445884
101289.9410616543
101296.3591363689
101302.7744949932
101309.1004251483
101315.756608935
101322.1341719898
101328.6723691067
101333.7561614321
101339.2742239751
101342.8758075446
101346.3297962057
101348.397260984
101348.7191307627
101348.6553568495
101346.8674079258
101344.1166853248
101340.2379619985
101335.4214832488
101330.0078782905
101323.4183990761
101315.9366362228
101309.1265962563
101301.1805111488
101293.2155841172
101285.6859322524
101278.1752258979
101271.0534979796
101264.224064641
101257.6310844018
101252.232494498
101246.6029275991
101243.8437091245
101240.4669244122
101239.0779856244
101237.449639537
101237.5068477987
101238.3886464379
101240.0672771246
101242.2898203266
101245.2969437841
101249.7621592387
101254.416886912
101259.7986150648
101266.5172747519
101272.8031835875
101279.4525976223
101286.2951003858
101292.4639310011
101298.8718379382
101305.3439919163
101311.2558214241
101317.1895648706
101322.9930214253
101328.7069352814
101333.5985754483
101338.3007997884
101341.943516602
101344.826773244
101346.2664713756
101347.0389627996
101346.2355339047
101344.1063656185
101341.0332991204
101336.3032785032
101330.6577445026
101324.7053809566
101316.7483606793
101309.355858493
101301.6589840086
101292.957655603
101285.3000893868
101277.4336925783
101269.6569933416
101262.8967381813
101256.2302833151
101250.1842159724
101244.7341714009
101241.197455251
101238.095143129
101235.85073519
101233.9830955554
101233.639072007
101234.6458902492
101235.796943753
101237.7696810449
101240.5979693588
101244.1620693676
101248.2221984106
101253.3269999546
101259.1775351248
101265.3696454859
101271.895129676
101279.4068534465
101285.8901390919
101292.6190222451
101299.4181614203
101305.1030564723
101310.9587221666
101316.6899952953
101321.9094310264
101326.4662356709
101330.7529474468
101334.6965453655
101337.5988480127
101340.0001953407
101341.5419555441
101341.4086328762
101339.8045615454
101337.3181700939
101333.5925247809
101328.1321290684
101322.6089613829
101315.7140991884
101307.9676921991
101301.0818791254
101293.0247385251
101285.0650359269
101277.7051051126
101270.1261371889
101263.4709133896
101256.8190964875
101250.7649261866
101245.3976559066
101240.8452346393
101237.8597283385
101235.1864384393
101233.8999030344
101232.4271326748
101232.777589941
101233.9383546138
101235.6677845508
101238.1911978923
101241.1195704706
101245.1297391288
101250.0322955351
101255.140952052
101260.9756391901
101267.6161859148
101274.2081821117
101281.029375535
101288.2042304311
101295.1847224958
101301.7724623288
101308.1186644239
101314.9240409569
101319.761529223
101324.8732493869
101328.0458569873
101330.3392919483
101332.7168419222
101335.3131889781
101336.7432888771
101338.2947552321
101338.2381314786
101336.4763757456
101333.5087323075
101328.5752779738
101322.4041902462
101316.4155126207
101309.3851149773
101302.4357838435
101296.1732998107
101289.0457088667
101281.6375251516
101274.9548615197
101268.235396625
101260.5892226014
101254.6878245231
101249.5187784026
101243.9343114366
101240.9965399428
101238.3370471826
101235.9440520886
101235.0144230833
101234.6318770953
101235.7270785924
101236.1887845536
101238.9502759889
101242.5056149616
101244.5453140026
101249.0674091615
101255.2560586957
101259.7959924237
101265.3351525429
101274.2415220372
101278.9131324698
101285.9938178239
101296.5536453549
)
;

boundaryField
{
    inlet
    {
        type            uniformFixedValue;
        uniformValue    sine;
        uniformValueCoeffs
        {
            frequency       constant 3000;
            scale           constant 50;
            level           constant 101325;
        }
        value           uniform 101312.8819131453;
    }
    outlet
    {
        type            waveTransmissive;
        gamma           1.4;
        fieldInf        101325;
        lInf            2.25;
        value           uniform 101298.2249587394;
    }
    frontAndBack
    {
        type            empty;
    }
}


// ************************************************************************* //
