/*--------------------------------*- C++ -*----------------------------------*\
| =========                 |                                                 |
| \\      /  F ield         | OpenFOAM: The Open Source CFD Toolbox           |
|  \\    /   O peration     | Version:  v2012                                 |
|   \\  /    A nd           | Website:  www.openfoam.com                      |
|    \\/     M anipulation  |                                                 |
\*---------------------------------------------------------------------------*/
FoamFile
{
    version     2.0;
    format      ascii;
    class       volScalarField;
    location    "0.015";
    object      rho;
}
// * * * * * * * * * * * * * * * * * * * * * * * * * * * * * * * * * * * * * //

dimensions      [1 -3 0 0 0 0 0];


internalField   nonuniform List<scalar> 
1000
(
1.176225344321063
1.176251147409662
1.176215166768378
1.176113673570035
1.176081756806652
1.176016465453448
1.175962257226515
1.175927720806431
1.175901682409505
1.175874837069846
1.175863307785432
1.175856566067501
1.175870722183258
1.1758823920043
1.175909319598697
1.175957934212782
1.17598890801149
1.176053655833063
1.176121011296579
1.176180800606583
1.176259730581227
1.176333289882348
1.176407226072761
1.176486981844896
1.176561438604333
1.176640195331016
1.176710849479396
1.176775629396781
1.176831899312956
1.176882395282114
1.176916040731188
1.176937366841887
1.176959939646622
1.176966214617313
1.176964227005803
1.176956689303165
1.176933351686118
1.176911478767546
1.176873516328105
1.176821277453141
1.176775277497007
1.176707880181447
1.176638191041681
1.176576787218001
1.176499962144595
1.176423825135351
1.176357822147164
1.17628557655648
1.176214296149375
1.176150690892966
1.176086776254563
1.176029523123113
1.175971159630486
1.175934675581381
1.175909966462063
1.17588824472675
1.175876115859694
1.175877079758413
1.175877292321938
1.175894520818012
1.175914701877641
1.175934319972442
1.175984040255638
1.176033996509875
1.176087712019383
1.176164378921802
1.17622973321341
1.17630944271709
1.176394575108405
1.176468465461987
1.176546171117676
1.176627102041565
1.176694315682694
1.176761760565003
1.176827087850075
1.176887039914348
1.176927900899341
1.176959372573355
1.176981285592349
1.176991392197499
1.176994484067301
1.176988451174466
1.176970839151879
1.176958304491435
1.176930588091263
1.176888348715415
1.176850667137204
1.17679510028323
1.17673356932815
1.176672182145861
1.176600090275901
1.176528939142792
1.176458786250881
1.176385603790381
1.1763204054909
1.176253287016877
1.176192776038975
1.176137795798707
1.176085981847306
1.176033280168288
1.17600490630395
1.175978465024776
1.175959513938009
1.175951740461681
1.175949298642096
1.175955194353888
1.175964804749289
1.175977847897135
1.176008262181062
1.176036915158933
1.176077136008282
1.176130778103523
1.176178680381645
1.176241765942442
1.176306072677594
1.176370112224937
1.176441865548909
1.176506862612021
1.176568825357043
1.176636894960284
1.176690445548856
1.176741920698952
1.17679404419293
1.176830363270097
1.176855203242985
1.176879927694423
1.176891111015195
1.176896607946756
1.176893934398908
1.176881742274223
1.176871262996635
1.17685068109474
1.176810856878546
1.176781159003264
1.17673642210565
1.176679764874026
1.176633757353878
1.176566925066275
1.17650183863752
1.176441748516131
1.176371526475487
1.176305987556328
1.176243884198582
1.176182554886094
1.176124089554636
1.176078102921752
1.17603420717898
1.176007521098102
1.175987725634519
1.175974723163486
1.17596677061779
1.175968244252602
1.175972212873732
1.175987794583734
1.176004682782336
1.176029117816749
1.176070795441135
1.176106584924697
1.176156033631894
1.176214564981661
1.176268237885844
1.176333904756646
1.176400827210978
1.176468256913333
1.176534987559349
1.176602604367687
1.176666454467086
1.17672714706106
1.17677726440074
1.176829181327434
1.176851267200818
1.176881808992839
1.17689298909851
1.176901505805455
1.176898662715592
1.176888557902467
1.176877448613962
1.17685704694414
1.176823544224789
1.176792310789961
1.176750028379547
1.176697955082511
1.176647825301355
1.176586940125603
1.176523369314932
1.17646207873769
1.176393781573766
1.176328784614819
1.176265641229859
1.176198963688461
1.176142199121086
1.176090257591824
1.176037896845026
1.176008708671547
1.175991849145314
1.175973875236661
1.175966949153346
1.175968075507346
1.17597127767958
1.175984617883335
1.175999180321327
1.176020414030492
1.176054087966995
1.176088964986194
1.176133272361987
1.176185395526886
1.176238162262091
1.176299124719113
1.1763633432212
1.176431480022156
1.17649719995017
1.176568005676947
1.176633089068926
1.176694806838771
1.17675431409761
1.176811054476687
1.176843852442592
1.176869742376209
1.176888125314017
1.176895855862517
1.176895922169187
1.176889955642195
1.176878164884968
1.17686140847967
1.176831860930464
1.176802488433181
1.176765452322863
1.176715341922695
1.176667525626099
1.176610565748743
1.176550002273405
1.176488254461662
1.176420566797094
1.176355815080377
1.176292061198535
1.176216997496797
1.176167027696281
1.176103113549421
1.176047257388977
1.176010309818891
1.175994662832819
1.175970141329921
1.175963501511613
1.175960213193278
1.175963768949404
1.17597700830522
1.175984597304069
1.17600826150225
1.176038887192768
1.176065405259214
1.176112272900985
1.176157193352518
1.176201779997651
1.176267410813215
1.176327050256573
1.176387951648967
1.176457582715439
1.176526690281025
1.17659109174288
1.176657694571936
1.176721043602758
1.176781556735792
1.176821547141765
1.176853340617461
1.176876099913539
1.176884033276814
1.176889172433001
1.17688355300823
1.176869966359907
1.176857566169315
1.176833855267814
1.176798296178135
1.176767036878933
1.176724614776177
1.176671693524828
1.176623486270316
1.176567703432183
1.176500349100251
1.176439722171821
1.176375619186641
1.17630564663271
1.17623972263004
1.176179587261072
1.17611602180015
1.176058520953738
1.17600975027691
1.175985834110234
1.175964461205886
1.175949451789756
1.175945909129221
1.175949772153645
1.175958498483891
1.175965252381927
1.175988251625397
1.176015194554068
1.176040241922651
1.176083108836418
1.176125842890042
1.176169832817721
1.176228011524599
1.176285022250557
1.176344796489559
1.17641413474079
1.176479326358585
1.17654662891576
1.176618283751492
1.176682140901218
1.176740371593885
1.176802068985804
1.176831918269211
1.176859734008625
1.176875930623421
1.176882804101087
1.17687969518417
1.176869026767994
1.17686132977165
1.176838822360903
1.176804416796389
1.176778022266332
1.176736506956563
1.176686544894693
1.17664048128043
1.1765830233943
1.176524265111093
1.176465345864049
1.176398991498874
1.176333761948989
1.176267009469554
1.176203896697039
1.17614088635667
1.176084120701018
1.176026379939975
1.175994393255186
1.175970355120011
1.175957247367496
1.175949314970842
1.175950743889046
1.175956582751952
1.175967985008525
1.175984386133923
1.176006608424418
1.176037859639393
1.17607163116367
1.176110884497273
1.176156757123449
1.176205365384148
1.176260427751207
1.176322273406537
1.176385281199614
1.176447044808933
1.176516063249137
1.176582614426775
1.17664473123191
1.176710626562869
1.17677035082671
1.176815134071791
1.176845731631048
1.176866235575471
1.176876888902691
1.176877973031243
1.176869537490137
1.176858742963581
1.176838697179576
1.176812101804158
1.176782218757632
1.176742951980732
1.176696602383988
1.176648597559732
1.176595065036181
1.176539269808256
1.176474901700516
1.176413456225494
1.17635023242945
1.17628196449288
1.176219810425033
1.176156840883455
1.176090626286953
1.176041005113332
1.175986788394298
1.175964552880092
1.175945090215901
1.175932720037766
1.17593022930461
1.175936529824882
1.175948053949759
1.175958466161814
1.175979271235605
1.1760107950177
1.176038220493515
1.176076759271747
1.176124666349843
1.17616757263026
1.176218811800601
1.176278221400278
1.176336523295427
1.176398388044127
1.176466604040703
1.176532485042281
1.176599678035551
1.176663782018605
1.176723337596868
1.176782146788754
1.176819128219503
1.176842328343981
1.17686266034867
1.1768687596324
1.176864658212021
1.17685190963299
1.176841521499387
1.17681895824058
1.176779672349305
1.176751816657406
1.176708534260309
1.176653995164373
1.176606598691028
1.176547131210018
1.176486104165677
1.176428372813531
1.176361781628489
1.176298137853488
1.176232836048293
1.176168732561016
1.17610869664354
1.176050875310846
1.175995707255786
1.175962651955238
1.175941464083953
1.175922665079795
1.175918922863807
1.175921029404696
1.175926752136942
1.175942652027401
1.175956185185856
1.175981278313869
1.176018314590825
1.17604503724384
1.17608704369189
1.176137087627688
1.176180262172095
1.176235360166306
1.176297343000626
1.176355644116252
1.176420827157332
1.176486290099461
1.176550004565428
1.176617046448388
1.176679370567334
1.176740901649756
1.17678408793245
1.17681751200492
1.176841855420437
1.176851997339997
1.176853047620773
1.176846539047716
1.176835326207327
1.176812072571537
1.17678476524243
1.176752641228452
1.176708228574003
1.176662668916657
1.176609670692781
1.176553101250069
1.176496185557645
1.176433466429952
1.176368198361198
1.176307593623013
1.176240323747941
1.176173632046528
1.176118279944909
1.17605589601949
1.176002323092753
1.175954921143905
1.175929261544745
1.17591325180673
1.175901907813866
1.175896709047447
1.175904456901498
1.175922420357508
1.175931051460912
1.175954602749631
1.175988887704005
1.176011075113281
1.176055242146673
1.176102376125242
1.1761410243788
1.176196585837193
1.176252960853996
1.176306540667581
1.176371885968753
1.176436306370134
1.176499571074155
1.176567555138772
1.1766266736405
1.176689678685699
1.176746440997459
1.176780759262778
1.176812070028436
1.176832578472578
1.176835619556044
1.176834329940479
1.176821504750537
1.1768096104118
1.176778883465031
1.176747316426254
1.176713600343229
1.176662458458476
1.176613572261342
1.17656071948591
1.176498489024627
1.176439037799509
1.17637562729152
1.176308272176358
1.176244026894418
1.176181758775787
1.176115179491007
1.176057884675014
1.176003876290146
1.175948454451282
1.175917010763646
1.175897793042749
1.175877937220318
1.175871595095948
1.175878439344096
1.175887637851516
1.175900958366322
1.175920693224775
1.175946362866815
1.175979174854126
1.176012333417797
1.176053079630512
1.176100554515445
1.176144975687434
1.176199043897198
1.176256756108955
1.176315146244954
1.17637782346448
1.176438805493748
1.17650474325858
1.176574105953734
1.17662639402665
1.176694865819014
1.176735828391485
1.176771760583336
1.176796879239748
1.176811538408132
1.176810534276292
1.176804493706223
1.176792138039512
1.176768001624677
1.176740733081115
1.176704950688954
1.176658013810896
1.176611523071721
1.176557089789955
1.176496191221341
1.176440711637448
1.176373193277489
1.176308269272078
1.176247060127329
1.176177843309067
1.176117430894985
1.176058523865451
1.175996055944394
1.17594781483895
1.175903513205553
1.175876311515479
1.175862123101245
1.175846911258638
1.175846949127173
1.175855907424625
1.17587045913375
1.175884451285173
1.175906582757612
1.175940376980292
1.175969313839586
1.176008107606861
1.176056420711497
1.176098579050199
1.176149429220572
1.176206886310198
1.176261767930195
1.176321451699612
1.176386271959312
1.176449114763199
1.176511418641737
1.176573799174161
1.176633741868524
1.176685304643855
1.176722519110689
1.176758040640827
1.176776133111262
1.176782179246848
1.176780812536791
1.176770085419142
1.176751762587648
1.176725566233416
1.176689038422998
1.176651863002159
1.176602353593672
1.176550565495261
1.176496317830575
1.176434966255542
1.176375924356902
1.176313647909665
1.176248239579604
1.176185663896048
1.176124572717246
1.176060400353119
1.176001024948118
1.175954281236775
1.175899784320494
1.175873468467547
1.175850187137701
1.175834766124652
1.175831868551448
1.17583625067132
1.175843928332706
1.175866296910969
1.17588587967109
1.175911570738754
1.17594741964966
1.175978014779741
1.176023456689832
1.176068182880478
1.176113571941391
1.17616851102385
1.176221245370864
1.176281930543627
1.176340550930646
1.176397661451639
1.176463345264737
1.176528312093462
1.176578829223748
1.17664245518793
1.176683488548159
1.17672383158464
1.176749261350578
1.176761665130395
1.176768826910012
1.176762450340679
1.176745945106408
1.176726971019666
1.176696198061189
1.176652938668967
1.17661212194151
1.176558368756905
1.176497518917449
1.17644069750679
1.176377599821055
1.176315473504246
1.176250787247546
1.176184800368607
1.176122431585083
1.176056728070733
1.176003284327257
1.175943273508743
1.175892526250218
1.175854427610636
1.175831589543951
1.175811200607046
1.175796614779722
1.175800158058399
1.175806820805129
1.175826020383625
1.175844428968563
1.175866424859083
1.175902920820739
1.175934206734018
1.175974361166359
1.176022365427344
1.176065504695898
1.176116945071632
1.176170766396338
1.176224827615358
1.176280456346658
1.176342639289299
1.176406263321314
1.176460017434072
1.176522937008973
1.176581561586497
1.176627672460288
1.17667018299924
1.176702752472346
1.176721470392875
1.176733003990741
1.17673257497829
1.176721950059357
1.176706539018484
1.176680340711428
1.176640124130967
1.176599859347462
1.176553407987286
1.176493223988063
1.176436432199381
1.176380404349797
1.176312188752767
1.176247085105804
1.176186569708402
1.176123188257891
1.176062007773871
1.176004243395399
1.175946377337897
1.175899469248346
1.175850064953891
1.175824450174042
1.175796657783369
1.175782819512093
1.175777550047229
1.175780624892603
1.175794107327802
1.17581431615813
1.175834606614601
1.175867805628632
1.175905903941834
1.175939966333077
1.1759851808674
1.176034009660822
1.176079443520373
1.17613082229069
1.176182232111115
1.176240145525719
1.176295102621095
1.176351273874429
1.176412486351331
1.176470302472239
1.176524655960583
1.176578704922055
1.176622639166824
1.176662828276153
1.176689408758352
1.176704205645587
1.176711722431012
1.176707229184081
1.176693335938764
1.17667121476558
1.176639401397445
1.176597027495677
1.176549818410855
1.176494898185331
1.176432662558639
1.176369702731016
1.176306105399268
1.176239771351346
1.176171006882875
1.176110129743975
1.176047135901127
1.175982843252667
1.1759339418499
1.175874536235102
1.175828747765508
1.175796404717362
1.175767644567209
1.175744738609624
1.175735399166535
1.175733379121194
1.175743824937007
1.175756647305897
1.175782381007672
1.175809244323346
1.175842024027729
1.175882763820857
1.17592391728547
1.175972867167594
1.176017648555878
1.176069480919575
1.176122780908323
1.17617026264173
1.176227395882025
1.176283351042855
1.176336841821032
1.176395880179067
1.176451748179522
1.17650514909866
1.176550887133218
1.176593074639976
1.176627432317768
1.176645724989057
1.176657106880944
1.176659481862031
1.176651333382841
1.176632715637814
1.176602584707209
1.176570203587811
1.176521210761403
1.176470669389567
1.176417671266705
1.176351208557451
1.176291803688732
1.176225325808586
1.176156112834474
1.176092347333556
1.176029849721868
1.175970338344087
1.175913619973994
1.175861268448846
1.175813760134968
1.175774644596575
1.175747183377123
1.175719857358399
1.175707697162342
1.175701292224415
1.175701711876083
1.175714026354327
1.175734240597558
1.175756285740161
1.175786559464075
1.175829135545446
1.175868119226813
1.175914836595171
1.175970151698631
1.176016812646296
1.176067697172791
1.176120989215721
1.176174211978161
1.1762274111397
1.176279867773986
1.176335061968637
1.17638794477315
1.176442158567574
1.176484311986579
1.176530065479883
1.17655992795847
1.176588566369236
1.17660570844452
1.176608377184197
1.176607848392467
1.176593023920387
1.176570216635864
1.176538056377015
1.176498120155239
1.176453232367798
1.176398593776191
1.17633655488827
1.17628008507183
1.176214193700066
1.176148144268408
1.176085703080847
1.176023417661734
1.175964356698959
1.175907718577435
1.175853040411377
1.175808266960102
1.175761577171248
1.175738692850765
1.175710686354632
1.175699166629054
1.175685661262336
1.175686135769373
1.175693449323414
1.175707371662449
1.17572580513706
1.175750745677636
1.175787778829722
1.175826383295984
1.175871016781135
1.175926736905776
1.175978867167721
1.176034011129644
1.17609075514974
1.176141911551393
1.176195049558227
1.176248719318161
1.176297741743063
1.176346945059987
1.17639506722106
1.176442446086739
1.176483006193876
1.176521995170006
1.176552198825863
1.176576105190434
1.17658804224172
1.17659444726138
1.176587785727314
1.176570131962233
1.176544651818144
1.176505432632376
1.176458621631276
1.176409266141426
1.176343286754721
1.176281986899501
1.176218162269417
1.176146006265552
1.176082504204031
1.176017269084349
1.175952776197493
1.175896711570613
1.175841423838366
1.175791280349457
1.175746079187177
1.175716746222802
1.175691015979532
1.175672400949567
1.175656910719035
1.175654057394414
1.175662407911096
1.175671954782472
1.175688316598474
1.175711774138177
1.17574133422332
1.175775007969355
1.175817345253548
1.175865866810305
1.175917220321618
1.175971337528985
1.176033632711146
1.17608739783747
1.176143198573785
1.17619958084717
1.176246722246147
1.176295278936097
1.176342803395713
1.176386082886681
1.176423867365519
1.176459411857708
1.176492110915065
1.176516175661939
1.176536086536692
1.176548870092138
1.17654776458034
1.176534464365887
1.176513848383461
1.176482956818092
1.176437680643436
1.17639188345828
1.17633471141382
1.176270476680485
1.176213377313052
1.176146563391432
1.176080555817909
1.176019520691289
1.175956667717125
1.175901474270672
1.175846308026817
1.175796097399012
1.175751582861827
1.175713825891765
1.175689064338124
1.175666892194693
1.175656221540973
1.175644006300134
1.175646913064399
1.17565654045651
1.175670884356641
1.175691813386731
1.175716101068516
1.175749360737458
1.175790021112811
1.17583239039983
1.175880780338876
1.175935852545167
1.175990521133896
1.17604708928932
1.176106589000454
1.176164475594459
1.17621910395423
1.176271728273157
1.176328159151805
1.176368271267818
1.176410657091739
1.176436964083678
1.176455981475221
1.176475696206327
1.176497226275263
1.176509088077964
1.176521957456906
1.176521491875939
1.176506888016954
1.176482286818721
1.176441384544044
1.176390215453676
1.176340551341129
1.176282237326184
1.176224574713246
1.176172585866544
1.176113406624186
1.17605188766603
1.175996389714022
1.175940585892666
1.17587710532874
1.175828166094671
1.175785386796814
1.175739234449288
1.175715167281074
1.175693402846273
1.175674363591398
1.175667312737414
1.175664784243996
1.175675182864176
1.175680179209793
1.175704228553067
1.175735016430881
1.175753162017436
1.175791470131519
1.175842529415057
1.17587781093341
1.175919479686012
1.175984485327591
1.176018872884089
1.176059103296605
1.176155805188961
)
;

boundaryField
{
    inlet
    {
        type            calculated;
        value           uniform 1.176271021779363;
    }
    outlet
    {
        type            calculated;
        value           uniform 1.176161677150318;
    }
    frontAndBack
    {
        type            empty;
    }
}


// ************************************************************************* //
