/*--------------------------------*- C++ -*----------------------------------*\
| =========                 |                                                 |
| \\      /  F ield         | OpenFOAM: The Open Source CFD Toolbox           |
|  \\    /   O peration     | Version:  v2012                                 |
|   \\  /    A nd           | Website:  www.openfoam.com                      |
|    \\/     M anipulation  |                                                 |
\*---------------------------------------------------------------------------*/
FoamFile
{
    version     2.0;
    format      ascii;
    class       volScalarField;
    location    "0.015";
    object      T;
}
// * * * * * * * * * * * * * * * * * * * * * * * * * * * * * * * * * * * * * //

dimensions      [0 0 0 1 0 0 0];


internalField   nonuniform List<scalar> 
1000
(
299.9800908223789
299.9799687058406
299.9751724399813
299.9659432790502
299.9630805616239
299.9569518325596
299.9519448282081
299.9490102143079
299.9467750622038
299.9446979829584
299.9438762986723
299.9432879597784
299.9450618547108
299.9463672383952
299.9491285777896
299.9541110204248
299.9572892706043
299.9638767660619
299.9707079219809
299.9767446211193
299.9847136146887
299.9921277485898
299.9995860716832
300.0076541313933
300.0152027997717
300.0232083232534
300.030400621144
300.0370085421047
300.042763392441
300.0479386414782
300.05139602528
300.0535723033109
300.0559266639873
300.0565912251332
300.0563858782577
300.055653083048
300.0532741717157
300.0510442874418
300.0471687554459
300.0418337672155
300.0371323521564
300.0302457317805
300.0231250522834
300.0168507473767
300.0090047396567
300.0012304214608
299.9944922055171
299.9871189156608
299.9798454929687
299.9733563888275
299.9668357213657
299.9609944257453
299.9550392329543
299.9513168094157
299.9487955327326
299.9465783717833
299.945340220819
299.9454382565015
299.9454592042944
299.94721732014
299.9492768473959
299.9512787928189
299.9563537787169
299.9614528758951
299.9669355236146
299.974761086572
299.9814317083496
299.9895672502382
299.9982561003108
300.005797230069
300.0137273450829
300.0219862069148
300.0288449723087
300.0357270279177
300.0423927056989
300.0485097393835
300.0526787659366
300.0558896980577
300.0581253973427
300.0591565103339
300.0594719120915
300.0588563963343
300.0570595203952
300.0557806464473
300.0529527572622
300.0486431663787
300.0447983220761
300.0391285708138
300.0328501657781
300.026586062811
300.0192294725048
300.0119686875141
300.0048094350809
299.9973407846057
299.990686770766
299.9838364945609
299.9776604425834
299.9720487239655
299.966760009588
299.9613805716004
299.9584843065866
299.9557852555932
299.9538507574449
299.953057241855
299.9528079771667
299.9534098209725
299.95439085471
299.9557222428224
299.9588268951848
299.9617516691214
299.9658570680278
299.971332490872
299.9762218245078
299.9826606383683
299.9892240104359
299.9957598645989
300.0030827046336
300.0097158744477
300.0160391859567
300.0229854028909
300.028449945788
300.0337025061589
300.0390210888402
300.0427269636419
300.0452615064259
300.047784237286
300.0489253037228
300.0494861550358
300.0492134011913
300.0479694728313
300.0469002569391
300.04480021346
300.0407368700431
300.0377065645929
300.0331416725541
300.0273604564041
300.0226655776848
300.0158456180233
300.0092036422331
300.0030712278018
299.9959046837691
299.9892158439815
299.9828774303874
299.9766178350791
299.9706503693474
299.9659564983342
299.9614759218309
299.9587519467527
299.9567313030934
299.9554040859779
299.9545923224294
299.9547427478376
299.9551478982783
299.9567384901999
299.958462406142
299.9609566192735
299.9652109138965
299.9688639832166
299.9739112262428
299.9798854309704
299.9853634504724
299.9920655341564
299.9988955327912
300.005777035463
300.0125870282178
300.0194871852349
300.0260027693385
300.0321959436432
300.0373098828895
300.0426073042944
300.0448608452372
300.0479771375198
300.049117882072
300.0499868446367
300.0496967887453
300.0486658320498
300.0475323449308
300.04545070849
300.0420323653316
300.038845445296
300.034531033042
300.0292175351802
300.0241021496464
300.0178890857599
300.0114017944597
300.0051470015535
299.9981769344163
299.9915434774878
299.9850989849038
299.9782935532521
299.9724997548717
299.9671980457533
299.9618534524317
299.9588740706644
299.9571531197671
299.9553184097779
299.9546114196118
299.954726396027
299.9550532920202
299.9564150625137
299.9579015674676
299.960069016937
299.9635063328022
299.967066309313
299.9715888154631
299.9769089846308
299.9822946310948
299.9885166398076
299.9950707762422
300.002024593051
300.0087315174416
300.0159572194733
300.0225987770736
300.0288966413459
300.0349687466372
300.0407584065813
300.0441049650626
300.0467466146337
300.0486222752562
300.0494110266517
300.0494178048862
300.0488090616147
300.0476060442645
300.0458963362771
300.0428815388494
300.0398845107332
300.0361053954286
300.0309922429586
300.0261129678389
300.020300488404
300.0141201708244
300.0078187760911
300.0009109790505
299.9943026428016
299.9877959263741
299.9801345939302
299.9750344205171
299.9685106793865
299.9628093402394
299.9590379226426
299.9574407554105
299.9549376411641
299.954259866795
299.9539241981556
299.9542871756814
299.955638661275
299.9564133057082
299.958828889857
299.9619550712068
299.9646617878691
299.9694457172923
299.974030777712
299.9785815098243
299.9852801456075
299.9913670411802
299.9975825068157
300.0046887537613
300.0117412747335
300.0183133657973
300.0251098662067
300.0315740898614
300.0377487971145
300.0418292741755
300.0450733042953
300.0473955003884
300.0482049749286
300.0487293121598
300.0481559611634
300.04676972001
300.0455044816995
300.0430851596959
300.0394569195246
300.0362672679833
300.0319385540212
300.026538431375
300.0216191125243
300.0159266441582
300.0090531599602
300.0028659776088
299.9963238849519
299.989182516603
299.9824541207672
299.9763163786318
299.9698282891916
299.963959041393
299.958980827872
299.9565395442215
299.9543578411067
299.9528257090624
299.952464048477
299.952858411934
299.9537492168741
299.9544386025173
299.9567863307093
299.9595366284138
299.9620932607721
299.9664688507008
299.9708308276921
299.9753207410983
299.9812588470216
299.9870775835573
299.9931781225951
300.000254606924
300.0069076821871
300.0137759277044
300.0210880963299
300.0276043266251
300.0335462069541
300.0398416814797
300.0428873753129
300.0457255336357
300.0473781084958
300.0480793935916
300.0477622059983
300.0466737234955
300.0458883442035
300.0435918155394
300.040081312402
300.0373880607194
300.0331518693506
300.0280537564878
300.0233532263588
300.0174898581174
300.0114936559594
300.0054808111591
299.9987090079629
299.9920518007045
299.9852389333702
299.9787973410244
299.9723660098554
299.9665718539066
299.9606780701838
299.957412989881
299.9549592363808
299.9536212179494
299.9528114711983
299.9529573287202
299.9535533481631
299.9547172801927
299.9563914602801
299.9586598299729
299.9618498260551
299.9652969754076
299.9693036508602
299.9739858680942
299.9789471170617
299.9845670426079
299.9908791141928
299.997309584727
300.0036129077354
300.0106563769471
300.0174478630962
300.0237866086226
300.030510686908
300.0366049208753
300.0411744752627
300.0442964691169
300.0463885572483
300.0474755241354
300.0475861409613
300.0467254574551
300.0456240564112
300.0435786943975
300.0408650657836
300.0378159008962
300.0338091334197
300.0290796453693
300.0241810698748
300.0187182970116
300.0130244851422
300.0064556167216
300.0001848290088
299.9937323529695
299.9867648658132
299.9804211591741
299.9739940426863
299.9672354719862
299.9621704901473
299.956636285443
299.9543665248324
299.9523797861055
299.9511170338708
299.9508627608587
299.951505929525
299.9526823363526
299.953745171188
299.9558688875949
299.9590867960309
299.9618862084209
299.9658199401013
299.970709966535
299.9750893219294
299.9803190741284
299.9863826912547
299.992333006152
299.9986467621063
300.0056085269614
300.0123317691932
300.0191886672806
300.0257301466642
300.0318072578054
300.0378080947377
300.0415815367826
300.0439487424141
300.0460233018366
300.0466456117205
300.0462271311881
300.0449263657513
300.0438664075202
300.0415641440022
300.0375556366791
300.0347132365314
300.0302966613793
300.0247314261246
300.0198947876481
300.0138262498022
300.0075983973463
300.0017066629587
299.9949105942717
299.988415099497
299.9817501637594
299.9752073515199
299.9690794989006
299.9631774900589
299.9575462191029
299.9541720194335
299.9520091569539
299.9500901677761
299.9497081526786
299.9499231721615
299.9505073524584
299.9521304497918
299.953511850516
299.9560732723799
299.9598539031202
299.96258150833
299.9668692128379
299.9719773118451
299.9763839723236
299.9820075913781
299.9883337584439
299.9942839384854
300.000936310124
300.00761703076
300.0141191230074
300.0209605455785
300.0273203281629
300.0335990289483
300.0380056724284
300.0414161367555
300.0439000108345
300.0449348160734
300.0450419756265
300.0443778938951
300.043233788858
300.0408611005763
300.0380747755765
300.034796883492
300.0302650197711
300.0256159893751
300.0202077864585
300.014435010616
300.0086266967422
300.0022259848257
299.9955649386613
299.9893796309933
299.9825138564458
299.9757068628552
299.9700571409999
299.9636894432653
299.9582209573279
299.9533823014092
299.9507629601998
299.9491286867776
299.9479706816446
299.9474399511513
299.9482308733761
299.9500646426692
299.9509456453431
299.9533497368548
299.9568495778428
299.9591142630584
299.9636225880181
299.9684337612744
299.9723784956375
299.9780495181395
299.9838034966392
299.98927191109
299.9959410040564
300.0025155287063
300.0089718508275
300.0159096010293
300.0219424523686
300.0283716506327
300.0341637297974
300.0376655183416
300.0408603093444
300.0429528937859
300.0432631910625
300.0431316001834
300.0418230189003
300.0406093239397
300.0374740902412
300.0342530703641
300.0308126023856
300.0255940100383
300.0206054290674
300.0152118775042
300.008861278986
300.002794043939
299.9963225838899
299.989448373196
299.9828912928461
299.976535841998
299.969740131804
299.9638919252358
299.9583789837726
299.9527216676236
299.9495119146995
299.9475501145326
299.9455232009528
299.9448757537397
299.9455744359803
299.946513463306
299.9478732562659
299.9498877896279
299.9525081378418
299.9558575667248
299.9592422253372
299.9634013507662
299.9682472784368
299.972781302895
299.9782998928918
299.9841903234474
299.9901497151131
299.9965464786061
300.0027700771836
300.0094991867531
300.0165775925843
300.0219134324763
300.0289005094564
300.0330803601662
300.0367468406795
300.0393098625416
300.0408055964292
300.0407031614578
300.0400868351014
300.0388260979975
300.0363632801982
300.0335808496573
300.0299295751375
300.0251400059998
300.0203958695229
300.0148410513852
300.008626318471
300.0029644256454
299.9960737147587
299.9894475888288
299.9832004108769
299.9761357177708
299.9699694589932
299.9639566826835
299.9575802333514
299.9526558771655
299.9481335607557
299.9453567369515
299.9439083532839
299.9423554520446
299.9423593030415
299.9432738135566
299.9447593249782
299.9461876528892
299.9484468488811
299.9518966401796
299.9548504284786
299.958810315882
299.9637419448368
299.9680451034649
299.9732353286857
299.9790998749682
299.9847013229831
299.9907927485621
299.9974082402481
300.0038216914104
300.0101799675065
300.0165458405236
300.022662754525
300.0279244275845
300.0317218251417
300.0353464142739
300.0371925268948
300.0378094427611
300.0376699934769
300.0365754303178
300.0347057890831
300.0320327278093
300.0283054146473
300.0245118550237
300.0194596548678
300.01417479499
300.0086387296748
300.0023775935766
299.9963519633092
299.9899960369207
299.9833202828369
299.9769334511243
299.9706979420457
299.9641477020211
299.9580869631374
299.9533154692145
299.9477524034954
299.9450660177195
299.9426893726458
299.9411151211506
299.9408193192012
299.941266672083
299.9420504278605
299.9443339231846
299.9463329745755
299.948955540226
299.9526150646174
299.9557380558282
299.9603766210294
299.9649420546361
299.969574915843
299.9751825177114
299.9805649455496
299.9867586789231
299.9927415389766
299.9985701392993
300.0052734727809
300.0119034543088
300.0170587186152
300.023551453737
300.0277386169664
300.0318552936537
300.0344501498932
300.0357158062285
300.0364465547452
300.0357959148294
300.0341117904673
300.0321756229276
300.0290354821746
300.0246212966293
300.0204560486474
300.0149705982717
300.0087609921735
300.0029620393883
299.9965225002001
299.9901819754897
299.9835798307311
299.9768448542874
299.970478949715
299.9637723879393
299.9583171771215
299.9521913398917
299.9470110371621
299.9431218028358
299.9407903806641
299.9387089663072
299.9372199509096
299.9375816560354
299.9382618294705
299.9402218620776
299.9421010976917
299.9443464810704
299.9480721380851
299.951265781251
299.9553646418123
299.9602648021221
299.9646681494963
299.9699187494139
299.9754122611969
299.9809300830044
299.9866077874147
299.992954213875
299.999447561703
300.0049334794024
300.0113545054398
300.0173370922253
300.0220425720976
300.0263805095816
300.0297039712707
300.0316139360559
300.0327907923835
300.0327470326843
300.0316629013748
300.0300903360487
300.0274169813146
300.0233131687218
300.0192043234343
300.0144639883994
300.008322197517
300.0025263732842
299.996808327084
299.9898462333849
299.9832015705269
299.9770250169096
299.9705557145582
299.9643108938994
299.9584145986666
299.9525077557112
299.947719354618
299.9426760040819
299.9400611205068
299.9372238923238
299.9358111763873
299.9352732205784
299.9355871131846
299.9369635114686
299.9390265969511
299.9410979055969
299.9444870133375
299.9483762276439
299.9518532501184
299.9564686579031
299.9614529464935
299.966090485046
299.9713347725279
299.9765821113828
299.9824930879406
299.9881022052493
299.9938350817351
300.0000822620966
300.0059826729843
300.0115295581746
300.0170451858287
300.0215285328212
300.0256296336228
300.0283419728459
300.0298518225188
300.0306188223807
300.0301603494044
300.0287427091978
300.0264853969283
300.0232390095603
300.0189149679488
300.014097340735
300.0084926293893
300.0021412985292
299.9957157646235
299.9892249838828
299.9824547003844
299.9754361342408
299.9692224379688
299.9627924583604
299.9562297052946
299.9512379354916
299.9451736859128
299.9404994345676
299.9371976630058
299.9342615783673
299.9319231290067
299.9309696711783
299.9307634327926
299.9318298641091
299.9331388810743
299.9357660066589
299.9385084065393
299.9418547135747
299.9460135951842
299.9502145563122
299.9552113091455
299.9597824339284
299.9650731577802
299.9705135784436
299.9753599976679
299.9811913983573
299.9869024143651
299.9923617703662
299.998387138421
300.0040887834738
300.0095385029695
300.0142060723595
300.018511210711
300.0220172922919
300.0238839844528
300.0250454446625
300.0252877711181
300.0244562544627
300.0225564313263
300.0194817138695
300.0161772473606
300.0111775802566
300.0060197329105
300.0006109255456
299.9938279350267
299.9877649737441
299.9809799066628
299.9739155288317
299.9674069329321
299.9610275625076
299.9549528278573
299.9491630345248
299.9438188584157
299.9389689888034
299.934975798243
299.9321723025051
299.9293825881778
299.928141136431
299.9274872473142
299.9275300799923
299.9287872869617
299.93085101082
299.9331015686219
299.9361921200906
299.9405386208621
299.9445182047501
299.9492871426495
299.9549337311978
299.9596966952052
299.9648906765073
299.970330305754
299.9757627029821
299.9811925847104
299.9865465352042
299.9921797374237
299.9975769041187
300.0031097597712
300.0074116618881
300.0120808921694
300.0151283483114
300.0180508458025
300.0198001336425
300.0200724628463
300.0200185096269
300.0185057194191
300.016178283968
300.0128963482263
300.0088208467186
300.0042398655041
299.998663607279
299.9923320628794
299.9865686130627
299.979843343409
299.9731018338244
299.9667283736903
299.9603706177651
299.9543418378552
299.948560226473
299.9429785181891
299.9384078229024
299.9336413845725
299.9313051401819
299.9284459326782
299.9272698686736
299.9258910656931
299.9259395006022
299.9266861700793
299.9281075536562
299.929989444933
299.9325356039616
299.9363162815962
299.9402572778674
299.9448135885868
299.9505016092281
299.9558230076115
299.9614518558951
299.9672439218062
299.9724654959037
299.9778892060382
299.9833670581159
299.9883704583121
299.9933921958958
299.9983034694353
300.0031387796833
300.0072780961896
300.0112569993494
300.0143392705146
300.0167788693693
300.0179970308715
300.0186506388918
300.0179708544308
300.0161693249207
300.0135690883819
300.009566750242
300.0047895974568
299.9997524894292
299.9930187641073
299.9867624585339
299.9802480901647
299.972883286634
299.9664015542659
299.9597426563243
299.9531593739954
299.9474362722454
299.941792304887
299.9366733400735
299.9320588417286
299.9290642564719
299.9264374040423
299.9245369406199
299.9229554877155
299.9226641728865
299.9235167336018
299.9244913976015
299.9261618240939
299.9285566599569
299.9315744555764
299.935012147276
299.9393342643048
299.9442875364633
299.949529784642
299.9550540523712
299.9614128945454
299.9669008940606
299.9725965382754
299.9783513761066
299.9831629257123
299.9881188137541
299.9929692145853
299.9973862946826
300.0012424640991
300.0048699471596
300.008206992464
300.0106628389964
300.0126947532132
300.0139992904509
300.0138864985375
300.0125292356113
300.0104253437141
300.0072727736392
300.002652183116
299.9979782461234
299.992143267084
299.9855873998305
299.9797594776722
299.9729398551069
299.9662023666875
299.9599722114373
299.9535563222549
299.9479221471112
299.9422905959169
299.9371647967145
299.9326203923091
299.9287657808453
299.9262378438785
299.9239742039974
299.9228848325022
299.9216377262259
299.9219344740783
299.9229173930525
299.9243818214729
299.9265185505932
299.9289981021234
299.932393567493
299.9365445241847
299.9408697866235
299.9458095617697
299.951431387488
299.9570118379934
299.9627860767897
299.9688594422966
299.9747680263027
299.9803439632116
299.985715252279
299.9914749057287
299.9955689353078
299.9998947995484
300.0025794864017
300.004520027129
300.0065317121199
300.0087281765517
300.0099372740011
300.0112487212677
300.0111998094728
300.0097080864201
300.0071955505786
300.0030196854725
299.9977973222127
299.9927308093484
299.9867852235724
299.9809129740833
299.97562710186
299.9696126566487
299.9633633488735
299.9577264877647
299.9520581102521
299.9456023822481
299.9406050884145
299.9362054974108
299.9314353843149
299.9288718336444
299.9265451598297
299.9243127171205
299.9233572991818
299.9228689918932
299.9234609029346
299.9235541591694
299.9256002034415
299.9282789299539
299.9296925507523
299.9333165757583
299.9386244358743
299.943072756675
299.9488513052657
299.9586501318805
299.9637153293675
299.9744247910079
299.9810333327689
)
;

boundaryField
{
    inlet
    {
        type            fixedValue;
        value           uniform 300;
    }
    outlet
    {
        type            inletOutlet;
        inletValue      uniform 300;
        value           uniform 299.9844851102097;
    }
    frontAndBack
    {
        type            empty;
    }
}


// ************************************************************************* //
