/*--------------------------------*- C++ -*----------------------------------*\
| =========                 |                                                 |
| \\      /  F ield         | OpenFOAM: The Open Source CFD Toolbox           |
|  \\    /   O peration     | Version:  v2012                                 |
|   \\  /    A nd           | Website:  www.openfoam.com                      |
|    \\/     M anipulation  |                                                 |
\*---------------------------------------------------------------------------*/
FoamFile
{
    version     2.0;
    format      ascii;
    class       volVectorField;
    location    "0.001";
    object      U;
}
// * * * * * * * * * * * * * * * * * * * * * * * * * * * * * * * * * * * * * //

dimensions      [0 1 -1 0 0 0 0];


internalField   nonuniform List<vector> 
1000
(
(-0.002806193114077203 0 0)
(-0.03445084716821543 0 0)
(-0.04263937485663089 0 0)
(-0.05777020996138293 0 0)
(-0.07162012634854252 0 0)
(-0.08454852786845278 0 0)
(-0.09560721016174044 0 0)
(-0.1050768235790432 0 0)
(-0.1132270692593908 0 0)
(-0.1186948562840708 0 0)
(-0.1201185294508048 0 0)
(-0.1199559893644174 0 0)
(-0.1191587532425527 0 0)
(-0.1166500652170422 0 0)
(-0.1118212777438173 0 0)
(-0.1044691627262226 0 0)
(-0.09487560318125474 0 0)
(-0.08347818134800843 0 0)
(-0.07064288869195835 0 0)
(-0.05661782758256979 0 0)
(-0.04159893131485416 0 0)
(-0.02580454547083286 0 0)
(-0.009506749250354642 0 0)
(0.006985174426514459 0 0)
(0.02335447327410994 0 0)
(0.03928664882405013 0 0)
(0.05448515138831412 0 0)
(0.06874863292718378 0 0)
(0.0820643590797128 0 0)
(0.09450821063421294 0 0)
(0.1056989644745834 0 0)
(0.1139823986174914 0 0)
(0.1174877265782526 0 0)
(0.117874650399696 0 0)
(0.117792364042536 0 0)
(0.1170846562731715 0 0)
(0.1152887864409245 0 0)
(0.1117288732476017 0 0)
(0.1059193306865236 0 0)
(0.09762524212194945 0 0)
(0.0869455705061009 0 0)
(0.07425110493709962 0 0)
(0.0600387799999386 0 0)
(0.04478227389324161 0 0)
(0.02885094362117713 0 0)
(0.01251612079588653 0 0)
(-0.003986240717515499 0 0)
(-0.02039867395737108 0 0)
(-0.03644980378455698 0 0)
(-0.05192852743539413 0 0)
(-0.06675155453853447 0 0)
(-0.08092173583953148 0 0)
(-0.09427241029118373 0 0)
(-0.1058785557325524 0 0)
(-0.1136082802456532 0 0)
(-0.1162810792979214 0 0)
(-0.1164853849604384 0 0)
(-0.116317114422754 0 0)
(-0.11571929821637 0 0)
(-0.1141333926969 0 0)
(-0.1110756036530195 0 0)
(-0.1060624243870727 0 0)
(-0.09876083912403594 0 0)
(-0.08906245784119643 0 0)
(-0.07712046566591159 0 0)
(-0.06330905383062466 0 0)
(-0.04812415696444204 0 0)
(-0.0320739914119682 0 0)
(-0.01560190296726513 0 0)
(0.000947105770613794 0 0)
(0.01732648852672057 0 0)
(0.0333717070396076 0 0)
(0.04898863577696887 0 0)
(0.06415232504948062 0 0)
(0.07885026560806042 0 0)
(0.09280207528477949 0 0)
(0.1048206627928975 0 0)
(0.1125507682391443 0 0)
(0.1150621453000378 0 0)
(0.1152290232237732 0 0)
(0.1151449902613158 0 0)
(0.1146087742378961 0 0)
(0.1132809704948372 0 0)
(0.1106793698120056 0 0)
(0.1063627221053902 0 0)
(0.09996092815758373 0 0)
(0.09125478593599021 0 0)
(0.08022738702933947 0 0)
(0.06708345706305345 0 0)
(0.05221965355858381 0 0)
(0.03614716327124224 0 0)
(0.01939366221350566 0 0)
(0.002421992509893009 0 0)
(-0.01441824124698488 0 0)
(-0.03091610546293708 0 0)
(-0.04700484135794077 0 0)
(-0.06271605136020367 0 0)
(-0.0780222516453327 0 0)
(-0.09247527768710356 0 0)
(-0.1045968189791084 0 0)
(-0.1119385786575984 0 0)
(-0.1141047602118848 0 0)
(-0.1142366467833503 0 0)
(-0.1140992852834418 0 0)
(-0.113617448933681 0 0)
(-0.1123722742233086 0 0)
(-0.1099768517012561 0 0)
(-0.1060166236902546 0 0)
(-0.1001361272314187 0 0)
(-0.09209027795516801 0 0)
(-0.08179746784120219 0 0)
(-0.06936740890472222 0 0)
(-0.05509521319872651 0 0)
(-0.03942119423523206 0 0)
(-0.02286042655752377 0 0)
(-0.005912973770169528 0 0)
(0.01102043838521275 0 0)
(0.02768808180899988 0 0)
(0.04398949035294578 0 0)
(0.05992860624380086 0 0)
(0.07547776129539593 0 0)
(0.09022828159589287 0 0)
(0.1027554431526836 0 0)
(0.1105793250955268 0 0)
(0.1130421375946029 0 0)
(0.1132127494049745 0 0)
(0.1131454672080709 0 0)
(0.1127241826062374 0 0)
(0.1116628648103956 0 0)
(0.1095629059351905 0 0)
(0.1060347650538771 0 0)
(0.1007113980459512 0 0)
(0.09330582354606586 0 0)
(0.08366429366812743 0 0)
(0.07181997603391979 0 0)
(0.05804805628807041 0 0)
(0.04295030682916886 0 0)
(0.02763749790590327 0 0)
(0.01402687042223738 0 0)
(0.00468545417083899 0 0)
(0.0007665578432187852 0 0)
(4.1453096427141e-05 0 0)
(4.832548985210949e-07 0 0)
(8.117385714730557e-10 0 0)
(-8.690525897706604e-14 0 0)
(-2.433347251357033e-13 0 0)
(-6.08336812839375e-14 0 0)
(-8.690525897704211e-14 0 0)
(1.303578884655612e-13 0 0)
(9.559578487474536e-14 0 0)
(1.303578884655642e-13 0 0)
(-6.952420718162539e-14 0 0)
(3.476210359082094e-14 0 0)
(1.042863107724519e-13 0 0)
(8.690525897704025e-14 0 0)
(1.738105179541125e-14 0 0)
(-6.083368128392442e-14 0 0)
(7.82147330793366e-14 0 0)
(6.083368128392456e-14 0 0)
(9.55957848747405e-14 0 0)
(8.690525897704551e-15 0 0)
(-2.607157769310548e-14 0 0)
(1.216673625678599e-13 0 0)
(1.04286310772447e-13 0 0)
(8.690525897704509e-14 0 0)
(-2.607157769310554e-14 0 0)
(1.303578884655671e-13 0 0)
(1.30357888465572e-13 0 0)
(1.651199920563712e-13 0 0)
(1.998820956471986e-13 0 0)
(2.520252510334057e-13 0 0)
(2.520252510334439e-13 0 0)
(2.085726215448718e-13 0 0)
(1.911915697495113e-13 0 0)
(1.042863107724492e-13 0 0)
(2.780968287265448e-13 0 0)
(2.607157769311236e-13 0 0)
(2.954778805219343e-13 0 0)
(2.520252510334065e-13 0 0)
(1.390484143632737e-13 0 0)
(1.216673625678632e-13 0 0)
(6.952420718163071e-14 0 0)
(1.564294661586855e-13 0 0)
(1.303578884655642e-13 0 0)
(1.651199920563816e-13 0 0)
(1.477389402609847e-13 0 0)
(1.477389402609622e-13 0 0)
(1.998820956472199e-13 0 0)
(2.694063028288004e-13 0 0)
(1.998820956472123e-13 0 0)
(1.825010438517737e-13 0 0)
(9.559578487475017e-14 0 0)
(-8.690525897703509e-14 0 0)
(-6.95242071816219e-14 0 0)
(2.311761898676343e-27 0 0)
(-4.345262948852851e-14 0 0)
(-5.214315538622774e-14 0 0)
(-3.128589323173397e-13 0 0)
(-7.821473307933838e-14 0 0)
(-2.085726215449084e-13 0 0)
(-1.303578884655619e-13 0 0)
(-1.216673625678691e-13 0 0)
(-9.559578487473833e-14 0 0)
(-1.477389402609782e-13 0 0)
(-1.998820956471723e-13 0 0)
(-2.607157769311162e-13 0 0)
(-2.520252510334153e-13 0 0)
(-2.25953673340295e-13 0 0)
(-3.910736653966738e-13 0 0)
(-2.60715776931109e-13 0 0)
(-2.172631474426113e-13 0 0)
(-1.042863107724411e-13 0 0)
(-8.690525897704622e-14 0 0)
(-5.214315538622223e-14 0 0)
(-8.690525897698428e-15 0 0)
(1.12976836670154e-13 0 0)
(1.738105179540837e-13 0 0)
(1.216673625678687e-13 0 0)
(7.821473307934585e-14 0 0)
(6.083368128392815e-14 0 0)
(-6.464442704979561e-27 0 0)
(-8.690525897714142e-15 0 0)
(2.607157769310275e-14 0 0)
(-4.345262948852599e-14 0 0)
(-1.042863107724583e-13 0 0)
(-2.346441992380108e-13 0 0)
(-3.128589323173691e-13 0 0)
(-3.128589323173434e-13 0 0)
(-3.389305100104653e-13 0 0)
(-3.215494582150305e-13 0 0)
(-2.780968287265485e-13 0 0)
(-3.910736653966589e-13 0 0)
(-3.910736653966993e-13 0 0)
(-2.867873546242308e-13 0 0)
(-1.390484143632691e-13 0 0)
(8.690525897702047e-15 0 0)
(8.690525897703324e-14 0 0)
(2.259536733403277e-13 0 0)
(2.085726215448912e-13 0 0)
(1.564294661586794e-13 0 0)
(1.477389402609638e-13 0 0)
(2.259536733402972e-13 0 0)
(1.390484143632745e-13 0 0)
(1.129768366701495e-13 0 0)
(6.952420718163956e-14 0 0)
(6.083368128393638e-14 0 0)
(2.607157769311775e-14 0 0)
(-5.214315538621556e-14 0 0)
(-7.821473307932956e-14 0 0)
(-1.216673625678611e-13 0 0)
(-1.303578884655633e-13 0 0)
(-1.56429466158669e-13 0 0)
(-1.129768366701483e-13 0 0)
(-9.559578487474811e-14 0 0)
(-4.746058756088863e-27 0 0)
(8.690525897703351e-14 0 0)
(8.690525897695168e-15 0 0)
(-1.100691975797199e-26 0 0)
(-1.564294661586835e-13 0 0)
(-2.346441992380065e-13 0 0)
(-3.650020877035765e-13 0 0)
(-3.736926136012552e-13 0 0)
(-2.954778805219514e-13 0 0)
(-1.651199920563631e-13 0 0)
(-1.738105179540856e-13 0 0)
(-1.129768366701576e-13 0 0)
(8.690525897703105e-14 0 0)
(7.821473307932989e-14 0 0)
(8.690525897702866e-14 0 0)
(-3.476210359082103e-14 0 0)
(-1.564294661586687e-13 0 0)
(-1.825010438517826e-13 0 0)
(-1.998820956471867e-13 0 0)
(-2.433347251357207e-13 0 0)
(-2.607157769311333e-13 0 0)
(-1.825010438517858e-13 0 0)
(-2.867873546242302e-13 0 0)
(-2.346441992380068e-13 0 0)
(-1.911915697494954e-13 0 0)
(-1.738105179540707e-13 0 0)
(-2.085726215449009e-13 0 0)
(-1.911915697494955e-13 0 0)
(-1.651199920563783e-13 0 0)
(-6.08336812839234e-14 0 0)
(-1.738105179541079e-14 0 0)
(8.690525897705449e-15 0 0)
(1.651199920563805e-13 0 0)
(1.216673625678459e-13 0 0)
(6.083368128393078e-14 0 0)
(5.214315538621321e-14 0 0)
(-8.690525897705507e-15 0 0)
(1.0428631077245e-13 0 0)
(8.690525897709256e-15 0 0)
(1.129768366701451e-13 0 0)
(8.690525897704134e-14 0 0)
(1.738105179540667e-13 0 0)
(1.477389402609835e-13 0 0)
(2.520252510333911e-13 0 0)
(1.564294661586771e-13 0 0)
(2.520252510334072e-13 0 0)
(2.694063028288436e-13 0 0)
(1.738105179540733e-13 0 0)
(1.042863107724651e-13 0 0)
(1.390484143632558e-13 0 0)
(1.825010438518035e-13 0 0)
(1.303578884655511e-13 0 0)
(2.60715776931205e-14 0 0)
(8.690525897703892e-14 0 0)
(4.345262948851722e-14 0 0)
(9.559578487474023e-14 0 0)
(-3.476210359081956e-14 0 0)
(-1.738105179540896e-14 0 0)
(8.690525897702096e-15 0 0)
(-7.821473307933043e-14 0 0)
(-1.564294661586742e-13 0 0)
(-3.47621035908103e-14 0 0)
(8.690525897710303e-15 0 0)
(-8.690525897694228e-15 0 0)
(3.476210359081996e-14 0 0)
(1.738105179540474e-14 0 0)
(1.784958060330563e-27 0 0)
(-1.738105179540607e-14 0 0)
(9.559578487474614e-14 0 0)
(5.214315538621801e-14 0 0)
(-5.214315538622576e-14 0 0)
(2.607157769310909e-14 0 0)
(-8.690525897704909e-14 0 0)
(-4.345262948851917e-14 0 0)
(6.083368128392035e-14 0 0)
(8.690525897702666e-14 0 0)
(-8.690525897704833e-15 0 0)
(-9.559578487474114e-14 0 0)
(-6.952420718163355e-14 0 0)
(1.303578884655514e-13 0 0)
(2.954778805219398e-13 0 0)
(4.171452430897748e-13 0 0)
(3.215494582150538e-13 0 0)
(2.867873546242276e-13 0 0)
(3.12858932317363e-13 0 0)
(3.389305100104412e-13 0 0)
(2.085726215449085e-13 0 0)
(2.780968287265161e-13 0 0)
(9.559578487475223e-14 0 0)
(6.083368128393519e-14 0 0)
(5.214315538623091e-14 0 0)
(9.559578487473814e-14 0 0)
(6.952420718163971e-14 0 0)
(6.95242071816435e-14 0 0)
(1.738105179540741e-13 0 0)
(2.259536733403053e-13 0 0)
(1.216673625678607e-13 0 0)
(-4.862804661656516e-27 0 0)
(-8.690525897704631e-14 0 0)
(-2.172631474425908e-13 0 0)
(-7.821473307934256e-14 0 0)
(-2.346441992380042e-13 0 0)
(-2.43334725135687e-13 0 0)
(-1.04286310772448e-13 0 0)
(5.214315538623147e-14 0 0)
(1.65119992056388e-13 0 0)
(1.738105179540878e-13 0 0)
(6.083368128393384e-14 0 0)
(1.738105179541684e-14 0 0)
(6.952420718163566e-14 0 0)
(1.738105179540952e-14 0 0)
(-4.345262948852012e-14 0 0)
(-8.690525897703973e-15 0 0)
(1.390484143632635e-13 0 0)
(2.346441992379995e-13 0 0)
(1.30357888465547e-13 0 0)
(9.559578487474896e-14 0 0)
(7.821473307934108e-14 0 0)
(-6.083368128392137e-14 0 0)
(-2.607157769310841e-14 0 0)
(-9.559578487474169e-14 0 0)
(-1.477389402609687e-13 0 0)
(-6.083368128392704e-14 0 0)
(5.214315538622215e-14 0 0)
(-4.345262948851674e-14 0 0)
(9.559578487474615e-14 0 0)
(1.390484143632477e-13 0 0)
(1.65119992056369e-13 0 0)
(3.47621035908096e-14 0 0)
(-8.690525897703948e-14 0 0)
(-1.651199920563789e-13 0 0)
(-1.911915697494898e-13 0 0)
(-1.042863107724548e-13 0 0)
(-1.303578884655758e-13 0 0)
(-7.821473307933857e-14 0 0)
(-1.564294661586757e-13 0 0)
(-1.651199920563904e-13 0 0)
(-1.303578884655653e-13 0 0)
(-6.952420718163786e-14 0 0)
(2.60715776931061e-14 0 0)
(1.04286310772448e-13 0 0)
(1.477389402609747e-13 0 0)
(9.559578487474007e-14 0 0)
(7.821473307933648e-14 0 0)
(6.083368128392402e-14 0 0)
(8.690525897703479e-14 0 0)
(8.690525897694474e-15 0 0)
(-2.607157769311774e-14 0 0)
(2.607157769310903e-14 0 0)
(-3.476210359081745e-14 0 0)
(2.607157769310852e-14 0 0)
(-4.345262948852865e-14 0 0)
(-6.083368128393523e-14 0 0)
(-1.998820956471976e-13 0 0)
(-1.564294661586736e-13 0 0)
(-2.954778805219472e-13 0 0)
(-2.780968287265334e-13 0 0)
(-1.998820956472005e-13 0 0)
(-3.041684064196112e-13 0 0)
(-2.867873546242649e-13 0 0)
(-3.041684064196192e-13 0 0)
(-2.954778805219322e-13 0 0)
(-2.954778805219339e-13 0 0)
(-2.69406302828838e-13 0 0)
(-2.172631474425949e-13 0 0)
(-2.78096828726529e-13 0 0)
(-2.34644199237997e-13 0 0)
(-2.346441992380117e-13 0 0)
(-2.867873546242139e-13 0 0)
(-2.607157769311001e-13 0 0)
(-2.346441992379938e-13 0 0)
(-8.690525897703425e-14 0 0)
(3.476210359081598e-14 0 0)
(8.690525897705453e-15 0 0)
(4.345262948852499e-14 0 0)
(-1.738105179540794e-14 0 0)
(-6.952420718162635e-14 0 0)
(-5.214315538622327e-14 0 0)
(-9.559578487474232e-14 0 0)
(-1.042863107724422e-13 0 0)
(3.476210359081878e-14 0 0)
(7.821473307933562e-14 0 0)
(2.867873546242219e-13 0 0)
(1.216673625678661e-13 0 0)
(9.559578487474342e-14 0 0)
(7.821473307933805e-14 0 0)
(8.690525897704679e-14 0 0)
(-5.21431553862185e-14 0 0)
(-1.390484143632604e-13 0 0)
(-2.259536733403076e-13 0 0)
(-1.564294661586679e-13 0 0)
(-2.607157769311463e-13 0 0)
(-3.128589323173414e-13 0 0)
(-4.258357689875021e-13 0 0)
(-4.345262948851799e-13 0 0)
(-3.476210359081771e-13 0 0)
(-3.215494582150499e-13 0 0)
(-1.998820956471953e-13 0 0)
(-1.390484143632603e-13 0 0)
(-2.346441992380265e-13 0 0)
(-2.607157769311101e-13 0 0)
(-3.99764191294368e-13 0 0)
(-4.692883984760103e-13 0 0)
(-6.517894423278181e-13 0 0)
(-6.604799682255015e-13 0 0)
(-6.430989164300775e-13 0 0)
(-4.953599761691216e-13 0 0)
(-3.997641912944203e-13 0 0)
(-2.259536733403002e-13 0 0)
(-8.690525897703961e-14 0 0)
(1.042863107724507e-13 0 0)
(1.129768366701545e-13 0 0)
(1.825010438517865e-13 0 0)
(2.694063028288234e-13 0 0)
(3.041684064196658e-13 0 0)
(2.433347251357197e-13 0 0)
(2.867873546242164e-13 0 0)
(2.25953673340318e-13 0 0)
(2.259536733403237e-13 0 0)
(2.69406302828816e-13 0 0)
(2.433347251357246e-13 0 0)
(2.259536733403162e-13 0 0)
(2.259536733403195e-13 0 0)
(1.303578884655738e-13 0 0)
(7.821473307934131e-14 0 0)
(1.303578884655726e-13 0 0)
(9.559578487475721e-14 0 0)
(-1.738105179540031e-14 0 0)
(-1.216673625678554e-13 0 0)
(-2.172631474425999e-13 0 0)
(-2.780968287265229e-13 0 0)
(-2.867873546242333e-13 0 0)
(-2.780968287265097e-13 0 0)
(-4.171452430898016e-13 0 0)
(-4.258357689875035e-13 0 0)
(-3.302399841127291e-13 0 0)
(-1.911915697494918e-13 0 0)
(-1.477389402609698e-13 0 0)
(-7.821473307933685e-14 0 0)
(-2.607157769311589e-14 0 0)
(5.214315538621605e-14 0 0)
(-2.607157769311136e-14 0 0)
(-5.214315538622998e-14 0 0)
(-4.345262948852663e-14 0 0)
(-1.390484143632714e-13 0 0)
(-1.390484143632636e-13 0 0)
(-6.952420718162933e-14 0 0)
(-1.303578884655584e-13 0 0)
(-3.650020877035342e-13 0 0)
(-4.345262948852076e-13 0 0)
(-3.910736653966882e-13 0 0)
(-3.389305100104395e-13 0 0)
(-3.215494582150652e-13 0 0)
(-4.345262948852175e-13 0 0)
(-4.866694502714453e-13 0 0)
(-4.953599761691492e-13 0 0)
(-3.997641912943663e-13 0 0)
(-3.389305100104735e-13 0 0)
(-3.128589323173578e-13 0 0)
(-1.998820956471852e-13 0 0)
(-1.303578884655713e-13 0 0)
(-2.607157769311474e-14 0 0)
(3.476210359082368e-14 0 0)
(4.345262948852441e-14 0 0)
(-4.345262948851449e-14 0 0)
(7.821473307933475e-14 0 0)
(2.607157769311011e-14 0 0)
(-2.607157769311508e-14 0 0)
(1.042863107724445e-13 0 0)
(1.564294661586641e-13 0 0)
(2.694063028288197e-13 0 0)
(2.780968287265242e-13 0 0)
(2.780968287264958e-13 0 0)
(1.564294661586628e-13 0 0)
(-6.083368128393551e-14 0 0)
(-2.954778805219193e-13 0 0)
(-3.910736653966922e-13 0 0)
(-4.084547171920997e-13 0 0)
(-3.910736653966948e-13 0 0)
(-3.302399841127658e-13 0 0)
(-3.215494582150243e-13 0 0)
(-1.911915697494884e-13 0 0)
(6.952420718164047e-14 0 0)
(6.952420718163716e-14 0 0)
(2.259536733403226e-13 0 0)
(2.867873546242434e-13 0 0)
(3.99764191294412e-13 0 0)
(4.171452430897933e-13 0 0)
(4.605978725782709e-13 0 0)
(4.779789243737335e-13 0 0)
(4.171452430898067e-13 0 0)
(4.084547171920539e-13 0 0)
(3.215494582150489e-13 0 0)
(2.607157769311262e-13 0 0)
(6.083368128393091e-14 0 0)
(2.607157769312348e-14 0 0)
(1.477389402609591e-13 0 0)
(2.867873546242463e-13 0 0)
(3.563115618058608e-13 0 0)
(3.910736653966589e-13 0 0)
(2.95477880521937e-13 0 0)
(2.259536733403157e-13 0 0)
(2.085726215448989e-13 0 0)
(2.867873546242493e-13 0 0)
(3.736926136012437e-13 0 0)
(4.519073466806168e-13 0 0)
(3.736926136012775e-13 0 0)
(2.259536733402989e-13 0 0)
(2.085726215449263e-13 0 0)
(6.952420718162683e-14 0 0)
(1.042863107724439e-13 0 0)
(5.214315538622617e-14 0 0)
(-5.214315538622047e-14 0 0)
(-1.390484143632604e-13 0 0)
(-1.564294661586635e-13 0 0)
(-4.345262948851925e-14 0 0)
(6.083368128393133e-14 0 0)
(6.952420718163112e-14 0 0)
(1.999153027570046e-27 0 0)
(7.821473307933918e-14 0 0)
(-1.738105179540269e-14 0 0)
(-5.214315538622271e-14 0 0)
(-5.214315538622357e-14 0 0)
(-6.083368128392897e-14 0 0)
(-2.607157769311273e-14 0 0)
(-6.083368128392351e-14 0 0)
(2.607157769311046e-14 0 0)
(5.21431553862169e-14 0 0)
(-5.214315538621923e-14 0 0)
(-1.564294661586681e-13 0 0)
(-1.390484143632635e-13 0 0)
(-1.290958856606429e-27 0 0)
(-3.476210359081752e-14 0 0)
(-8.690525897702134e-15 0 0)
(-1.738105179540668e-14 0 0)
(-6.952420718162587e-14 0 0)
(-1.738105179540475e-14 0 0)
(-5.214315538622519e-14 0 0)
(-7.821473307934096e-14 0 0)
(-1.738105179541093e-14 0 0)
(-5.214315538622706e-14 0 0)
(-1.129768366701415e-13 0 0)
(-3.476210359081708e-14 0 0)
(-3.4762103590819e-14 0 0)
(4.345262948851057e-14 0 0)
(-6.952420718163803e-14 0 0)
(-1.651199920563835e-13 0 0)
(-1.825010438517856e-13 0 0)
(-1.303578884655679e-13 0 0)
(-1.651199920563578e-13 0 0)
(-3.302399841127649e-13 0 0)
(-2.520252510334191e-13 0 0)
(-2.346441992379876e-13 0 0)
(-2.08572621544907e-13 0 0)
(-2.433347251357129e-13 0 0)
(-2.607157769311413e-13 0 0)
(-3.302399841127552e-13 0 0)
(-3.736926136012584e-13 0 0)
(-3.215494582150626e-13 0 0)
(-3.736926136012822e-13 0 0)
(-3.215494582150322e-13 0 0)
(-3.736926136012904e-13 0 0)
(-2.954778805219342e-13 0 0)
(-1.998820956472076e-13 0 0)
(-2.085726215449029e-13 0 0)
(-1.56429466158663e-13 0 0)
(-1.564294661586835e-13 0 0)
(-1.216673625678609e-13 0 0)
(-2.433347251356993e-13 0 0)
(-1.129768366701559e-13 0 0)
(-1.390484143632742e-13 0 0)
(-1.911915697494979e-13 0 0)
(-2.172631474426043e-13 0 0)
(-1.998820956471759e-13 0 0)
(-1.042863107724469e-13 0 0)
(3.476210359081392e-14 0 0)
(2.085726215448777e-13 0 0)
(1.216673625678554e-13 0 0)
(8.690525897709825e-15 0 0)
(9.559578487474912e-14 0 0)
(2.43334725135721e-13 0 0)
(2.694063028288084e-13 0 0)
(1.303578884655636e-13 0 0)
(1.825010438517857e-13 0 0)
(1.129768366701457e-13 0 0)
(1.477389402609691e-13 0 0)
(1.998820956472039e-13 0 0)
(1.82501043851791e-13 0 0)
(1.825010438517944e-13 0 0)
(7.821473307933429e-14 0 0)
(7.821473307933959e-14 0 0)
(1.390484143632666e-13 0 0)
(2.172631474425746e-13 0 0)
(6.083368128393713e-14 0 0)
(1.998820956471955e-13 0 0)
(1.911915697494993e-13 0 0)
(2.085726215449063e-13 0 0)
(3.21549458215006e-13 0 0)
(3.736926136012892e-13 0 0)
(2.954778805219484e-13 0 0)
(3.736926136012675e-13 0 0)
(3.997641912944044e-13 0 0)
(5.648841833507654e-13 0 0)
(4.692883984760389e-13 0 0)
(3.389305100104521e-13 0 0)
(3.128589323173383e-13 0 0)
(2.346441992380187e-13 0 0)
(2.259536733403109e-13 0 0)
(2.867873546242118e-13 0 0)
(1.651199920563851e-13 0 0)
(1.738105179540821e-13 0 0)
(1.998820956472003e-13 0 0)
(1.738105179540741e-13 0 0)
(1.129768366701397e-13 0 0)
(6.95242071816345e-14 0 0)
(4.345262948852389e-14 0 0)
(8.690525897703502e-14 0 0)
(1.651199920563701e-13 0 0)
(-1.738105179540831e-14 0 0)
(-4.34526294885203e-14 0 0)
(-9.559578487474806e-14 0 0)
(-6.083368128392355e-14 0 0)
(-9.559578487474638e-14 0 0)
(-1.216673625678668e-13 0 0)
(-2.259536733402939e-13 0 0)
(-1.911915697494941e-13 0 0)
(2.607157769310172e-14 0 0)
(1.390484143632501e-13 0 0)
(-1.738105179541354e-14 0 0)
(-8.690525897703536e-14 0 0)
(-8.690525897702823e-15 0 0)
(9.559578487473715e-14 0 0)
(4.34526294885183e-14 0 0)
(3.476210359082597e-14 0 0)
(-5.214315538621787e-14 0 0)
(-1.390484143632592e-13 0 0)
(-1.651199920563798e-13 0 0)
(-2.607157769311031e-13 0 0)
(-2.085726215449074e-13 0 0)
(-1.564294661586748e-13 0 0)
(-1.216673625678617e-13 0 0)
(-8.690525897704367e-14 0 0)
(-4.345262948852362e-14 0 0)
(-8.690525897711944e-15 0 0)
(-4.345262948852514e-14 0 0)
(-1.390484143632645e-13 0 0)
(-7.821473307934924e-14 0 0)
(-1.303578884655652e-13 0 0)
(-2.694063028288339e-13 0 0)
(-2.520252510334278e-13 0 0)
(-2.694063028288036e-13 0 0)
(-3.389305100104849e-13 0 0)
(-3.041684064196479e-13 0 0)
(-3.128589323173354e-13 0 0)
(-3.997641912943959e-13 0 0)
(-3.650020877035758e-13 0 0)
(-4.084547171920915e-13 0 0)
(-3.389305100104557e-13 0 0)
(-2.172631474425899e-13 0 0)
(-1.477389402609713e-13 0 0)
(-1.738105179541504e-14 0 0)
(-4.345262948851279e-14 0 0)
(6.952420718163415e-14 0 0)
(1.477389402609721e-13 0 0)
(2.694063028288312e-13 0 0)
(2.867873546242375e-13 0 0)
(3.650020877035337e-13 0 0)
(3.563115618058842e-13 0 0)
(4.258357689874936e-13 0 0)
(4.519073466805881e-13 0 0)
(3.04168406419655e-13 0 0)
(4.084547171921068e-13 0 0)
(4.605978725783277e-13 0 0)
(4.779789243737203e-13 0 0)
(4.258357689874962e-13 0 0)
(3.650020877035679e-13 0 0)
(2.954778805219592e-13 0 0)
(3.041684064196253e-13 0 0)
(4.171452430898175e-13 0 0)
(2.607157769311301e-13 0 0)
(1.825010438517939e-13 0 0)
(9.559578487475696e-14 0 0)
(1.129768366701436e-13 0 0)
(4.345262948852468e-14 0 0)
(-3.476210359081334e-14 0 0)
(6.083368128392122e-14 0 0)
(-8.690525897704593e-15 0 0)
(-5.214315538622659e-14 0 0)
(-3.476210359081867e-14 0 0)
(-7.821473307933678e-14 0 0)
(-4.345262948851914e-14 0 0)
(-4.345262948852578e-14 0 0)
(-1.042863107724616e-13 0 0)
(-9.559578487474234e-14 0 0)
(-6.083368128393042e-14 0 0)
(-1.7381051795409e-13 0 0)
(-1.651199920563822e-13 0 0)
(-1.477389402609724e-13 0 0)
(-1.303578884655525e-13 0 0)
(-5.214315538623076e-14 0 0)
(-6.083368128393354e-14 0 0)
(-9.559578487474141e-14 0 0)
(-5.214315538623148e-14 0 0)
(8.690525897704005e-14 0 0)
(4.345262948852228e-14 0 0)
(1.216673625678617e-13 0 0)
(8.690525897704071e-14 0 0)
(1.825010438517753e-13 0 0)
(2.867873546242608e-13 0 0)
(2.867873546242101e-13 0 0)
(3.389305100104634e-13 0 0)
(3.650020877035731e-13 0 0)
(3.476210359081661e-13 0 0)
(3.30239984112771e-13 0 0)
(2.520252510333889e-13 0 0)
(2.259536733403315e-13 0 0)
(2.867873546242174e-13 0 0)
(3.041684064196407e-13 0 0)
(2.780968287265298e-13 0 0)
(2.520252510334111e-13 0 0)
(1.303578884655643e-13 0 0)
(1.911915697494807e-13 0 0)
(2.172631474425858e-13 0 0)
(1.216673625678435e-13 0 0)
(8.690525897704896e-14 0 0)
(1.216673625678437e-13 0 0)
(3.476210359081708e-14 0 0)
(-1.216673625678512e-13 0 0)
(-9.559578487474489e-14 0 0)
(-2.433347251357106e-13 0 0)
(-1.998820956471672e-13 0 0)
(-2.780968287265609e-13 0 0)
(-3.563115618058481e-13 0 0)
(-3.56311561805856e-13 0 0)
(-3.215494582150516e-13 0 0)
(-2.954778805219579e-13 0 0)
(-3.650020877035624e-13 0 0)
(-2.694063028288268e-13 0 0)
(-3.128589323173521e-13 0 0)
(-1.998820956471883e-13 0 0)
(-1.73810517954107e-13 0 0)
(-2.520252510333963e-13 0 0)
(-2.694063028288364e-13 0 0)
(-1.477389402609769e-13 0 0)
(-7.82147330793368e-14 0 0)
(-1.12976836670163e-13 0 0)
(1.042863107724437e-13 0 0)
(-6.952420718163466e-14 0 0)
(-4.345262948851259e-14 0 0)
(-6.952420718163124e-14 0 0)
(4.345262948852658e-14 0 0)
(4.345262948852787e-14 0 0)
(1.390484143632712e-13 0 0)
(3.91073665396695e-13 0 0)
(2.433347251357201e-13 0 0)
(2.259536733402729e-13 0 0)
(2.34644199238029e-13 0 0)
(2.86787354624243e-13 0 0)
(2.954778805220027e-13 0 0)
(2.172631474426047e-13 0 0)
(9.559578487475912e-14 0 0)
(3.476210359082346e-14 0 0)
(9.559578487475247e-14 0 0)
(4.345262948853219e-14 0 0)
(2.172631474426201e-13 0 0)
(1.47738940260976e-13 0 0)
(2.259536733403057e-13 0 0)
(3.302399841127603e-13 0 0)
(2.867873546241847e-13 0 0)
(1.998820956471947e-13 0 0)
(2.085726215449018e-13 0 0)
(3.476210359082022e-14 0 0)
(-3.476210359081477e-14 0 0)
(-1.129768366701528e-13 0 0)
(-2.172631474426093e-13 0 0)
(-1.216673625678614e-13 0 0)
(-1.390484143632655e-13 0 0)
(-1.303578884655479e-13 0 0)
(-2.433347251357299e-13 0 0)
(-3.21549458215052e-13 0 0)
(-3.302399841127672e-13 0 0)
(-3.823831394989965e-13 0 0)
(-3.476210359081675e-13 0 0)
(-3.215494582150562e-13 0 0)
(-2.172631474425668e-13 0 0)
(-3.476210359081882e-13 0 0)
(-4.345262948852105e-13 0 0)
(-4.171452430898083e-13 0 0)
(-3.215494582150571e-13 0 0)
(-1.390484143632722e-13 0 0)
(-1.651199920563915e-13 0 0)
(5.21431553862145e-14 0 0)
(-1.73810517954117e-14 0 0)
(-2.607157769310423e-14 0 0)
(-2.607157769310792e-14 0 0)
(9.559578487474533e-14 0 0)
(2.346441992380211e-13 0 0)
(2.259536733403065e-13 0 0)
(3.215494582150462e-13 0 0)
(2.259536733403103e-13 0 0)
(2.259536733402723e-13 0 0)
(9.559578487474878e-14 0 0)
(6.952420718163376e-14 0 0)
(1.738105179540954e-14 0 0)
(-1.738105179539986e-14 0 0)
(1.04286310772456e-13 0 0)
(5.214315538623558e-14 0 0)
(1.042863107724607e-13 0 0)
(4.345262948853036e-14 0 0)
(1.129768366701406e-13 0 0)
(1.390484143632797e-13 0 0)
(5.129101107413857e-27 0 0)
(-6.083368128392545e-14 0 0)
(-1.39048414363265e-13 0 0)
(-9.5595784874743e-14 0 0)
(-1.303578884655688e-13 0 0)
(-8.690525897708083e-15 0 0)
(8.690525897705201e-15 0 0)
(-6.952420718162825e-14 0 0)
(-1.216673625678552e-13 0 0)
(-3.476210359080992e-14 0 0)
(-6.952420718162975e-14 0 0)
(-1.738105179540957e-13 0 0)
(-1.998820956472012e-13 0 0)
(-3.736926136012981e-13 0 0)
(-2.954778805219031e-13 0 0)
(-3.128589323173603e-13 0 0)
(-2.34644199238014e-13 0 0)
(-1.911915697494909e-13 0 0)
(-2.085726215448911e-13 0 0)
(-3.476210359081474e-14 0 0)
(-8.690525897704255e-14 0 0)
(-8.690525897702826e-14 0 0)
(-1.825010438517878e-13 0 0)
(-1.998820956471903e-13 0 0)
(-1.303578884655551e-13 0 0)
(-6.083368128392485e-14 0 0)
(-6.083368128392396e-14 0 0)
(-1.39048414363257e-13 0 0)
(-8.690525897700665e-15 0 0)
(-2.085726215449004e-13 0 0)
(-1.390484143632394e-13 0 0)
(-1.651199920563823e-13 0 0)
(-1.651199920563874e-13 0 0)
(-2.520252510334208e-13 0 0)
(-3.910736653966778e-13 0 0)
(-4.953599761691384e-13 0 0)
(-4.084547171921107e-13 0 0)
(-2.867873546242121e-13 0 0)
(-3.476210359081862e-13 0 0)
(-2.780968287265497e-13 0 0)
(-3.823831394989936e-13 0 0)
(-3.997641912943628e-13 0 0)
(-5.214315538622516e-13 0 0)
(-4.953599761691388e-13 0 0)
(-4.084547171921092e-13 0 0)
(-3.650020877035275e-13 0 0)
(-2.867873546242477e-13 0 0)
(-3.041684064196422e-13 0 0)
(-4.171452430898117e-13 0 0)
(-4.866694502713765e-13 0 0)
(-3.736926136012887e-13 0 0)
(-3.041684064196573e-13 0 0)
(-3.215494582150561e-13 0 0)
(-3.128589323173441e-13 0 0)
(-3.997641912943879e-13 0 0)
(-3.38930510010475e-13 0 0)
(-4.779789243737381e-13 0 0)
(-5.735747092484263e-13 0 0)
(-5.996462869415914e-13 0 0)
(-5.47503131555366e-13 0 0)
(-5.214315538622529e-13 0 0)
(-5.735747092484714e-13 0 0)
(-5.822652351461204e-13 0 0)
(-5.301220797599503e-13 0 0)
(-4.258357689875181e-13 0 0)
(-4.345262948851999e-13 0 0)
(-4.084547171920748e-13 0 0)
(-3.563115618058625e-13 0 0)
(-3.910736653966842e-13 0 0)
(-3.041684064196438e-13 0 0)
(-4.0845471719206e-13 0 0)
(-3.99764191294392e-13 0 0)
(-3.302399841127628e-13 0 0)
(-2.954778805219409e-13 0 0)
(-5.214315538622038e-13 0 0)
(-4.345262948852097e-13 0 0)
(-3.910736653966933e-13 0 0)
(-3.389305100104783e-13 0 0)
(-3.21549458215032e-13 0 0)
(-3.30239984112754e-13 0 0)
(-1.390484143632747e-13 0 0)
(-1.998820956471921e-13 0 0)
(-2.172631474425859e-13 0 0)
(-2.780968287265394e-13 0 0)
(-2.520252510334284e-13 0 0)
(-2.694063028288356e-13 0 0)
(-3.476210359081714e-13 0 0)
(-3.389305100104473e-13 0 0)
(-2.43334725135717e-13 0 0)
(-1.129768366701663e-13 0 0)
(-2.346441992380125e-13 0 0)
(-3.563115618058437e-13 0 0)
(-3.650020877035813e-13 0 0)
(-2.954778805219322e-13 0 0)
(-2.346441992380247e-13 0 0)
(-2.085726215448917e-13 0 0)
(-3.041684064196591e-13 0 0)
(-3.215494582150633e-13 0 0)
(-1.911915697495011e-13 0 0)
(-3.650020877035478e-13 0 0)
(-4.519073466806236e-13 0 0)
(-4.866694502714394e-13 0 0)
(-4.779789243737314e-13 0 0)
(-5.735747092484368e-13 0 0)
(-6.952420718162996e-13 0 0)
(-6.952420718163252e-13 0 0)
(-7.039325977140372e-13 0 0)
(-5.73574709248438e-13 0 0)
(-5.822652351461507e-13 0 0)
(-5.040505020668357e-13 0 0)
(-5.735747092484723e-13 0 0)
(-6.604799682255168e-13 0 0)
(-6.257178646346454e-13 0 0)
(-6.517894423278142e-13 0 0)
(-7.473852272025792e-13 0 0)
(-8.777431156680899e-13 0 0)
(-8.777431156680374e-13 0 0)
(-1.01679153003141e-12 0 0)
(-1.199292573883172e-12 0 0)
(-1.286197832860169e-12 0 0)
(-1.242745203371544e-12 0 0)
(-1.181911522087803e-12 0 0)
(-1.225364151576298e-12 0 0)
(-1.129768366701546e-12 0 0)
(-1.225364151576213e-12 0 0)
(-1.112387314906095e-12 0 0)
(-1.008101004133687e-12 0 0)
(-1.025482055929115e-12 0 0)
(-1.129768366701443e-12 0 0)
(-1.303578884655579e-12 0 0)
(-1.364412565939561e-12 0 0)
(-1.512151506200477e-12 0 0)
(-1.460008350814264e-12 0 0)
(-1.512151506200542e-12 0 0)
(-1.720724127745377e-12 0 0)
)
;

boundaryField
{
    inlet
    {
        type            zeroGradient;
    }
    outlet
    {
        type            pressureInletOutletVelocity;
        value           uniform (-1.720724127745377e-12 0 0);
    }
    frontAndBack
    {
        type            empty;
    }
}


// ************************************************************************* //
