/*--------------------------------*- C++ -*----------------------------------*\
| =========                 |                                                 |
| \\      /  F ield         | OpenFOAM: The Open Source CFD Toolbox           |
|  \\    /   O peration     | Version:  v2012                                 |
|   \\  /    A nd           | Website:  www.openfoam.com                      |
|    \\/     M anipulation  |                                                 |
\*---------------------------------------------------------------------------*/
FoamFile
{
    version     2.0;
    format      ascii;
    class       volVectorField;
    location    "0.001";
    object      UMean;
}
// * * * * * * * * * * * * * * * * * * * * * * * * * * * * * * * * * * * * * //

dimensions      [0 1 -1 0 0 0 0];


internalField   nonuniform List<vector> 
1000
(
(-0.0002059244525933889 0 0)
(0.0002282446025623503 0 0)
(0.0003677055902955295 0 0)
(0.0007424575354457917 0 0)
(0.001179654410075549 0 0)
(0.001731349290582565 0 0)
(0.00237155621109728 0 0)
(0.003086291555694143 0 0)
(0.003868354367865653 0 0)
(0.004701187771148158 0 0)
(0.005563414488674404 0 0)
(0.006427156145138557 0 0)
(0.007289871297509636 0 0)
(0.008138340826931392 0 0)
(0.008965114003962806 0 0)
(0.009746570606510263 0 0)
(0.01047177185598053 0 0)
(0.0111200423447575 0 0)
(0.01168508868421069 0 0)
(0.01215172656941791 0 0)
(0.01251713204170138 0 0)
(0.01276964929054722 0 0)
(0.01290949814127277 0 0)
(0.01292907822487722 0 0)
(0.01283253094265223 0 0)
(0.01261716644184145 0 0)
(0.0122915767256601 0 0)
(0.01185733910634911 0 0)
(0.01132517443600166 0 0)
(0.0106974957870435 0 0)
(0.009985016784000255 0 0)
(0.009196885325259597 0 0)
(0.008363943150035474 0 0)
(0.007515038032241724 0 0)
(0.006667559265414878 0 0)
(0.005821796213338272 0 0)
(0.004984794564459473 0 0)
(0.004165731136109228 0 0)
(0.003379060622052485 0 0)
(0.002641278509873653 0 0)
(0.001970242228526646 0 0)
(0.00138168158076289 0 0)
(0.0008888471624926966 0 0)
(0.0005010088938027002 0 0)
(0.0002248942264014443 0 0)
(6.447559822083819e-05 0 0)
(2.219154267359979e-05 0 0)
(9.832879443128018e-05 0 0)
(0.0002916168243202941 0 0)
(0.000598744571241983 0 0)
(0.001015427424634049 0 0)
(0.001536824704289831 0 0)
(0.002158274423261195 0 0)
(0.002872180065316685 0 0)
(0.00366046149586122 0 0)
(0.004489289666473582 0 0)
(0.005327696847942338 0 0)
(0.006165738837115248 0 0)
(0.007001789892495458 0 0)
(0.007829617890369005 0 0)
(0.008642704109599149 0 0)
(0.009426999956067005 0 0)
(0.01016954137447679 0 0)
(0.01085149304169917 0 0)
(0.01145816528206427 0 0)
(0.01197244581522229 0 0)
(0.01238441721326201 0 0)
(0.01268366477110574 0 0)
(0.01286729239501315 0 0)
(0.01293123505420203 0 0)
(0.01287754842227285 0 0)
(0.01270601847648394 0 0)
(0.01242128556998124 0 0)
(0.01202462554004439 0 0)
(0.01152087502194483 0 0)
(0.01091200254054404 0 0)
(0.0102078628694261 0 0)
(0.00942721647465063 0 0)
(0.00860743854721897 0 0)
(0.007777697806504426 0 0)
(0.006948864986141562 0 0)
(0.006121771979197478 0 0)
(0.005300978606220191 0 0)
(0.004493503014182291 0 0)
(0.003709750385237409 0 0)
(0.002963146145949913 0 0)
(0.002269305727849106 0 0)
(0.001644872491370148 0 0)
(0.00110591254834894 0 0)
(0.000666474318738509 0 0)
(0.0003374437503985851 0 0)
(0.0001259848871790397 0 0)
(3.563971921075527e-05 0 0)
(6.692662079124711e-05 0 0)
(0.0002183273643505515 0 0)
(0.0004872766354949633 0 0)
(0.00087097102088379 0 0)
(0.001366784592011105 0 0)
(0.00197093310634509 0 0)
(0.002674073501861227 0 0)
(0.003452287610152957 0 0)
(0.004267274258622977 0 0)
(0.005089600125295295 0 0)
(0.005911596633696871 0 0)
(0.006731905735795221 0 0)
(0.007545828692305491 0 0)
(0.008348070252999893 0 0)
(0.009127805839971503 0 0)
(0.009874095566056307 0 0)
(0.01057106799687616 0 0)
(0.01120425206188319 0 0)
(0.01175645837560908 0 0)
(0.01221449350969781 0 0)
(0.01256510159406448 0 0)
(0.01280103519490607 0 0)
(0.01291608771760192 0 0)
(0.01290991554019774 0 0)
(0.0127821186941529 0 0)
(0.01253618175474041 0 0)
(0.01217339987110834 0 0)
(0.01169740029595718 0 0)
(0.01111047923996838 0 0)
(0.01042300601827641 0 0)
(0.009656873750373425 0 0)
(0.00885138811849792 0 0)
(0.008036369007946423 0 0)
(0.00722192469851772 0 0)
(0.006408873291965788 0 0)
(0.005600835297520013 0 0)
(0.00480348561092638 0 0)
(0.004025421308613064 0 0)
(0.003277973721881202 0 0)
(0.002574889113543282 0 0)
(0.001931597382913552 0 0)
(0.001364102495012446 0 0)
(0.0008874960213955994 0 0)
(0.0005140228801367574 0 0)
(0.0002503094631781227 0 0)
(9.288740337843727e-05 0 0)
(2.22160329049622e-05 0 0)
(2.63087476500008e-06 0 0)
(1.078699139422913e-07 0 0)
(1.01774516098832e-09 0 0)
(1.529832662484211e-12 0 0)
(6.466001354968062e-14 0 0)
(3.997641912943418e-14 0 0)
(1.227927544107261e-13 0 0)
(1.634319042920646e-14 0 0)
(8.317896154176751e-14 0 0)
(2.65842561993071e-14 0 0)
(6.689829288160612e-14 0 0)
(5.136788545002629e-14 0 0)
(1.173283517958976e-13 0 0)
(8.487955365987729e-14 0 0)
(1.198167182040261e-13 0 0)
(7.196255617451681e-14 0 0)
(7.333803509357097e-14 0 0)
(1.602683027782355e-13 0 0)
(1.288823747160212e-13 0 0)
(1.452755825604657e-13 0 0)
(1.508400200057698e-13 0 0)
(1.291324617921994e-13 0 0)
(1.770366412369733e-13 0 0)
(1.674207931573463e-13 0 0)
(1.868775676851687e-13 0 0)
(4.76290836609433e-14 0 0)
(1.049740502319809e-13 0 0)
(8.97937647070736e-14 0 0)
(9.795910774476208e-14 0 0)
(1.340591771932201e-13 0 0)
(1.59117902227741e-13 0 0)
(1.489643669343312e-13 0 0)
(1.213047363073629e-13 0 0)
(1.648824093340066e-13 0 0)
(3.755057449036469e-14 0 0)
(5.620707037436114e-14 0 0)
(-2.177007998259367e-14 0 0)
(-3.861344456418738e-14 0 0)
(-2.239529767307466e-14 0 0)
(-6.68982928816093e-14 0 0)
(-6.849885016923996e-14 0 0)
(-1.944802148014172e-13 0 0)
(-7.068711208593155e-14 0 0)
(-1.513151854505209e-13 0 0)
(-9.276980091375914e-14 0 0)
(-1.570921969105913e-13 0 0)
(-1.337590727017687e-13 0 0)
(-1.801377209817794e-13 0 0)
(-1.363474739403642e-13 0 0)
(-2.3609470427995e-13 0 0)
(-1.537285257357784e-13 0 0)
(-1.329838027655873e-13 0 0)
(-1.125016712253882e-13 0 0)
(-8.996882566039849e-14 0 0)
(-6.994935521115654e-14 0 0)
(-7.833977661743744e-14 0 0)
(-1.280445830107782e-14 0 0)
(-1.830137223579756e-13 0 0)
(-1.217924061059484e-14 0 0)
(-1.882655509580373e-13 0 0)
(-8.176596956127129e-14 0 0)
(-1.356847431884749e-13 0 0)
(-7.092469480830421e-14 0 0)
(-7.949017716792699e-14 0 0)
(-7.700181075979475e-14 0 0)
(-6.407230892062514e-14 0 0)
(-4.297746404375156e-14 0 0)
(1.127892713630299e-14 0 0)
(-1.224051194426225e-13 0 0)
(-8.527969298178134e-14 0 0)
(-1.288948790698373e-13 0 0)
(-1.432623815970997e-13 0 0)
(-1.702967945335782e-13 0 0)
(-1.761613364702832e-13 0 0)
(-1.590428761048857e-13 0 0)
(-1.872902113608702e-13 0 0)
(-1.606684421001419e-13 0 0)
(-2.350818516213532e-13 0 0)
(-2.443725865019022e-13 0 0)
(-2.627914996635236e-13 0 0)
(-2.443100647328538e-13 0 0)
(-2.189762439145272e-13 0 0)
(-1.701967597030971e-13 0 0)
(-1.426871813218676e-13 0 0)
(-1.213047363073794e-13 0 0)
(-7.218763454308534e-14 0 0)
(-6.518519640968868e-14 0 0)
(-5.315600804480398e-14 0 0)
(-1.7068442950166e-14 0 0)
(7.127481671498381e-15 0 0)
(-2.16325320906895e-14 0 0)
(-4.238975941469166e-15 0 0)
(2.283295005641445e-14 0 0)
(9.16569134246912e-15 0 0)
(-1.691839070445246e-14 0 0)
(-2.071971426258502e-14 0 0)
(-2.262037604164852e-14 0 0)
(-2.223274107355333e-14 0 0)
(-6.127133366721313e-16 0 0)
(2.820982219456235e-14 0 0)
(2.573396014025033e-14 0 0)
(7.361313087738414e-14 0 0)
(-3.368672916318806e-14 0 0)
(3.603754767939767e-14 0 0)
(3.28239287503204e-14 0 0)
(5.519421771577774e-14 0 0)
(4.607854378854722e-14 0 0)
(1.224176237964181e-14 0 0)
(4.985485863905695e-14 0 0)
(6.104625529869491e-14 0 0)
(8.995632130659524e-14 0 0)
(2.926018791456985e-14 0 0)
(6.69983277120774e-14 0 0)
(4.082671518849464e-14 0 0)
(1.480515491061826e-14 0 0)
(3.478711229843374e-14 0 0)
(1.37672935444183e-14 0 0)
(2.658425619930595e-14 0 0)
(8.394172712415406e-14 0 0)
(7.605147987026298e-14 0 0)
(8.296638752700195e-14 0 0)
(1.10951131352984e-13 0 0)
(1.048114936324584e-13 0 0)
(1.020855445019406e-13 0 0)
(1.089754434510662e-13 0 0)
(9.349505343472114e-14 0 0)
(1.370727264613359e-13 0 0)
(-1.312957150013146e-14 0 0)
(5.264332953860309e-14 0 0)
(1.573047709253376e-14 0 0)
(4.511570854519976e-14 0 0)
(6.519770076349349e-14 0 0)
(6.030849842391973e-14 0 0)
(9.622100256522795e-14 0 0)
(1.178410303021079e-13 0 0)
(1.295576098217364e-13 0 0)
(3.483712971367313e-14 0 0)
(3.748805272131803e-14 0 0)
(1.351720646822774e-14 0 0)
(-9.053152158183979e-15 0 0)
(2.482114231214653e-14 0 0)
(1.566795532348511e-14 0 0)
(-2.026955752543888e-14 0 0)
(-3.670027843131164e-14 0 0)
(-5.67947750034178e-14 0 0)
(-4.502817806853553e-14 0 0)
(-2.719696953598274e-14 0 0)
(-4.091424566516152e-14 0 0)
(-2.247032379593781e-14 0 0)
(-1.180410999630649e-14 0 0)
(1.101633570629837e-14 0 0)
(1.045614065562596e-13 0 0)
(2.279543699498649e-14 0 0)
(1.444002777937868e-13 0 0)
(5.711988820246645e-14 0 0)
(1.281446178412427e-13 0 0)
(4.891703210334125e-14 0 0)
(9.34450360194767e-14 0 0)
(4.500316936091908e-14 0 0)
(7.490107931978986e-15 0 0)
(-3.177356303031009e-14 0 0)
(-4.847937971999215e-14 0 0)
(-4.63161265109309e-14 0 0)
(-4.544082174424858e-14 0 0)
(-6.093371611440731e-14 0 0)
(-6.631058825254527e-14 0 0)
(-5.974580250249318e-14 0 0)
(-5.016746748429777e-14 0 0)
(-6.846133710781061e-14 0 0)
(-3.30114940574562e-15 0 0)
(-1.051741198929378e-13 0 0)
(-4.012647137515045e-14 0 0)
(-4.560337834378212e-14 0 0)
(-4.792918815236874e-14 0 0)
(-4.680379630950598e-14 0 0)
(-5.636962697388215e-14 0 0)
(-3.993890606800778e-14 0 0)
(-3.655022618559166e-14 0 0)
(-6.632309260636721e-14 0 0)
(-8.626753693273834e-14 0 0)
(-8.234116983652545e-14 0 0)
(-7.48885749659632e-14 0 0)
(-6.364716089110248e-14 0 0)
(-7.986530778220191e-14 0 0)
(-1.279570525341145e-13 0 0)
(-8.68802502694175e-14 0 0)
(-1.933673273123778e-13 0 0)
(-1.749359097969337e-13 0 0)
(-2.005948438143499e-13 0 0)
(-1.560418311905662e-13 0 0)
(-1.249184945583665e-13 0 0)
(-9.947213455573153e-14 0 0)
(-9.036896498231616e-14 0 0)
(-6.786112812494695e-14 0 0)
(-6.768606717161561e-14 0 0)
(-3.600003461797024e-14 0 0)
(1.809379996255964e-14 0 0)
(1.808129560874846e-14 0 0)
(3.544984305035182e-14 0 0)
(6.533524865540039e-14 0 0)
(6.929912881306295e-14 0 0)
(1.284072092712505e-13 0 0)
(3.313653759556808e-15 0 0)
(6.696081465065773e-14 0 0)
(9.728387263905082e-14 0 0)
(1.3052044506508e-13 0 0)
(1.063370247972326e-13 0 0)
(9.64960983490449e-14 0 0)
(8.07656212565e-14 0 0)
(4.905457999524414e-14 0 0)
(3.722546129132098e-14 0 0)
(3.148596289269125e-14 0 0)
(7.979028165935295e-14 0 0)
(-4.626610909568531e-14 0 0)
(2.680933456788448e-14 0 0)
(-1.099132699867686e-14 0 0)
(-3.995141042181387e-14 0 0)
(-1.646823396730434e-14 0 0)
(2.148247984497311e-14 0 0)
(3.289895487318028e-14 0 0)
(9.92845692485954e-15 0 0)
(4.985485863905503e-14 0 0)
(1.640571219825596e-14 0 0)
(6.209662101870222e-14 0 0)
(6.193406441917667e-14 0 0)
(3.509972114367527e-14 0 0)
(2.174507127497402e-14 0 0)
(2.812229171789395e-14 0 0)
(5.151793769574071e-14 0 0)
(3.40493554236635e-14 0 0)
(2.542135129501014e-14 0 0)
(2.848491797837203e-14 0 0)
(3.583747801844071e-14 0 0)
(5.958324590296234e-14 0 0)
(5.485660016291833e-14 0 0)
(3.595001720273113e-14 0 0)
(2.654674313787596e-14 0 0)
(1.332839072570079e-13 0 0)
(1.017854400104962e-14 0 0)
(7.415081809120259e-14 0 0)
(7.735193266646183e-14 0 0)
(8.441689256891757e-14 0 0)
(8.040299499602405e-14 0 0)
(5.768258412389369e-14 0 0)
(5.343110382861433e-14 0 0)
(3.412438154652017e-14 0 0)
(5.075517211334945e-14 0 0)
(-2.876001376253379e-16 0 0)
(4.942971060952509e-14 0 0)
(1.486767667966613e-14 0 0)
(1.688087764302023e-14 0 0)
(2.000696609543144e-14 0 0)
(2.275792393353923e-15 0 0)
(1.110386618296317e-14 0 0)
(-7.052455548642057e-15 0 0)
(3.638766958605836e-15 0 0)
(-7.58264015016888e-14 0 0)
(-6.756102363351942e-14 0 0)
(-9.923455183335328e-14 0 0)
(-7.617652340837038e-14 0 0)
(-2.947276192933898e-14 0 0)
(-1.15040055048744e-14 0 0)
(3.232375459793334e-14 0 0)
(-3.264886779698803e-14 0 0)
(2.128241018401563e-14 0 0)
(1.850644363827617e-14 0 0)
(7.537624476455285e-14 0 0)
(2.779717851884252e-14 0 0)
(3.394932059318746e-14 0 0)
(3.613758250987857e-14 0 0)
(4.821678828999583e-14 0 0)
(3.58624867260651e-14 0 0)
(2.342065468546497e-14 0 0)
(4.246478553756425e-14 0 0)
(-1.560543355443549e-14 0 0)
(1.934423534352395e-14 0 0)
(1.190414482678445e-14 0 0)
(-2.29830023021289e-14 0 0)
(-1.80437825473168e-14 0 0)
(8.27788222198819e-15 0 0)
(1.748108662588603e-14 0 0)
(-1.604308593777534e-14 0 0)
(2.579648190930018e-14 0 0)
(2.207018447402617e-14 0 0)
(2.338314162405764e-15 0 0)
(-5.464402614813412e-15 0 0)
(3.339912902556457e-14 0 0)
(7.152490379119921e-15 0 0)
(7.502612285790201e-15 0 0)
(9.303239234378518e-15 0 0)
(-3.101079744790387e-15 0 0)
(1.751859968731582e-14 0 0)
(1.485517232585923e-14 0 0)
(-2.535882952596206e-14 0 0)
(-6.050856808487653e-14 0 0)
(-1.030733884529085e-13 0 0)
(-3.11733540474463e-14 0 0)
(-1.691839070445262e-13 0 0)
(-1.002474044919301e-13 0 0)
(-1.695840463664165e-13 0 0)
(-1.166030992749504e-13 0 0)
(-1.848143493065677e-13 0 0)
(-1.699591769807105e-13 0 0)
(-2.07984916915846e-13 0 0)
(-1.952429803838056e-13 0 0)
(-2.216146625683762e-13 0 0)
(-1.997695564629004e-13 0 0)
(-1.94367675617139e-13 0 0)
(-2.01670218241962e-13 0 0)
(-2.431596641823894e-13 0 0)
(-2.785469854636758e-13 0 0)
(-2.630916041549529e-13 0 0)
(-2.594653415501451e-13 0 0)
(-2.547386958101314e-13 0 0)
(-2.122614059187341e-13 0 0)
(-2.592152544739526e-13 0 0)
(-1.796750598908033e-13 0 0)
(-2.64166978582592e-13 0 0)
(-2.590151848130076e-13 0 0)
(-3.151847421259268e-13 0 0)
(-2.936147318042896e-13 0 0)
(-2.729450349569744e-13 0 0)
(-2.601280723020585e-13 0 0)
(-2.49912015239582e-13 0 0)
(-2.459481350819237e-13 0 0)
(-2.298675360827277e-13 0 0)
(-1.970436073323991e-13 0 0)
(-1.922294311156859e-13 0 0)
(-1.530908036915081e-13 0 0)
(-1.303828971731809e-13 0 0)
(-8.422932726176887e-14 0 0)
(-7.190003440546508e-14 0 0)
(-4.757906624570176e-14 0 0)
(-1.382981531346596e-14 0 0)
(1.818133043922917e-14 0 0)
(1.655576444397279e-14 0 0)
(-3.738801789082065e-15 0 0)
(1.227927544107389e-14 0 0)
(4.846687536618781e-14 0 0)
(5.922061964248733e-14 0 0)
(5.08552069438349e-14 0 0)
(5.33060602905203e-14 0 0)
(6.526022253254647e-14 0 0)
(2.835987444028026e-14 0 0)
(-1.813131302396209e-15 0 0)
(-1.938174840493148e-15 0 0)
(5.86454193672547e-15 0 0)
(-3.638766958605843e-15 0 0)
(-3.87885055175217e-14 0 0)
(-2.308303713260508e-14 0 0)
(1.061619638438985e-14 0 0)
(3.347415514842382e-14 0 0)
(2.497119455786339e-14 0 0)
(2.078223603163216e-14 0 0)
(2.527129904929241e-14 0 0)
(1.753110404112322e-14 0 0)
(2.996043172791138e-14 0 0)
(4.469056051567176e-14 0 0)
(1.966934854257213e-14 0 0)
(-1.789373030160407e-14 0 0)
(-3.996391477563035e-14 0 0)
(-5.968328073344328e-14 0 0)
(-6.404730021300422e-14 0 0)
(-6.278436047823595e-14 0 0)
(-6.447244824253781e-14 0 0)
(-6.33970738149035e-14 0 0)
(-4.9529745440011e-14 0 0)
(-5.078018082097537e-14 0 0)
(-6.66982232206558e-14 0 0)
(-4.49156388842524e-14 0 0)
(-2.485865537357677e-14 0 0)
(-1.317958891536915e-14 0 0)
(-3.853841844133208e-14 0 0)
(-4.28899335670856e-14 0 0)
(-1.728101696493358e-14 0 0)
(-9.803413386764874e-15 0 0)
(-2.382079400737871e-14 0 0)
(-6.993685085735519e-14 0 0)
(-6.907405044448315e-14 0 0)
(-5.300595579909387e-14 0 0)
(-6.933664187449046e-14 0 0)
(-7.517617510358982e-14 0 0)
(-6.020846359344893e-14 0 0)
(-3.393681623938244e-14 0 0)
(-5.186805960241477e-14 0 0)
(-4.346513384233234e-14 0 0)
(-2.270790651831774e-14 0 0)
(8.765552020560334e-15 0 0)
(2.065719249353465e-14 0 0)
(3.289895487317606e-14 0 0)
(5.681978371103232e-14 0 0)
(7.790212423409681e-14 0 0)
(9.473298446188197e-14 0 0)
(9.950964761716575e-14 0 0)
(8.032796887316195e-14 0 0)
(8.899348606325343e-14 0 0)
(1.079500864386778e-13 0 0)
(1.479390099219131e-13 0 0)
(1.732603263864613e-13 0 0)
(1.591429109353674e-13 0 0)
(1.415993025404398e-13 0 0)
(1.243808073445495e-13 0 0)
(9.963469115525131e-14 0 0)
(1.057243114605628e-13 0 0)
(9.738390746952792e-14 0 0)
(1.048239979862559e-13 0 0)
(1.229928240716799e-13 0 0)
(1.078125385467739e-13 0 0)
(7.687676722170521e-14 0 0)
(5.283089484575724e-14 0 0)
(6.724841478827207e-14 0 0)
(6.097122917583837e-14 0 0)
(3.52122603279637e-14 0 0)
(4.867944938095018e-14 0 0)
(2.777216981122521e-14 0 0)
(4.419038636329242e-14 0 0)
(4.796670121380331e-14 0 0)
(3.853841844133254e-14 0 0)
(2.224524542735926e-14 0 0)
(-7.66516888531164e-15 0 0)
(4.40153254099564e-15 0 0)
(2.093228827734634e-14 0 0)
(2.768463933456027e-14 0 0)
(-1.910665262113832e-14 0 0)
(4.972981510096408e-14 0 0)
(8.17284564998492e-14 0 0)
(1.142897938201563e-13 0 0)
(1.405489368204331e-13 0 0)
(1.230178327793003e-13 0 0)
(7.116227753069954e-14 0 0)
(3.8650957625617e-14 0 0)
(4.565339575901624e-14 0 0)
(-3.536231257367776e-14 0 0)
(-1.980689643447948e-14 0 0)
(-4.717892692378972e-14 0 0)
(-7.038700759449956e-14 0 0)
(-9.284482703662051e-14 0 0)
(-1.050865894162685e-13 0 0)
(-7.713935865170782e-14 0 0)
(-1.140772198053882e-13 0 0)
(-1.321084979989149e-13 0 0)
(-1.38885857763744e-13 0 0)
(-1.18616300238293e-13 0 0)
(-1.424120855380591e-13 0 0)
(-1.528282122614972e-13 0 0)
(-1.559167876524754e-13 0 0)
(-1.569171359572565e-13 0 0)
(-7.667669756074639e-14 0 0)
(-6.533524865540326e-14 0 0)
(1.410491109728101e-14 0 0)
(2.162002773687637e-14 0 0)
(1.410491109727968e-14 0 0)
(-5.139289415766325e-15 0 0)
(-2.558390789453687e-14 0 0)
(-1.376729354442162e-14 0 0)
(-1.450505041920972e-15 0 0)
(3.291145922698813e-14 0 0)
(-2.582149061692049e-14 0 0)
(7.877742900074793e-15 0 0)
(9.703378556285767e-15 0 0)
(3.950125368467383e-14 0 0)
(5.006743265382169e-14 0 0)
(6.275935177061752e-14 0 0)
(9.782155985284994e-14 0 0)
(3.574994754177732e-14 0 0)
(5.978331556391795e-14 0 0)
(3.384928576270746e-14 0 0)
(2.407088108356919e-14 0 0)
(-1.167906645821112e-14 0 0)
(-4.712890950856052e-14 0 0)
(-4.107680226468781e-14 0 0)
(-4.404033411757224e-14 0 0)
(5.126785061954315e-15 0 0)
(-5.549432220721076e-14 0 0)
(5.85203758291424e-15 0 0)
(1.844392186922869e-14 0 0)
(4.001393219087032e-16 0 0)
(-5.55193309148407e-15 0 0)
(-2.045712283258201e-14 0 0)
(-4.205214186183645e-14 0 0)
(-3.751306142894104e-14 0 0)
(3.299898970365513e-14 0 0)
(-7.935262927600987e-14 0 0)
(6.339707381489903e-15 0 0)
(-1.295451054679498e-14 0 0)
(3.001044914314553e-15 0 0)
(-1.680585152016626e-14 0 0)
(-2.575896884787012e-14 0 0)
(-1.076624863010615e-14 0 0)
(-1.07287355686784e-14 0 0)
(-1.788122594780253e-15 0 0)
(-1.020355270867184e-14 0 0)
(-1.291699748536526e-14 0 0)
(-2.157001032163937e-14 0 0)
(-2.120738406116079e-14 0 0)
(-8.35290834484349e-15 0 0)
(-1.843141751541809e-14 0 0)
(1.62056425373014e-14 0 0)
(-3.672528713892935e-14 0 0)
(-1.910665262113852e-14 0 0)
(-2.115736664592307e-14 0 0)
(8.127829976267024e-16 0 0)
(-9.715882910095083e-15 0 0)
(-2.250783685736294e-15 0 0)
(3.479961665224661e-14 0 0)
(4.248979424518025e-14 0 0)
(9.468296704663002e-14 0 0)
(1.456757218823879e-14 0 0)
(7.956520329077815e-14 0 0)
(8.341654426415277e-14 0 0)
(9.410776677140081e-14 0 0)
(6.038352454677348e-14 0 0)
(9.384517534139827e-14 0 0)
(1.149650289258874e-13 0 0)
(8.597993679512427e-14 0 0)
(1.073123643943875e-13 0 0)
(1.340341684855992e-13 0 0)
(1.236555548235984e-13 0 0)
(1.178785433635342e-13 0 0)
(9.953465632478146e-14 0 0)
(9.316994023567582e-14 0 0)
(1.078750603158198e-13 0 0)
(1.13564541299198e-13 0 0)
(6.467251790349442e-14 0 0)
(9.425781901711428e-14 0 0)
(8.350407474082104e-14 0 0)
(1.091505044044003e-13 0 0)
(8.878091204847983e-14 0 0)
(4.47655866385363e-14 0 0)
(5.529425254625604e-14 0 0)
(9.563329793616716e-14 0 0)
(1.495645759171734e-13 0 0)
(2.313305454784734e-14 0 0)
(1.045614065562594e-13 0 0)
(8.386670100129904e-14 0 0)
(8.898098170943637e-14 0 0)
(8.274130915842882e-14 0 0)
(4.04515845742061e-14 0 0)
(3.249881555126726e-14 0 0)
(6.976178990401411e-14 0 0)
(8.673019802370499e-14 0 0)
(8.659265013179636e-14 0 0)
(7.43008703369186e-14 0 0)
(1.002724131995429e-13 0 0)
(1.236180417621654e-13 0 0)
(1.114012880901345e-13 0 0)
(8.140334330079059e-14 0 0)
(4.880449291905329e-14 0 0)
(6.314698673868723e-15 0 0)
(-2.257035862641094e-14 0 0)
(-4.011396702134782e-14 0 0)
(-3.496217325176903e-14 0 0)
(-5.476906968625541e-14 0 0)
(-3.972633205324786e-14 0 0)
(-1.009101352438626e-14 0 0)
(-1.613061641444483e-14 0 0)
(-3.437446862271748e-14 0 0)
(-3.452452086843497e-14 0 0)
(-5.914559351963747e-15 0 0)
(-5.690731418769802e-14 0 0)
(-2.592152544739915e-14 0 0)
(-4.617857861902448e-14 0 0)
(-2.785970028789341e-14 0 0)
(-4.126436757187443e-16 0 0)
(-4.326506418138659e-15 0 0)
(-1.939425275876287e-14 0 0)
(-6.268432564775567e-14 0 0)
(-2.283295005641381e-14 0 0)
(-1.243182855755046e-13 0 0)
(-3.595001720273336e-14 0 0)
(-1.097882264486833e-14 0 0)
(4.364019479566778e-14 0 0)
(5.449397390243534e-14 0 0)
(2.887255294647363e-14 0 0)
(1.463009395728721e-14 0 0)
(-2.882253553123009e-14 0 0)
(-5.716990561770188e-14 0 0)
(-5.170550300288792e-14 0 0)
(1.600557287635157e-15 0 0)
(5.496913934720634e-14 0 0)
(9.289484445185219e-14 0 0)
(6.489759627206627e-14 0 0)
(2.282044570260361e-14 0 0)
(4.225221152279092e-14 0 0)
(3.733800047560477e-14 0 0)
(5.300595579909237e-14 0 0)
(8.327899637224603e-14 0 0)
(1.324836286131999e-13 0 0)
(1.288323573007823e-13 0 0)
(1.331838724265378e-13 0 0)
(1.129018105473011e-13 0 0)
(8.619251080988333e-14 0 0)
(1.349344819598962e-13 0 0)
(1.769366064065018e-14 0 0)
(7.91775683226803e-14 0 0)
(8.452943175321227e-14 0 0)
(5.795767990770541e-14 0 0)
(4.2814907444231e-14 0 0)
(2.372075917689934e-14 0 0)
(1.644322525968394e-14 0 0)
(1.996945303400558e-14 0 0)
(3.264886779698561e-14 0 0)
(2.277042828736684e-14 0 0)
(-6.68982928816053e-15 0 0)
(-1.98444094959078e-14 0 0)
(-3.313653759556328e-15 0 0)
(-2.43834899288143e-15 0 0)
(-2.844740491694238e-14 0 0)
(1.204169271868876e-14 0 0)
(-4.406534282519426e-14 0 0)
(-1.344218034536976e-14 0 0)
(-5.021748489953881e-14 0 0)
(-3.268638085841154e-14 0 0)
(-6.558533573159665e-14 0 0)
(-7.327551332452432e-14 0 0)
(-3.023552751172214e-14 0 0)
(-5.563187009911762e-14 0 0)
(8.34040399103353e-15 0 0)
(-9.799662080619671e-14 0 0)
(-3.863845327180742e-15 0 0)
(1.19166491805927e-14 0 0)
(-2.169505385973542e-14 0 0)
(4.876697985763499e-16 0 0)
(2.568394272501125e-14 0 0)
(2.272041087212812e-14 0 0)
(4.372772527233343e-14 0 0)
(5.115531143526364e-14 0 0)
(4.406534282519574e-14 0 0)
(4.565339575901358e-14 0 0)
(5.842034099867391e-14 0 0)
(8.876840769467239e-14 0 0)
(9.29198531594796e-14 0 0)
(8.030296016554851e-14 0 0)
(9.973472598573611e-14 0 0)
(1.603058158396729e-14 0 0)
(1.970686160400269e-14 0 0)
(3.676280020035834e-15 0 0)
(-9.853430802000885e-15 0 0)
(2.548387306406198e-14 0 0)
(5.229320763193491e-14 0 0)
(4.68913267861736e-14 0 0)
(3.657523489321676e-14 0 0)
(6.304695190823884e-14 0 0)
(-6.024597665487496e-14 0 0)
(1.733103438016705e-14 0 0)
(-1.749359097969689e-14 0 0)
(-8.340403991034345e-15 0 0)
(6.839881533876268e-15 0 0)
(2.365823740785064e-14 0 0)
(1.426746769680609e-14 0 0)
(-2.111985358449235e-14 0 0)
(2.265788910307726e-14 0 0)
(-1.17465899687817e-13 0 0)
(-5.650717486578781e-14 0 0)
(-4.995489346954247e-14 0 0)
(-4.263984649089046e-14 0 0)
(-7.417582679882412e-14 0 0)
(-5.483159145529994e-14 0 0)
(-9.015639096757031e-15 0 0)
(-1.032109363448241e-13 0 0)
(1.317958891536631e-14 0 0)
(-4.636614392616864e-14 0 0)
(5.140539851144728e-14 0 0)
(5.190557266384256e-14 0 0)
(5.496913934720532e-14 0 0)
(4.916711917952849e-14 0 0)
(2.998544043553261e-14 0 0)
(1.038611627429256e-13 0 0)
(2.237028896545842e-14 0 0)
(1.284822353940918e-13 0 0)
(7.745196749695307e-14 0 0)
(9.527067167569657e-14 0 0)
(1.046864500943801e-13 0 0)
(1.059618941829412e-13 0 0)
(9.181947002423818e-14 0 0)
(6.766105846398528e-14 0 0)
(3.991389736039053e-14 0 0)
(4.689132678617468e-14 0 0)
(1.019605009638589e-13 0 0)
(-1.102884006010767e-14 0 0)
(3.728798306036479e-14 0 0)
(6.002089828629953e-15 0 0)
(-4.426541248614252e-15 0 0)
(3.351166820984715e-15 0 0)
(6.477255273396112e-15 0 0)
(-2.318307196308468e-14 0 0)
(-4.352765561137778e-14 0 0)
(-2.72970043664587e-14 0 0)
(-1.857271671346815e-13 0 0)
(-1.03773632266257e-13 0 0)
(-8.472950141416331e-14 0 0)
(-7.402577455309578e-14 0 0)
(-1.022481011014822e-13 0 0)
(-1.439376167028363e-13 0 0)
(-1.11551340335857e-13 0 0)
(-1.626441300020749e-13 0 0)
(-1.165030644444766e-13 0 0)
(-9.495806283045566e-14 0 0)
(-7.183751263640525e-14 0 0)
(-8.786809422039024e-14 0 0)
(-1.015978747033765e-13 0 0)
(-8.287885705033692e-14 0 0)
(-5.77826189543755e-14 0 0)
(1.896910472923265e-14 0 0)
(-8.585489325703279e-14 0 0)
(-2.288296747165321e-14 0 0)
(-5.698234031056107e-14 0 0)
(-6.159644686630567e-14 0 0)
(-5.153044204955308e-14 0 0)
(-2.680933456788117e-14 0 0)
(-3.199864139888639e-14 0 0)
(-6.541027477825822e-14 0 0)
(-3.243629378222225e-14 0 0)
(-1.600682331172857e-13 0 0)
(-7.590142762454036e-14 0 0)
(-5.731995786341869e-14 0 0)
(-1.260438864012277e-14 0 0)
(4.640365698759981e-14 0 0)
(7.117478188450819e-14 0 0)
(1.030483797452966e-13 0 0)
(7.552629701026634e-14 0 0)
(9.803413386763188e-14 0 0)
(8.294137881938682e-14 0 0)
(1.167656558744569e-13 0 0)
(9.710881168571912e-14 0 0)
(7.892748124648603e-14 0 0)
(9.061905205850848e-14 0 0)
(5.253079035432417e-14 0 0)
(6.1696481696794e-14 0 0)
(-8.94686515080194e-14 0 0)
(-3.331159854889179e-14 0 0)
(-6.339707381490536e-14 0 0)
(-6.611051859159831e-14 0 0)
(-5.558185268387852e-14 0 0)
(-7.550128830264186e-14 0 0)
(-6.308446496966276e-14 0 0)
(-9.872187332716074e-14 0 0)
(-6.521020511730492e-14 0 0)
(-1.915792047175955e-13 0 0)
(-1.3358401174843e-13 0 0)
(-1.33496481271786e-13 0 0)
(-1.061869725515155e-13 0 0)
(-1.116263664587128e-13 0 0)
(-1.177785085330579e-13 0 0)
(-9.049400852041137e-14 0 0)
(-1.344092990998894e-13 0 0)
(-9.907199523381354e-14 0 0)
(-7.488857496597293e-14 0 0)
(-5.260581647718301e-14 0 0)
(-1.563044226204418e-15 0 0)
(-3.538732128131748e-15 0 0)
(-3.453702522224341e-14 0 0)
(-5.286840790718664e-14 0 0)
(-3.187359786078967e-14 0 0)
(-1.663454187297289e-13 0 0)
(-1.123266102720339e-13 0 0)
(-1.461133742657205e-13 0 0)
(-1.50890037421004e-13 0 0)
(-1.713096471921542e-13 0 0)
(-2.121238580268382e-13 0 0)
(-1.928546488061772e-13 0 0)
(-2.010825136129283e-13 0 0)
(-1.781245200183936e-13 0 0)
(-2.712694515464709e-13 0 0)
(-1.874027505451718e-13 0 0)
(-1.61681294758728e-13 0 0)
(-1.212422145383212e-13 0 0)
(-8.594242373370005e-14 0 0)
(-5.629460085102839e-14 0 0)
(1.150400550484773e-15 0 0)
(-7.558881877930411e-14 0 0)
(-7.293789577167002e-14 0 0)
(-9.67336810714224e-14 0 0)
(-1.258438167402852e-13 0 0)
(-1.635069304149164e-13 0 0)
(-1.520154292638722e-13 0 0)
(-1.373228135375411e-13 0 0)
(-2.039710193429474e-13 0 0)
(-1.474638444771527e-13 0 0)
(-2.789971422008215e-13 0 0)
(-2.016452095343595e-13 0 0)
(-1.711470905926309e-13 0 0)
(-1.376479267365738e-13 0 0)
(-1.13414489053492e-13 0 0)
(-8.107823010174658e-14 0 0)
(-3.256133732031888e-14 0 0)
(3.826332265752402e-15 0 0)
(8.410428372367486e-14 0 0)
(1.906913955971321e-14 0 0)
(6.329703898443215e-14 0 0)
(5.589446152912886e-15 0 0)
(6.50226398103309e-16 0 0)
(-9.715882910093379e-15 0 0)
(-4.507819548377308e-14 0 0)
(3.823831394990071e-14 0 0)
(-6.173399475821668e-14 0 0)
(1.162904904297352e-14 0 0)
(6.877394595328074e-16 0 0)
(7.027446841021481e-14 0 0)
(-4.700386597045522e-14 0 0)
(2.447102040547925e-14 0 0)
(3.109832792459217e-14 0 0)
(1.604308593777686e-14 0 0)
(-6.227168197204302e-15 0 0)
(-2.822232654837226e-14 0 0)
(-1.656826879778336e-14 0 0)
(-1.771491804212559e-13 0 0)
(-1.426496682604344e-13 0 0)
(-1.492519670719417e-13 0 0)
(-1.154526987244671e-13 0 0)
(-7.905252478458581e-14 0 0)
(-5.213065103241647e-14 0 0)
(-3.770062673608177e-14 0 0)
(-6.155893380488964e-14 0 0)
(-5.780762766199864e-14 0 0)
(-2.137119109606609e-13 0 0)
(-1.641196437515968e-13 0 0)
(-1.935173795580934e-13 0 0)
(-2.374701831989887e-13 0 0)
(-2.607407856387515e-13 0 0)
(-2.393958536856621e-13 0 0)
(-2.276917785198547e-13 0 0)
(-2.105983268620678e-13 0 0)
(-1.421870071694919e-13 0 0)
(-2.495994063943307e-13 0 0)
(-1.821509219451211e-13 0 0)
(-1.698216290888099e-13 0 0)
(-1.290449313155534e-13 0 0)
(-8.614249339465069e-14 0 0)
(-1.164655513830442e-13 0 0)
(-7.077464256260072e-14 0 0)
(-1.566920575886799e-13 0 0)
(-1.007975960595533e-13 0 0)
(-1.495645759171758e-13 0 0)
(-1.417368504323422e-13 0 0)
(-1.019479966100461e-13 0 0)
(-6.801118037066633e-14 0 0)
(-6.083368128392427e-14 0 0)
(-6.739846703399306e-14 0 0)
(-4.535329126758956e-14 0 0)
(-2.242905942836194e-13 0 0)
(-1.768740846374316e-13 0 0)
(-2.166629384597483e-13 0 0)
(-2.354694865894504e-13 0 0)
(-2.521127815100807e-13 0 0)
(-2.951902803842856e-13 0 0)
(-3.498468108862958e-13 0 0)
(-3.748930315670083e-13 0 0)
(-2.842864838623102e-13 0 0)
(-3.935620318047849e-13 0 0)
(-3.666901754678674e-13 0 0)
(-4.06479029290174e-13 0 0)
(-4.17482860642674e-13 0 0)
(-4.269361521227172e-13 0 0)
(-4.594224633202023e-13 0 0)
(-4.121810146273737e-13 0 0)
(-5.47615670739636e-13 0 0)
(-5.353363952985629e-13 0 0)
(-5.435517557515183e-13 0 0)
(-5.986959560520393e-13 0 0)
)
;

boundaryField
{
    inlet
    {
        type            calculated;
        value           uniform (-0.0002059244525933889 0 0);
    }
    outlet
    {
        type            calculated;
        value           uniform (-5.986959560520393e-13 0 0);
    }
    frontAndBack
    {
        type            empty;
    }
}


// ************************************************************************* //
