/*--------------------------------*- C++ -*----------------------------------*\
| =========                 |                                                 |
| \\      /  F ield         | OpenFOAM: The Open Source CFD Toolbox           |
|  \\    /   O peration     | Version:  v2012                                 |
|   \\  /    A nd           | Website:  www.openfoam.com                      |
|    \\/     M anipulation  |                                                 |
\*---------------------------------------------------------------------------*/
FoamFile
{
    version     2.0;
    format      ascii;
    class       volScalarField;
    location    "0.015";
    object      p;
}
// * * * * * * * * * * * * * * * * * * * * * * * * * * * * * * * * * * * * * //

dimensions      [1 -1 -2 0 0 0 0];


internalField   nonuniform List<scalar> 
1000
(
101060.1769045955
100460.3759686774
100305.492947343
100431.0876051397
100832.1151014905
101353.926817371
101690.4692064523
101829.0361364295
101672.2865542694
101357.7002584051
101105.6113833054
101014.0634907201
101139.6832948662
101432.0588246658
101706.8313682923
101801.720869796
101644.8310215741
101353.5638876294
100940.3817350038
100587.985135856
100507.1618330419
100727.8803722696
101230.0104010801
101536.6448258311
102022.9687184279
102196.4676553124
102029.5114443255
101566.0235617257
101165.8381906533
100864.2976323898
100804.632576233
101006.4138044599
101367.3207020412
101622.4418827765
101736.6098616312
101591.7161315234
101289.978879583
100916.1047864406
100754.1618867139
100897.6922557307
101219.5321589401
101791.4620835404
102289.397557684
102453.1478914563
102242.078704842
101657.4712021326
101081.9915308754
100504.1985488327
100240.7156960675
100291.2301357597
100600.1328704372
101132.8110234714
101568.2456631536
101878.5247376468
101900.0791000429
101715.9406863817
101444.46857382
101207.3291981292
101124.5980717694
101235.9842613413
101443.0695940503
101572.3089799197
101501.5510658307
101285.8052575112
100968.298359447
100666.9083095889
100602.2544977838
100822.2230205223
101309.8996893552
101751.4059279585
102200.1557135337
102449.3313564387
102237.3919430393
101615.7751641772
100812.9441681996
100498.935647851
100257.4780188824
100320.6641830274
100646.130003579
101253.395196553
101974.7076755227
102408.6431349907
102373.5663622657
102144.6079334521
101726.1701453146
101337.4273233606
100773.4484439347
100593.7965527199
100774.49703753
100955.654330936
101281.7911274721
101397.8641340872
101614.0811570927
101772.5229577451
101818.5652934481
101834.4235727397
101734.6435131209
101710.8915822105
101472.9748387563
101047.2206072453
100665.5691719653
100565.3566920108
100411.0475678921
100461.5604056186
100752.3110641315
101325.5346847246
101750.4339291894
102189.2522103708
102385.3959736157
102307.3158805447
101897.9225504139
101287.6970034006
100658.2047208443
100242.7198147416
100136.2982341943
100359.4405377091
100884.6111291777
101450.7472404248
102002.3671156791
102251.5087074643
102166.7686029415
101832.0268503305
101389.6035042607
101015.5383129632
100830.8734844979
100878.2244770648
101114.8010769069
101414.0596286765
101680.2820146755
101722.8739670745
101562.245872666
101304.3565587731
101003.3960261496
100792.9291568537
100808.8804045369
101210.9913257057
101660.1678311108
102016.1746884194
102248.9717053978
102285.1447428198
101960.5378626382
101421.0419790733
100938.0522121813
100572.0355183608
100442.2339636603
100565.6020382987
100894.3600702658
101236.6965188801
101510.8481220439
101644.786672428
101617.5060870975
101448.501507601
101307.0226750061
101224.92148189
101268.5374256637
101408.238205029
101540.8255273863
101599.318497737
101423.4499690901
101065.3581178128
100783.3025614006
100533.2416744195
100473.3282832218
100695.8668534861
101303.2000684039
101771.2339162629
102074.2993244523
102171.4573291774
102033.7867799469
101618.5711345612
101241.8531482659
100937.6732583754
100845.9691839317
100962.173814563
101214.6987901508
101450.2965076326
101536.4308058218
101417.1562396972
101163.2497891927
100935.4169346346
100857.2926393989
101057.5131101401
101580.6981408797
102084.188206879
102304.3598071756
102235.3836352666
101995.9665236974
101408.1081106266
100746.2075474082
100452.6920463044
100457.8527701905
100653.4862685983
100970.1589511013
101369.6479429233
101551.6784406443
101493.3142558307
101358.331860835
101299.2756301636
101269.8373812996
101412.3074795314
101646.9795697616
101750.334684532
101791.3558251741
101561.3810901775
101104.6551917259
100521.2431771819
100146.6052823971
100067.9611489258
100329.4861329873
100844.0826367788
101718.3496300222
102312.4681096425
102459.9473307997
102205.8147238496
101808.0685882531
101198.1445932671
100834.6308724821
100789.7001005974
100996.9595249575
101284.466461658
101555.8776732894
101633.0376108546
101446.1196838722
101149.6128651567
100821.9743760871
100683.1103028961
100834.4018131907
101100.8297561264
101708.8496929505
102162.5806752106
102264.2205976022
102060.5337437939
101954.8522545112
101450.3353352817
100903.6368429037
100675.1027962258
100677.0281720801
100628.3652893251
100772.7380010581
101090.5518586845
101301.8965239776
101463.7035509413
101543.9911691166
101505.1703270592
101326.3266131092
101161.1416267773
101189.0694289547
101331.9782488287
101496.6394364457
101537.3124225616
101315.8232081485
100847.1346816813
100375.6816304435
100136.9242468666
100243.2034835986
100653.8218685422
101479.3200883866
102218.0602483288
102525.5048598007
102395.6434610839
101991.7954496397
101296.8609715452
100662.510641288
100408.6343836428
100551.6348142958
100975.9510893543
101447.5162354135
101878.1187030567
101948.6783573003
101710.2379258743
101239.0159218209
100772.6756570835
100500.7132749874
100569.5226323467
101041.8966865034
101661.8398198949
102177.0673299147
102489.388977497
102425.4528606085
101872.2148563974
101162.398681349
100526.3514587089
100146.0629859636
100143.0326605042
100521.4074291425
101007.2182757859
101524.8968232884
101820.7732879935
101834.7327375636
101604.8696439959
101207.3788866143
100940.0936341028
100758.0209738801
100816.2200877872
100997.4271158064
101398.6278595974
101536.2003242605
101575.9463637104
101402.5820364679
101147.6738809449
100872.1145737415
100691.9050615108
100704.5723071953
100979.0480907749
101329.0617668947
101553.5406941235
101695.0361268727
101649.8894945652
101524.6699314263
101415.5066758696
101307.7737529472
101244.1031129385
101231.9085725188
101214.8386702159
101123.9844798926
101185.6254064575
101065.0461462349
100965.9848121697
100955.2609766776
100994.4878810903
101090.2832645039
101390.3208897836
101793.1056686868
101940.1840895533
102139.8842173664
102103.0058840318
101769.4948161421
101104.4238231379
100581.9450799678
100212.179448139
100160.6316211299
100488.8455123209
101044.5952426325
101547.6246896911
101845.2758144265
101781.5526210392
101442.884171231
101045.1178093324
100725.513694221
100689.6152362909
100913.5704892854
101302.8052365492
101592.0333302164
101743.4173016192
101554.8053474576
101111.5600711868
100738.3630427432
100406.430170354
100373.6135625872
100664.588467067
101246.0327835507
101604.4841266755
101931.6487989177
101919.5138157289
101733.221807787
101414.6171456232
101218.1105282166
101009.0134483751
100997.4878320886
101062.2046303835
101122.7444828593
101330.9316451178
101297.0602769918
101235.1577519335
101143.20931546
101065.2588866414
100991.2858551575
101097.1478877778
101396.2868595754
101710.2286350445
101829.2094379276
101929.7058130047
101737.3395585488
101308.465739231
100949.0848590197
100882.1059324464
100714.6412812598
100879.5164755493
101106.9632726799
101256.1510347505
101107.8773205989
101022.6880615802
100714.4950176917
100522.8929827092
100561.6574270311
100900.192271056
101293.0919642622
101900.8890811621
102221.642901994
102180.5704623913
101748.5296786822
101276.3318817672
100396.3425847286
99881.77990698267
99820.30598164968
100247.8076488635
100765.9713295601
101881.2217832663
102533.0903111934
102593.7874119808
102160.2100478215
101739.0011758836
100903.7401623607
100431.9307218523
100438.6028524205
100801.0826306592
101183.9191635495
101527.1370443647
101533.1422063426
101194.3461306456
100977.9205667587
100719.3968780416
100729.3015923756
100989.4294061202
101226.6907888852
101650.2144826604
101905.1503700132
101885.6913142516
101924.1183003649
101813.8919014748
101455.8611392072
100876.3915052599
100541.7372198264
100156.9706224728
100123.0046471283
100328.7341758149
100750.2857209165
101252.3588121844
101620.6881501609
101755.5116357158
101630.8925022539
101349.2953451591
101058.2107566371
100989.0041062172
101115.7999937645
101379.3261197327
101542.6881695893
101423.4883294835
100898.5564635756
100419.9066363435
99994.54129434899
99908.35828426748
100440.5195899885
101519.426912484
102362.0703208632
102779.4733742872
102560.2537278808
101777.4709160432
100770.0860014864
100110.3386257292
100010.1861689687
100443.9389920499
101060.0688962901
101879.8701535247
102168.6526168411
101838.8509515214
101266.5726616899
100530.2630356674
100141.6175254029
100272.4767713691
100787.5632636845
101522.040838037
102368.1927298572
102617.7926141027
102287.1583920181
101908.0599727425
101125.8244849624
100305.0143651223
99997.22575081419
100116.6689143759
100143.2928489571
100583.0232673723
101330.6813681154
101719.3394776201
102109.8763621697
102069.9936392245
101603.5129526965
100904.6483097424
100262.0310783381
99904.13542089361
99992.35124144729
100707.6781080964
101407.1629583092
102075.0181936925
102284.6056483461
102030.1710732917
101277.1348980278
100399.1814534154
99688.40518741224
99446.69418804921
99951.14888306959
101147.3526647938
102210.4576060625
102952.4468631423
103064.4800759916
102524.2963037335
101534.3861585409
100572.851463594
99860.14284380751
99651.53643687142
100069.3297417038
100804.9223159568
101532.8868584027
101780.5624311836
101521.5331944497
100998.2191761774
100559.0521165806
100538.5317917644
101174.2167557969
102052.3087934911
102736.46671457
102789.3770014203
102253.5531352142
101147.4771293132
99946.21756516291
99348.77835585708
99403.82748500633
99982.51848514617
100942.8279656478
101934.0469357561
102215.3603555099
101762.5396009709
101024.1083997166
100234.5435434761
99900.83006747937
100214.1735891766
101122.5012989377
101940.6581763712
102592.0572256887
102560.944212883
101852.4222933825
100748.3184952394
99533.7588931483
98762.41616125168
98771.16457278442
99574.92409959306
101012.104361633
102815.0226679748
103922.374714331
104063.3251315215
103368.0203688135
102089.0724026292
100437.7272157287
99168.85654635326
98614.53234617638
98788.43583197161
99591.56882249113
100615.5094066533
101874.1197643477
102683.9604380531
102863.1059284181
102477.7127843787
101705.4324457561
101284.7686987365
100776.2130091
100614.5762334911
100617.4934437247
100690.1571097554
100864.7826984066
100771.2395018222
100995.0649055327
101170.557489839
101285.1722113192
101214.329145674
101466.0481729863
101314.5416810099
101051.05633152
100636.0809220529
100421.4907297188
99978.82019080738
100128.8609164481
100611.4409197572
101404.8530841821
101857.1614337703
102313.114496233
102396.1929477625
102156.6625869591
101368.226572519
100580.2363759927
100234.0136124007
99828.2051654629
99883.65054509671
100343.3120936118
101160.5281412966
101616.1704337749
101725.6435116246
101669.05676772
101268.0358491611
100729.0536770746
100531.6443842621
100926.1558871778
100892.6432046623
101431.2183023554
101697.8638386452
101477.3582192272
100843.5005298659
100698.1343431373
100215.3174518842
100102.5246229988
100383.6402137596
101016.3008431241
101553.5418661303
102360.2181549498
102639.7278935876
102233.5301957579
101683.0787481731
100994.4029334411
100309.1765085735
99981.80488001242
100128.8410370794
100275.5429193756
100601.5184688963
100938.089128181
101022.3445769743
100720.3545675847
100878.9715777351
100645.0399772794
100753.0705575441
101141.7849154098
101604.1190530755
101903.3548358868
102007.0836655761
101539.5603275815
100752.1880024913
100241.6781836424
99623.97279511047
99498.78212355255
99878.36223802438
100292.9903753982
101078.8414924091
102246.1072328404
102838.2508806667
102759.4727045745
102798.7490159404
102373.3887665352
101320.016759649
100372.6445930869
99510.40399708661
98959.10037087458
99010.39677391715
100035.6952268504
101126.7146887691
102286.9850221052
102817.925735975
102698.1103657875
101952.7707493712
100758.7160661493
99910.97254132199
99550.02096203266
99951.72009560787
100791.2371963515
101895.8618286973
102531.9152658249
102563.8414668416
101717.7572032101
100603.3763482209
99298.8037033583
98571.05598556112
98712.3175121056
99996.33426773455
101391.084724528
102727.8772627324
103322.2677939955
103093.7411138649
102001.8500335377
100504.5090240599
99161.56088116948
98460.48624019227
98726.19837288279
99731.91895203295
101044.439845664
102097.3474238256
102603.3791797935
102395.114109187
101515.6051360345
100564.2720240731
99631.30121810282
99565.37190649373
100069.8183947299
100939.0905802469
101602.9476249717
102186.1549675257
102232.0931499096
101959.7720412445
101121.9940603778
100611.6061021698
100252.1983028997
100354.8028862398
100710.4058326063
101248.6358610986
101518.1847546543
101437.4108584667
101052.5653619103
100496.7521973233
100257.5697432462
100333.1025271308
100880.2283468027
101469.9427595607
102185.833254823
102415.4528488609
102163.4217939805
101355.7447333629
100217.0482848222
99243.88473710491
98785.04264999859
99104.42863547656
99942.34816652653
101210.9901101148
102050.1773994437
102548.518770886
102415.1582391007
101785.2132421021
100878.6802231807
99992.2660417383
99521.34479893529
99643.91924420188
100179.7177837248
100641.6289557602
101140.5733666189
101502.8011581871
101602.5999332314
101462.6856731029
101342.5897014785
101165.3988978275
100967.8050589132
100821.9356243946
100912.7574443043
100913.09979641
100950.0432702029
101035.0047896578
101161.7115806216
101227.1962772244
101256.6158135444
101262.2620942756
101047.6862652503
100681.5335393224
100689.9508265587
100422.3436097288
100489.5841813805
100831.9764094517
101286.855504918
101642.0337771616
101928.4176242981
101721.573510499
101128.8515351611
100881.5325058439
100255.9644059762
99935.50768462069
99980.20194539605
100430.1990257784
100572.2507582111
101201.8176559582
101531.7005994653
101396.1148689664
100921.1263869237
100793.2902157094
100462.5585052275
100370.6527999761
100522.6455355096
100784.5620466303
101020.6663677997
101249.8164660374
101163.7221668053
100746.3575647253
100769.1311966502
100336.611322157
100201.2536055129
100368.7224872231
100834.0466806076
100909.0498148008
101487.121464008
101796.7637799179
101696.4102114819
101408.2106572697
101288.0597592158
101007.3992123007
100680.5545039189
100551.1635180304
100449.5229773409
100355.6027053012
100473.6043823242
100868.9718083479
101235.7613850696
101343.6518929921
101153.4364830838
100627.1610943264
100325.3350338085
100299.7266429686
100684.0755732333
101205.0492201593
101807.3486307253
102120.7047178376
101919.6284741304
101126.769457925
100348.0866837642
99445.29904981299
98999.98053883134
99184.62504937092
100299.6965483434
101322.7858301334
102286.2979267995
102572.5911924851
102242.2773862639
101223.7464627177
99982.59550503026
98889.12792352292
98441.14224187146
98898.50064490813
100162.4559451951
101667.2503978046
102804.0510039357
103044.5149983525
102385.1701573251
101049.9415545812
99601.76028453583
98396.53981662498
98104.01600132434
98861.15886030417
100386.9727125382
102044.6338128473
103312.9296032974
103571.9895693847
102920.8512240589
101583.5506524842
100057.336733249
98652.91865904267
98389.7242699224
99003.88437201678
100127.381427937
101349.1846297384
102357.1741305336
102384.9867448236
101904.9523062207
101151.0485457904
100322.8649518645
99788.05284175045
99857.5159907076
100377.4871398107
100958.440111857
101548.40962308
101685.3194397538
101305.6112645573
100677.1591071893
99981.57602256647
99492.24321694164
99515.2939660899
99993.46799757378
100694.3502915746
101190.7127523562
101509.6770192224
101487.1475126794
101198.8174281453
100481.4654906175
99927.32301443137
99637.4910874615
99797.05651716347
100293.1069692546
100751.6113831794
101194.7914745662
101507.2306292432
101545.1892351082
101284.230023228
100887.9170615055
100398.8047307218
100061.0038943319
100129.327647796
100394.3361838879
100831.5378405904
101067.9171414814
101262.5902998762
101277.8559301474
101179.8405272902
101013.5592166004
100787.4672422512
100393.8893848238
100251.9152072108
100262.5627405389
100262.6266356208
100253.3765168308
100298.5048472017
100510.4873319213
100929.1877204015
101204.7194438676
101549.8677700219
101695.6261485798
101529.202021102
100991.6670712657
100086.7743625599
99208.88784102973
98666.09818085328
98864.58197675229
99449.35468732026
100599.6193226655
101362.7317353679
101940.4728961744
101890.5843854252
101404.1582117553
100387.1720738709
99523.86387107594
98797.50430323412
98835.4846514908
99563.5314570216
100468.1570937844
101302.9010713328
101706.5431626898
101492.1086749758
100698.939390838
99625.77705711368
98729.15356981492
98481.59156798392
99056.91814682442
100201.2205295936
101412.1255708238
102284.95734674
102509.3063029183
101806.9101255487
100610.8303564435
99459.08193988584
98759.5344809075
98532.29021362575
98982.07642684804
99872.37130770911
100646.6324069739
100954.598303098
100795.4809939988
100295.3004588215
99772.84981021799
99840.42124051509
100247.6019215886
101039.4205026686
101691.3667393336
101888.4998498835
101535.5866377951
100484.6644576947
98946.49021700103
97382.10647725363
96448.83380223194
96458.70498579691
97405.43656077278
99081.43826943752
101204.1392421047
102926.127551524
103672.4117852621
103278.7534735551
101867.8417026005
99715.25312920946
97564.23377779782
96403.81354732391
96092.82750862314
96738.23090633476
98064.76371745701
99824.77847958289
101601.9376151685
102889.5134831742
103027.4383594102
102478.2773282754
101533.0667527389
99811.75614883078
97823.18719395435
97357.87339478641
97567.01544857209
98236.56472975269
98891.41303477931
99899.36912186618
101059.9330970281
101499.4104789584
101548.6237087481
101216.9430062081
100862.0233401923
99812.16980672619
98792.41608742833
98398.56193720696
98622.72108282444
98643.66575962672
99143.70790691969
100068.9036657858
100674.4925126093
100819.7505781681
100801.9955014535
100484.4963611177
99493.14995462167
98562.49439473769
98258.75372439926
98187.24424701686
98390.9113761824
99173.97143291387
100234.2777112951
100845.9379103348
100922.7653682529
100883.5508054449
100268.1489376307
99124.66915756185
98445.66467779185
98389.8701736496
98496.67612841423
99007.21787833667
99910.96176779173
100405.8964676154
100419.5906889654
100135.2204311345
)
;

boundaryField
{
    inlet
    {
        type            uniformFixedValue;
        uniformValue    sine;
        uniformValueCoeffs
        {
            frequency       constant 3000;
            scale           constant 50;
            level           constant 101325;
        }
        value           uniform 101325;
    }
    outlet
    {
        type            waveTransmissive;
        gamma           1.4;
        fieldInf        101325;
        lInf            2.25;
        value           uniform 100058.1677514959;
    }
    frontAndBack
    {
        type            empty;
    }
}


// ************************************************************************* //
