/*--------------------------------*- C++ -*----------------------------------*\
| =========                 |                                                 |
| \\      /  F ield         | OpenFOAM: The Open Source CFD Toolbox           |
|  \\    /   O peration     | Version:  v2012                                 |
|   \\  /    A nd           | Website:  www.openfoam.com                      |
|    \\/     M anipulation  |                                                 |
\*---------------------------------------------------------------------------*/
FoamFile
{
    version     2.0;
    format      ascii;
    class       volScalarField;
    location    "0.015";
    object      rho;
}
// * * * * * * * * * * * * * * * * * * * * * * * * * * * * * * * * * * * * * //

dimensions      [1 -3 0 0 0 0 0];


internalField   nonuniform List<scalar> 
1000
(
1.174202645114397
1.169241348908709
1.167970581425534
1.169015104673032
1.172342671363487
1.176667349604495
1.179454823349032
1.180602634624726
1.179304413591687
1.176696823463833
1.174605155112873
1.173844978349659
1.174886875636645
1.177310981584351
1.1795875746246
1.18037330771784
1.179073630254952
1.176659450898196
1.173231285347208
1.170304588183712
1.169633046909827
1.171466523321802
1.17563329521163
1.178175317525423
1.182203204117071
1.183638874325404
1.182257155481552
1.17841848168447
1.175100752019996
1.172598348839816
1.172103010185263
1.17377812267489
1.176771809136091
1.178886238948895
1.179832015755806
1.178631668844044
1.176130413477067
1.173028648328863
1.171683949696344
1.172875617004056
1.175546198957338
1.180286281950844
1.184407420799359
1.185761687047596
1.184016168891975
1.179176613786298
1.174405531282557
1.169607599807974
1.167417014902463
1.167837089498441
1.17040484309231
1.174827033180578
1.178437639927336
1.181007851598717
1.181186365595844
1.179661517853091
1.177412140235752
1.175445965286855
1.174759755613656
1.175683653955075
1.177400583833131
1.178471559839168
1.177885110214682
1.176096496733324
1.173462101228994
1.170959757761631
1.170422718058901
1.172249524478108
1.176296165384162
1.179955581920429
1.183669570010641
1.185729836462565
1.183977043996114
1.178831155961896
1.172171336039799
1.169563040203058
1.167555553634523
1.168080610259295
1.170785418784793
1.175825736851394
1.181800891404958
1.185390382775707
1.185100240623018
1.183206691875982
1.179742939785143
1.176520609085702
1.171838626693844
1.170347298664087
1.171849355532004
1.173354218755928
1.176059911799378
1.177021364401265
1.178812355432858
1.180124982084193
1.180506802230414
1.180638876524294
1.179812518750589
1.179615236239875
1.177643173130948
1.174111941117589
1.170943153681382
1.170110515186278
1.168827899554112
1.169247457826083
1.171662908114322
1.176419277308645
1.179940666855599
1.183573059830552
1.185195152415843
1.184549362285493
1.181162040820664
1.176105997891666
1.17088117362482
1.167427598815933
1.166542476139367
1.168398061379944
1.172761107104642
1.177457387339027
1.182026226137225
1.184087336006932
1.183386263132425
1.180616083948403
1.176950516164312
1.17384748574288
1.172314412639563
1.172707531697805
1.17467114549251
1.177152863675045
1.179358534137311
1.179711232274264
1.178380685273866
1.176243191611367
1.17374626726081
1.171998556100663
1.172130847064082
1.175468587256247
1.179192331934923
1.182139894317557
1.1840653338414
1.184364409994744
1.181678910198959
1.177210691295612
1.173204312722474
1.170164065187421
1.169085246947153
1.170110638053306
1.172841522731422
1.175682332315576
1.177955186852558
1.17906501623575
1.178839012455634
1.177438483293036
1.176265379222889
1.175584489756566
1.175946267608157
1.177104694293654
1.178203462162908
1.178687971801582
1.177230139029868
1.174260676096157
1.17191951236032
1.169842036456816
1.169344006721383
1.171192556678986
1.176233773065749
1.180112510743067
1.182621065727881
1.183424663339188
1.182285478514938
1.178847802540451
1.17572505237839
1.173200931141811
1.172439707878362
1.173404514832419
1.175499948995592
1.177453417570804
1.178167319019862
1.177178773946856
1.175073246518965
1.173182512105584
1.172533937951085
1.174195638727937
1.178533759687535
1.182703071798162
1.184524293287785
1.183953903978729
1.181972926493313
1.177103269153208
1.171611600982948
1.169172897576494
1.169215884564478
1.170841603777297
1.173471042010818
1.176785169636788
1.178294252202851
1.177810855496171
1.176692115255827
1.176202205872142
1.175957820068867
1.17713908549414
1.179083811315333
1.179939883931937
1.180279384837901
1.178374193012767
1.174587273317882
1.16974293550458
1.166627804848287
1.165973570138168
1.168148995426299
1.172424769537029
1.179675233903124
1.184592234558896
1.185811570430248
1.183710128712643
1.18041826550309
1.175363500367816
1.172346691692962
1.171973648176348
1.173694212772166
1.176079491689934
1.178329447514062
1.178968820885068
1.177419778180997
1.174960960504621
1.172241584281807
1.171088284544518
1.172344766178535
1.174556120399182
1.179596761665299
1.183352944862766
1.184193944730839
1.182508856792023
1.181634050683933
1.177454679400361
1.172919587003795
1.171022254312552
1.171038622772114
1.170634288958729
1.171833316437908
1.174471524935379
1.176225252689799
1.177567030133978
1.17823228948116
1.17791062428893
1.176428313125771
1.175058467252713
1.175290326841091
1.176475667300579
1.177840595096639
1.178177583517602
1.176341459079521
1.172452547543422
1.168535752031221
1.166549952672003
1.16743386296101
1.170846574447258
1.177696203619839
1.18381378290785
1.186355841390184
1.185282402205735
1.181941654445815
1.176184308418643
1.170919855037283
1.168810208911004
1.169998557085823
1.173522360295074
1.177433667187638
1.181000980445594
1.181585234888157
1.179610848587503
1.175705292042021
1.17183482888084
1.169575137774999
1.170146816834922
1.174069627136977
1.179210076223349
1.183474964611539
1.186056738483711
1.185528096228406
1.180951955909403
1.175070034280517
1.16978867864645
1.166625835718494
1.166600627113157
1.169747402416753
1.173782608933789
1.178075483230321
1.18052569605466
1.18064141002529
1.178738104748912
1.175442956239529
1.173224421101861
1.17171223279422
1.172195494523526
1.173700389199881
1.177028231114805
1.178167656748706
1.178496566250288
1.177059661815037
1.174946664555944
1.172660298829937
1.171162522574732
1.171266813065975
1.173545480123162
1.176450994767118
1.178312861594857
1.179483873027071
1.17910898381724
1.178071314669079
1.177167383982809
1.176274754536837
1.175746039346186
1.175644434010801
1.175502771199399
1.174749365775087
1.175260818808339
1.174260324463825
1.173438278428162
1.173349670613276
1.17367552693434
1.174470215537573
1.176958156784087
1.18029590943382
1.18151386976968
1.183166364479272
1.182860997440082
1.180100092819633
1.174588802394066
1.170251144602977
1.167176648103754
1.166747848444742
1.169477261795393
1.17409317832473
1.178264627634304
1.180729860759856
1.1802022334815
1.17739685953624
1.174097921258569
1.171443723682827
1.171145243438729
1.173005421776289
1.176235272334094
1.178632501561474
1.179886312457717
1.178323508931312
1.1746494359287
1.171551997868736
1.168792735869679
1.168518867691907
1.170935828487971
1.175764434646307
1.178736649419413
1.181444908095997
1.181343472281641
1.179800561844113
1.177162132596428
1.175533529952083
1.173797879248588
1.173701569924425
1.17423852266587
1.174741439209996
1.176468045799332
1.176186678252178
1.175673289117245
1.174911070836764
1.174264761706295
1.173650343815156
1.174528083967715
1.177008652674102
1.179611898604355
1.180598076917849
1.181429439351276
1.179836033951884
1.17628162882473
1.173301381200836
1.172745984932224
1.17135475867608
1.172722936540826
1.174610146288046
1.175847923777745
1.174618362567375
1.173911384465204
1.171351903196992
1.169759576088468
1.170081484399532
1.172893206240939
1.176153364531513
1.181189579150962
1.183843687541928
1.18350370506148
1.179927286915102
1.176013971678588
1.16870829194472
1.164427252424849
1.163915188221942
1.167472022160781
1.171776795792905
1.181025411665878
1.186417894131064
1.186920085631478
1.183334999912448
1.179847773972921
1.172922515097277
1.169003483241489
1.16905962408722
1.172071266815673
1.175248309750306
1.178094151187957
1.17814395622592
1.175334822764049
1.173539088099715
1.17139271061128
1.171475051271231
1.173635036248934
1.175603637425707
1.179114466052661
1.181226087103856
1.181065539367957
1.181383900074278
1.18047071557074
1.177503481007171
1.17269865863778
1.169919873159165
1.166720143514419
1.166437205565175
1.168148598540551
1.171653240828709
1.17582019469139
1.178872295344009
1.179989178235843
1.178957215661146
1.176623304125688
1.174208315947602
1.173634153357208
1.17468684914366
1.176872457072094
1.178225950105169
1.177237491422777
1.172884112028724
1.168908258943556
1.165369619343481
1.164652256659211
1.169078360948821
1.178033797764865
1.185009374254545
1.188458221702512
1.1866473841964
1.180172311565184
1.171819041447166
1.16633523725946
1.165502560833871
1.16911004435104
1.17422667105104
1.181022531869724
1.18341233309201
1.180682642573559
1.175940725739672
1.16982818204621
1.166596845593375
1.167685507594175
1.171966298999631
1.178058767581616
1.185064182102199
1.187127659050249
1.18439458422039
1.181258261651149
1.174774497126295
1.16795689397931
1.165397947309949
1.166392895572555
1.166614344447656
1.170269204117252
1.17647657814297
1.179697643046914
1.182930010977518
1.182599902175985
1.178738301621157
1.172944090093115
1.167603524718903
1.16462293333286
1.16535623070849
1.171306693009147
1.177113020248829
1.182642935298936
1.184375054666629
1.182269083162012
1.176032871274348
1.168744565976887
1.162828973155392
1.160814836208295
1.165015544456466
1.174958274934872
1.18376510304588
1.189894463830249
1.190819071732241
1.186358470158386
1.178168957897817
1.170190273681578
1.164260588641248
1.162523906364813
1.166003126314508
1.172118726236672
1.178157242908852
1.180209044095385
1.178063319666308
1.173723480095145
1.170075982308632
1.169905551230362
1.175184078432115
1.182459385477338
1.188115077055255
1.188552283788608
1.184123860001609
1.174962119679216
1.164981429806434
1.160004633572093
1.160464647581095
1.165285175219043
1.173266164054115
1.181484029176479
1.183812123463029
1.180064883434598
1.173944483006854
1.167384153754603
1.164606870144923
1.167214137749552
1.17475970130099
1.181540536067432
1.1869284614882
1.186670982917235
1.180810348957501
1.171654910090746
1.161549430547605
1.155112598934884
1.155185543032442
1.16189142836305
1.173843839582865
1.1887697638847
1.197898693859117
1.199059684778514
1.193332592841893
1.182770146146835
1.169074711741082
1.158507768498683
1.15388082240714
1.155334272102318
1.162034992435583
1.170554677127035
1.180993431539981
1.187691352245958
1.189172527471591
1.18598988435777
1.179599985773249
1.176114331628514
1.171894006259996
1.170551408269433
1.170575849014245
1.171179991943733
1.17263175099785
1.171854191804593
1.173711231988713
1.175167642444696
1.176120289294709
1.175534712156704
1.177620641179504
1.176363164446224
1.174177439034232
1.170734313779891
1.168952959420437
1.165269071543531
1.166513842433245
1.170523895963892
1.177112452492868
1.180864995671338
1.184638833663907
1.185321415473398
1.183337687005499
1.176807559939962
1.170273931545189
1.167399628299349
1.16402160133738
1.164478446358592
1.168298845837541
1.175086632785
1.178869811175195
1.179778658412466
1.179306791511799
1.17598173971353
1.171508195054807
1.169869807510983
1.17314737258427
1.172869447762593
1.177337372809252
1.179547267925426
1.177719609669517
1.172459856269335
1.171251985507986
1.167239004149501
1.166300877697001
1.168638743051014
1.173892952124357
1.17834473206207
1.185020691890343
1.18733104971446
1.183975178980574
1.179421521635123
1.173710617854708
1.168017402245565
1.165293480249942
1.166516897150604
1.167738833141131
1.170448846901377
1.17324483453151
1.173944900812212
1.171438857003311
1.172756117485411
1.170812303945785
1.171709273770818
1.17493596954241
1.178769716141462
1.181247275796649
1.182104829856748
1.178233070085138
1.171701528787859
1.167457851299641
1.162315929163973
1.161272764174876
1.164435116768155
1.167886373783856
1.174411759007464
1.184080951397098
1.188976856620365
1.188326684739274
1.188649928328811
1.185133651781409
1.176416853724606
1.168555352858115
1.161378239245437
1.156775874554925
1.157202585950299
1.165752065646363
1.174820927563243
1.184429681705026
1.188813484795433
1.187823516217408
1.181664312432328
1.17176515942111
1.164713441847279
1.1617069205296
1.165052802610387
1.172034640417783
1.181191897775263
1.18645029951317
1.186715420353821
1.179720783156166
1.170480185606879
1.159616829547644
1.15353489175966
1.154712603389528
1.165424174509132
1.177013884909792
1.188073856082381
1.192976247927596
1.191089618704549
1.182069901672078
1.169654313967512
1.158470218805322
1.152613977632146
1.154832385190906
1.163223313245813
1.17413562858243
1.182857778041271
1.187041654018147
1.185320092676249
1.178041104826286
1.170144751586999
1.162377252140432
1.161828833133598
1.16603346242969
1.173259324516892
1.178760772630781
1.183584179531192
1.183964004968116
1.181714794577807
1.174775507051799
1.170537245376026
1.167549976260492
1.168404403514052
1.171361732207066
1.175826900504022
1.178058372044564
1.177387280375604
1.174196941006565
1.169581591616104
1.167591865513867
1.168220590970902
1.172770253641331
1.177664316404222
1.183589581739278
1.185485545606586
1.183399389857332
1.17671389791257
1.167260681642214
1.159152692026839
1.155321796154379
1.157987363060776
1.164974967485033
1.175517584954203
1.182467014428687
1.18658709157481
1.18548461827048
1.180275032233084
1.172756425612827
1.165381953445359
1.161459683652493
1.162482799744872
1.16694673342899
1.170784770227728
1.17492266550881
1.177925946398072
1.178754757086066
1.177598401500187
1.176599842000055
1.175125814401272
1.173487075618429
1.172280672830742
1.173036523861338
1.17303236214591
1.173335365383054
1.174041699292486
1.175098672210376
1.175649000245744
1.175891099884871
1.17593291337165
1.174150684346528
1.171110898672912
1.171182508230252
1.168959650757975
1.16951889904466
1.172363079040205
1.176137452767703
1.179079264936164
1.181449904743942
1.179738205883325
1.174826520112989
1.172776220261065
1.167578074138195
1.164910846972066
1.165281216469126
1.169021882846809
1.170202312353359
1.17543048907863
1.178167526825425
1.177045069228645
1.173104944571101
1.172040868450994
1.169291199405002
1.168527250485884
1.1697931221077
1.171972427228786
1.173931386855755
1.175831159662278
1.175115720990444
1.171650848364719
1.171841041899465
1.168247482558373
1.167122178091174
1.16851439460227
1.172380145569409
1.173001986491768
1.177796779630959
1.180363042615254
1.179534308887447
1.177147350994739
1.17615010630956
1.17382080038336
1.17110777310081
1.170035577413783
1.169191734935537
1.168409194964392
1.169388782408959
1.172674391353824
1.175718811007684
1.176613672811749
1.175036754128367
1.170668281216165
1.168158495790681
1.167945301445981
1.171141819831687
1.1754686467413
1.180458670315907
1.183049442261137
1.18138396431125
1.174818816652055
1.168355786161874
1.160838246096103
1.157119954581454
1.158658665640238
1.167952191788284
1.176449552092254
1.184425961422781
1.186791585114933
1.184061483858006
1.175629098382116
1.165316741278466
1.156198463079831
1.152456062846186
1.156278223851396
1.166816154255091
1.179309429838917
1.188710995403978
1.190697662932346
1.185251922100185
1.174193659608092
1.162149276678999
1.152086506155514
1.149640888758834
1.155971917367838
1.168686289028621
1.182433790682752
1.192908271287998
1.195045480427588
1.189677431344694
1.178618058440125
1.165941414433355
1.154227718530921
1.15203026329457
1.157164283096406
1.166527483445179
1.176672023798525
1.185013850685281
1.185244529694204
1.18127735082106
1.175028745072717
1.16814325818046
1.163692437096737
1.164272371141174
1.168601710347634
1.173425726112565
1.178314356556734
1.179450687989525
1.176309666749284
1.171099763221991
1.165313211375115
1.161231262836528
1.161422556334936
1.16541036478919
1.171241481925639
1.175359953258335
1.178002855579545
1.177815481736236
1.175427229562368
1.169470725892001
1.16485756860799
1.162444305183792
1.163774760270154
1.167904585579346
1.171712234848237
1.175387539776155
1.177979120808988
1.178296404099156
1.176137508115862
1.172846147801964
1.168776917036552
1.165968426927348
1.166540871914999
1.168749135682396
1.172381396105226
1.174342639928127
1.175956884605718
1.176083061494699
1.175270276212635
1.173891650053264
1.172016515738463
1.168747170867013
1.167565605480601
1.167653650390022
1.167654079155393
1.167577407195925
1.167954023331884
1.169718669410485
1.173194916720975
1.17547862739484
1.178338110827099
1.179546280224951
1.178169565803987
1.173716529033493
1.166193716487375
1.158872816615658
1.154340100179591
1.155998701874544
1.160881937750433
1.170456209736271
1.17678818390507
1.181573271249261
1.181160108537637
1.177132558536069
1.168691107063583
1.161501998159226
1.155438340073565
1.155755653783553
1.161832909411481
1.169363709170408
1.176293280575854
1.179638859128659
1.1778630905899
1.171284171910174
1.162354639749207
1.154870763197019
1.152802143367219
1.157609494929052
1.16714697759016
1.177202688274803
1.184428411662263
1.18628384642033
1.180474578138762
1.170553584267156
1.160967547947475
1.155130091851706
1.153232505017207
1.156990719897563
1.164412249821154
1.170852548568266
1.173410255404312
1.172089025512123
1.167931902173796
1.163584164620055
1.164146800962634
1.167536540788872
1.174114587210015
1.179516962427527
1.181149577137974
1.178228084855286
1.16950781513686
1.156692052751246
1.14359921783111
1.135760857935071
1.135844119385665
1.143797456675249
1.157819234994729
1.175476089835021
1.189723086622289
1.195878479868676
1.19263371902555
1.180978130533336
1.163097998266209
1.145120577081482
1.13537778422089
1.132761801801328
1.13819156139958
1.149319504153852
1.164009352703776
1.178764567071176
1.189409898530829
1.190549092725302
1.18601558809212
1.178193147641537
1.163888489182599
1.147273034551943
1.143378697405318
1.145134144352019
1.150742760756231
1.156213934672708
1.164612444203704
1.174253820593105
1.177899395600042
1.17830826847008
1.175558613518679
1.172610669001539
1.163873822969989
1.155372533614865
1.152083864794736
1.15395788182881
1.154129829855376
1.158300629022563
1.166009240753284
1.17104696914196
1.172255786399485
1.172108254658434
1.169468871561686
1.161214922821795
1.153449767929232
1.150912232946194
1.150313615995333
1.152015762669854
1.158553663795445
1.167384568491596
1.172469498126988
1.173108712164614
1.172785657965837
1.167675792886629
1.158154152756858
1.152490647998778
1.15202851467855
1.152920829226186
1.157166829742343
1.164661096466192
1.168758533718846
1.168904321941332
1.166333041293526
)
;

boundaryField
{
    inlet
    {
        type            calculated;
        value           uniform 1.176411716172193;
    }
    outlet
    {
        type            calculated;
        value           uniform 1.165496917875885;
    }
    frontAndBack
    {
        type            empty;
    }
}


// ************************************************************************* //
