/*--------------------------------*- C++ -*----------------------------------*\
| =========                 |                                                 |
| \\      /  F ield         | OpenFOAM: The Open Source CFD Toolbox           |
|  \\    /   O peration     | Version:  v2012                                 |
|   \\  /    A nd           | Website:  www.openfoam.com                      |
|    \\/     M anipulation  |                                                 |
\*---------------------------------------------------------------------------*/
FoamFile
{
    version     2.0;
    format      ascii;
    class       volVectorField;
    location    "0.015";
    object      U;
}
// * * * * * * * * * * * * * * * * * * * * * * * * * * * * * * * * * * * * * //

dimensions      [0 1 -1 0 0 0 0];


internalField   nonuniform List<vector> 
1000
(
(-1.918491532872786 0 0)
(-1.478014654463629 0 0)
(-0.8857110021114745 0 0)
(-0.2103333163360853 0 0)
(0.3338214259061671 0 0)
(0.8235015253055854 0 0)
(0.9938960059282991 0 0)
(0.847284344180568 0 0)
(0.6854086065233762 0 0)
(0.5351893733070635 0 0)
(0.4455747904621478 0 0)
(0.4679352898478181 0 0)
(0.4042990983281798 0 0)
(0.01906080392173003 0 0)
(-0.6589567096174835 0 0)
(-1.416401474164983 0 0)
(-1.990236620254634 0 0)
(-2.115325272076468 0 0)
(-1.619434862743083 0 0)
(-0.7054193196391871 0 0)
(0.6536631209866844 0 0)
(1.791658833929865 0 0)
(2.764477206572387 0 0)
(2.80302721903483 0 0)
(1.964151564314195 0 0)
(0.8423130682026063 0 0)
(-0.3115602114022111 0 0)
(-1.233417152715346 0 0)
(-1.576254468135141 0 0)
(-1.398540227194878 0 0)
(-0.8073034801447132 0 0)
(-0.4222020446469741 0 0)
(-0.08993487270113025 0 0)
(0.04147866778373001 0 0)
(0.01858876863290061 0 0)
(0.02962582397361498 0 0)
(0.3347483330888211 0 0)
(0.9680038637188201 0 0)
(1.442339362168817 0 0)
(1.826854497264821 0 0)
(1.709118237284759 0 0)
(1.082914129835321 0 0)
(0.2156280635594724 0 0)
(-0.7542615092515831 0 0)
(-1.621543224936186 0 0)
(-2.298973946925097 0 0)
(-2.489131181172285 0 0)
(-2.062762105128716 0 0)
(-1.464452325159143 0 0)
(-0.4922159832907457 0 0)
(0.18673010374201 0 0)
(0.9092454115040686 0 0)
(1.153522510251545 0 0)
(1.098644275226612 0 0)
(0.8838530218426058 0 0)
(0.9331352772006325 0 0)
(0.9977403192241449 0 0)
(1.016493513217791 0 0)
(0.7953331104686912 0 0)
(0.2618391450463309 0 0)
(-0.7414253319725578 0 0)
(-1.779823497089619 0 0)
(-2.632290149880708 0 0)
(-2.861496639220901 0 0)
(-2.380509586299321 0 0)
(-1.327025660788078 0 0)
(0.373202252698963 0 0)
(2.082077506221214 0 0)
(3.567790369366316 0 0)
(4.044484943869032 0 0)
(3.457594017500125 0 0)
(2.129370918606248 0 0)
(0.4327164580821286 0 0)
(-1.420676330524986 0 0)
(-3.027748105764213 0 0)
(-3.225171629039563 0 0)
(-2.865102675317164 0 0)
(-2.194830310141707 0 0)
(-1.431667978540274 0 0)
(-0.2765604913798883 0 0)
(1.301125949666909 0 0)
(2.547603683664463 0 0)
(3.033857449100471 0 0)
(3.600066903539102 0 0)
(3.611509159885559 0 0)
(2.571450731164621 0 0)
(0.1631588502033922 0 0)
(-1.731906435322977 0 0)
(-3.278942110744944 0 0)
(-3.924500137889313 0 0)
(-3.806837038491251 0 0)
(-2.864335431999339 0 0)
(-1.067520957367565 0 0)
(0.9240862272981227 0 0)
(2.388449825209098 0 0)
(3.006847578067955 0 0)
(2.804077974449643 0 0)
(1.866340956924694 0 0)
(0.4876544430414595 0 0)
(-0.9930289926510522 0 0)
(-1.944603616726246 0 0)
(-1.927758079288914 0 0)
(-1.436078245611605 0 0)
(-0.686579891463346 0 0)
(0.1173937614230593 0 0)
(0.9704956469031163 0 0)
(1.131154178020801 0 0)
(0.7107454497528723 0 0)
(0.2297024561639356 0 0)
(-0.4428393274097209 0 0)
(-0.7998197567275785 0 0)
(-0.9836561694589033 0 0)
(-0.7171386650083537 0 0)
(-0.2533648961820905 0 0)
(0.3547193276201961 0 0)
(0.715782986976062 0 0)
(0.8551630254286624 0 0)
(0.7818656167193359 0 0)
(0.5857101871757192 0 0)
(0.5023449367170741 0 0)
(0.1736103270324853 0 0)
(0.09585555666567774 0 0)
(-0.1695771085726067 0 0)
(-0.486076529914354 0 0)
(-0.7478339938802844 0 0)
(-0.7706030179732567 0 0)
(-0.7696931720252572 0 0)
(-0.3952808013473216 0 0)
(0.3468992329469259 0 0)
(0.897984416028288 0 0)
(1.596381841639694 0 0)
(1.920472746423403 0 0)
(1.722347502691069 0 0)
(0.9536197670715989 0 0)
(0.2294090592060611 0 0)
(-1.178383111580403 0 0)
(-2.11299967650707 0 0)
(-2.36704639027214 0 0)
(-1.921257713384999 0 0)
(-1.295964268576367 0 0)
(-0.1329710038445273 0 0)
(0.9943365835784064 0 0)
(1.427097059750534 0 0)
(1.173616341915613 0 0)
(0.7525050312261018 0 0)
(0.3191334212912694 0 0)
(-0.1464338747192676 0 0)
(-0.339664200560846 0 0)
(-0.1841611660545166 0 0)
(0.1055168603865525 0 0)
(0.2165964714306876 0 0)
(0.2844349233920569 0 0)
(-0.1734353984418711 0 0)
(-0.8287096414243135 0 0)
(-1.390821391122928 0 0)
(-1.633203109274902 0 0)
(-1.3186374931152 0 0)
(-0.5241913106850626 0 0)
(0.599855306953422 0 0)
(1.77977483742791 0 0)
(2.23839470235057 0 0)
(2.079964300712584 0 0)
(1.586126214784232 0 0)
(0.6547323837827171 0 0)
(-0.8554365122970907 0 0)
(-1.652333641069013 0 0)
(-1.685537712218778 0 0)
(-1.163671946841656 0 0)
(-0.4470420766683433 0 0)
(0.4360572349951056 0 0)
(0.8000149253546878 0 0)
(0.6222602439538117 0 0)
(0.4102543785263713 0 0)
(0.1943136059093787 0 0)
(0.1837585957066066 0 0)
(0.4247949916792855 0 0)
(0.6774543509674944 0 0)
(0.9530294535443854 0 0)
(1.034618713843721 0 0)
(0.8368725823076208 0 0)
(0.6249370399974304 0 0)
(0.1836789622565476 0 0)
(-0.6655327130055319 0 0)
(-1.381696997678083 0 0)
(-1.639099397870903 0 0)
(-1.935433569168744 0 0)
(-1.754277548049279 0 0)
(-0.8941846160624821 0 0)
(0.4310623795162652 0 0)
(1.361799195154373 0 0)
(2.063880653948199 0 0)
(2.250976487172862 0 0)
(1.814085734905839 0 0)
(0.6256176637948985 0 0)
(-0.5254458284888541 0 0)
(-1.457374326240114 0 0)
(-1.865673398557047 0 0)
(-1.730496137482206 0 0)
(-1.122248840396496 0 0)
(-0.4793281486157888 0 0)
(0.1593925735375039 0 0)
(0.2875197622732999 0 0)
(0.1285441304803533 0 0)
(0.2053729676471168 0 0)
(0.3408330948739981 0 0)
(0.6955532406192687 0 0)
(1.043971549825941 0 0)
(1.518135904512144 0 0)
(1.654536905807873 0 0)
(1.371883984735164 0 0)
(0.3282838949146646 0 0)
(-0.6136426931194023 0 0)
(-1.231338081981543 0 0)
(-1.514052784405707 0 0)
(-1.338747179631579 0 0)
(-0.639871693227703 0 0)
(0.002634359792319919 0 0)
(0.641512733978277 0 0)
(0.9668277998754532 0 0)
(1.083972769116462 0 0)
(0.9472175207727893 0 0)
(0.5766826983381829 0 0)
(0.3539974126050731 0 0)
(0.3036016368661136 0 0)
(0.52850454438197 0 0)
(0.9021103703398111 0 0)
(1.224704624231877 0 0)
(1.117493034458942 0 0)
(0.1041782303121548 0 0)
(-1.102089192639643 0 0)
(-2.008345606037084 0 0)
(-2.591664069993515 0 0)
(-2.553886487965758 0 0)
(-1.227298996301838 0 0)
(0.6480997618226862 0 0)
(2.055564139181443 0 0)
(2.70826869341209 0 0)
(2.419482556791605 0 0)
(1.467166013360318 0 0)
(-0.1323655542073486 0 0)
(-1.287604164519632 0 0)
(-1.492293511677645 0 0)
(-1.012651094853265 0 0)
(-0.4971230128561059 0 0)
(-0.01102857731500982 0 0)
(-0.04530463008419321 0 0)
(-0.00942461317070685 0 0)
(-0.1666288156563017 0 0)
(-0.1154752864851703 0 0)
(-0.06425199619522302 0 0)
(0.3035957085411374 0 0)
(0.9238046097498865 0 0)
(1.46078473246726 0 0)
(1.593822178940021 0 0)
(1.791676555224864 0 0)
(1.323902081423838 0 0)
(0.1605204680915651 0 0)
(-0.8398882747298352 0 0)
(-1.167946105629517 0 0)
(-1.492512500244645 0 0)
(-1.166441838978021 0 0)
(-0.4862803796431626 0 0)
(0.1921894411799603 0 0)
(0.5765494865166623 0 0)
(1.015256634024946 0 0)
(1.056124098529384 0 0)
(0.9799232122881822 0 0)
(0.891906188917261 0 0)
(0.7120020963724373 0 0)
(0.8215234312530371 0 0)
(0.9029364475855983 0 0)
(0.7916891839879839 0 0)
(0.3808644919189462 0 0)
(0.1892939559324616 0 0)
(-0.5837715140262356 0 0)
(-1.376365806734136 0 0)
(-1.614980072437251 0 0)
(-1.073262801362005 0 0)
(-0.776559110038433 0 0)
(0.2128028954536643 0 0)
(1.090345221508694 0 0)
(1.335898418775135 0 0)
(0.7874300298672301 0 0)
(0.6052814060874467 0 0)
(-0.1943834904073001 0 0)
(-0.6202849293433076 0 0)
(-0.4699800672649762 0 0)
(0.3256188874056571 0 0)
(0.7868324328213443 0 0)
(1.510012163262989 0 0)
(1.570345876285672 0 0)
(0.8772340061884704 0 0)
(-0.4700232781488214 0 0)
(-1.664759992153173 0 0)
(-2.519829998287098 0 0)
(-2.49128220702447 0 0)
(-1.596047266645091 0 0)
(-0.02663355111742067 0 0)
(1.856680588547043 0 0)
(3.341414899393475 0 0)
(3.822650666269359 0 0)
(3.139875750968744 0 0)
(1.552077171425579 0 0)
(-0.6886592746162298 0 0)
(-2.515618274703373 0 0)
(-3.130641385534179 0 0)
(-2.435061972632557 0 0)
(-0.988395483509774 0 0)
(0.8529273820780519 0 0)
(2.35898097898367 0 0)
(2.819215117985169 0 0)
(2.257609330108523 0 0)
(0.9585160729672173 0 0)
(-0.343901841459863 0 0)
(-1.205894651977991 0 0)
(-1.106198886289513 0 0)
(-0.219192366977405 0 0)
(1.043445139966261 0 0)
(2.212377244602802 0 0)
(2.610601044401523 0 0)
(2.045712539082433 0 0)
(0.4532235077037343 0 0)
(-1.61333669602818 0 0)
(-2.781534598985139 0 0)
(-2.774958411823907 0 0)
(-2.064069023014095 0 0)
(-0.5076388952661182 0 0)
(1.295669129321454 0 0)
(2.053188402518029 0 0)
(1.842534703371492 0 0)
(1.547949885435035 0 0)
(0.75643995815105 0 0)
(0.04327372605545014 0 0)
(-0.1703640703156481 0 0)
(0.1667125406275949 0 0)
(0.2068572674441198 0 0)
(0.4560861539231877 0 0)
(0.2655447302532232 0 0)
(-0.4292917376980687 0 0)
(-0.9004114504057598 0 0)
(-1.612789889392308 0 0)
(-1.762119077874918 0 0)
(-1.172996080891332 0 0)
(0.06211845482450255 0 0)
(1.511468433194043 0 0)
(2.963657532784387 0 0)
(3.556593748702035 0 0)
(3.187605318817838 0 0)
(2.014703870137446 0 0)
(0.1274369344942596 0 0)
(-2.09553110606203 0 0)
(-2.981982209969942 0 0)
(-2.595498164169441 0 0)
(-1.420878953692874 0 0)
(0.3150174410447673 0 0)
(2.125826418896273 0 0)
(2.857507417400034 0 0)
(2.401721516921241 0 0)
(1.183411893714415 0 0)
(-0.2068889903199735 0 0)
(-1.210835137612237 0 0)
(-1.078409629332403 0 0)
(-0.1580635550931827 0 0)
(1.148486823797929 0 0)
(2.507974932499041 0 0)
(3.083598487415492 0 0)
(2.582848853925043 0 0)
(1.09399167099601 0 0)
(-1.256340803404805 0 0)
(-3.214355167559501 0 0)
(-3.972799273494508 0 0)
(-3.397429903432553 0 0)
(-1.963187435089304 0 0)
(0.3986371845270487 0 0)
(2.67362153094227 0 0)
(3.870510788777256 0 0)
(3.762913399528772 0 0)
(2.743841263956881 0 0)
(0.8553928383502899 0 0)
(-1.067262979422532 0 0)
(-2.217252009201339 0 0)
(-2.310197964419747 0 0)
(-1.418223970921187 0 0)
(-0.1348308702395205 0 0)
(1.206817646283196 0 0)
(1.797861813246063 0 0)
(1.771487658928243 0 0)
(0.9334147311316655 0 0)
(-0.002189058974317077 0 0)
(-1.239817299465134 0 0)
(-1.780691546947468 0 0)
(-1.679095794518942 0 0)
(-0.2202264354575745 0 0)
(1.388557927305837 0 0)
(2.810166949953526 0 0)
(3.447960136704436 0 0)
(3.141743633678813 0 0)
(1.05877125531693 0 0)
(-0.8149387020597418 0 0)
(-2.292253271235465 0 0)
(-3.006894026361593 0 0)
(-2.726336145471309 0 0)
(-0.7550164596974616 0 0)
(1.148342744661954 0 0)
(2.728226248622633 0 0)
(3.327672348921124 0 0)
(2.867833436236793 0 0)
(1.526389250848689 0 0)
(0.07828383554260721 0 0)
(-0.7236776869767279 0 0)
(-0.6020698192907293 0 0)
(0.3120340702737534 0 0)
(1.471525960280589 0 0)
(2.08191553898564 0 0)
(1.78791656254336 0 0)
(0.3144564968287523 0 0)
(-1.398773460629384 0 0)
(-2.652844171627658 0 0)
(-2.876647600449525 0 0)
(-2.032208009793184 0 0)
(-0.08017739588068058 0 0)
(2.315556456802318 0 0)
(3.427258892609381 0 0)
(3.129871327559294 0 0)
(2.007335163991665 0 0)
(0.4407039150632691 0 0)
(-0.846869429884173 0 0)
(-1.075094208880539 0 0)
(-0.4129116184571982 0 0)
(0.3260417955374914 0 0)
(0.8908555379694095 0 0)
(0.7431838820068042 0 0)
(-0.1724938051638739 0 0)
(-0.9571489615661624 0 0)
(-1.651928021439704 0 0)
(-1.503377806170951 0 0)
(-0.4242205298138795 0 0)
(0.819669904023826 0 0)
(2.573252860796023 0 0)
(3.307846309009383 0 0)
(2.971982441295222 0 0)
(2.409275349021623 0 0)
(0.9348669217377076 0 0)
(-1.075743628758349 0 0)
(-1.992106637623188 0 0)
(-1.746578895752881 0 0)
(-1.611077022840689 0 0)
(-0.5835731418159078 0 0)
(0.8198191260690955 0 0)
(1.517994671046957 0 0)
(2.245883486107436 0 0)
(2.455794948643512 0 0)
(2.117762048243252 0 0)
(1.028814930401546 0 0)
(0.1083135637488837 0 0)
(-0.5836440386853513 0 0)
(-0.5926800115397721 0 0)
(0.06056470674652246 0 0)
(0.9499736103636877 0 0)
(2.097967931828476 0 0)
(2.402416052892668 0 0)
(1.668145003628325 0 0)
(-0.1199881455324416 0 0)
(-1.80899300556668 0 0)
(-3.045876860833454 0 0)
(-3.292008403685567 0 0)
(-1.72603449939651 0 0)
(0.9675324802735372 0 0)
(3.036507957059108 0 0)
(4.083085774213044 0 0)
(3.644347300665907 0 0)
(1.755580809691559 0 0)
(-0.9851135470931958 0 0)
(-2.401339792561942 0 0)
(-2.070681743260555 0 0)
(-1.119414117759308 0 0)
(0.8124675367325292 0 0)
(2.286589592785795 0 0)
(2.546698233958097 0 0)
(1.442586289697785 0 0)
(0.4402636421107389 0 0)
(-1.49465333996606 0 0)
(-2.341244243022369 0 0)
(-1.832800354075632 0 0)
(-0.3002571937613419 0 0)
(1.509033801763253 0 0)
(3.467058809530261 0 0)
(4.091484003349696 0 0)
(3.3542648325942 0 0)
(1.981446584682073 0 0)
(-0.04776096800377531 0 0)
(-2.532700291823903 0 0)
(-3.504074441951262 0 0)
(-2.689000538308004 0 0)
(-1.304713992780274 0 0)
(0.9147500025018198 0 0)
(2.847803309641478 0 0)
(3.40790130929869 0 0)
(2.663248390713744 0 0)
(1.908846705142676 0 0)
(0.8853512506744805 0 0)
(0.2705065793112213 0 0)
(0.5191191009514385 0 0)
(1.05795377015377 0 0)
(1.536095108733088 0 0)
(1.465857918009272 0 0)
(0.7269302858388359 0 0)
(0.4651549851401492 0 0)
(-0.7946885839860591 0 0)
(-1.717923672846057 0 0)
(-1.633776016757434 0 0)
(-1.709212495401847 0 0)
(-0.9913517910430576 0 0)
(0.2141095480487769 0 0)
(1.471883539974231 0 0)
(1.986041002693375 0 0)
(2.912335443924327 0 0)
(2.8085642632318 0 0)
(2.051570404303695 0 0)
(0.6424409957364677 0 0)
(-0.5170797728294979 0 0)
(-1.22670421145209 0 0)
(-1.319645740614298 0 0)
(-0.9475864236802404 0 0)
(-0.1439245185069825 0 0)
(0.699621121806395 0 0)
(1.26927419774372 0 0)
(1.357206406620854 0 0)
(1.244822927595416 0 0)
(0.27907743400955 0 0)
(0.2035635969946826 0 0)
(0.1969930115622472 0 0)
(0.6618755434645551 0 0)
(1.122601199217164 0 0)
(2.322473438870729 0 0)
(2.110122836383302 0 0)
(1.317102217539078 0 0)
(-0.09080492220880777 0 0)
(-0.7928672375709741 0 0)
(-1.724287188141932 0 0)
(-1.681893060345254 0 0)
(-1.361368296684595 0 0)
(-0.4155098258706134 0 0)
(0.6855424773065776 0 0)
(1.888619457557668 0 0)
(3.66030963632318 0 0)
(4.538138485948332 0 0)
(4.646377693725126 0 0)
(3.593189038118571 0 0)
(2.083657935706525 0 0)
(-0.1156878164908912 0 0)
(-2.012527815666418 0 0)
(-3.88252852823919 0 0)
(-4.199246773669428 0 0)
(-3.215201432632476 0 0)
(-1.051671287508428 0 0)
(1.72442368387444 0 0)
(4.319514956184372 0 0)
(5.76736088635035 0 0)
(5.4441368337754 0 0)
(3.149185981034144 0 0)
(-0.2190895964667345 0 0)
(-3.570268508573728 0 0)
(-5.340735065610144 0 0)
(-4.852657645201191 0 0)
(-2.568053992718152 0 0)
(0.8620638818830492 0 0)
(4.775463474390624 0 0)
(7.257912409577375 0 0)
(7.399586480855019 0 0)
(5.279144798113175 0 0)
(0.9968259118892374 0 0)
(-4.449657754981369 0 0)
(-7.739375631855949 0 0)
(-8.361221149231227 0 0)
(-6.555604935171059 0 0)
(-3.305010822052853 0 0)
(1.713289157801453 0 0)
(6.399952141728406 0 0)
(9.167791384367792 0 0)
(9.690909030654032 0 0)
(7.839974177409718 0 0)
(3.668983227767521 0 0)
(-2.160682315536002 0 0)
(-5.965071728099888 0 0)
(-7.096258431999243 0 0)
(-5.671401769191815 0 0)
(-2.568782798813871 0 0)
(1.336211535994829 0 0)
(4.890532576631788 0 0)
(7.081129688954304 0 0)
(7.076934135953607 0 0)
(5.002496829317081 0 0)
(1.810841405631322 0 0)
(-1.426134581069605 0 0)
(-3.455123249446253 0 0)
(-3.370730525230964 0 0)
(-1.518513339372579 0 0)
(1.185795688124285 0 0)
(3.584784348111553 0 0)
(4.899216708061348 0 0)
(4.259570928874049 0 0)
(1.572369046087097 0 0)
(-1.67922415714208 0 0)
(-4.279804628343193 0 0)
(-5.087118380486565 0 0)
(-3.763481271906496 0 0)
(-0.6493030619106331 0 0)
(2.909800667942688 0 0)
(5.767924542989931 0 0)
(6.656738241943683 0 0)
(5.179797555505979 0 0)
(1.962636279983341 0 0)
(-1.594568188690434 0 0)
(-3.745043416842477 0 0)
(-3.668610617117402 0 0)
(-1.972600461176259 0 0)
(0.4950598953457285 0 0)
(2.759362864659568 0 0)
(3.823994309518891 0 0)
(3.326628060315097 0 0)
(1.37068222981143 0 0)
(-0.7733568115831642 0 0)
(-2.316126363677344 0 0)
(-1.914467949299916 0 0)
(0.06998501078361238 0 0)
(2.776247918763794 0 0)
(4.837649090707726 0 0)
(5.444585221550668 0 0)
(3.739804291070899 0 0)
(-0.1070172638053415 0 0)
(-3.20426482819469 0 0)
(-4.688336185220776 0 0)
(-3.981366046982676 0 0)
(-1.79980867805902 0 0)
(1.950492829272265 0 0)
(4.56326188357747 0 0)
(5.229100876001084 0 0)
(3.775035969191636 0 0)
(2.558773184400681 0 0)
(-0.3411722900561224 0 0)
(-1.828363911499915 0 0)
(-1.528721209243589 0 0)
(0.4042048820653838 0 0)
(1.915541776091155 0 0)
(3.52701468447885 0 0)
(3.572686164250528 0 0)
(2.186192410477782 0 0)
(0.2136168427165268 0 0)
(-1.798714896382634 0 0)
(-3.061926449571494 0 0)
(-2.783850743737459 0 0)
(-0.8880307324522767 0 0)
(0.74986240310827 0 0)
(3.548346780686303 0 0)
(4.946420081150889 0 0)
(4.633263021719201 0 0)
(2.588534931113793 0 0)
(1.204029768297066 0 0)
(-1.632196856987958 0 0)
(-2.980869830091838 0 0)
(-2.525003759864766 0 0)
(-0.6349098227007909 0 0)
(0.8666415899331469 0 0)
(2.599342375825405 0 0)
(3.080753261397633 0 0)
(2.371934522639173 0 0)
(0.8792323679194276 0 0)
(0.03785231304182229 0 0)
(-1.023837203047004 0 0)
(-0.7888985986186825 0 0)
(0.7459585924377332 0 0)
(2.774731950401329 0 0)
(4.255505491826687 0 0)
(4.960949038282454 0 0)
(3.712318084413194 0 0)
(0.6873460970927158 0 0)
(-1.005635645311622 0 0)
(-3.139860939703644 0 0)
(-3.517402966362346 0 0)
(-2.14511492476319 0 0)
(1.014150169233248 0 0)
(3.405372357124397 0 0)
(5.558817904973808 0 0)
(5.78256744213155 0 0)
(3.922059921315482 0 0)
(0.8668705782696343 0 0)
(-1.70416976886774 0 0)
(-3.031382640939217 0 0)
(-2.428906745310189 0 0)
(-0.1715624599850363 0 0)
(2.020047643411066 0 0)
(4.286232791827906 0 0)
(4.682266775467914 0 0)
(3.108954083483102 0 0)
(0.9842624482975028 0 0)
(-1.951795600372265 0 0)
(-3.251785287675308 0 0)
(-2.742236529904851 0 0)
(-0.8122816671133243 0 0)
(1.406649678126956 0 0)
(3.829091508085408 0 0)
(4.582162188055099 0 0)
(3.417066665076532 0 0)
(1.004316783822997 0 0)
(-1.274237449928985 0 0)
(-2.947261251420128 0 0)
(-2.772775633453481 0 0)
(-0.9393656298088392 0 0)
(1.83067066792448 0 0)
(4.017457155357954 0 0)
(5.442384850165972 0 0)
(4.680665667577439 0 0)
(1.743585840686994 0 0)
(-1.577356941974071 0 0)
(-4.027935081420033 0 0)
(-4.900688313337411 0 0)
(-3.475316160720697 0 0)
(-0.01885154526306204 0 0)
(3.857072898930496 0 0)
(6.698268565627015 0 0)
(7.848575713409618 0 0)
(6.601939861604713 0 0)
(2.918154691966948 0 0)
(-1.516066016634121 0 0)
(-4.907192629927654 0 0)
(-5.852497001015973 0 0)
(-4.452652242955971 0 0)
(-1.104182525503995 0 0)
(2.669410434863456 0 0)
(5.79478342233238 0 0)
(6.955402815811445 0 0)
(5.946237319455649 0 0)
(3.062638715535214 0 0)
(-0.2054261716619976 0 0)
(-2.57806069405606 0 0)
(-2.858383783673311 0 0)
(-1.319058046283095 0 0)
(1.178707791163862 0 0)
(3.559005597215203 0 0)
(4.73450777490589 0 0)
(4.036010980885005 0 0)
(1.531322505873512 0 0)
(-1.52689039539624 0 0)
(-3.863654093710981 0 0)
(-4.125389195878801 0 0)
(-2.293667780345306 0 0)
(0.614847271270069 0 0)
(3.950560875009373 0 0)
(6.199730247037511 0 0)
(6.478749742436339 0 0)
(4.302380019114048 0 0)
(0.9913007509118356 0 0)
(-2.435738403009145 0 0)
(-4.267550390859907 0 0)
(-3.830254364749687 0 0)
(-1.442765011972611 0 0)
(1.621667767396549 0 0)
(4.377567992689241 0 0)
(5.517676581325019 0 0)
(4.561487578487773 0 0)
(1.932942880521588 0 0)
(-1.041426338293993 0 0)
(-3.063577517964925 0 0)
(-3.107337709524663 0 0)
(-1.234823457087944 0 0)
(1.775038742142064 0 0)
(4.740100264752432 0 0)
(6.589070269097881 0 0)
(6.406307246520517 0 0)
(3.802909010230263 0 0)
(0.1586033728928583 0 0)
(-3.106452600536323 0 0)
(-4.455068392163826 0 0)
(-3.719441477349565 0 0)
(-1.2758243290174 0 0)
(1.963333659314387 0 0)
(4.393947679770317 0 0)
(5.136299960673868 0 0)
(4.207849972655953 0 0)
(2.84436079983761 0 0)
(1.184891960028424 0 0)
(0.9807884796292261 0 0)
(1.637695146522389 0 0)
(2.506297195479961 0 0)
(2.715960935316387 0 0)
(1.423484498503216 0 0)
(-0.3296949757493587 0 0)
(-2.569001518705744 0 0)
(-3.562864150711805 0 0)
(-2.91254353993533 0 0)
(-0.6074975606489053 0 0)
(1.849584335947468 0 0)
(4.885133254545965 0 0)
(6.20839002743684 0 0)
(5.772035220069033 0 0)
(3.560697031601125 0 0)
(1.411007324765982 0 0)
(-2.094691336665337 0 0)
(-3.563251595391756 0 0)
(-2.950359908961758 0 0)
(-1.103971139868359 0 0)
(0.9926072630628752 0 0)
(3.072073523059598 0 0)
(3.82984922357002 0 0)
(3.328029584103573 0 0)
(2.435052190202232 0 0)
(1.450455245773071 0 0)
(0.259842033724846 0 0)
(-0.2366976937499946 0 0)
(0.5024794199031091 0 0)
(1.112959209246357 0 0)
(2.377663733646181 0 0)
(2.95243848922591 0 0)
(2.34631385499275 0 0)
(1.146316427378512 0 0)
(0.6975218507736218 0 0)
(-0.39909568358348 0 0)
(-0.637162710431538 0 0)
(0.1133238490313231 0 0)
(1.788844113626064 0 0)
(2.958726774125665 0 0)
(4.544464119967584 0 0)
(4.599920974663943 0 0)
(2.924103424857632 0 0)
(0.4060519242887998 0 0)
(-0.6999927344010145 0 0)
(-2.040596326096985 0 0)
(-1.695739659958087 0 0)
(0.3711693667638052 0 0)
(3.598178164719844 0 0)
(5.2035090930152 0 0)
(6.796702465582562 0 0)
(6.146119322722615 0 0)
(2.974205674420765 0 0)
(-0.9410686310214458 0 0)
(-3.755779769427367 0 0)
(-4.843329081425215 0 0)
(-3.675007679613374 0 0)
(-0.3739339127576335 0 0)
(2.716178298407153 0 0)
(5.882133330051722 0 0)
(7.074270176051703 0 0)
(6.173305334367697 0 0)
(3.024777790493386 0 0)
(0.256976939082152 0 0)
(-2.540640770895098 0 0)
(-3.102354585259682 0 0)
(-1.807781152952958 0 0)
(1.046220911307338 0 0)
(3.561998242007484 0 0)
(5.434838181106382 0 0)
(5.152349464245067 0 0)
(2.606009087031257 0 0)
(-0.4472031807985222 0 0)
(-3.031853282257203 0 0)
(-3.956567492367569 0 0)
(-2.699989052479971 0 0)
(0.5618871820895909 0 0)
(4.266896233718279 0 0)
(7.168609941890923 0 0)
(8.511675358913704 0 0)
(7.491026953128875 0 0)
(4.049135497887234 0 0)
(-0.2597315133427187 0 0)
(-3.686326931458084 0 0)
(-5.008292134394824 0 0)
(-4.246531806724587 0 0)
(-2.185193085532182 0 0)
(0.4854214331067501 0 0)
(2.83600423737372 0 0)
(4.838176745432799 0 0)
(6.213713887239909 0 0)
(7.17788119020511 0 0)
(7.383228535675555 0 0)
(6.376120737532871 0 0)
(4.227339803452749 0 0)
(1.15244130599152 0 0)
(-1.964701610145316 0 0)
(-4.538832148459059 0 0)
(-5.761767100653768 0 0)
(-5.122053152048662 0 0)
(-2.788673504100861 0 0)
(0.9940746120205887 0 0)
(4.428331610794494 0 0)
(7.532895487600551 0 0)
(9.203594120608617 0 0)
(8.605871852716152 0 0)
(5.698289781796708 0 0)
(1.474025534993059 0 0)
(-2.076381150955608 0 0)
(-4.204077641119267 0 0)
(-3.987939758837441 0 0)
(-1.817789852722209 0 0)
(1.610433421232923 0 0)
(4.271834551107421 0 0)
(6.571153740204456 0 0)
(7.145704608905504 0 0)
(5.986155525375066 0 0)
(3.484433372560425 0 0)
(1.913970338002285 0 0)
(-0.2570107605477565 0 0)
(-0.9741940376625441 0 0)
(-0.2417752040422176 0 0)
(1.332215338059511 0 0)
(2.660734105880513 0 0)
(3.944103835668744 0 0)
(4.271862301428393 0 0)
(3.730869102837574 0 0)
(3.415832556692052 0 0)
(2.613762995378792 0 0)
(2.277611561116201 0 0)
(2.514606358821842 0 0)
(3.062427744051929 0 0)
(2.706938746061259 0 0)
(2.891581693594206 0 0)
(2.21348239061649 0 0)
(1.54456624641694 0 0)
(1.259176024202972 0 0)
(2.271295248431028 0 0)
(3.304522918838253 0 0)
(4.891815162639662 0 0)
(5.848149702277998 0 0)
(5.988507821020018 0 0)
(5.714441523105753 0 0)
(4.250817576004506 0 0)
(1.655371115554644 0 0)
(-0.1910793593628208 0 0)
(-1.469733574897865 0 0)
(-1.391458047500269 0 0)
(0.3285009714907328 0 0)
(2.26419574148555 0 0)
(4.27360835080208 0 0)
(5.182734592949108 0 0)
(4.618555274295533 0 0)
(3.155808681237306 0 0)
(1.677082676267294 0 0)
(1.859138244207408 0 0)
(0.9390693346988335 0 0)
(1.349644278130064 0 0)
(2.980165685105319 0 0)
(4.692425942409733 0 0)
(5.941432919744949 0 0)
(6.556406857369635 0 0)
(6.610948487039622 0 0)
(4.287728176967851 0 0)
(1.089843508985568 0 0)
(-0.4321574233919104 0 0)
(-0.1308336816609711 0 0)
(-0.09550839739892669 0 0)
(0.474937161983023 0 0)
(2.522891675549892 0 0)
(5.743809253708031 0 0)
(8.616041580070965 0 0)
(9.463385738734427 0 0)
(10.58678746118971 0 0)
(9.691356769908751 0 0)
(6.137281970862278 0 0)
(0.7864604261964835 0 0)
(-1.551054308235934 0 0)
(-2.911840238272592 0 0)
(-3.066551258306548 0 0)
(-1.505480476003284 0 0)
(2.258283890408745 0 0)
(7.107166845226002 0 0)
(10.10215644630812 0 0)
(11.5906088670406 0 0)
(11.43522886268586 0 0)
(8.991973024013955 0 0)
(4.040027417832186 0 0)
(-0.5286176820419005 0 0)
(-2.508952916313005 0 0)
(-2.752448239423657 0 0)
(-1.035691453125539 0 0)
(2.214766640407599 0 0)
(6.219946064011931 0 0)
(9.157986217073113 0 0)
(10.16675060585257 0 0)
(9.535731379481968 0 0)
(7.225761139441992 0 0)
(3.276849408913806 0 0)
(-0.2640598883845199 0 0)
(-1.381576413002686 0 0)
(-0.7969391993344839 0 0)
(0.8969102442790483 0 0)
(3.816922667089885 0 0)
(7.110198787425586 0 0)
(8.711304915164382 0 0)
(8.652686259829359 0 0)
(7.795291725657225 0 0)
(5.832094874447665 0 0)
(2.690796829398186 0 0)
(0.9777176345249624 0 0)
(0.9423582438845368 0 0)
(1.268786619687635 0 0)
(2.36755973023606 0 0)
(4.612643521336068 0 0)
(6.226138758142193 0 0)
(6.736467783397615 0 0)
(6.81028011029271 0 0)
)
;

boundaryField
{
    inlet
    {
        type            zeroGradient;
    }
    outlet
    {
        type            pressureInletOutletVelocity;
        value           uniform (6.81028011029271 0 0);
    }
    frontAndBack
    {
        type            empty;
    }
}


// ************************************************************************* //
