/*--------------------------------*- C++ -*----------------------------------*\
| =========                 |                                                 |
| \\      /  F ield         | OpenFOAM: The Open Source CFD Toolbox           |
|  \\    /   O peration     | Version:  v2012                                 |
|   \\  /    A nd           | Website:  www.openfoam.com                      |
|    \\/     M anipulation  |                                                 |
\*---------------------------------------------------------------------------*/
FoamFile
{
    version     2.0;
    format      ascii;
    class       volScalarField;
    location    "0.0065";
    object      p;
}
// * * * * * * * * * * * * * * * * * * * * * * * * * * * * * * * * * * * * * //

dimensions      [1 -1 -2 0 0 0 0];


internalField   nonuniform List<scalar> 
1000
(
101339.0502820787
101336.4404313069
101343.138108266
101348.3950723126
101354.2248009213
101359.4971310846
101364.0665359702
101367.966238241
101371.2517005643
101373.443159641
101374.0509950343
101374.0299025472
101373.6708022742
101372.6639706057
101370.7027418413
101367.7139910812
101363.8048922532
101359.1548379149
101353.913801242
101348.1818848322
101342.0391455385
101335.5748063421
101328.8969030522
101322.1304254313
101315.4123380342
101308.8814514558
101302.6584725174
101296.8179831512
101291.3691104906
101286.296017116
101281.7533562864
101278.3958822508
101276.9767402505
101276.8196849195
101276.8906601927
101277.1640620842
101277.9204616958
101279.3970002868
101281.7984878607
101285.2140742838
101289.5969937311
101294.7894301487
101300.5864742032
101306.7986397508
101313.2798648685
101319.9192933869
101326.6192363203
101333.2801001961
101339.8003195222
101346.0937800867
101352.1182164037
101357.8778347754
101363.3267275752
101368.1069739166
101371.3390365164
101372.4832501394
101372.5715862983
101372.5335875327
101372.2842799777
101371.662363454
101370.4421130379
101368.4291098052
101365.4813037206
101361.5480570438
101356.6839803079
101351.0366451957
101344.809476117
101338.2143557477
101331.4350341969
101324.6146561715
101317.8610036764
101311.2503081735
101304.8212947354
101298.5764391423
101292.5243287954
101286.8074683946
101281.9497123105
101278.9130448798
101277.9720484597
101277.9109340299
101277.9741290213
101278.1937445746
101278.7638977989
101279.8597959738
101281.664440576
101284.323576687
101287.9198426132
101292.4507304295
101297.8246546523
101303.8770626434
101310.4010865062
101317.1840010459
101324.0410697869
101330.8384936511
101337.5001093061
101344.0002860425
101350.3466951826
101356.5347256214
101362.4154375076
101367.4359316802
101370.5949394886
101371.5911034581
101371.6568006142
101371.6262910758
101371.4342662233
101370.9558924234
101370.0150083558
101368.4442533703
101366.0930714729
101362.8541432479
101358.684091358
101353.6183809131
101347.7727638132
101341.3266995416
101334.4922183496
101327.4781989965
101320.4582884829
101313.5465657216
101306.7882091051
101300.1805468096
101293.746158332
101287.6914332061
101282.6566251184
101279.6507160062
101278.7778461515
101278.7248961487
101278.7735280912
101278.9486372464
101279.4043602913
101280.2854712945
101281.7497043705
101283.9385380402
101286.9600568261
101290.8693643065
101295.6551386471
101301.2352023824
101307.463051771
101314.147526908
101321.0850568472
101328.0960663478
101335.0522915736
101341.8861641796
101348.5772840133
101355.0974044458
101361.265957759
101366.4941196733
101369.7745161179
101370.8337524113
101370.9171741597
101370.8960279233
101370.7487042932
101370.3728116033
101369.619258725
101368.3417167607
101366.3982114496
101363.6701481718
101360.0785513572
101355.6001894879
101350.2782051788
101344.2218612754
101337.593672455
101330.5861615742
101323.391044345
101316.1657110339
101309.0102894613
101301.9773919279
101295.1403656205
101288.7533510158
101283.4967110154
101280.3802305866
101279.4648439735
101279.4037049747
101279.4404025563
101279.5791141689
101279.9492641588
101280.6748275747
101281.8947144227
101283.7408675792
101286.3260355079
101289.7282738138
101293.9779552439
101299.0487027489
101304.8543855631
101311.256140355
101318.0820035983
101325.1551988377
101332.3219377022
101339.4700845656
101346.5283831803
101353.4213654395
101359.9319729979
101365.4538741481
101368.9720927746
101370.1693740944
101370.2829554039
101370.2699541339
101370.1581716749
101369.8604238541
101369.246919605
101368.1883693694
101366.5537418738
101364.2245580191
101361.1072148261
101357.1470793513
101352.3404329449
101346.7400314688
101340.4523019016
101333.6260681464
101326.4319566426
101319.0339785602
101311.5646913538
101304.1266270893
101296.8498319343
101290.0446936164
101284.4431808916
101281.093614556
101280.073237573
101279.9936966104
101280.0214261433
101280.1305450468
101280.4329050455
101281.0370223863
101282.0673100964
101283.6458549482
101285.8834403023
101288.8674527923
101292.651078601
101297.2438631623
101302.6052020915
101308.6447378518
101315.2328361301
101322.2191866741
101329.4541033921
101336.8071915627
101344.1729367874
101351.4350971186
101358.3399035432
101364.2569970644
101368.1366909928
101369.5569202569
101369.7222861433
101369.7160164145
101369.6309800029
101369.3949926208
101368.8922829053
101368.0071102988
101366.6184193452
101364.611635485
101361.8880071086
101358.3760810409
101354.0424395304
101348.8988665732
101343.0045217349
101336.4622959686
101329.4070181686
101321.9851461903
101314.3347256614
101306.5853955477
101298.9076150175
101291.6541559211
101285.5978947328
101281.858973193
101280.6353927943
101280.5198431218
101280.5398517002
101280.6239325002
101280.8711312838
101281.3776195388
101282.2555484671
101283.6172979897
101285.5692512073
101288.2022360313
101291.5825044574
101295.742827488
101300.6751137559
101306.3278997811
101312.6112066594
101319.407632669
101326.5868785722
101334.0208794827
101341.590158186
101349.1544425723
101356.4397328765
101362.8120854721
101367.1867222149
101368.9558801797
101369.2132164979
101369.2132888896
101369.1507127774
101368.9647029719
101368.5519212574
101367.8078819908
101366.6208632124
101364.8815439994
101362.4902039058
101359.3662198224
101355.4572556719
101350.7462994704
101345.2559528571
101339.0491502707
101332.2234418221
101324.8977662532
101317.1986826003
101309.262047678
101301.27550077
101293.605724881
101287.0331265602
101282.7529914715
101281.1935381515
101281.0066868699
101281.0194813435
101281.0806460407
101281.2793852076
101281.7018824788
101282.4513236107
101283.631717641
101285.3441692079
101287.6793217568
101290.710132121
101294.4840673858
101299.0159927405
101304.2844344068
101310.232921931
101316.7757182384
101323.8068969146
101331.2115572533
101338.8711014904
101346.6388029834
101354.2426504961
101361.0762653353
101366.0475915633
101368.3135992524
101368.7336538971
101368.74275342
101368.7001570894
101368.5573317215
101368.2214352604
101367.5970380214
101366.5801852187
101365.0671102862
101362.959624052
101360.1727851383
101356.6424168628
101352.3314680611
101347.2351897912
101341.3842179361
101334.8426538416
101327.700231922
101320.0642643141
101312.0633214571
101303.8829470419
101295.8756211511
101288.7863208919
101283.8479125563
101281.7912181867
101281.4685378413
101281.4731811301
101281.5139790966
101281.670444312
101282.0191307467
101282.6565367834
101283.6799641287
101285.1857738943
101287.2631822686
101289.9883333872
101293.4177143896
101297.5820083922
101302.482080263
101308.0880535299
101314.3414807415
101321.1607910472
101328.4491209672
101336.0975212064
101343.9648128793
101351.7982160189
101359.0477958986
101364.6621281909
101367.5726603486
101368.2604830111
101368.2918069533
101368.266391824
101368.1612712847
101367.8930813852
101367.3732086451
101366.5040928457
101365.1868909463
101363.3259330871
101360.8347646504
101357.6421051085
101353.6973614731
101348.9759618978
101343.4834813301
101337.2559781154
101330.3561595365
101322.8698722126
101314.9110476945
101306.6505014431
101298.4070949337
101290.8549901387
101285.2024042548
101282.4830771055
101281.9229230953
101281.9080505442
101281.9331717381
101282.0526085742
101282.3360560487
101282.874127053
101283.7588073889
101285.0824167236
101286.9323324379
101289.3862804989
101292.5065660801
101296.3345840485
101300.8872136577
101306.1551816336
101312.1027533905
101318.6698836236
101325.7776593565
101333.3310540644
101341.2025675824
101349.1680049093
101356.7495817341
101362.987865912
101366.6643491387
101367.7719257326
101367.8645278735
101367.8470275888
101367.7744407825
101367.5637218664
101367.1349122826
101366.39517772
101365.2502168212
101363.6069683886
101361.3786852404
101358.4896887695
101354.8802850801
101350.51180887
101345.3707788036
101339.4705702194
101332.8507037346
101325.5764322604
101317.7436091593
101309.5012149718
101301.1252769662
101293.2004258515
101286.8498605654
101283.3361138658
101282.3957644786
101282.3346987083
101282.3494111035
101282.4354510595
101282.6597699091
101283.1075284803
101283.8664191546
101285.0257020831
101286.6712365419
101288.8813337121
101291.7218545298
101295.2416646824
101299.4693307501
101304.4107906379
101310.0478742037
101316.3390769819
101323.2229632322
101330.6192285621
101338.4157795381
101346.4203553363
101354.2342245678
101361.0242512935
101365.5252354867
101367.2235176743
101367.4466282909
101367.4387904902
101367.3907574235
101367.2293645113
101366.8803487966
101366.2552762856
101365.2638640052
101363.8155503533
101361.8238304849
101359.2103559254
101355.9093515812
101351.8720225435
101347.0704179517
101341.5001729865
101335.1819720972
101328.162626459
101320.51927469
101312.3772392351
101303.9684994447
101295.7817503117
101288.806402127
101284.4130362313
101282.9124092331
101282.7482232986
101282.7558437609
101282.8139063685
101282.9872773583
101283.3549632292
101284.0014812015
101285.013213958
101286.4744159928
101288.4632946586
101291.0480571105
101294.283109537
101298.2056850437
101302.8331429985
101308.1613753804
101314.164826197
101320.7976889782
101327.99354587
101335.6563781258
101343.6255912687
101351.5760680527
101358.8090218115
101364.1107381889
101366.5507896924
101367.0158199501
101367.0256453846
101366.9967111337
101366.8794328828
101366.6024512502
101366.0824292542
101365.2316377026
101363.9615027445
101362.1861237704
101359.8255297835
101356.8095094679
101353.0820370249
101348.6050505416
101343.3608200277
101337.3540837064
101330.6152222254
101323.2049925426
101315.2269954691
101306.8709491278
101298.5335371146
101291.0501945924
101285.7741670035
101283.531620402
101283.1592408253
101283.1528801828
101283.1921252648
101283.3210044694
101283.6185314254
101284.16404658
101285.0418426171
101286.3347000352
101288.1208174237
101290.4699808535
101293.4403975299
101297.0759042839
101301.4030261293
101306.4285782833
101312.1392552457
101318.502571179
101325.4657133431
101332.9476854644
101340.8143982471
101348.805384105
101356.3580644425
101362.3904791634
101365.7028556139
101366.5768038723
101366.6317252151
101366.6179332833
101366.5339109126
101366.3179274897
101365.8882485207
101365.1612249429
101364.0503012156
101362.4703897881
101360.3408471153
101357.5888805187
101354.1530861706
101349.9869333796
101345.061973503
101339.3706831115
101332.9292074333
101325.7815357696
101318.0105177342
101309.771078154
101301.3817247254
101293.5246170452
101287.441051244
101284.3225302007
101283.5955253069
101283.5610667346
101283.5813594229
101283.673406565
101283.9066848
101284.3589349944
101285.1121604863
101286.2481727601
101287.8451182876
101289.9742834716
101292.6970221516
101296.0618718487
101300.1019951045
101304.8332166039
101310.2528781829
101316.3393041838
101323.050779124
101330.3207679299
101338.0399380242
101346.0005105047
101353.7556537636
101360.3882127494
101364.604448669
101366.0702066055
101366.2359650448
101366.2292859982
101366.1751657594
101366.0122380509
101365.6648212152
101365.0512855248
101364.0870605861
101362.6878488938
101360.7726139588
101358.2666911561
101355.1049994869
101351.2351334375
101346.6203741059
101341.2428368013
101335.1067192689
101328.2422000788
101320.7139186125
101312.6458135662
101304.290152787
101296.19053974
101289.4194148369
101285.3468599571
101284.0726852449
101283.9546473384
101283.9655840675
101284.0267644194
101284.2053835714
101284.5752939277
101285.2166098936
101286.2098951827
101287.6330108329
101289.5580163912
101292.0486381587
101295.1575603628
101298.923590379
101303.3696058216
101308.5016304712
101314.3079376812
101320.757088262
101327.7940879862
101335.3287635239
101343.1961371765
101351.0471793619
101358.1347422073
101363.2125954446
101365.4421260147
101365.8342099704
101365.8414980947
101365.8076228935
101365.6892788913
101365.4126116825
101364.9003077589
101364.0695590612
101362.8372986232
101361.122470341
101358.8489261502
101355.9483430228
101352.3632449485
101348.0501067465
101342.9824942233
101337.1542466791
101330.583330794
101323.3190089588
101315.4602057312
101307.205962194
101298.9826001419
101291.6764976393
101286.663953671
101284.6482585318
101284.3462369587
101284.3463839114
101284.3849001293
101284.5178045477
101284.8152695908
101285.3551123931
101286.216732849
101287.4779279834
101289.2118435282
101291.4841990107
101294.3506840155
101297.8545765965
101302.0247877413
101306.8743798898
101312.3993533483
101318.5773177242
101325.3647728357
101332.6882424772
101340.4156148745
101348.2758210394
101355.6792807869
101361.5180250244
101364.6343349478
101365.4159091232
101365.4601871742
101365.4424881081
101365.3602022207
101365.145787523
101364.7242513666
101364.0149275615
101362.9356335855
101361.4054248905
101359.3472810787
101356.6907696155
101353.374791776
101349.3505499304
101344.5846767396
101339.0623512918
101332.7908739174
101325.8057414172
101318.1846477184
101310.0842957025
101301.8364855759
101294.1521188017
101288.2962185886
101285.3968122689
101284.7626210891
101284.7375458283
101284.7581383482
101284.8517805009
101285.0845149465
101285.5316467981
101286.2713881991
101287.3812463666
101288.9349387936
101290.999818841
101293.6343368872
101296.8857415549
101300.7881741476
101305.3610477998
101310.6075411669
101316.5131964611
101323.0438971654
101330.1396487851
101337.6942026745
101345.4965539315
101353.0886348882
101359.5398116621
101363.574610993
101364.9340024375
101365.0789767737
101365.0708971217
101365.0172645705
101364.8559555146
101364.5150811717
101363.9159753976
101362.9777511386
101361.6198356923
101359.7646570718
101357.3401104705
101354.2821434103
101350.5375407707
101346.0668915475
101340.8477228943
101334.8780902292
101328.1818084146
101320.8190217985
101312.9129967513
101304.7213077986
101296.8015564093
101290.2410642146
101286.3775106601
101285.2151290677
101285.1152636959
101285.125938995
101285.1894169079
101285.3678483267
101285.7337972019
101286.3635952099
101287.3341263993
101288.7196932345
101290.5892816278
101293.0038685532
101296.0141389671
101299.6587732383
101303.9627332114
101308.9353247131
101314.5687954278
101320.8372746245
101327.6924833331
101335.0485186409
101342.7395023156
101350.412468741
101357.3178930032
101362.2216620258
101364.3350782396
101364.6930923603
101364.6952848456
101364.6653449912
101364.5467621124
101364.2760601698
101363.7759265899
101362.9670948565
101361.7695119018
101360.1052278148
101357.9007638469
101355.089595217
101351.6148140535
101347.4319585493
101342.5119949018
101336.844733971
101330.443492376
101323.3533745215
101315.6707849532
101307.5954015124
101299.5592600961
101292.4567087867
101287.6479086748
101285.764118002
101285.4949148986
101285.4957608562
101285.5352962602
101285.6670966873
101285.9601826079
101286.4894067014
101287.3311583318
101288.5600586554
101290.2461531524
101292.4523845678
101295.2324005651
101298.6286109568
101302.6704302818
101307.372738766
101312.7345921686
101318.7377144791
101325.3430490638
101332.480696879
101340.0205181416
101347.6921377351
101354.9072863374
101360.5685792862
101363.5556995979
101364.2892058618
101364.3285998435
101364.3116209326
101364.2298441862
101364.0197228334
101363.6080259565
101362.9170018393
101361.8673364833
101360.3809297814
101358.3832300816
101355.8056722207
101352.5882590915
101348.6822529902
101344.0530226067
101338.6833062656
101332.5774161371
101325.7678878953
101318.3298485798
101310.4186402031
101302.3670406109
101294.8874594082
101289.2326973278
101286.4790349345
101285.8942351046
101285.8729240618
101285.8944098804
101285.9872409156
101286.2170244221
101286.6559390666
101287.3794620014
101288.4620357628
101289.9744119703
101291.9812468504
101294.538884067
101297.6933023333
101301.4782224408
101305.9134476506
101311.0034469006
101316.7358429732
101323.0787319541
101329.973845319
101337.3169373918
101344.9028748265
101352.2921938709
101358.5984892036
101362.5958773061
101363.9874639852
101364.1489193964
101364.1445195738
101364.1028310155
101363.9747341706
101363.6997624914
101363.2138955592
101362.4529448419
101361.3560928851
101359.8693680676
101357.9491889781
101355.5660555322
101352.7084270723
101349.3869637097
101345.6400047392
101341.5432811155
101337.2321551974
101332.9531906174
101329.1516430953
101326.4687575698
101325.2657009931
101325.0167354357
101325.0002394838
101325.0000004845
101324.9999999658
101324.9999999652
101324.999999965
101324.9999999649
101324.9999999649
101324.9999999649
101324.9999999647
101324.9999999645
101324.9999999643
101324.999999964
101324.9999999638
101324.9999999635
101324.9999999633
101324.9999999631
101324.9999999629
101324.9999999626
101324.9999999624
101324.9999999621
101324.9999999617
101324.9999999615
101324.9999999612
101324.9999999609
101324.9999999606
101324.9999999604
101324.9999999601
101324.9999999597
101324.9999999595
101324.9999999593
101324.999999959
101324.9999999586
101324.9999999583
101324.999999958
101324.9999999577
101324.9999999574
101324.9999999571
101324.9999999569
101324.9999999566
101324.9999999564
101324.9999999561
101324.9999999558
101324.9999999555
101324.9999999552
101324.9999999549
101324.9999999545
101324.9999999542
101324.9999999539
101324.9999999537
101324.9999999534
101324.9999999533
101324.9999999531
101324.9999999529
101324.9999999526
101324.9999999524
101324.9999999522
101324.999999952
101324.999999952
101324.9999999519
101324.9999999518
101324.9999999517
101324.9999999517
101324.9999999516
101324.9999999516
101324.9999999515
101324.9999999514
101324.9999999512
101324.9999999511
101324.9999999511
101324.9999999511
101324.9999999511
101324.9999999511
101324.9999999509
101324.9999999509
101324.9999999509
101324.999999951
101324.999999951
101324.9999999511
101324.9999999511
101324.9999999512
101324.9999999512
101324.9999999512
101324.9999999513
101324.9999999515
101324.9999999517
101324.999999952
101324.9999999523
101324.9999999525
101324.9999999528
101324.9999999531
101324.9999999536
)
;

boundaryField
{
    inlet
    {
        type            uniformFixedValue;
        uniformValue    sine;
        uniformValueCoeffs
        {
            frequency       constant 3000;
            scale           constant 50;
            level           constant 101325;
        }
        value           uniform 101326.3578702043;
    }
    outlet
    {
        type            pressureOutletNSCBC;
        pInf            101325;
        gamma           1.4;
        etaAc           1;
        fieldInf        1;
        lInf            2.25;
        value           uniform 101324.9999999535;
    }
    frontAndBack
    {
        type            empty;
    }
}


// ************************************************************************* //
