/*--------------------------------*- C++ -*----------------------------------*\
| =========                 |                                                 |
| \\      /  F ield         | OpenFOAM: The Open Source CFD Toolbox           |
|  \\    /   O peration     | Version:  v2012                                 |
|   \\  /    A nd           | Website:  www.openfoam.com                      |
|    \\/     M anipulation  |                                                 |
\*---------------------------------------------------------------------------*/
FoamFile
{
    version     2.0;
    format      ascii;
    class       volScalarField;
    location    "0.0065";
    object      pMean;
}
// * * * * * * * * * * * * * * * * * * * * * * * * * * * * * * * * * * * * * //

dimensions      [1 -1 -2 0 0 0 0];


internalField   nonuniform List<scalar> 
1000
(
101325.7869456743
101325.8053033632
101325.7863734946
101325.7706464235
101325.7407804082
101325.7068094362
101325.6650436217
101325.6208023464
101325.5713531153
101325.5194988379
101325.4653852446
101325.4111603721
101325.356989811
101325.303630649
101325.2517662132
101325.202575153
101325.1570498136
101325.1162117191
101325.0807109418
101325.0512852823
101325.0283263762
101325.0123635349
101325.0036066645
101325.0023319235
101325.0084846808
101325.0220290508
101325.0426365679
101325.0700025224
101325.1036124867
101325.1431261969
101325.1880634492
101325.2376623022
101325.2901293711
101325.3434626726
101325.3967857803
101325.4499764846
101325.5025695509
101325.5540753304
101325.6034484724
101325.6497764887
101325.6918177701
101325.7287210791
101325.759543169
101325.7838417668
101325.8010758737
101325.81113683
101325.8137472559
101325.8090228472
101325.7969155924
101325.7777687688
101325.7517105545
101325.7191636492
101325.6802757186
101325.6356475919
101325.5862422881
101325.5342638139
101325.48156094
101325.4289240822
101325.3764055779
101325.3243452499
101325.2732401447
101325.2238455503
101325.1770940505
101325.1340542187
101325.0957790545
101325.0632390776
101325.0371982486
101325.0182130992
101325.0066040413
101325.0025172413
101325.00594167
101325.016782205
101325.0348595335
101325.0599817001
101325.0919344235
101325.1304799408
101325.1750681184
101325.2243471566
101325.2759925923
101325.3281437537
101325.3802598464
101325.4322706864
101325.4838196042
101325.5345592528
101325.5837043768
101325.6305271914
101325.6739241839
101325.7129809752
101325.7465828961
101325.7739919273
101325.794431818
101325.8075977466
101325.8131668935
101325.8112327531
101325.8017794136
101325.7850873318
101325.7612122408
101325.7304225971
101325.6928169768
101325.6490523684
101325.6004043304
101325.5493269932
101325.4976379392
101325.4460094259
101325.3944638359
101325.3432821118
101325.292825027
101325.2437044449
101325.1966607806
101325.1526292282
101325.1125868343
101325.0775741891
101325.0485012389
101325.0261813097
101325.0111525771
101325.0037832704
101325.0041557476
101325.0122651083
101325.0279382889
101325.0510487164
101325.0813954213
101325.1187588508
101325.1624657745
101325.2109591971
101325.2617414319
101325.3129967143
101325.3642181275
101325.4153634317
101325.4661313753
101325.5162594274
101325.565089864
101325.6120329413
101325.6561192059
101325.6965227184
101325.7321447372
101325.7621692629
101325.785668891
101325.8021268519
101325.8110184762
101325.8122542753
101325.8057034085
101325.7915676139
101325.7698766375
101325.7408939858
101325.7047470028
101325.6621585006
101325.6144933021
101325.564295991
101325.5134349145
101325.4626242347
101325.4118605667
101325.3613927731
101325.3114892289
101325.2626778081
101325.2155564032
101325.1709595558
101325.1297467203
101325.092927889
101325.0614207626
101325.0361545706
101325.0178250088
101325.0070238359
101325.0040341832
101325.0090450785
101325.0219960526
101325.0428435288
101325.0713782563
101325.1073576408
101325.1499871233
101325.1976082108
101325.2475948793
101325.2981012584
101325.3485742256
101325.3989990889
101325.4491100262
101325.4987052046
101325.5472186994
101325.5941554336
101325.6386615167
101325.6799939869
101325.7171239277
101325.7492354006
101325.7753474322
101325.7948214346
101325.8069626087
101325.8114938756
101325.808099989
101325.7968435093
101325.7776569969
101325.7507732297
101325.7163280851
101325.6750856214
101325.628464236
101325.5790817798
101325.5289370666
101325.478824928
101325.4287338875
101325.3788861985
101325.3294827379
101325.2809864873
101325.2338919688
101325.1889441354
101325.1469001354
101325.1087102986
101325.0752543267
101325.0475020972
101325.0262280397
101325.0121834739
101325.005827156
101325.007553095
101325.0174704347
101325.0356761472
101325.0620301382
101325.0963111225
101325.1376697441
101325.1843550162
101325.2336050222
101325.2834511941
101325.33327652
101325.3830703991
101325.4326051848
101325.4817183034
101325.5299203966
101325.5767851963
101325.6215559511
101325.6635661933
101325.7018617829
101325.7356575536
101325.7639707382
101325.7860985555
101325.8012396501
101325.8089634616
101325.8087897676
101325.8006128069
101325.7842346278
101325.7597886675
101325.7273675764
101325.6877112652
101325.6422516497
101325.593677415
101325.5441798814
101325.494684849
101325.4451941463
101325.3959016007
101325.3469617667
101325.298780347
101325.2517738476
101325.2066115891
101325.1639600791
101325.1247061674
101325.089674676
101325.0598340573
101325.0359907738
101325.0189938252
101325.0094337634
101325.0078795101
101325.0146112369
101325.0298938998
101325.0537060734
101325.0859138479
101325.1256934053
101325.1712850623
101325.219793209
101325.2690448501
101325.3182895925
101325.3675233988
101325.4165353652
101325.4652104617
101325.5131020838
101325.5598596636
101325.6047898021
101325.6473089278
101325.686522608
101325.721698645
101325.7518681908
101325.7763085332
101325.7941538255
101325.8048662413
101325.8078321764
101325.8027910671
101325.7894061192
101325.7676818026
101325.7376206615
101325.6998681266
101325.6557889709
101325.6080853505
101325.5591985878
101325.5102608238
101325.461316484
101325.4125317958
101325.3640284234
101325.3161586188
101325.2692833917
101325.2239962761
101325.1808987031
101325.1408017705
101325.104486276
101325.0728825611
101325.046815712
101325.0271721211
101325.0146484781
101325.0099300526
101325.0134639254
101325.0256567434
101325.0466480793
101325.0764137126
101325.1142623372
101325.1585063173
101325.2062056829
101325.2548820552
101325.3035989652
101325.3523065252
101325.400841971
101325.4490972468
101325.4966948101
101325.5433113985
101325.5883404781
101325.6312370302
101325.6711939022
101325.7075045948
101325.7392547627
101325.7657005283
101325.7859649509
101325.7994210498
101325.8053724638
101325.8034182301
101325.7931056026
101325.7742986277
101325.7468886386
101325.7113728254
101325.6689575063
101325.6222674973
101325.5739950729
101325.5255805499
101325.4771462156
101325.4288420336
101325.3807535401
101325.3331972581
101325.2864775422
101325.2411359117
101325.1977037969
101325.1569383313
101325.11955808
101325.0864655812
101325.0584644791
101325.0364724727
101325.0212335683
101325.0135364219
101325.0139369168
101325.0229886139
101325.0409605785
101325.0679866847
101325.1035356469
101325.1461299473
101325.1928662113
101325.240970262
101325.2891808044
101325.3373978788
101325.3854711396
101325.4333291588
101325.4806243566
101325.5270863705
101325.5721537146
101325.6153429533
101325.6558973945
101325.6931634629
101325.7262599226
101325.7544595622
101325.7768747378
101325.7928360189
101325.8015794298
101325.8026053143
101325.7953578604
101325.7795773742
101325.7550353799
101325.7220532958
101325.6816157658
101325.6361495506
101325.588546465
101325.5406334819
101325.492690883
101325.444849327
101325.3971689931
101325.3499290546
101325.3033914845
101325.2580460882
101325.2143717351
101325.1730678239
101325.1348044633
101325.1004405858
101325.07076011
101325.0466792997
101325.0289764681
101325.0184982997
101325.0158918995
101325.0218170485
101325.036669829
101325.0607277951
101325.093660058
101325.1342646742
101325.1798234686
101325.2273053776
101325.2750294663
101325.3227716827
101325.3703983876
101325.417862937
101325.4648517607
101325.5111358002
101325.5561970602
101325.5996038454
101325.6406452531
101325.6787182218
101325.7129734174
101325.7427123215
101325.7670434598
101325.7852845695
101325.7966182537
101325.8004856352
101325.7962357346
101325.7835205992
101325.7619831377
101325.7317875136
101325.6936382067
101325.6496786073
101325.6028461704
101325.5554345572
101325.5079580795
101325.4605652313
101325.4132880365
101325.3663702914
101325.3200400648
101325.274736585
101325.2308963492
101325.1891621105
101325.1501627392
101325.1147086123
101325.0835624013
101325.0576218529
101325.0376854594
101325.0246278749
101325.0191665266
101325.0220353584
101325.033743743
101325.054692221
101325.0847598348
101325.1230482235
101325.1671563886
101325.2139086791
101325.2611464649
101325.3084160079
101325.3556038693
101325.4026649322
101325.4493423937
101325.4954180079
101325.5404401125
101325.5839947448
101325.6254409403
101325.6641920996
101325.6994607363
101325.7305491445
101325.7566032607
101325.7769091708
101325.7906480891
101325.7971899102
101325.7958454433
101325.7861625542
101325.7677060993
101325.7404603796
101325.7048867401
101325.6627371333
101325.616863524
101325.5699657717
101325.5229492363
101325.475993003
101325.4291211076
101325.382534018
101325.3364373617
101325.2912166988
101325.2472772264
101325.2052033452
101325.1655910307
101325.1291982232
101325.0967673442
101325.0691665698
101325.0472036365
101325.031761257
101325.0236066974
101325.0235245555
101325.0321146034
101325.0498812506
101325.0768955941
101325.1125681005
101325.1549035873
101325.2007628528
101325.2474999734
101325.2943129286
101325.3410693081
101325.3877286338
101325.4340854726
101325.4799314101
101325.5248757704
101325.568520697
101325.6102897338
101325.6496123328
101325.6857601878
101325.7180408133
101325.7456408736
101325.7678263832
101325.7837883066
101325.7928440688
101325.7942810198
101325.7875614161
101325.7721862657
101325.7479835939
101325.7151932598
101325.6751582453
101325.6304888164
101325.584179517
101325.537629825
101325.4911199878
101325.4446638522
101325.398431704
101325.3525949395
101325.3075032084
101325.2635191788
101325.2211876953
101325.1810608499
101325.1438606772
101325.1102942105
101325.0812092273
101325.0574011655
101325.0397605475
101325.0290751637
101325.0261722641
101325.0317125769
101325.0462933939
101325.0701410302
101325.102954383
101325.1431778149
101325.187905756
101325.2340914559
101325.2804585993
101325.3267820066
101325.3730473213
101325.419061354
101325.4646653778
101325.5094850751
101325.55317775
101325.5951878286
101325.6349990705
101325.6719014989
101325.7052472769
101325.734228969
101325.7581372154
101325.7761455992
101325.7875677209
101325.7916465923
101325.7878113577
101325.7754832851
101325.7543909846
101325.7245518817
101325.6869426585
101325.643770533
101325.5981679911
101325.5520653968
101325.5059849638
101325.4599339782
101325.414054
101325.3684941644
101325.3235590456
101325.2795844448
101325.2370646328
101325.1965224814
101325.1586310774
101325.1240740792
101325.0936623699
101325.0681839216
101325.0485163
101325.0354670261
101325.0298831004
101325.0324774834
101325.043915408
101325.0645584578
101325.0943509978
101325.1321624366
101325.175461153
101325.2209778073
101325.2668865781
101325.312770036
101325.3586168559
101325.4042740802
101325.4495964721
101325.494259562
101325.5379409047
101325.5801341242
101325.6203458661
101325.6579099413
101325.6921976641
101325.7224323653
101325.7479107815
101325.7678168173
101325.7814503875
101325.7880386598
101325.7869714921
101325.7776211506
101325.7596244341
101325.7328278502
101325.6978702149
101325.656514719
101325.6118096629
101325.5661934442
101325.5205477923
101325.4749080199
101325.4294057881
101325.3841419063
101325.3394081494
101325.2954846925
101325.2528481245
101325.2119651255
101325.1734902036
101325.1380564434
101325.1064623979
101325.0794601571
101325.0579302568
101325.0426686834
101325.03454923
101325.0343070845
101325.0426721536
101325.0601017119
101325.086751945
101325.1218761401
101325.1634146805
101325.2080986321
101325.2535375416
101325.2989907998
101325.3444268927
101325.3897174225
101325.4347460363
101325.4792198618
101325.5228485715
101325.565162684
101325.6056993067
101325.6438293165
101325.6789475302
101325.7103079689
101325.7372168094
101325.7588741549
101325.7745693307
101325.7835267763
101325.7851018551
101325.7786366769
101325.7636877134
101325.739976736
101325.7078513746
101325.6686343436
101325.6250830137
101325.5800215145
101325.534806564
101325.4895905881
101325.4444682145
101325.3995362806
101325.3550297465
101325.3112198605
101325.2685220469
101325.2273898427
101325.1884184115
101325.1522288734
101325.1195692759
101325.0911880439
101325.0679325711
101325.0506115395
101325.040090072
101325.0371399689
101325.0425198864
101325.0567804814
101325.0802295458
101325.1124600492
101325.1518965267
101325.1955054796
101325.2404248297
101325.2854549428
101325.3304770767
101325.3753952431
101325.420106887
101325.4643637787
101325.5078943247
101325.5502764579
101325.5910662407
101325.6296804332
101325.6655281272
101325.6979025981
101325.726114045
101325.7493905098
101325.7670091531
101325.778205251
101325.7823008426
101325.7786260187
101325.7666649195
101325.746049459
101325.7168795523
101325.6800826086
101325.6379855295
101325.5935980357
101325.5488103749
101325.5040115378
101325.4592738372
101325.4146801076
101325.3704255655
101325.3267587623
101325.2840502822
101325.2427297878
101325.2033459503
101325.1664991389
101325.1328942624
101325.1032679237
101325.078434444
101325.0592066252
101325.0464349256
101325.0409187458
101325.0434326726
101325.0546037218
101325.0748532165
101325.1040572647
101325.1410903812
101325.1833218675
101325.2276077422
101325.2722014496
101325.3167959245
101325.3613217243
101325.4056897432
101325.449692581
101325.4930792734
101325.5354707836
101325.5764453731
101325.6154608965
101325.6519460391
101325.6852283882
101325.7146300458
101325.7394010476
101325.7588179284
101325.7721212181
101325.7786155775
101325.7776145976
101325.7685552237
101325.7509919643
101325.7248416836
101325.6906818349
101325.6503667254
101325.6068408555
101325.5625151005
101325.518133138
101325.4737919005
101325.4295542577
101325.3855830836
101325.3420993075
101325.2994363939
101325.2579931963
101325.218280706
101325.1808692343
101325.1464297364
101325.1156749385
101325.0893950004
101325.0683916885
101325.0535076551
101325.0455516652
101325.0453166758
101325.0534792025
101325.070555436
101325.0966372625
101325.1310064937
101325.1715222075
101325.2150154407
101325.2591626856
101325.3033432854
101325.347477084
101325.3914949158
101325.4352212019
101325.4784323793
101325.5207845341
101325.5618856675
101325.60122679
101325.638264374
101325.6723524228
101325.7028341814
101325.7289752421
101325.7500631515
101325.7653390822
101325.7741043252
101325.7756534054
101325.7693963093
101325.7548197728
101325.7317095208
101325.7003470826
101325.6621294354
101325.619719672
101325.575925037
101325.531957531
101325.4880206609
101325.4441534058
101325.4004916732
101325.3572287937
101325.3146619993
101325.2731598076
101325.2331954789
101325.1953097402
101325.1601385883
101325.1283705407
101325.100768596
101325.0781215256
101325.0612587371
101325.0509942404
101325.048130608
101325.0533843204
101325.0673423338
101325.0902682796
101325.1217799473
101325.1602485475
101325.2027075157
101325.2463598102
101325.2901251075
101325.3338630294
101325.377516811
101325.4209469204
101325.4639496985
101325.5062226135
101325.5473938393
101325.5869966043
101325.624503528
101325.6593081125
101325.6907625422
101325.7181650933
101325.7408004275
101325.7579315356
101325.7688419152
101325.7728326311
101325.7692717374
101325.7576159742
101325.7375282476
101325.7090803993
101325.6732258895
101325.6322377714
101325.5890794272
101325.5455355171
101325.5019945759
101325.4585033219
101325.4151630192
101325.3721457522
101325.3297101894
101325.288199119
101325.2480452318
101325.2097639593
101325.1739526354
101325.1412790688
101325.1124740512
101325.0883151078
101325.0696113232
101325.0571810586
101325.0518263697
101325.0542965369
101325.0652266139
101325.0850145511
101325.1135431586
101325.1496653718
101325.1907899428
101325.2338428794
101325.2771828369
101325.3205139513
101325.3637862302
101325.4068917817
101325.4496489712
101325.4917915926
101325.5329730808
101325.5727630891
101325.6106584108
101325.646085002
101325.6784138855
101325.7069677775
101325.7310411145
101325.7499103127
101325.7628572003
101325.7691829008
101325.7682376094
101325.759450624
101325.7424068345
101325.7170024643
101325.6838034611
101325.6445546095
101325.6021055395
101325.5588128279
101325.5154626065
101325.472137133
101325.4288988221
101325.385869304
101325.3432390814
101325.301269771
101325.2602927013
101325.2207035796
101325.1829533305
101325.1475349606
101325.1149662729
101325.0857681831
101325.0604379539
101325.0394149643
101325.0230313401
101325.0114269022
101325.0043895119
101325.0011150119
101325.0001456529
101325.0000068998
101325.0000000675
101324.9999999882
101324.999999988
101324.999999988
101324.9999999879
101324.9999999879
101324.9999999879
101324.9999999878
101324.9999999877
101324.9999999877
101324.9999999877
101324.9999999876
101324.9999999875
101324.9999999875
101324.9999999874
101324.9999999874
101324.9999999874
101324.9999999874
101324.9999999874
101324.9999999873
101324.9999999873
101324.9999999872
101324.9999999872
101324.9999999871
101324.999999987
101324.999999987
101324.999999987
101324.9999999869
101324.9999999869
101324.9999999869
101324.9999999868
101324.9999999867
101324.9999999867
101324.9999999867
101324.9999999866
101324.9999999865
101324.9999999865
101324.9999999865
101324.9999999865
101324.9999999864
101324.9999999863
101324.9999999863
101324.9999999862
101324.9999999862
101324.999999986
101324.999999986
101324.999999986
101324.9999999859
101324.9999999859
101324.9999999857
101324.9999999857
101324.9999999857
101324.9999999856
101324.9999999855
101324.9999999855
101324.9999999854
101324.9999999853
101324.9999999853
101324.9999999852
101324.9999999852
101324.9999999852
101324.9999999851
101324.9999999851
101324.999999985
101324.999999985
101324.9999999849
101324.9999999849
101324.9999999849
101324.9999999849
101324.9999999848
101324.9999999848
101324.9999999847
101324.9999999847
101324.9999999846
101324.9999999845
101324.9999999844
101324.9999999844
101324.9999999843
101324.9999999842
101324.9999999842
101324.9999999841
101324.999999984
101324.999999984
101324.999999984
101324.9999999838
101324.9999999838
101324.9999999838
101324.9999999837
101324.9999999836
101324.9999999835
101324.9999999835
)
;

boundaryField
{
    inlet
    {
        type            calculated;
        value           uniform 101325.8161290194;
    }
    outlet
    {
        type            calculated;
        value           uniform 101324.9999999835;
    }
    frontAndBack
    {
        type            empty;
    }
}


// ************************************************************************* //
