/*--------------------------------*- C++ -*----------------------------------*\
| =========                 |                                                 |
| \\      /  F ield         | OpenFOAM: The Open Source CFD Toolbox           |
|  \\    /   O peration     | Version:  v2012                                 |
|   \\  /    A nd           | Website:  www.openfoam.com                      |
|    \\/     M anipulation  |                                                 |
\*---------------------------------------------------------------------------*/
FoamFile
{
    version     2.0;
    format      ascii;
    class       volScalarField;
    location    "0.0065";
    object      rho;
}
// * * * * * * * * * * * * * * * * * * * * * * * * * * * * * * * * * * * * * //

dimensions      [1 -3 0 0 0 0 0];


internalField   nonuniform List<scalar> 
1000
(
1.176536444502981
1.176512927640868
1.176565496447776
1.176607235010733
1.176656180809593
1.176700771987745
1.176738408640805
1.176769722343911
1.176795904775882
1.176813334105326
1.176818011476271
1.176817618700325
1.176814520457798
1.176806229853054
1.176790038025354
1.176765332842477
1.176733049845149
1.176694655923257
1.176651354598015
1.176603952428138
1.176553105437409
1.176499553931412
1.17644419801489
1.176388080234799
1.176332343697448
1.176278147670396
1.176226501150706
1.176178029319344
1.176132812775896
1.176090723123598
1.176053043265781
1.176025201277466
1.17601344195948
1.176012150760704
1.176012753568269
1.176015036285245
1.176021316990955
1.176033565213277
1.176053481322122
1.176081804657512
1.17611814782472
1.17616120284613
1.176209271128779
1.176260781773421
1.176314523754431
1.176369577767344
1.17642513351921
1.176480364840945
1.176534429236106
1.176586612432941
1.176636563868908
1.176684318427667
1.176729495610968
1.176769128128508
1.176795924274526
1.176805410312905
1.176806142375569
1.176805826994255
1.176803759807031
1.176798603666746
1.176788486916634
1.176771797541753
1.176747357692505
1.176714747316622
1.176674418910005
1.176627595709857
1.176575964090464
1.176521280651445
1.176465068842054
1.176408515525652
1.17635251442269
1.176297697693278
1.176244386523853
1.176192601523472
1.176142413982475
1.176095005743063
1.176054721214177
1.176029538392043
1.176021734743014
1.176021227912723
1.176021751973774
1.176023573226375
1.176028301479799
1.176037389701055
1.176052355461491
1.176074407311297
1.176104230389382
1.176141803661143
1.176186367354485
1.176236556618805
1.176290655771199
1.176346900665045
1.176403759360451
1.176460122394392
1.176515358280702
1.1765692545679
1.176621874935574
1.176673181223137
1.176721938643954
1.176763563311056
1.176789754202366
1.176798013210927
1.176798557889008
1.176798304934899
1.176796712890177
1.17679274678422
1.176784946083165
1.176771923192529
1.176752429796158
1.176725575980925
1.176691001899552
1.176649001328073
1.176600533687061
1.176547086644374
1.176490418010636
1.17643225958494
1.176374051157233
1.176316738683651
1.176260696849969
1.176205903574114
1.176152546171789
1.176102336265129
1.176060583569765
1.176035655878165
1.176028417219716
1.176027978103788
1.176028381401557
1.17602983356962
1.176033612855341
1.176040919849828
1.17605306259942
1.176071214303777
1.176096271171965
1.176128689983618
1.17616837660781
1.176214649298408
1.176266292892489
1.176321721983186
1.176379248351618
1.176437382871063
1.176495061987068
1.176551725484664
1.176607204279167
1.176661264242613
1.176712408366911
1.176755754927112
1.17678295230375
1.176791734253441
1.176792425884266
1.176792250559186
1.176791029120783
1.176787912659385
1.176781665077631
1.176771073162504
1.176754959771696
1.176732341549696
1.176702563555332
1.176665432954634
1.176621307176677
1.176571091851509
1.176516134171216
1.176458030220921
1.17639836950472
1.176338457021278
1.176279123040572
1.176220803881967
1.176164107846387
1.17611114255304
1.176067550365989
1.176041705775065
1.176034114541189
1.176033607514249
1.176033911839198
1.176035062159551
1.176038131785125
1.176044148823594
1.176054265222237
1.176069575121369
1.17609101343899
1.176119227333245
1.176154468478155
1.17619651788938
1.176244661047858
1.176297746171149
1.176354347062493
1.176412997710028
1.176472422822445
1.176531692575557
1.176590216167119
1.176647367922067
1.17670134828261
1.176747130379626
1.176776299586147
1.176786226063176
1.176787167742162
1.176787059944022
1.176786133166724
1.17678366458445
1.176778578113847
1.176769801818191
1.176756249296946
1.176736938178737
1.176711092284656
1.176678258473657
1.17663840567927
1.17659197103429
1.176539836667895
1.176483236276574
1.176423584410401
1.176362240867193
1.176300304733197
1.176238626205588
1.176178283716728
1.176121851308696
1.176075399313978
1.176047621835881
1.176039159940439
1.176038500307299
1.176038730259117
1.176039635166078
1.176042142608645
1.176047152496676
1.176055696560299
1.176068787216425
1.176087343108374
1.176112088806118
1.176143465207053
1.176181551254552
1.176226009979669
1.176276091824564
1.176330721559751
1.176388652567029
1.176448643487448
1.176509613013442
1.176570686219299
1.176630899308719
1.176688148317048
1.176737207148239
1.176769373403599
1.176781148333586
1.176782519352019
1.176782467363271
1.176781762331227
1.176779805791124
1.176775637894963
1.176768299042688
1.176756785551792
1.176740147441274
1.176717565873002
1.176688448284723
1.176652517408918
1.176609870700534
1.176560998386229
1.176506753287169
1.176448253076832
1.17638671192225
1.176323274324643
1.17625901516873
1.176195347934888
1.176135198087263
1.176084975170588
1.176053968910963
1.176043821889054
1.17604286364085
1.176043029564212
1.176043726831306
1.176045776823605
1.176049977077746
1.176057257640619
1.176068550439634
1.176084737643023
1.17610657238247
1.176134603937618
1.176169103886806
1.17621000490488
1.176256879972923
1.176308982684512
1.176365339265057
1.17642486904885
1.176486509971376
1.17654927125597
1.17661198979297
1.176672393819992
1.176725227469676
1.176761497382326
1.176776165268516
1.176778298804575
1.176778299398777
1.176777780581774
1.176776238396631
1.17677281607722
1.176766647338633
1.176756805887826
1.176742385314314
1.176722558768379
1.176696657688445
1.176664247986826
1.17662518839713
1.176579666053536
1.176528202479761
1.176471606220878
1.176410863206271
1.176347022614308
1.176281210802381
1.176214983627641
1.176151381831363
1.176096877333088
1.176061382996606
1.176048450647203
1.176046901105318
1.176047007204172
1.176047514430833
1.176049162550798
1.176052666273228
1.176058881297615
1.176068670138409
1.176082871201659
1.176102236107351
1.176127369761395
1.17615866564111
1.176196246818992
1.176239934985384
1.176289261602025
1.176343515446793
1.176401817914576
1.17646321603821
1.176526726264189
1.176591131892186
1.176654177570787
1.176710835893423
1.176752053097279
1.176770840358656
1.176774322976729
1.176774398415491
1.176774045250103
1.176772861100349
1.176770076224135
1.176764899419688
1.176756468795225
1.176743924000462
1.176726450897283
1.176703345144133
1.176674074510445
1.176638331611958
1.176596076837335
1.176547563922959
1.176493324064715
1.176434101006724
1.176370784279536
1.176304439748809
1.176236605809745
1.176170205329723
1.176111416316068
1.176070463209236
1.17605340734758
1.176050731395645
1.176050769899069
1.176051108227868
1.176052405773952
1.176055297389223
1.176060583317137
1.176069070453287
1.176081557874864
1.176098785379804
1.176121384325324
1.176149823013934
1.176184355716518
1.176224989390018
1.176271476037292
1.176323330726599
1.176379876790618
1.176440310785998
1.176503729107082
1.176568960986548
1.176633910445894
1.176694017961629
1.176740566540996
1.176764697569115
1.176770400230791
1.176770659931498
1.176770449214906
1.176769577670956
1.176767354139819
1.176763043933275
1.176755838179352
1.176744917355361
1.176729488222867
1.176708833912187
1.17668236331814
1.176649656806636
1.176610510436497
1.176564970174756
1.176513334705241
1.176456123660004
1.176394048547612
1.176328053794
1.176259555591789
1.176191197931941
1.176128571449596
1.176081696050581
1.176059145140774
1.176054499857579
1.176054376519741
1.176054584844515
1.176055575318313
1.17605792591302
1.176062388065561
1.176069724590547
1.176080701056614
1.176096042023787
1.176116391983047
1.176142267504848
1.176174011712315
1.176211764385511
1.176255448395835
1.176304767160997
1.176359222499843
1.176418159791289
1.176480790835931
1.176546058231119
1.176612102933841
1.176674963526998
1.17672668559121
1.17675716717745
1.1767663499942
1.176767117747365
1.176766972653234
1.17676637084295
1.17676462379582
1.176761068581627
1.176754935512724
1.176745442726458
1.176731818622232
1.17671334391935
1.176689391067838
1.17665946500097
1.176623244951374
1.176580618907171
1.176531697491765
1.176476808083685
1.176416491416997
1.176351541978752
1.176283194846114
1.176213738726344
1.176148021677531
1.176095358408444
1.176066219615823
1.176058421440374
1.176057915029496
1.176058037036526
1.176058750554174
1.176060610801286
1.176064324002427
1.176070617369857
1.176080231105226
1.176093877187981
1.176112204975225
1.176135760541754
1.17616494898437
1.17620000702296
1.176240983686676
1.176287728056868
1.176339895699763
1.176396976906164
1.176458305526117
1.176522951864486
1.176589321597938
1.17665410865804
1.176710405606826
1.176747723256767
1.176761803595539
1.176763653384095
1.176763588401301
1.1767631901638
1.176761852072277
1.176758958418677
1.176753775999722
1.176745556272929
1.176733548369276
1.176717035029206
1.17669536658347
1.176667997566541
1.176634523248393
1.176594711669704
1.176548526382068
1.176496138593024
1.176437936120081
1.176374558250272
1.176307043845553
1.176237316283735
1.176169427952758
1.17611158391291
1.176075150765251
1.176062706322179
1.176061344752389
1.176061407947694
1.176061889452982
1.176063327195143
1.176066376362295
1.17607173783732
1.176080127963445
1.176092245419041
1.176108738711018
1.176130173385573
1.176157000503355
1.176189528672511
1.176227901654515
1.176272085155526
1.176321866999699
1.17637686707624
1.176436534368061
1.176500072439512
1.17656614948152
1.176632069698218
1.176692039413453
1.176735996147401
1.176756226502715
1.176760082031256
1.176760163493151
1.176759923602278
1.176758951260153
1.17675665483215
1.176752343375116
1.176745289522943
1.176734758893013
1.176720039245276
1.176700467472174
1.176675461345337
1.176644556203758
1.176607436277609
1.176563954324098
1.176514149348265
1.176458272937364
1.176396828537203
1.176330674868475
1.176261384816272
1.176192247665544
1.176130191439152
1.176086438797911
1.176067841794225
1.176064753710798
1.176064700963234
1.176065026417463
1.1760660951946
1.176068562542037
1.176073086413757
1.176080365824083
1.17609108723358
1.176105899085549
1.176125380032393
1.176150012671505
1.176180160391778
1.176216042980369
1.176257716741106
1.176305071095954
1.176357836396673
1.176415574435556
1.176477613323596
1.176542840987158
1.176609097597688
1.176671718676585
1.176721733940642
1.176749196797071
1.176756442646304
1.176756897995159
1.176756783647978
1.176756087026725
1.176754296327729
1.176750733894774
1.17674470619214
1.17673549557568
1.176722396554427
1.176704740456601
1.176681923667534
1.176653436955846
1.176618894357037
1.176578059778248
1.176530870576397
1.176477460316707
1.176418193413319
1.176353756505019
1.176285433926893
1.176215866617619
1.176150711393057
1.176100262341813
1.176074401138203
1.176068372216027
1.1760680864572
1.176068254741957
1.176069018075557
1.176070952616285
1.176074703053997
1.176080949420309
1.176090370144667
1.176103613245821
1.176121269828965
1.176143848599707
1.176171751944832
1.17620525471183
1.176244487933044
1.17628942933684
1.176339898924967
1.176395550510969
1.176455832108157
1.176519836893377
1.176585841851033
1.176650142082309
1.176705133538573
1.176740090422695
1.176752242956121
1.176753617248612
1.17675356187375
1.176753113168063
1.176751762348167
1.176748881941823
1.176743795157273
1.176735800812926
1.176724199974696
1.17670832072298
1.176687543936553
1.176661329913655
1.176629244000818
1.176590981555633
1.176546394045996
1.176495515990271
1.176438597296634
1.176376173602914
1.1763092722802
1.176239984923904
1.17617281923879
1.176116668835285
1.176082896175606
1.176072329694652
1.176071350827512
1.176071441524634
1.176071948884248
1.176073430144416
1.176076497749095
1.176081816067166
1.17609005318433
1.176101854758668
1.176117818316264
1.176138472249389
1.176164253347312
1.176195483284917
1.176232351598509
1.17627490802665
1.176323055083339
1.176376531800704
1.176434881886021
1.176497357365049
1.17656259007193
1.176627685931148
1.176686450286976
1.176728551059564
1.176747036048698
1.176750286796106
1.176750347222117
1.176750066366065
1.176749085185203
1.176746791356856
1.176742543876001
1.176735656175447
1.176725439528944
1.176711221862907
1.176692371769083
1.176668322681565
1.176638597925438
1.176602836446463
1.176560818846292
1.176512493774606
1.176458009895531
1.176397775346533
1.176332610067496
1.176264164240974
1.176195972915398
1.176135386561421
1.176093819009236
1.176077103288587
1.176074598680934
1.176074599900212
1.17607491930949
1.176076021463758
1.176078488289729
1.176082965106757
1.176090110352251
1.176100569158804
1.176114948068074
1.176133792012624
1.17615756271794
1.176186618948446
1.176221200289365
1.176261414863369
1.176307229273028
1.176358457594635
1.176414738847254
1.176475463498367
1.176539535866745
1.176604708214313
1.1766660921757
1.176714501809092
1.176740339152686
1.176746819154575
1.176747186262107
1.176747039520947
1.176746357294634
1.176744579596059
1.176741084663127
1.176735203689076
1.176726255284987
1.176713568309418
1.176696504132064
1.176674478710886
1.176646985351707
1.176613619304863
1.176574103707718
1.176528315423926
1.176476314692496
1.176418395518359
1.176355201793248
1.176288032595034
1.176219639084751
1.17615591641648
1.176107355426141
1.176083311358147
1.176078052140024
1.176077844196166
1.176078014966837
1.176078791525077
1.176080721549839
1.176084429529679
1.176090564054628
1.176099767858404
1.176112652231136
1.176129775664117
1.176151622789769
1.1761785853138
1.176210946210378
1.176248866281475
1.176292371669988
1.176341342242748
1.176395494834983
1.176454331700586
1.176516971589777
1.176581664736541
1.176644613073606
1.176698100780166
1.176731553459252
1.176742824146836
1.176744026123489
1.176743959136028
1.176743514472164
1.176742177067944
1.17673935089564
1.176734383732491
1.176726604933844
1.176715346447324
1.17669996507854
1.176679862933021
1.176654508842419
1.1766234614493
1.176586393801411
1.176543119337204
1.176493621658763
1.176438097919967
1.176377046495229
1.176311489186158
1.1762435615948
1.176177887501651
1.176123483907127
1.17609144452591
1.176081805152261
1.176080976989239
1.176081065517934
1.176081591928877
1.176083071627137
1.17608610636979
1.176091329154314
1.176099377550255
1.176110867704746
1.176126371656007
1.176146395000025
1.176171357952449
1.176201581143358
1.176237271403383
1.176278505699633
1.176325219515569
1.176377198070406
1.176434040764597
1.176495035040134
1.176558805267209
1.176622424733162
1.176679679060019
1.176720336593775
1.176737858932426
1.176740827217675
1.176740845395875
1.176740597166434
1.176739614001612
1.176737369623424
1.176733223032678
1.176726517023372
1.17671658785651
1.176702789212248
1.176684511815784
1.176661204014988
1.176632393852461
1.176597712517834
1.176556919070404
1.176509928771413
1.176456851741806
1.176398061654085
1.17633435756221
1.176267394935546
1.176200756207269
1.176141857928368
1.176101980063069
1.176086358242805
1.176084125799299
1.176084132814972
1.176084460674705
1.176085553669894
1.176087984172406
1.176092372916006
1.176099353370843
1.176109544331901
1.176123526631599
1.176141822177561
1.176164875766672
1.176193038970254
1.176226555558625
1.176265548739808
1.176310010465997
1.176359788943841
1.176414560050677
1.17647374392556
1.176536261245661
1.176599870028434
1.176659692768431
1.176706631248132
1.176731397549686
1.17673747904061
1.176737805655288
1.176737664884032
1.176736986876385
1.176735244767784
1.17673183140063
1.176726102130261
1.176717399349474
1.17670507549989
1.176688512420937
1.176667141556354
1.176640465351268
1.176608079561106
1.176569696853959
1.176525173868703
1.176474546081574
1.176418082958553
1.176356407119984
1.176290806369937
1.176224039981962
1.176162015609981
1.176115122699845
1.176092287314537
1.176087437703302
1.17608726097562
1.17608743915326
1.176088208982105
1.176090114528803
1.176093754352932
1.17609975436214
1.176108731874343
1.176121273584322
1.176137915618192
1.176159125141448
1.176185283334611
1.176216669692887
1.176253448263884
1.17629565590251
1.176343189742055
1.176395784979275
1.176452958193871
1.176513844757013
1.176576743595366
1.176638010888237
1.176690297485725
1.176723440073293
1.176734977720739
1.176736316344401
1.176736279865696
1.176735934227364
1.17673487218067
1.176732592398288
1.176728564085042
1.176722255046431
1.176713161028508
1.176700834523288
1.176684914151889
1.176665155265863
1.176641462101535
1.176613922950056
1.176582855589711
1.176548887831558
1.176513141945569
1.176477662299376
1.176446140871397
1.17642389489737
1.176413919330453
1.176411854940376
1.176411718157969
1.176411716176217
1.176411716171915
1.17641171617191
1.176411716171908
1.176411716171907
1.176411716171907
1.176411716171907
1.176411716171905
1.176411716171903
1.176411716171901
1.176411716171898
1.176411716171897
1.176411716171895
1.176411716171893
1.176411716171891
1.176411716171889
1.176411716171887
1.176411716171885
1.176411716171883
1.17641171617188
1.176411716171879
1.176411716171877
1.176411716171874
1.176411716171871
1.176411716171868
1.176411716171865
1.176411716171863
1.176411716171861
1.176411716171859
1.176411716171856
1.176411716171854
1.176411716171852
1.176411716171849
1.176411716171847
1.176411716171845
1.176411716171842
1.17641171617184
1.176411716171837
1.176411716171835
1.176411716171833
1.176411716171831
1.176411716171828
1.176411716171826
1.176411716171824
1.176411716171821
1.176411716171818
1.176411716171816
1.176411716171813
1.176411716171811
1.176411716171809
1.176411716171808
1.176411716171806
1.176411716171804
1.176411716171802
1.1764117161718
1.176411716171799
1.176411716171799
1.176411716171798
1.176411716171798
1.176411716171797
1.176411716171796
1.176411716171796
1.176411716171795
1.176411716171794
1.176411716171793
1.176411716171792
1.176411716171792
1.176411716171792
1.176411716171792
1.176411716171792
1.176411716171792
1.17641171617179
1.17641171617179
1.17641171617179
1.17641171617179
1.17641171617179
1.17641171617179
1.17641171617179
1.17641171617179
1.176411716171791
1.176411716171792
1.176411716171793
1.176411716171795
1.176411716171797
1.1764117161718
1.176411716171803
1.176411716171806
1.176411716171809
1.176411716171811
1.176411716171812
)
;

boundaryField
{
    inlet
    {
        type            calculated;
        value           uniform 1.176427481426743;
    }
    outlet
    {
        type            calculated;
        value           uniform 1.176411716171791;
    }
    frontAndBack
    {
        type            empty;
    }
}


// ************************************************************************* //
