/*--------------------------------*- C++ -*----------------------------------*\
| =========                 |                                                 |
| \\      /  F ield         | OpenFOAM: The Open Source CFD Toolbox           |
|  \\    /   O peration     | Version:  v2012                                 |
|   \\  /    A nd           | Website:  www.openfoam.com                      |
|    \\/     M anipulation  |                                                 |
\*---------------------------------------------------------------------------*/
FoamFile
{
    version     2.0;
    format      ascii;
    class       volScalarField;
    location    "0.0065";
    object      T;
}
// * * * * * * * * * * * * * * * * * * * * * * * * * * * * * * * * * * * * * //

dimensions      [0 0 0 1 0 0 0];


internalField   nonuniform List<scalar> 
1000
(
300.0097912967171
300.0080615738562
300.0144849370298
300.0194043997025
300.0241812807948
300.0284181596357
300.0323472885037
300.0359060712956
300.0389549198364
300.0409973498491
300.0416038487758
300.0416415625337
300.0413686437878
300.0405024390222
300.0388259114346
300.0362786263926
300.0329391686429
300.0289643992155
300.0244912639359
300.0196103215955
300.0143911909774
300.0089091525383
300.0032544586187
299.997531266334
299.9918535843036
299.9863368093913
299.9810810955731
299.9761479271325
299.9715438567993
299.9672548051862
299.963411656233
299.9605692109912
299.9593654326772
299.95922960943
299.9592860672919
299.9595135811147
299.9601518741092
299.9614009283652
299.9634335907819
299.9663252352539
299.9700360457098
299.9744321075195
299.9793396842398
299.9845981839738
299.9900838654178
299.995702874347
300.0013725756314
300.0070087750422
300.0125256352493
300.0178503948769
300.0229473782476
300.0278201998362
300.0324300452218
300.0364741352942
300.0392084456373
300.040176497814
300.0402513054413
300.0402192476341
300.0400084054133
300.0394822837031
300.0384499736563
300.0367470047774
300.034253177913
300.0309256085836
300.026810434513
300.0220324327142
300.0167636429894
300.0111832834979
300.0054467962332
299.9996752904583
299.9939599729294
299.9883653671747
299.9829242656866
299.9776387856529
299.9725162169024
299.9676772049945
299.9635652217539
299.9609946745112
299.9601981080125
299.9601463761273
299.9601998751819
299.9603857865807
299.9608684305881
299.9617961179021
299.9633237479088
299.965574667589
299.96861878602
299.9724539202596
299.9770024770977
299.9821251048887
299.9876466536973
299.9933870434353
299.9991899114376
300.0049420279489
300.0105789538608
300.0160790186198
300.0214487314138
300.0266842079516
300.0316594596621
300.0359067753935
300.0385792006154
300.0394219126685
300.0394774904351
300.0394516822103
300.0392892390986
300.0388845555619
300.0380886031094
300.0367597909963
300.0347707326637
300.0320306021188
300.0285026492877
300.024216810563
300.0192709425001
300.0138168111388
300.0080337628382
300.0020985076935
299.9961579741535
299.990308706856
299.9845889555006
299.9789964768996
299.9735503998699
299.968425442828
299.9641636125313
299.9616191143227
299.9608802209848
299.9608353991584
299.9608765679086
299.9610248008327
299.9614105749739
299.9621564397625
299.9633959092266
299.9652487266781
299.9678063530948
299.9711153852224
299.9751661780784
299.9798891036427
299.9851600909408
299.9908172895719
299.9966883717195
300.0026213468012
300.0085076721839
300.0142901828521
300.0199516331161
300.0254681411993
300.0306869620495
300.0351099957418
300.0378851289105
300.0387812022263
300.0388517744947
300.0388338870656
300.038709258595
300.0383912685302
300.0377537893536
300.0366730252684
300.0350288557535
300.0327209261279
300.0296823827873
300.0258935152162
300.0213907547238
300.0162664706046
300.0106580968223
300.0047284788857
299.9986398077798
299.9925252569006
299.986469563516
299.9805172658415
299.9747304604628
299.9693242872267
299.9648747118048
299.9622366297519
299.9614617498225
299.9614099964172
299.9614410627232
299.9615584848062
299.9618718198338
299.9624860114081
299.9635186411563
299.9650813852884
299.9672696607354
299.9701495030687
299.9737465706289
299.9780384737493
299.9829522408425
299.9883702734004
299.9941469748163
300.0001326993852
300.0061972817257
300.0122458266005
300.0182180459221
300.0240500994933
300.029558369255
300.0342299461902
300.0372062906173
300.0382191502883
300.0383152369818
300.0383042401353
300.0382096783163
300.0379577953599
300.037438791389
300.0365432870901
300.035160423213
300.033189949483
300.0305526470486
300.0272022501684
300.0231355529387
300.0183971196456
300.0130769232633
300.0073008189108
300.0012131295483
299.9949526057572
299.9886314059309
299.9823362992434
299.9761773604668
299.9704173346138
299.9656758727248
299.9628405012645
299.9619767504026
299.96190942011
299.961932895114
299.9620252667428
299.9622812165912
299.9627926026955
299.9636647363429
299.9650009537422
299.9668950139436
299.9694208589812
299.9726234672317
299.9765108638024
299.9810486159611
299.986160177583
299.9917357669555
299.9976481194111
300.0037705198287
300.0099926008588
300.0162250690512
300.0223695725809
300.0282114259231
300.033217388193
300.0364995571044
300.0377010289774
300.0378409240711
300.037835621985
300.0377636862166
300.0375640498677
300.037138773476
300.0363899408005
300.0352151344125
300.0335174118898
300.0312132057589
300.0282420291882
300.0245755592135
300.0202237025233
300.0152364411785
300.0097007589598
300.003730673499
299.997450060509
299.9909756991327
299.9844172771065
299.9779190549758
299.9717796389829
299.9666532998277
299.9634883643629
299.962452605709
299.9623547939963
299.9623717328344
299.962442909288
299.9626521643225
299.9630809062279
299.9638240676471
299.9649767701664
299.9666290520301
299.9688577742633
299.9717189826936
299.9752403697786
299.9794150290862
299.9841993366279
299.989517069722
299.995268804323
300.0013442157303
300.0076348888857
300.0140396959824
300.020439935369
300.0266037898313
300.0319949725267
300.0356958874843
300.0371925500708
300.0374102494588
300.0374103122265
300.0373573766905
300.0372000190986
300.0368508179936
300.0362213792028
300.0352171829827
300.0337457347476
300.0317226527283
300.0290796995032
300.0257725550504
300.021786770988
300.0171414033304
300.0118896276184
300.0061139104652
299.9999148265428
299.9933994148857
299.9866826033833
299.9799231710831
299.9734314779213
299.9678681500616
299.9642451156971
299.9629250468514
299.9627668782908
299.9627777099362
299.9628294873314
299.962997720554
299.9633553631437
299.9639897591502
299.9649889458332
299.9664384961984
299.9684151197222
299.9709805438832
299.974174907863
299.9780107432131
299.9824698139808
299.98750425857
299.9930414468176
299.9989916699376
300.005257637931
300.011738949626
300.0183114235406
300.0247449057485
300.0305264090974
300.0347321624346
300.0366491582942
300.0370045133233
300.0370122123222
300.0369761782836
300.0368553528573
300.0365711935394
300.0360429677629
300.0351827279109
300.0339026807446
300.0321197439916
300.0297620327369
300.0267752167055
300.0231279010217
300.0188160074278
300.0138653865195
300.0083302003758
300.0022863031621
299.9958244325215
299.9890533315686
299.9821299843944
299.9753527054902
299.969352104614
299.9651718997015
299.9634309282924
299.9631577809637
299.9631617122206
299.9631962486278
299.9633286963492
299.9636238573834
299.9641634153484
299.9650297309675
299.9663043641182
299.9680628196924
299.9703695281268
299.9732722698251
299.9767969716889
299.9809443109572
299.9856889376329
299.9909813170059
299.9967523467877
300.0029199908007
300.0093919984615
300.0160488657838
300.0226766903861
300.0288102135094
300.0335600095428
300.0360222779497
300.0366041589847
300.0366306588064
300.0366091589962
300.0365202302814
300.0362933481558
300.0358535466364
300.0351182887154
300.0340039482203
300.0324295773156
300.0303220154966
300.0276209285161
300.0242834714458
300.0202888011993
300.0156415693064
300.0103722112256
300.004533708178
299.9981986246506
299.9914633016659
299.9844722401668
299.977495276606
299.9711030484291
299.9663183741041
299.9640165066588
299.9635423400081
299.963529750884
299.9635510163945
299.9636521192092
299.9638920550695
299.9643475258168
299.965096393187
299.9662167977354
299.9677826906527
299.9698598454133
299.9725009723418
299.9757410710627
299.9795943793276
299.9840529897115
299.9890865922306
299.9946442999492
300.0006592616289
300.0070509985421
300.0137115675837
300.0204512340703
300.0268657561599
300.0321434989232
300.0352537797733
300.0361907660078
300.0362691054899
300.0362543009743
300.0361928945113
300.0360146308462
300.0356518659356
300.0350260614636
300.0340574348654
300.0326672476613
300.0307820955654
300.0283379285257
300.0252842080052
300.0215881734695
300.0172383588842
300.0122460107438
300.0066444908028
300.0004889328808
299.9938603703146
299.9868848107645
299.9797958160206
299.9730882100704
299.9677128035441
299.9647384991512
299.9639425025463
299.9638908110264
299.9639032651814
299.9639760973247
299.9641659806836
299.9645450020934
299.9651873896084
299.9661686952919
299.9675615875418
299.969432338527
299.9718366727772
299.9748159187403
299.9783942119994
299.982576524596
299.9873474156126
299.9926716902718
299.998497285304
300.0047561740836
300.0113534403453
300.018126354597
300.0247375351123
300.030482158467
300.0342900050449
300.0357267236247
300.0359154704703
300.0359088399559
300.0358682050435
300.0357316696318
300.0354364080812
300.0349076050996
300.0340688787018
300.0328436069942
300.0311585937498
300.0289475344105
300.0261547508827
300.0227389184596
300.0186763346705
300.0139632406526
300.0086170624684
300.002677327928
299.9962092283527
299.9893187397911
299.9822021269184
299.9752729838838
299.9693688298283
299.9656499897653
299.9643797302396
299.964240748535
299.9642471992024
299.9642963484737
299.9644431045621
299.9647543447761
299.9653016099026
299.9661580173226
299.9673948788408
299.969078381502
299.971266239577
299.9740044758542
299.977324566568
299.9812411558473
299.9857507085724
299.9908315299425
299.9964447833018
300.0025341900894
300.0090184294955
300.0157615544155
300.0224884462864
300.0286079100974
300.033093238415
300.0351574968415
300.035550903684
300.0355592157871
300.0355347378612
300.0354355222634
300.0352011997349
300.0347612672675
300.0340415041757
300.0329669717535
300.031464987461
300.029467877644
300.0269162156735
300.0237625646119
300.0199746730833
300.0155374792846
300.0104549205454
300.004752623063
299.9984819138232
299.9917303802749
299.9846585073748
299.9776019873211
299.9712679651297
299.9668020404134
299.9649037697388
299.9645885551203
299.9645831708481
299.9646163911082
299.9647254851536
299.9649773363438
299.9654391037193
299.9661821363296
299.9672764997611
299.9687883759516
299.9707768188811
299.9732910727727
299.9763682081339
299.9800306318045
299.9842840582613
299.9891171641194
299.9945023875027
300.0003949623128
300.0067262757972
300.0133827999475
300.0201441001925
300.0265341892335
300.0316377769302
300.0344400397801
300.0351793865924
300.0352258490271
300.0352141811286
300.0351430992003
300.0349603798029
300.034596875774
300.0339818187761
300.0330419788158
300.0317053632546
300.0299037324827
300.0275754800346
300.0246686239113
300.0211437531477
300.0169767425008
300.0121611591846
300.0067105870616
300.0006621647142
299.9940859153741
299.987112868796
299.980012531996
299.9733622761191
299.968212884449
299.9655731427837
299.9649577446999
299.9649285759152
299.9649457531652
299.9650236691979
299.9652211344934
299.9656039542793
299.966241540347
299.9672031392557
299.96855489078
299.9703571216471
299.9726617431267
299.9755098087911
299.9789293481803
299.9829337057708
299.9875205733974
299.992671540507
299.9983512329446
300.0045032734845
300.011035076847
300.0177707768123
300.0243322900983
300.0299437103397
300.0335106773514
300.0347506929715
300.0348909220795
300.0348852715404
300.0348394862412
300.0347016509598
300.0344077392622
300.0338886915884
300.0330729583495
300.0318892169856
300.030268898022
300.028148814811
300.0254738787746
300.0221997136754
300.0182952024278
300.0137451506334
300.008553036935
300.0027443156048
299.9963735988339
299.9895456872831
299.9824740111852
299.9756186355367
299.9698873617011
299.9664400953715
299.9653615322557
299.9652616150687
299.9652708726383
299.9653226603356
299.9654738574225
299.9657869777487
299.9663298346198
299.9671706193631
299.9683752317729
299.970004655405
299.9721128128823
299.9747442715745
299.9779318432501
299.9816948463991
299.9860383250495
299.9909522919743
299.996410071416
300.0023650521085
300.0087408577323
300.0153978289129
300.0220406111835
300.0280370912064
300.0323330510792
300.034219224063
300.034550922306
300.0345570878112
300.0345284295084
300.0344283113113
300.0341942526918
300.0337608458688
300.033058032942
300.032015533793
300.0305647645584
300.0286412866868
300.0261872727637
300.0231540614537
300.0195047823361
300.0152170125503
300.0102854707494
300.0047252810385
299.9985780440846
299.9919273885812
299.9849416869405
299.977981713884
299.971797733123
299.9675548575374
299.9658486239923
299.9655929685817
299.9655930928147
299.9656256957033
299.9657381959956
299.9659899925767
299.9664469544951
299.967176288715
299.9682438422159
299.9697115200312
299.9716349347557
299.9740612011142
299.9770269190113
299.9805565179111
299.9846610033887
299.9893369315163
299.9945652871597
300.0003091868879
300.0065063819112
300.0130450163632
300.0196956833593
300.0259595477732
300.0308993114627
300.0335357203407
300.0341969253125
300.03423438397
300.0342194105163
300.0341497970082
300.0339684031983
300.0336117849334
300.0330116969029
300.0320986083661
300.0308040316831
300.0290627929681
300.0268152836559
300.0240097818049
300.0206049611498
300.016572538012
300.0118999084389
300.0065931751409
300.0006822924723
299.9942329215588
299.9873775966165
299.9803970738093
299.9738930502448
299.9689363899207
299.9664821394027
299.9659453109415
299.9659240851604
299.9659415160623
299.9660207815733
299.9662177849228
299.9665962690052
299.9672224359859
299.96816188867
299.9694770178481
299.9712248215712
299.9734547546048
299.9762067814227
299.9795097626043
299.9833800830212
299.9878203779763
299.992818348831
299.998345054973
300.0043496557763
300.0107421761308
300.0173440196601
300.0237675946852
300.0292255869887
300.0326390798265
300.0337891194151
300.0339117664977
300.033904931027
300.0338595579615
300.0337230909508
300.0334347118234
300.0329278677191
300.0321341247782
300.0309853115044
300.0294157896927
300.0273645391721
300.0247773430198
300.0216091422232
300.0178265447909
300.0134104774849
300.0083592249539
300.0026928595307
299.9964621917952
299.9897714548146
299.9828385705962
299.9761354512975
299.9705824908359
299.9673121577089
299.9663282329135
299.9662436992057
299.9662527354417
299.9663064676006
299.9664575045916
299.9667672691319
299.9673003720781
299.9681218896696
299.9692947093757
299.9708772133191
299.9729209977556
299.9754689392499
299.9785537442148
299.9821964979778
299.9864050255632
299.9911727067259
299.9964775815142
300.0022787241462
300.0085033737099
300.0150111096006
300.0215032465897
300.0273456569061
300.0314943647326
300.0332823188884
300.0335851969582
300.0335870516914
300.0335617225181
300.0334614014985
300.0332323876744
300.0328092736021
300.0321249971163
300.0311118276367
300.0297038092489
300.0278387622234
300.0254603816331
300.0225204885996
300.0189814227096
300.014818564609
300.0100232277364
300.0046066048585
299.9986067812048
299.9921052554179
299.9852709405163
299.9784694477828
299.9724577841211
299.9683873932026
299.9667928253916
299.9665649520841
299.9665656680826
299.9665991335245
299.9667106984916
299.9669587863247
299.9674067562827
299.9681192666119
299.9691594758211
299.9705866648146
299.9724540963333
299.9748071578634
299.9776817161693
299.9811026293115
299.9850824443185
299.9896203065009
299.9947006861177
300.0002904633011
300.0063304189695
300.0127103677934
300.0192014906411
300.025306059402
300.0300957228548
300.0326228552026
300.0332434001232
300.033276727256
300.033262363038
300.0331931798181
300.0330154168289
300.0326671199017
300.0320825089457
300.0311944797043
300.0299369509154
300.028246837628
300.0260661119615
300.0233439854311
300.0200391845701
300.0161223589922
300.0115788427873
300.0064122137232
300.0006499240035
299.9943554658554
299.9876602245293
299.9808457851026
299.9745151197211
299.9697287388385
299.9673978725516
299.9669028567781
299.9668848175531
299.9669030045729
299.9669815829856
299.9671760869832
299.9675476125798
299.9681600464414
299.9690763969502
299.9703565443903
299.9720552041875
299.9742200487671
299.9768899691732
299.9800934721401
299.9838472754175
299.9881551095381
299.9930064402356
299.9983742030692
300.0042090216295
300.010422619026
300.0168413693593
300.0230934207653
300.0284288700674
300.0318107362356
300.0329880212322
300.033124612196
300.0331208899236
300.0330856213358
300.0329772511637
300.032744624278
300.0323335782559
300.0316898070501
300.0307618542728
300.0295040519093
300.0278795180627
300.025863279237
300.0234455515077
300.0206353300305
300.017465026564
300.0139986912429
300.0103508367676
300.0067300853457
300.0035132190961
300.0012429098546
300.0002248455839
300.0000141621132
300.000000202658
300.0000000004084
299.9999999999694
299.999999999969
299.9999999999689
299.9999999999689
299.999999999969
299.999999999969
299.9999999999688
299.9999999999687
299.9999999999686
299.9999999999683
299.9999999999681
299.9999999999678
299.9999999999677
299.9999999999676
299.9999999999674
299.9999999999672
299.9999999999671
299.9999999999667
299.9999999999662
299.9999999999659
299.9999999999656
299.9999999999654
299.9999999999654
299.9999999999653
299.9999999999652
299.9999999999648
299.9999999999646
299.9999999999645
299.9999999999642
299.9999999999638
299.9999999999636
299.9999999999632
299.9999999999629
299.9999999999626
299.9999999999624
299.9999999999623
299.9999999999621
299.999999999962
299.9999999999617
299.9999999999616
299.9999999999612
299.9999999999607
299.9999999999603
299.99999999996
299.9999999999599
299.9999999999597
299.9999999999596
299.9999999999595
299.9999999999594
299.9999999999593
299.9999999999591
299.9999999999588
299.9999999999587
299.9999999999586
299.9999999999583
299.9999999999583
299.9999999999582
299.999999999958
299.999999999958
299.999999999958
299.999999999958
299.9999999999579
299.9999999999579
299.9999999999578
299.9999999999577
299.9999999999575
299.9999999999575
299.9999999999574
299.9999999999574
299.9999999999573
299.9999999999573
299.9999999999573
299.9999999999574
299.9999999999575
299.9999999999577
299.9999999999578
299.9999999999579
299.9999999999579
299.9999999999578
299.9999999999576
299.9999999999577
299.9999999999578
299.9999999999579
299.999999999958
299.9999999999581
299.9999999999581
299.9999999999582
299.9999999999584
299.9999999999598
)
;

boundaryField
{
    inlet
    {
        type            fixedValue;
        value           uniform 300;
    }
    outlet
    {
        type            temperatureOutletNSCBC;
        pInf            101325;
        gamma           1.4;
        etaAc           1;
        fieldInf        1;
        lInf            2.25;
        value           uniform 299.9999999999647;
    }
    frontAndBack
    {
        type            empty;
    }
}


// ************************************************************************* //
