/*--------------------------------*- C++ -*----------------------------------*\
| =========                 |                                                 |
| \\      /  F ield         | OpenFOAM: The Open Source CFD Toolbox           |
|  \\    /   O peration     | Version:  v2012                                 |
|   \\  /    A nd           | Website:  www.openfoam.com                      |
|    \\/     M anipulation  |                                                 |
\*---------------------------------------------------------------------------*/
FoamFile
{
    version     2.0;
    format      ascii;
    class       volVectorField;
    location    "0.0065";
    object      U;
}
// * * * * * * * * * * * * * * * * * * * * * * * * * * * * * * * * * * * * * //

dimensions      [0 1 -1 0 0 0 0];


internalField   nonuniform List<vector> 
1000
(
(0.002910029961411433 0 0)
(0.03442048271951679 0 0)
(0.04256049368063779 0 0)
(0.05763248628465983 0 0)
(0.07147011929899641 0 0)
(0.08445452207101559 0 0)
(0.09560795798448091 0 0)
(0.1051303130033941 0 0)
(0.1131814492507044 0 0)
(0.118579102501095 0 0)
(0.1200673623510649 0 0)
(0.1199433098531785 0 0)
(0.1191277855433398 0 0)
(0.1166421686316111 0 0)
(0.1118479137661427 0 0)
(0.1045356857279128 0 0)
(0.09497043777010954 0 0)
(0.08358973702329295 0 0)
(0.07076427764046608 0 0)
(0.05674020657640283 0 0)
(0.04170780290625897 0 0)
(0.02588188348474755 0 0)
(0.009534324154782651 0 0)
(-0.007021803163412044 0 0)
(-0.02346075712239692 0 0)
(-0.03945641672689353 0 0)
(-0.05470307029924438 0 0)
(-0.06899407497583829 0 0)
(-0.08231403745670941 0 0)
(-0.09474067644220742 0 0)
(-0.1058971129216912 0 0)
(-0.1141214581655423 0 0)
(-0.117556744298048 0 0)
(-0.117919698572903 0 0)
(-0.1178188141808294 0 0)
(-0.1171013883044683 0 0)
(-0.1152641831931996 0 0)
(-0.1116461362582852 0 0)
(-0.1057646642131241 0 0)
(-0.0974008547417818 0 0)
(-0.0866711371049573 0 0)
(-0.07395850747046401 0 0)
(-0.05976265398562557 0 0)
(-0.04455242868967936 0 0)
(-0.02868994336216037 0 0)
(-0.01244060915065179 0 0)
(0.003964568438003305 0 0)
(0.02027472131691194 0 0)
(0.03622703548749154 0 0)
(0.05161754720254945 0 0)
(0.06636645463753865 0 0)
(0.08048108294906799 0 0)
(0.09381233912398164 0 0)
(0.1054790516638495 0 0)
(0.1133812127455555 0 0)
(0.1162158192875565 0 0)
(0.1164543620760994 0 0)
(0.1162974761020252 0 0)
(0.1157275120390355 0 0)
(0.1141936266023547 0 0)
(0.1112097526811522 0 0)
(0.1062850916514326 0 0)
(0.09907268669378548 0 0)
(0.08944653048234152 0 0)
(0.07754305399676847 0 0)
(0.06372558372447781 0 0)
(0.04848780038066604 0 0)
(0.032343595659653 0 0)
(0.01574727432894066 0 0)
(-0.0009428928779440989 0 0)
(-0.01746797058814921 0 0)
(-0.03365489187680842 0 0)
(-0.04940538981517455 0 0)
(-0.06469137440647653 0 0)
(-0.07949031770946786 0 0)
(-0.09348633678678235 0 0)
(-0.1054072690886589 0 0)
(-0.1128547640804387 0 0)
(-0.115129591073536 0 0)
(-0.115251969110514 0 0)
(-0.1151548843881547 0 0)
(-0.114584367776377 0 0)
(-0.113197761591757 0 0)
(-0.110512884198024 0 0)
(-0.106093204572703 0 0)
(-0.09958155196172516 0 0)
(-0.09077727783579254 0 0)
(-0.07968417357139604 0 0)
(-0.0665248086177596 0 0)
(-0.05170568936571336 0 0)
(-0.03573687103830862 0 0)
(-0.01913500722199897 0 0)
(-0.002346385087638464 0 0)
(0.01429660638612015 0 0)
(0.03059713887532378 0 0)
(0.04649700792249449 0 0)
(0.06203245556212938 0 0)
(0.07719031946499862 0 0)
(0.09157909201950556 0 0)
(0.1038421425896066 0 0)
(0.1115667145836926 0 0)
(0.1140294186320857 0 0)
(0.1142065169265495 0 0)
(0.1140864477941505 0 0)
(0.113644648349548 0 0)
(0.1124657215885841 0 0)
(0.1101647650654286 0 0)
(0.1063219534971986 0 0)
(0.1005693705153958 0 0)
(0.09264273089599888 0 0)
(0.08243786635907473 0 0)
(0.0700432841322613 0 0)
(0.05573914762091255 0 0)
(0.03996103483116441 0 0)
(0.02323117242987685 0 0)
(0.006066448307321665 0 0)
(-0.01111193763091888 0 0)
(-0.0280344985368005 0 0)
(-0.04458764907714675 0 0)
(-0.06076191856071866 0 0)
(-0.07650186904804704 0 0)
(-0.09132631768276502 0 0)
(-0.1036735060700759 0 0)
(-0.1110413679830893 0 0)
(-0.1131571958190209 0 0)
(-0.1132685934210015 0 0)
(-0.1131904479616413 0 0)
(-0.1127379672988394 0 0)
(-0.1116290681545437 0 0)
(-0.1094704914250324 0 0)
(-0.1058844797682517 0 0)
(-0.1005245547049371 0 0)
(-0.09312730776734321 0 0)
(-0.08355579637731628 0 0)
(-0.07183655426421139 0 0)
(-0.05817399658417304 0 0)
(-0.04292953484044064 0 0)
(-0.02656744890898357 0 0)
(-0.009581755282319812 0 0)
(0.007583091568678437 0 0)
(0.02460516586917673 0 0)
(0.04132422290877417 0 0)
(0.05770403495015332 0 0)
(0.07367154709609264 0 0)
(0.08876308429622137 0 0)
(0.1015386281352356 0 0)
(0.1095640673236943 0 0)
(0.1121761106504529 0 0)
(0.1123917959702825 0 0)
(0.112302431024764 0 0)
(0.1119665288596885 0 0)
(0.1110391476329342 0 0)
(0.1091965144969905 0 0)
(0.1060709593829832 0 0)
(0.101315822604997 0 0)
(0.09463955035541247 0 0)
(0.08585044687901447 0 0)
(0.07489293661321329 0 0)
(0.06187008217664936 0 0)
(0.04704655574738563 0 0)
(0.03082279483823283 0 0)
(0.01367400404796902 0 0)
(-0.003934198275367252 0 0)
(-0.02162380949730751 0 0)
(-0.03914632706252774 0 0)
(-0.05636097119931859 0 0)
(-0.07308998425746853 0 0)
(-0.08872959196736503 0 0)
(-0.101615600520114 0 0)
(-0.1092499042333151 0 0)
(-0.1114744833851194 0 0)
(-0.1116125883932783 0 0)
(-0.1115539877164796 0 0)
(-0.1111950971415249 0 0)
(-0.1102946203207306 0 0)
(-0.1085169798558986 0 0)
(-0.1055294499032488 0 0)
(-0.1010088020113967 0 0)
(-0.09467972275488366 0 0)
(-0.08634941970356305 0 0)
(-0.07594295498940942 0 0)
(-0.06352765304510662 0 0)
(-0.04931605817924825 0 0)
(-0.03364484686991651 0 0)
(-0.01693241935590448 0 0)
(0.0003836299553552195 0 0)
(0.01792145198673739 0 0)
(0.03541234869246508 0 0)
(0.0526916848031266 0 0)
(0.06956860659951405 0 0)
(0.08549543008727152 0 0)
(0.09899391998040742 0 0)
(0.107605384740294 0 0)
(0.1105510058403238 0 0)
(0.1108350359721263 0 0)
(0.1107726865189151 0 0)
(0.1105212232228105 0 0)
(0.1097854281915284 0 0)
(0.1082855176183303 0 0)
(0.1056957204493852 0 0)
(0.1016962570575625 0 0)
(0.09599613976938949 0 0)
(0.08836775991165691 0 0)
(0.07867833504773156 0 0)
(0.06691646365661352 0 0)
(0.0532092053338046 0 0)
(0.03781959796602796 0 0)
(0.02111478631638342 0 0)
(0.003508572832620305 0 0)
(-0.01460327049241564 0 0)
(-0.03289223587203065 0 0)
(-0.05109786970689647 0 0)
(-0.06890546406409467 0 0)
(-0.08557015787829313 0 0)
(-0.09929776796642566 0 0)
(-0.1074997606021011 0 0)
(-0.1099842381445153 0 0)
(-0.1101714613202272 0 0)
(-0.1101296464604337 0 0)
(-0.1098451236299364 0 0)
(-0.1091103690038247 0 0)
(-0.1076300397148421 0 0)
(-0.1051068219241187 0 0)
(-0.1012415735553446 0 0)
(-0.09576349239524823 0 0)
(-0.08845698700757726 0 0)
(-0.07919165135833196 0 0)
(-0.06794674526539439 0 0)
(-0.0548226640995125 0 0)
(-0.04003734135006072 0 0)
(-0.02390663953438821 0 0)
(-0.00680366672228732 0 0)
(0.0109013261155232 0 0)
(0.02889569830427691 0 0)
(0.04692848556081149 0 0)
(0.0647070308339836 0 0)
(0.08159714166107775 0 0)
(0.09606564978445442 0 0)
(0.1055643470336474 0 0)
(0.1090526908752163 0 0)
(0.1094609202473542 0 0)
(0.1094173988756416 0 0)
(0.1092316475484674 0 0)
(0.108646403884802 0 0)
(0.1074178769247269 0 0)
(0.1052521722952101 0 0)
(0.1018543729791429 0 0)
(0.0969432744655581 0 0)
(0.09027851487244115 0 0)
(0.08168578125881232 0 0)
(0.0710812487415113 0 0)
(0.05849236439194666 0 0)
(0.0440663076594906 0 0)
(0.02805680212034221 0 0)
(0.0107899949946551 0 0)
(-0.007379868984080848 0 0)
(-0.02611046694851958 0 0)
(-0.0450772778651105 0 0)
(-0.06386814199221447 0 0)
(-0.08163154577113667 0 0)
(-0.09647014292926198 0 0)
(-0.105622871293155 0 0)
(-0.1086072901896573 0 0)
(-0.1088856009993624 0 0)
(-0.1088595255403006 0 0)
(-0.1086370107469908 0 0)
(-0.1080373473738001 0 0)
(-0.1067959545388859 0 0)
(-0.1046459614755291 0 0)
(-0.1013116597561645 0 0)
(-0.09653276283348357 0 0)
(-0.09008557851330441 0 0)
(-0.08180809219442302 0 0)
(-0.07162218700350804 0 0)
(-0.0595479378488098 0 0)
(-0.04570865497674968 0 0)
(-0.03032432034718139 0 0)
(-0.01368685525992236 0 0)
(0.003882908332768854 0 0)
(0.02207748443118582 0 0)
(0.04060835389434075 0 0)
(0.0591237951238215 0 0)
(0.07694520650594733 0 0)
(0.09253209902272647 0 0)
(0.1032430334481132 0 0)
(0.1075809931600355 0 0)
(0.1082121656013992 0 0)
(0.1081888383897044 0 0)
(0.1080563730395563 0 0)
(0.107593443191781 0 0)
(0.1065851211653076 0 0)
(0.1047646876194076 0 0)
(0.1018602285393188 0 0)
(0.09760365248500907 0 0)
(0.09175220952601519 0 0)
(0.0841087537258693 0 0)
(0.07454322133383486 0 0)
(0.06301326586675871 0 0)
(0.0495766868213671 0 0)
(0.03438842631731483 0 0)
(0.01768304086280758 0 0)
(-0.0002511441636933267 0 0)
(-0.01909908915778875 0 0)
(-0.03852324984364053 0 0)
(-0.05807150232956406 0 0)
(-0.07685558059225416 0 0)
(-0.09295594021925274 0 0)
(-0.1034310051265294 0 0)
(-0.1072398235149569 0 0)
(-0.1076951950413027 0 0)
(-0.1076857682099823 0 0)
(-0.1075180510797411 0 0)
(-0.1070378999116642 0 0)
(-0.1060018413571749 0 0)
(-0.104166663494699 0 0)
(-0.1012765049773279 0 0)
(-0.09708383767888275 0 0)
(-0.09136577217242367 0 0)
(-0.08394419742524534 0 0)
(-0.07470445609273542 0 0)
(-0.06360981956940423 0 0)
(-0.05071087394618746 0 0)
(-0.03614655853351566 0 0)
(-0.02013040258449225 0 0)
(-0.002921881524270661 0 0)
(0.01520273982760642 0 0)
(0.03395410013754973 0 0)
(0.05296532271511371 0 0)
(0.07156733177340745 0 0)
(0.08828683250889585 0 0)
(0.1004582679874382 0 0)
(0.1060097483252183 0 0)
(0.1070328951904242 0 0)
(0.1070401977834446 0 0)
(0.1069540286698756 0 0)
(0.106596474869022 0 0)
(0.105776549246738 0 0)
(0.1042487571190511 0 0)
(0.10176055876425 0 0)
(0.09805767932593107 0 0)
(0.09290100963250529 0 0)
(0.08608243842693522 0 0)
(0.07744312953345091 0 0)
(0.06689238160222714 0 0)
(0.05442089582637192 0 0)
(0.04010352915617654 0 0)
(0.02409306716197303 0 0)
(0.00660800139111033 0 0)
(-0.01208356551924834 0 0)
(-0.03166459157529718 0 0)
(-0.05168916377919041 0 0)
(-0.07130000961651947 0 0)
(-0.08866214895869863 0 0)
(-0.1007474570094966 0 0)
(-0.1057763523011532 0 0)
(-0.1065656050065205 0 0)
(-0.1065758312918234 0 0)
(-0.1064561488207897 0 0)
(-0.1060806075965719 0 0)
(-0.1052249117302757 0 0)
(-0.1036643221500383 0 0)
(-0.101158479170612 0 0)
(-0.0974715341754131 0 0)
(-0.09238460143210886 0 0)
(-0.08571180568751292 0 0)
(-0.07731557556810907 0 0)
(-0.06712027436736484 0 0)
(-0.05512299348649786 0 0)
(-0.04139797266985379 0 0)
(-0.02609012541043812 0 0)
(-0.009398320973062904 0 0)
(0.008442687918023292 0 0)
(0.02716494581559505 0 0)
(0.04641866019532809 0 0)
(0.06558587083799235 0 0)
(0.08332694494014714 0 0)
(0.0970697714306135 0 0)
(0.1041926139873444 0 0)
(0.1058700984008393 0 0)
(0.1059435746483112 0 0)
(0.1058906196463403 0 0)
(0.1056276742790506 0 0)
(0.1049731084317481 0 0)
(0.1037010301368688 0 0)
(0.101574231902361 0 0)
(0.09835078362900479 0 0)
(0.09379748981844066 0 0)
(0.08770221810614388 0 0)
(0.07988914280163525 0 0)
(0.07023498802397199 0 0)
(0.05868145423795389 0 0)
(0.04524117787312833 0 0)
(0.02999896692147803 0 0)
(0.01310869112315583 0 0)
(-0.005214817071667399 0 0)
(-0.02469297457742296 0 0)
(-0.04491546808440289 0 0)
(-0.06510333795744006 0 0)
(-0.08359519586970007 0 0)
(-0.09742796876938635 0 0)
(-0.1040814177352579 0 0)
(-0.1054603859636512 0 0)
(-0.1055079598215492 0 0)
(-0.1054288858753534 0 0)
(-0.1051453179682256 0 0)
(-0.1044487392677925 0 0)
(-0.1031315082433027 0 0)
(-0.1009655771491534 0 0)
(-0.09772473339914756 0 0)
(-0.09319453782147025 0 0)
(-0.08718580700919314 0 0)
(-0.07954677314317925 0 0)
(-0.07017468928002643 0 0)
(-0.05902720943619255 0 0)
(-0.04612941009448285 0 0)
(-0.03157113340071539 0 0)
(-0.01549665703478632 0 0)
(0.001904411988805922 0 0)
(0.02039547498507244 0 0)
(0.03965764070597447 0 0)
(0.05914636536224335 0 0)
(0.07770330119379193 0 0)
(0.09297709892987355 0 0)
(0.1019713018473653 0 0)
(0.1046712188941603 0 0)
(0.1048937212749825 0 0)
(0.1048703202773338 0 0)
(0.1046789605999158 0 0)
(0.1041677416020132 0 0)
(0.1031177200159509 0 0)
(0.1013076367049093 0 0)
(0.09850587681512853 0 0)
(0.09448524219502637 0 0)
(0.08903288963762235 0 0)
(0.08196301757327243 0 0)
(0.07313013941717193 0 0)
(0.06244034019178113 0 0)
(0.04985943543857179 0 0)
(0.03541845005166093 0 0)
(0.01921511852685968 0 0)
(0.001411340345415729 0 0)
(-0.01776004726644169 0 0)
(-0.03793870977744282 0 0)
(-0.05844766709746445 0 0)
(-0.07784918784370176 0 0)
(-0.0933934201143877 0 0)
(-0.1019968978367413 0 0)
(-0.1043052799054111 0 0)
(-0.1044580086097711 0 0)
(-0.1044114362917858 0 0)
(-0.104207610405779 0 0)
(-0.1036561173926893 0 0)
(-0.1025601246311843 0 0)
(-0.1007021251827445 0 0)
(-0.09786348476367225 0 0)
(-0.09383385832921164 0 0)
(-0.08842244224736051 0 0)
(-0.08146816717781988 0 0)
(-0.07285020260038874 0 0)
(-0.06249847761367588 0 0)
(-0.0504005779816294 0 0)
(-0.03660189395212823 0 0)
(-0.02120142190521507 0 0)
(-0.004348251823525685 0 0)
(0.01375673445240395 0 0)
(0.03283575666657484 0 0)
(0.05242364333583314 0 0)
(0.07155051482948691 0 0)
(0.08817083727149992 0 0)
(0.09918033109473681 0 0)
(0.1033294921818566 0 0)
(0.1038742009537065 0 0)
(0.1038706294439386 0 0)
(0.1037399135745394 0 0)
(0.1033497082349024 0 0)
(0.1024946492674109 0 0)
(0.1009653305794113 0 0)
(0.09853940770674774 0 0)
(0.09499551822080494 0 0)
(0.09012185085183252 0 0)
(0.08372659912241757 0 0)
(0.07564878882994398 0 0)
(0.06576890565127091 0 0)
(0.05401823644834903 0 0)
(0.04038580176100425 0 0)
(0.02492213846475288 0 0)
(0.00774165974263728 0 0)
(-0.0109673646917972 0 0)
(-0.03089868081856907 0 0)
(-0.05148429542646427 0 0)
(-0.07152744479509003 0 0)
(-0.08860581770011891 0 0)
(-0.09936342440900935 0 0)
(-0.1030382685873894 0 0)
(-0.1034403963176119 0 0)
(-0.1034208257025648 0 0)
(-0.1032794115400024 0 0)
(-0.1028545834379541 0 0)
(-0.1019543468284946 0 0)
(-0.1003713114546849 0 0)
(-0.09789395139416006 0 0)
(-0.09431604076488614 0 0)
(-0.08944627588237544 0 0)
(-0.08311762617892071 0 0)
(-0.07519675873892147 0 0)
(-0.06559276811026292 0 0)
(-0.05426367245248093 0 0)
(-0.04121959215216403 0 0)
(-0.02652276192301714 0 0)
(-0.01028568001593609 0 0)
(0.007327939931803584 0 0)
(0.02608284252494022 0 0)
(0.04558712613474243 0 0)
(0.06504527578570947 0 0)
(0.08274545533517896 0 0)
(0.09571728077544267 0 0)
(0.1016870596334487 0 0)
(0.1028260793725567 0 0)
(0.1028522636470043 0 0)
(0.1027781618004115 0 0)
(0.1024929728731592 0 0)
(0.1018148088466645 0 0)
(0.1005421588625862 0 0)
(0.0984604403118203 0 0)
(0.09535290577614937 0 0)
(0.09100845570209944 0 0)
(0.08523147432117011 0 0)
(0.07785132524937882 0 0)
(0.0687306658374883 0 0)
(0.05777426660928485 0 0)
(0.04493848862502781 0 0)
(0.03023760011675191 0 0)
(0.0137461763430094 0 0)
(-0.004391765862586616 0 0)
(-0.02392449272526381 0 0)
(-0.0443814299357904 0 0)
(-0.06478800865519337 0 0)
(-0.08310726881578372 0 0)
(-0.09603098186433241 0 0)
(-0.1015279849279008 0 0)
(-0.10243764244774 0 0)
(-0.1024392140531411 0 0)
(-0.102357924045361 0 0)
(-0.1020361730173816 0 0)
(-0.1013092566007401 0 0)
(-0.09997339567273322 0 0)
(-0.09782381475458361 0 0)
(-0.09465797355196716 0 0)
(-0.09028499442592536 0 0)
(-0.08453337807518638 0 0)
(-0.07725991531739498 0 0)
(-0.0683583539873289 0 0)
(-0.05776516945327048 0 0)
(-0.04546255473042051 0 0)
(-0.03148118979988903 0 0)
(-0.01590251176091119 0 0)
(0.001140425608518969 0 0)
(0.01945102504984967 0 0)
(0.03870662871921775 0 0)
(0.05826790125931944 0 0)
(0.07674925900449472 0 0)
(0.09150394555323375 0 0)
(0.09960856870886919 0 0)
(0.101754844129426 0 0)
(0.1018938763337259 0 0)
(0.1018458734213465 0 0)
(0.1016491895279953 0 0)
(0.1011181026850694 0 0)
(0.1000672306734167 0 0)
(0.09828819621986916 0 0)
(0.09556986875329768 0 0)
(0.09170387580361263 0 0)
(0.08649287692981415 0 0)
(0.07975871356703518 0 0)
(0.07135097819479598 0 0)
(0.06115558520921579 0 0)
(0.0491027718326533 0 0)
(0.03517399981335809 0 0)
(0.01940845346328908 0 0)
(0.001913334918348966 0 0)
(-0.01710880059264562 0 0)
(-0.03727872692155504 0 0)
(-0.05781695459491695 0 0)
(-0.07705374982023822 0 0)
(-0.09194948851497017 0 0)
(-0.09958543789042267 0 0)
(-0.1013652849523899 0 0)
(-0.1014494160586347 0 0)
(-0.1014003237678164 0 0)
(-0.1011745733053009 0 0)
(-0.1006034843976977 0 0)
(-0.0994960877334488 0 0)
(-0.0976517317627697 0 0)
(-0.09487012904682358 0 0)
(-0.0909599784812893 0 0)
(-0.08574671799789228 0 0)
(-0.07908017984054716 0 0)
(-0.07084172145100938 0 0)
(-0.0609503215118485 0 0)
(-0.04936726951102256 0 0)
(-0.03609920453307507 0 0)
(-0.02119962094187858 0 0)
(-0.004771026104914181 0 0)
(0.01302374742881372 0 0)
(0.03191713059681319 0 0)
(0.05140002527819755 0 0)
(0.07037834995693527 0 0)
(0.08660837558901265 0 0)
(0.09692563988545627 0 0)
(0.1005127219414405 0 0)
(0.1009184330926933 0 0)
(0.1009009415498864 0 0)
(0.1007694838899402 0 0)
(0.100370442238922 0 0)
(0.09952040003261099 0 0)
(0.09801919256769814 0 0)
(0.0956598227855054 0 0)
(0.09223590191960268 0 0)
(0.08754931017016779 0 0)
(0.08141740964279333 0 0)
(0.07368052832307563 0 0)
(0.06421004806681045 0 0)
(0.05291641060764367 0 0)
(0.0397560871255445 0 0)
(0.02473841428233032 0 0)
(0.007936117693801377 0 0)
(-0.01049196441300746 0 0)
(-0.03024120085980277 0 0)
(-0.05069539680030823 0 0)
(-0.07052640013653398 0 0)
(-0.08710708072901166 0 0)
(-0.09707826163229978 0 0)
(-0.1001956282922221 0 0)
(-0.1004836913694422 0 0)
(-0.100461977104445 0 0)
(-0.1003084308169299 0 0)
(-0.09987241339634063 0 0)
(-0.09896635063584849 0 0)
(-0.09739587687488085 0 0)
(-0.0949638567821109 0 0)
(-0.09147958030405601 0 0)
(-0.08676602227478025 0 0)
(-0.08066740344967331 0 0)
(-0.07305574244672446 0 0)
(-0.06383593130792216 0 0)
(-0.05295070471233738 0 0)
(-0.04038566354375388 0 0)
(-0.02617190112625927 0 0)
(-0.01038670816642833 0 0)
(0.006838343458541875 0 0)
(0.02528301754434672 0 0)
(0.0445384400642922 0 0)
(0.06374831162598833 0 0)
(0.08109091420649714 0 0)
(0.09352068072427198 0 0)
(0.09898045813768641 0 0)
(0.09993633469350728 0 0)
(0.09994588566357238 0 0)
(0.09987348226007303 0 0)
(0.0995792806521502 0 0)
(0.09890343128793316 0 0)
(0.09764967535673817 0 0)
(0.09561691753419446 0 0)
(0.09260160515838282 0 0)
(0.08840545591385056 0 0)
(0.08284207509722298 0 0)
(0.07574411430807482 0 0)
(0.06697080231639453 0 0)
(0.05641558325009657 0 0)
(0.04401358558412388 0 0)
(0.02974932151789429 0 0)
(0.01366643866837632 0 0)
(-0.0041145306521937 0 0)
(-0.02335161758582343 0 0)
(-0.04355820397905476 0 0)
(-0.06369099086071715 0 0)
(-0.08157923501981422 0 0)
(-0.09385216059237012 0 0)
(-0.09878741836775114 0 0)
(-0.09952690104263244 0 0)
(-0.09952747448489238 0 0)
(-0.0994323103370332 0 0)
(-0.09910722470276047 0 0)
(-0.09837875705571335 0 0)
(-0.09705690466564595 0 0)
(-0.09494720380902151 0 0)
(-0.09185913969170414 0 0)
(-0.08761357467202729 0 0)
(-0.08204973796700396 0 0)
(-0.07503146683472378 0 0)
(-0.06645278242148649 0 0)
(-0.056242855116868 0 0)
(-0.04437005028330454 0 0)
(-0.03084468705501709 0 0)
(-0.01572159535524149 0 0)
(0.0008930462613060563 0 0)
(0.01881891953353262 0 0)
(0.03773153016402865 0 0)
(0.05696743518376125 0 0)
(0.07508519832193973 0 0)
(0.08937399479048366 0 0)
(0.09699975516084776 0 0)
(0.09891094413969934 0 0)
(0.09901831430351735 0 0)
(0.09897742119379958 0 0)
(0.09877463379113981 0 0)
(0.09825038645452247 0 0)
(0.0972188862224652 0 0)
(0.09548319286112647 0 0)
(0.09284216117733403 0 0)
(0.08909782947043564 0 0)
(0.084061587645307 0 0)
(0.07756084517777172 0 0)
(0.06944611743423068 0 0)
(0.05959810374084429 0 0)
(0.04793478957735106 0 0)
(0.03441928638428646 0 0)
(0.01906941835579491 0 0)
(0.001972394983291823 0 0)
(-0.01668214197767083 0 0)
(-0.03651182748509271 0 0)
(-0.0567044046766411 0 0)
(-0.07551803809639261 0 0)
(-0.08985495531404955 0 0)
(-0.09695401762806921 0 0)
(-0.0985081541293434 0 0)
(-0.09857011642464387 0 0)
(-0.09851783252129717 0 0)
(-0.09828970088378543 0 0)
(-0.09771946483970952 0 0)
(-0.0966246799113801 0 0)
(-0.09481343348903186 0 0)
(-0.09209590715610953 0 0)
(-0.0882915718225742 0 0)
(-0.08323574857729577 0 0)
(-0.07678545866320512 0 0)
(-0.06882484447888983 0 0)
(-0.05927032811107863 0 0)
(-0.04807493044580002 0 0)
(-0.03523127732976649 0 0)
(-0.02077442721807659 0 0)
(-0.00478772815005239 0 0)
(0.0125809552943747 0 0)
(0.03107059213537655 0 0)
(0.05016556782241937 0 0)
(0.06874604796158587 0 0)
(0.08453364296943489 0 0)
(0.09440606965039565 0 0)
(0.09773122348308058 0 0)
(0.09808567083115129 0 0)
(0.0980686303656139 0 0)
(0.09793518579110209 0 0)
(0.09754124503085027 0 0)
(0.09670698391947058 0 0)
(0.09524102932275247 0 0)
(0.09294522932369889 0 0)
(0.08962245675361057 0 0)
(0.08508282281389781 0 0)
(0.07914980327176142 0 0)
(0.07166660716055205 0 0)
(0.06250292168835311 0 0)
(0.05156207766561497 0 0)
(0.03878880838474461 0 0)
(0.0241781929289809 0 0)
(0.007788357472459042 0 0)
(-0.01023388594098193 0 0)
(-0.02958728943945493 0 0)
(-0.04964141678654773 0 0)
(-0.06903089530515912 0 0)
(-0.08509340380647326 0 0)
(-0.09455342850770437 0 0)
(-0.09739991019393369 0 0)
(-0.09764457284583268 0 0)
(-0.0976178038227155 0 0)
(-0.09746290158802809 0 0)
(-0.09702569072969576 0 0)
(-0.09612972480617826 0 0)
(-0.09458779101111629 0 0)
(-0.09221131359757392 0 0)
(-0.08881848155645326 0 0)
(-0.08424096293780402 0 0)
(-0.07832937795309289 0 0)
(-0.07095889190161701 0 0)
(-0.06203505362658593 0 0)
(-0.05149817183012374 0 0)
(-0.0393255992903082 0 0)
(-0.02553453963531968 0 0)
(-0.01018828893376515 0 0)
(0.006591707141487241 0 0)
(0.02459396186933785 0 0)
(0.04341674434888747 0 0)
(0.06219846232858631 0 0)
(0.0790989260449611 0 0)
(0.09109481108018046 0 0)
(0.09626194542273407 0 0)
(0.09714016083013159 0 0)
(0.0971548347983824 0 0)
(0.09707126070770276 0 0)
(0.09678535785080927 0 0)
(0.09612195450436707 0 0)
(0.09489831336765736 0 0)
(0.09291911454496812 0 0)
(0.08998869820549636 0 0)
(0.08591617900254508 0 0)
(0.08052170313270395 0 0)
(0.07364251149500459 0 0)
(0.06513924225688071 0 0)
(0.05490278016611114 0 0)
(0.04286185675631803 0 0)
(0.0289915464944133 0 0)
(0.01332425103101913 0 0)
(-0.004030264188949349 0 0)
(-0.02283647422593637 0 0)
(-0.04260534456954688 0 0)
(-0.06227901756108463 0 0)
(-0.079668357848123 0 0)
(-0.09144298386698876 0 0)
(-0.09605592092335871 0 0)
(-0.09671513496820286 0 0)
(-0.09671189082554046 0 0)
(-0.09661616013948451 0 0)
(-0.09629301500534095 0 0)
(-0.0955754870940544 0 0)
(-0.09427965092264082 0 0)
(-0.09221856726117812 0 0)
(-0.08920955983754277 0 0)
(-0.0850812100288975 0 0)
(-0.07967939613842198 0 0)
(-0.07287275846341791 0 0)
(-0.06455764604942173 0 0)
(-0.05466230897949364 0 0)
(-0.04315037205646947 0 0)
(-0.03002411905447588 0 0)
(-0.01532864058151212 0 0)
(0.0008398568009155255 0 0)
(0.01831017615395089 0 0)
(0.03676416001295244 0 0)
(0.05553984475437279 0 0)
(0.07319670443609895 0 0)
(0.08704958099536499 0 0)
(0.09435883008167142 0 0)
(0.09615444902095731 0 0)
(0.09625143481727372 0 0)
(0.09620842934619954 0 0)
(0.09600919089414545 0 0)
(0.09549478948886407 0 0)
(0.09448741945895263 0 0)
(0.09279652332081718 0 0)
(0.09022804277598184 0 0)
(0.0865907754999809 0 0)
(0.08170229024262812 0 0)
(0.07539483041711181 0 0)
(0.06752142700859617 0 0)
(0.05796252296403946 0 0)
(0.0466332577666419 0 0)
(0.03349143424802897 0 0)
(0.01854730329616786 0 0)
(0.001879799308776708 0 0)
(-0.01632746279420912 0 0)
(-0.03569381815521221 0 0)
(-0.05540468696178055 0 0)
(-0.07371687769376065 0 0)
(-0.0875629566571928 0 0)
(-0.09430578427184118 0 0)
(-0.09573688971337499 0 0)
(-0.09578822449095253 0 0)
(-0.09573718434757512 0 0)
(-0.0955090660590816 0 0)
(-0.09494664849451691 0 0)
(-0.09387190580147291 0 0)
(-0.09210032222280815 0 0)
(-0.08944961875146018 0 0)
(-0.08574659907945903 0 0)
(-0.080832948955739 0 0)
(-0.07457076805201693 0 0)
(-0.06684764377080643 0 0)
(-0.05758116081108335 0 0)
(-0.0467228803844994 0 0)
(-0.03426198869974683 0 0)
(-0.02022914824657861 0 0)
(-0.004702793697377421 0 0)
(0.0121744354210563 0 0)
(0.03014737820945915 0 0)
(0.04871349547598497 0 0)
(0.06679681979136751 0 0)
(0.08222873155331738 0 0)
(0.09201058861020681 0 0)
(0.09541615576596074 0 0)
(0.0958113337313498 0 0)
(0.09579962083500629 0 0)
(0.09569836861429118 0 0)
(0.09538466571583962 0 0)
(0.09471188100987826 0 0)
(0.09352297771943051 0 0)
(0.09166095820607989 0 0)
(0.088976977221387 0 0)
(0.08533894361190607 0 0)
(0.08064017456718024 0 0)
(0.07480842822569102 0 0)
(0.06781539387810202 0 0)
(0.05968707487776049 0 0)
(0.05051720358019611 0 0)
(0.04049102450338001 0 0)
(0.02993974612206195 0 0)
(0.01946679534279452 0 0)
(0.01016202012294814 0 0)
(0.003595132582817735 0 0)
(0.0006503693360760115 0 0)
(4.096432980386629e-05 0 0)
(5.863564751618888e-07 0 0)
(1.347118732457145e-09 0 0)
(7.858852587192803e-11 0 0)
(7.855371367884734e-11 0 0)
(7.965029776078506e-11 0 0)
(8.117333120790428e-11 0 0)
(8.255711588273289e-11 0 0)
(8.398441579890426e-11 0 0)
(8.508099988083347e-11 0 0)
(8.619499005930244e-11 0 0)
(8.70478887896994e-11 0 0)
(8.790949056836276e-11 0 0)
(8.887552892625688e-11 0 0)
(8.97980520427964e-11 0 0)
(9.059002943531264e-11 0 0)
(9.145163121397532e-11 0 0)
(9.227842079956041e-11 0 0)
(9.300947685418256e-11 0 0)
(9.379275119841257e-11 0 0)
(9.440196457727387e-11 0 0)
(9.535059683863332e-11 0 0)
(9.629922909998396e-11 0 0)
(9.71347217338346e-11 0 0)
(9.790058998153853e-11 0 0)
(9.861423993962373e-11 0 0)
(9.942362342867048e-11 0 0)
(9.995450937309047e-11 0 0)
(1.007812989586849e-10 0 0)
(1.012860757583056e-10 0 0)
(1.020345379094666e-10 0 0)
(1.025393147090782e-10 0 0)
(1.03392213439481e-10 0 0)
(1.040623481562185e-10 0 0)
(1.048543255487306e-10 0 0)
(1.05655005989494e-10 0 0)
(1.06342546802779e-10 0 0)
(1.071867424849087e-10 0 0)
(1.077524406224089e-10 0 0)
(1.083094357116369e-10 0 0)
(1.087010728837663e-10 0 0)
(1.090230856697311e-10 0 0)
(1.094669411314661e-10 0 0)
(1.10076154510319e-10 0 0)
(1.106592587443577e-10 0 0)
(1.113467995576386e-10 0 0)
(1.120430434191901e-10 0 0)
(1.123737592534186e-10 0 0)
(1.128524269082218e-10 0 0)
(1.133223915147801e-10 0 0)
(1.139316048936268e-10 0 0)
(1.143145390174782e-10 0 0)
(1.147322853343948e-10 0 0)
(1.153937170028736e-10 0 0)
(1.159768212369183e-10 0 0)
(1.164728949882695e-10 0 0)
(1.167078772915307e-10 0 0)
(1.171865449463533e-10 0 0)
(1.175433699253954e-10 0 0)
(1.177609461321279e-10 0 0)
(1.179872253871242e-10 0 0)
(1.182048015938622e-10 0 0)
(1.184223778005954e-10 0 0)
(1.183527534144421e-10 0 0)
(1.186225479107843e-10 0 0)
(1.1886623326233e-10 0 0)
(1.191621369034883e-10 0 0)
(1.191447308069491e-10 0 0)
(1.192404643379118e-10 0 0)
(1.192665734827093e-10 0 0)
(1.192404643379118e-10 0 0)
(1.192665734827249e-10 0 0)
(1.192317612896414e-10 0 0)
(1.194754466411726e-10 0 0)
(1.196408045583051e-10 0 0)
(1.197800533306099e-10 0 0)
(1.198235685719556e-10 0 0)
(1.197713502823287e-10 0 0)
(1.1971042894446e-10 0 0)
(1.19658210654839e-10 0 0)
(1.197017258961866e-10 0 0)
(1.194841496894463e-10 0 0)
(1.193187917723344e-10 0 0)
(1.188749363106011e-10 0 0)
(1.184745960902173e-10 0 0)
(1.179698192905802e-10 0 0)
(1.173780120082765e-10 0 0)
(1.170995144636593e-10 0 0)
(1.165425193744222e-10 0 0)
(1.161508822023027e-10 0 0)
(1.156199962578746e-10 0 0)
(1.151674377478696e-10 0 0)
)
;

boundaryField
{
    inlet
    {
        type            zeroGradient;
    }
    outlet
    {
        type            velocityOutletNSCBCx;
        pInf            101325;
        gamma           1.4;
        etaAc           1;
        fieldInf        (-1 0 0);
        lInf            2.25;
        value           uniform (1.149142587443668e-10 0 0);
    }
    frontAndBack
    {
        type            empty;
    }
}


// ************************************************************************* //
