/*--------------------------------*- C++ -*----------------------------------*\
| =========                 |                                                 |
| \\      /  F ield         | OpenFOAM: The Open Source CFD Toolbox           |
|  \\    /   O peration     | Version:  v2012                                 |
|   \\  /    A nd           | Website:  www.openfoam.com                      |
|    \\/     M anipulation  |                                                 |
\*---------------------------------------------------------------------------*/
FoamFile
{
    version     2.0;
    format      ascii;
    class       volVectorField;
    location    "0.0065";
    object      UMean;
}
// * * * * * * * * * * * * * * * * * * * * * * * * * * * * * * * * * * * * * //

dimensions      [0 1 -1 0 0 0 0];


internalField   nonuniform List<vector> 
1000
(
(0.002015027191159927 0 0)
(0.001928370661322193 0 0)
(0.001926124956702828 0 0)
(0.001868421389861184 0 0)
(0.001805071038059436 0 0)
(0.001715402769546193 0 0)
(0.001617722263194795 0 0)
(0.00150531110784043 0 0)
(0.001386757704768092 0 0)
(0.001258669103090915 0 0)
(0.001127049781166874 0 0)
(0.0009938851526463278 0 0)
(0.0008615770936522698 0 0)
(0.0007308113354406255 0 0)
(0.0006040114239211023 0 0)
(0.000483537020928992 0 0)
(0.0003722322536477728 0 0)
(0.0002721546727160647 0 0)
(0.0001854018443913109 0 0)
(0.000113252633001886 0 0)
(5.719288868488723e-05 0 0)
(1.800399924426315e-05 0 0)
(-3.316904209095454e-06 0 0)
(-6.544408633758574e-06 0 0)
(8.620147128597161e-06 0 0)
(4.169480248718748e-05 0 0)
(9.222065754302335e-05 0 0)
(0.0001591243392794123 0 0)
(0.0002414844766917525 0 0)
(0.00033817303705547 0 0)
(0.0004482442197775026 0 0)
(0.0005696000991231456 0 0)
(0.0006980951027683309 0 0)
(0.0008286535117984432 0 0)
(0.0009592778085575635 0 0)
(0.0010893575244154 0 0)
(0.001218298857423459 0 0)
(0.00134421663673196 0 0)
(0.001465271682221071 0 0)
(0.001578519278183086 0 0)
(0.001681620865936783 0 0)
(0.001771787231892115 0 0)
(0.001847420150078343 0 0)
(0.001906730267714247 0 0)
(0.001949096232799065 0 0)
(0.001973548857299478 0 0)
(0.001980111912455039 0 0)
(0.001968380064217773 0 0)
(0.001938926805475891 0 0)
(0.001891890540394684 0 0)
(0.001828273209379528 0 0)
(0.001748456897227541 0 0)
(0.001653463537480505 0 0)
(0.001544084676262983 0 0)
(0.001423315937953391 0 0)
(0.001295951492986485 0 0)
(0.00116714614769348 0 0)
(0.001038221544632789 0 0)
(0.0009097419327604254 0 0)
(0.0007823252602151195 0 0)
(0.0006572637975605822 0 0)
(0.0005363782815787241 0 0)
(0.000421973461406029 0 0)
(0.000316632830490174 0 0)
(0.0002229690395867974 0 0)
(0.0001433212070856059 0 0)
(7.960046488316159e-05 0 0)
(3.31263784575437e-05 0 0)
(4.720138307453391e-06 0 0)
(-5.291213392708927e-06 0 0)
(3.103518132934787e-06 0 0)
(2.963738105639904e-05 0 0)
(7.390081973422804e-05 0 0)
(0.0001353801876577602 0 0)
(0.0002136175582051846 0 0)
(0.0003079858019783846 0 0)
(0.0004171624049440622 0 0)
(0.0005377786808589214 0 0)
(0.0006642263309270564 0 0)
(0.0007919067483957713 0 0)
(0.000919558212371005 0 0)
(0.001046779354699515 0 0)
(0.001173127661130188 0 0)
(0.00129720378262835 0 0)
(0.001417671576644705 0 0)
(0.001532157783945707 0 0)
(0.001638550655326852 0 0)
(0.001734020134720986 0 0)
(0.001816428075272892 0 0)
(0.001883383558705608 0 0)
(0.00193356775276065 0 0)
(0.001965651794851493 0 0)
(0.001979427707860509 0 0)
(0.001974555901968942 0 0)
(0.001951564894989404 0 0)
(0.001910568598454175 0 0)
(0.001852268045204633 0 0)
(0.00177677721909626 0 0)
(0.001684893796490966 0 0)
(0.001577650654064053 0 0)
(0.00145871940171642 0 0)
(0.001333580251134961 0 0)
(0.001207234765984711 0 0)
(0.001080779473657251 0 0)
(0.0009546981255871989 0 0)
(0.0008294056569043265 0 0)
(0.0007059555239823426 0 0)
(0.0005857182874942223 0 0)
(0.0004706175184985565 0 0)
(0.0003628311582071406 0 0)
(0.0002648652159729161 0 0)
(0.0001791421145385137 0 0)
(0.000108026245360838 0 0)
(5.336272206384626e-05 0 0)
(1.661891455061592e-05 0 0)
(-1.461336742152419e-06 0 0)
(-5.006977770421564e-07 0 0)
(1.931024003043313e-05 0 0)
(5.772112696266547e-05 0 0)
(0.0001142490294959722 0 0)
(0.0001885790874138753 0 0)
(0.0002800289511932427 0 0)
(0.00038706333292968 0 0)
(0.0005057448269958782 0 0)
(0.0006300996722037719 0 0)
(0.0007555610966709182 0 0)
(0.000881033920262991 0 0)
(0.001006138071203961 0 0)
(0.001130566473125511 0 0)
(0.001253150873003098 0 0)
(0.001372845297383481 0 0)
(0.001487626428543797 0 0)
(0.001595707191520359 0 0)
(0.001694475128264295 0 0)
(0.001781826172592048 0 0)
(0.00185519036692637 0 0)
(0.001912857121609376 0 0)
(0.001953010035698451 0 0)
(0.001974909058036404 0 0)
(0.001977806704200622 0 0)
(0.001961908898098419 0 0)
(0.00192717693374475 0 0)
(0.001874218310834033 0 0)
(0.001803151725657672 0 0)
(0.001714836882697222 0 0)
(0.001610465226468574 0 0)
(0.001493948930983469 0 0)
(0.001370957170815802 0 0)
(0.001246643252220669 0 0)
(0.001122175798387418 0 0)
(0.0009980266612881028 0 0)
(0.0008744590841061025 0 0)
(0.0007523881762613017 0 0)
(0.0006328803792631864 0 0)
(0.0005176161545340706 0 0)
(0.0004084216579672089 0 0)
(0.0003076139075686804 0 0)
(0.000217451302070119 0 0)
(0.0001403963173548102 0 0)
(7.850535679769575e-05 0 0)
(3.36990436644599e-05 0 0)
(7.203978216366338e-06 0 0)
(-4.930196216147489e-08 0 0)
(1.215892916345519e-05 0 0)
(4.392497754991547e-05 0 0)
(9.489158882356477e-05 0 0)
(0.0001648128824413321 0 0)
(0.0002528410691208242 0 0)
(0.0003572680567631631 0 0)
(0.0004737835926858401 0 0)
(0.0005962247212137152 0 0)
(0.0007198215544439129 0 0)
(0.0008434777337808365 0 0)
(0.0009668143404932925 0 0)
(0.001089630523649142 0 0)
(0.001210917244277085 0 0)
(0.001329825644511708 0 0)
(0.001444603322717425 0 0)
(0.001553698681232516 0 0)
(0.001654753009354926 0 0)
(0.001745788188010706 0 0)
(0.001824265924866171 0 0)
(0.001888326975420291 0 0)
(0.001935861963998789 0 0)
(0.001965720342065048 0 0)
(0.00197667834616687 0 0)
(0.00196851419500084 0 0)
(0.001940821589906455 0 0)
(0.001894000144171247 0 0)
(0.001828066948723794 0 0)
(0.001743915239795611 0 0)
(0.001642836857510754 0 0)
(0.001528874118852886 0 0)
(0.0014078832873461 0 0)
(0.00128531624258275 0 0)
(0.001162553833495119 0 0)
(0.001040061704650593 0 0)
(0.000917997637358302 0 0)
(0.000797164412401984 0 0)
(0.0006784146636655352 0 0)
(0.0005632281088558861 0 0)
(0.0004531632025133556 0 0)
(0.0003503334009334612 0 0)
(0.000256803487999105 0 0)
(0.0001749929635494116 0 0)
(0.0001070029726221029 0 0)
(5.500535247761832e-05 0 0)
(2.055858571035499e-05 0 0)
(5.076956737728866e-06 0 0)
(9.23307602056601e-06 0 0)
(3.358171218713765e-05 0 0)
(7.807385463548789e-05 0 0)
(0.0001426647616031309 0 0)
(0.0002265245816234784 0 0)
(0.000327846750042046 0 0)
(0.0004420651871188858 0 0)
(0.0005627103835760382 0 0)
(0.0006846855334968833 0 0)
(0.0008067523384346521 0 0)
(0.0009285532950376999 0 0)
(0.001049946958975981 0 0)
(0.001170065571776352 0 0)
(0.001288199263360417 0 0)
(0.001402812239215439 0 0)
(0.001512545424729473 0 0)
(0.001615267962515336 0 0)
(0.001709149577096001 0 0)
(0.001791757911268484 0 0)
(0.001861202040975453 0 0)
(0.001915238403842091 0 0)
(0.001952437167294654 0 0)
(0.001971214364177056 0 0)
(0.001970926248584636 0 0)
(0.001950777015799883 0 0)
(0.0019108229651613 0 0)
(0.001850863572142506 0 0)
(0.001771655840885396 0 0)
(0.001674465125424291 0 0)
(0.001563339067867619 0 0)
(0.001444335286865212 0 0)
(0.001323344023678531 0 0)
(0.001202092920202175 0 0)
(0.001081071463491028 0 0)
(0.0009603632389003023 0 0)
(0.0008406682495399969 0 0)
(0.0007226827894409408 0 0)
(0.0006077198307362906 0 0)
(0.0004971203717536327 0 0)
(0.0003928143860708806 0 0)
(0.0002966707033232624 0 0)
(0.0002110139407050066 0 0)
(0.0001379043798204926 0 0)
(7.962696805138448e-05 0 0)
(3.79473524052917e-05 0 0)
(1.463156310582775e-05 0 0)
(1.07500364501331e-05 0 0)
(2.730889199576145e-05 0 0)
(6.463707875205408e-05 0 0)
(0.0001230156287712171 0 0)
(0.0002017866535875083 0 0)
(0.0002992535611564964 0 0)
(0.0004107829418275703 0 0)
(0.0005296265670825955 0 0)
(0.0006501307360992081 0 0)
(0.0007707872360117201 0 0)
(0.0008912068214557998 0 0)
(0.001011330898798726 0 0)
(0.001130365375546321 0 0)
(0.001247750748186685 0 0)
(0.001362089560840079 0 0)
(0.001472223201518136 0 0)
(0.001576183311753838 0 0)
(0.00167231952254442 0 0)
(0.001758302678418121 0 0)
(0.001832293409536589 0 0)
(0.00189199197694101 0 0)
(0.001935808658785072 0 0)
(0.001961905539874386 0 0)
(0.001969296136788526 0 0)
(0.001956829407982819 0 0)
(0.001924194408746916 0 0)
(0.001870905372891239 0 0)
(0.001797458812439983 0 0)
(0.001704939433646906 0 0)
(0.001597180140539821 0 0)
(0.001480321831983247 0 0)
(0.001360809066136247 0 0)
(0.001240930502837312 0 0)
(0.001121241764573108 0 0)
(0.001001779939987267 0 0)
(0.000883147869587152 0 0)
(0.0007659311879393205 0 0)
(0.000651281855710817 0 0)
(0.0005403854365413438 0 0)
(0.0004349780041724415 0 0)
(0.0003367827724253932 0 0)
(0.0002479714070302199 0 0)
(0.0001705605455418328 0 0)
(0.0001068267157506548 0 0)
(5.868583518207857e-05 0 0)
(2.809982063755909e-05 0 0)
(1.649029936303512e-05 0 0)
(2.520238940548149e-05 0 0)
(5.498716648962896e-05 0 0)
(0.0001064398570072997 0 0)
(0.0001792518273167373 0 0)
(0.0002719669706014216 0 0)
(0.0003802210374890525 0 0)
(0.0004970620336361516 0 0)
(0.0006161824376488156 0 0)
(0.0007355157430924831 0 0)
(0.0008546788040924985 0 0)
(0.000973604500915754 0 0)
(0.001091642376718623 0 0)
(0.001208275997842627 0 0)
(0.001322301236080239 0 0)
(0.00143264532114417 0 0)
(0.001537560920111263 0 0)
(0.00163548643631681 0 0)
(0.001724276699902254 0 0)
(0.001802109132832848 0 0)
(0.001866744073203931 0 0)
(0.001916458768738777 0 0)
(0.001949294248006913 0 0)
(0.001963971404796407 0 0)
(0.001959079447567445 0 0)
(0.001933948817513814 0 0)
(0.001887812988232589 0 0)
(0.001820840521821238 0 0)
(0.001733804578345234 0 0)
(0.001630110781224781 0 0)
(0.001515740305364226 0 0)
(0.001397722441373076 0 0)
(0.00127912515487162 0 0)
(0.001160689381944172 0 0)
(0.001042396588383236 0 0)
(0.0009247863846143374 0 0)
(0.0008083296026498692 0 0)
(0.0006940685425186161 0 0)
(0.0005830298500010923 0 0)
(0.000476813464175282 0 0)
(0.0003769717830954626 0 0)
(0.0002855661677078587 0 0)
(0.0002044996250401241 0 0)
(0.0001360447967824451 0 0)
(8.21439431292184e-05 0 0)
(4.492538056623823e-05 0 0)
(2.601064017343534e-05 0 0)
(2.706678375779538e-05 0 0)
(4.914915355561863e-05 0 0)
(9.3224577189222e-05 0 0)
(0.0001593129146692081 0 0)
(0.0002464115275713433 0 0)
(0.0003506130415324917 0 0)
(0.0004651122176275718 0 0)
(0.000582815499680617 0 0)
(0.0007009189078070027 0 0)
(0.0008188724026585819 0 0)
(0.0009366757914804804 0 0)
(0.001053731081549252 0 0)
(0.00116963353965495 0 0)
(0.00128327159425982 0 0)
(0.001393716656803499 0 0)
(0.00149934292898595 0 0)
(0.001598736172243105 0 0)
(0.001689861992053254 0 0)
(0.001770992118639975 0 0)
(0.001839921568910444 0 0)
(0.001894899706480829 0 0)
(0.001933870644493312 0 0)
(0.001955376582544676 0 0)
(0.00195778742670914 0 0)
(0.001940150814918179 0 0)
(0.001901430717807027 0 0)
(0.001841463297266151 0 0)
(0.001760643439423255 0 0)
(0.001661776553838376 0 0)
(0.00155041523806847 0 0)
(0.001434013615876276 0 0)
(0.001316661301832488 0 0)
(0.001199421052822677 0 0)
(0.001082262133208399 0 0)
(0.0009656493798093515 0 0)
(0.0008499680432797914 0 0)
(0.0007361505581505908 0 0)
(0.0006251048977420626 0 0)
(0.0005182928475870463 0 0)
(0.0004171369539989869 0 0)
(0.0003235663459137845 0 0)
(0.0002393921818475947 0 0)
(0.0001668237393466601 0 0)
(0.0001078151384959058 0 0)
(6.456184513810813e-05 0 0)
(3.884336391648048e-05 0 0)
(3.253631465354747e-05 0 0)
(4.696928382153133e-05 0 0)
(8.340548446257003e-05 0 0)
(0.0001422274388646853 0 0)
(0.0002229178568924937 0 0)
(0.0003222506305136623 0 0)
(0.0004338671614623726 0 0)
(0.0005500437115125708 0 0)
(0.0006669547679781404 0 0)
(0.0007837493938341724 0 0)
(0.0009004567905183806 0 0)
(0.00101654862365508 0 0)
(0.001131702162716756 0 0)
(0.0012449018408302 0 0)
(0.001355335199540211 0 0)
(0.001461489554755368 0 0)
(0.001562080742233697 0 0)
(0.001655175595351548 0 0)
(0.001739149651072543 0 0)
(0.001811839224890309 0 0)
(0.001871517681113437 0 0)
(0.001916059651830104 0 0)
(0.001943916364950398 0 0)
(0.001953270389428517 0 0)
(0.001942984405637318 0 0)
(0.001911754184428251 0 0)
(0.00185915176062219 0 0)
(0.001785134346105372 0 0)
(0.001691884014542957 0 0)
(0.001584196101118575 0 0)
(0.001469694584265093 0 0)
(0.001353549781503623 0 0)
(0.001237463230084333 0 0)
(0.001121400066389451 0 0)
(0.001005769162681119 0 0)
(0.0008908826350067227 0 0)
(0.0007775649591449405 0 0)
(0.0006666293823796884 0 0)
(0.000559403524372577 0 0)
(0.0004572027695876942 0 0)
(0.0003618219080417799 0 0)
(0.0002749889232029662 0 0)
(0.0001988242567240016 0 0)
(0.0001352742709323764 0 0)
(8.654313577730739e-05 0 0)
(5.452218507500111e-05 0 0)
(4.12167761225586e-05 0 0)
(4.818041524841968e-05 0 0)
(7.690515268367393e-05 0 0)
(0.0001281259295108031 0 0)
(0.0002017918410305412 0 0)
(0.0002954683427165986 0 0)
(0.0004035172958884502 0 0)
(0.0005179181190234719 0 0)
(0.0006336236080896209 0 0)
(0.0007492851102522063 0 0)
(0.0008648877453638291 0 0)
(0.0009800227713310985 0 0)
(0.001094382268367666 0 0)
(0.001207102781358951 0 0)
(0.001317408770314898 0 0)
(0.001423956503365993 0 0)
(0.001525507224623853 0 0)
(0.001620293492633804 0 0)
(0.001706717691026458 0 0)
(0.001782742558293252 0 0)
(0.001846607941613193 0 0)
(0.001896234853201697 0 0)
(0.001929948918050689 0 0)
(0.001945880881659821 0 0)
(0.001942675932806983 0 0)
(0.001918895711595222 0 0)
(0.001873803381497919 0 0)
(0.001807036795787502 0 0)
(0.001720060529191586 0 0)
(0.00161682812493489 0 0)
(0.001504642092236369 0 0)
(0.001389783471304846 0 0)
(0.001274801024059852 0 0)
(0.001159822788130943 0 0)
(0.001045167187867286 0 0)
(0.0009311057465177667 0 0)
(0.0008183433648858624 0 0)
(0.0007076260345767184 0 0)
(0.0006001420469635806 0 0)
(0.000497124661546529 0 0)
(0.0004002291768936433 0 0)
(0.0003111132985583395 0 0)
(0.0002317914333493778 0 0)
(0.0001641909359458147 0 0)
(0.0001104868114966857 0 0)
(7.264181230270897e-05 0 0)
(5.273334607106702e-05 0 0)
(5.248411948143751e-05 0 0)
(7.356263722615999e-05 0 0)
(0.0001170052293014024 0 0)
(0.0001831879790148324 0 0)
(0.0002704687038948588 0 0)
(0.0003741644045012459 0 0)
(0.0004863869341630816 0 0)
(0.0006008602683531584 0 0)
(0.0007154175800164408 0 0)
(0.0008299398289492922 0 0)
(0.000944119101823578 0 0)
(0.001057664110384526 0 0)
(0.001169851207644702 0 0)
(0.001279937834789523 0 0)
(0.001386735380747296 0 0)
(0.001489047334024073 0 0)
(0.001585261239650687 0 0)
(0.001673809910763261 0 0)
(0.001752781990617342 0 0)
(0.00182040314887512 0 0)
(0.001874659275372727 0 0)
(0.001913788371287678 0 0)
(0.001935902148664331 0 0)
(0.001939476306095473 0 0)
(0.001922974944842791 0 0)
(0.001885398921737331 0 0)
(0.001826108040392518 0 0)
(0.001745913818709738 0 0)
(0.001647878479270095 0 0)
(0.001538614615594938 0 0)
(0.001425225095100327 0 0)
(0.001311362308322392 0 0)
(0.001197485015764278 0 0)
(0.001083845412239827 0 0)
(0.0009706511556394906 0 0)
(0.000858526579267507 0 0)
(0.0007481217424781903 0 0)
(0.0006405316272095838 0 0)
(0.000536880808230128 0 0)
(0.0004387292766083729 0 0)
(0.0003476337298535089 0 0)
(0.0002655362213509726 0 0)
(0.0001943009971750013 0 0)
(0.0001360837036132402 0 0)
(9.285482851271932e-05 0 0)
(6.675398650396229e-05 0 0)
(5.960043816775722e-05 0 0)
(7.321445648051687e-05 0 0)
(0.00010885479482324 0 0)
(0.0001672832894251024 0 0)
(0.0002475683705579628 0 0)
(0.0003460925624984038 0 0)
(0.0004555439162090433 0 0)
(0.0005686594879924814 0 0)
(0.0006821303248229572 0 0)
(0.0007956013062234825 0 0)
(0.0009087957851262013 0 0)
(0.001021524199758255 0 0)
(0.001133095769717383 0 0)
(0.001242899032312295 0 0)
(0.001349792162736634 0 0)
(0.00145271480231957 0 0)
(0.001550104837778328 0 0)
(0.001640519858553657 0 0)
(0.001722081529495156 0 0)
(0.001793103316364699 0 0)
(0.001851558954435719 0 0)
(0.001895713941441803 0 0)
(0.001923604887251233 0 0)
(0.00193366239206857 0 0)
(0.001924204553718608 0 0)
(0.001894099007447579 0 0)
(0.001842407117598856 0 0)
(0.00176945139155809 0 0)
(0.001677337441148817 0 0)
(0.001571746433494328 0 0)
(0.001460073523891252 0 0)
(0.001347319984451395 0 0)
(0.001234486918546576 0 0)
(0.001121833033171141 0 0)
(0.00100951134376217 0 0)
(0.0008980513972533037 0 0)
(0.0007880431052432443 0 0)
(0.0006804623883008802 0 0)
(0.0005763635456360662 0 0)
(0.0004771826361812574 0 0)
(0.0003844086306295455 0 0)
(0.0002998745866753235 0 0)
(0.0002254033361157879 0 0)
(0.0001630871019229512 0 0)
(0.0001149085692615213 0 0)
(8.301249907704308e-05 0 0)
(6.93029070718688e-05 0 0)
(7.569824436204596e-05 0 0)
(0.0001036532437911909 0 0)
(0.000154232698535105 0 0)
(0.0002271209696073047 0 0)
(0.0003197354354570045 0 0)
(0.000425690507312306 0 0)
(0.0005371733916420181 0 0)
(0.0006495175734842437 0 0)
(0.0007619013569790563 0 0)
(0.0008740903135647644 0 0)
(0.0009859234891808353 0 0)
(0.001096825478088554 0 0)
(0.00120622691148439 0 0)
(0.001313108392003805 0 0)
(0.001416464329959433 0 0)
(0.001514848322432587 0 0)
(0.00160687165083542 0 0)
(0.001690749360234443 0 0)
(0.001764829088326855 0 0)
(0.001827137365376613 0 0)
(0.00187593148503597 0 0)
(0.001909241162201543 0 0)
(0.00192543451023818 0 0)
(0.001922757499889154 0 0)
(0.001899938206311427 0 0)
(0.001855824456306725 0 0)
(0.001790307929881803 0 0)
(0.001704685520394301 0 0)
(0.001603541736445378 0 0)
(0.001494067366353659 0 0)
(0.001382498581074938 0 0)
(0.001270722958304962 0 0)
(0.001159094192791315 0 0)
(0.001047672301342464 0 0)
(0.0009369613700866298 0 0)
(0.0008274210214598072 0 0)
(0.0007199891212004531 0 0)
(0.0006155814865471722 0 0)
(0.0005155881753857492 0 0)
(0.000421365247155034 0 0)
(0.0003347052969745508 0 0)
(0.0002573220956071406 0 0)
(0.0001912934439514368 0 0)
(0.0001385413165569465 0 0)
(0.0001012448831655016 0 0)
(8.131692607981139e-05 0 0)
(8.077903965743297e-05 0 0)
(0.0001012024771839524 0 0)
(0.0001439223339805634 0 0)
(0.0002091129561494734 0 0)
(0.0002951501710940435 0 0)
(0.0003967927013132568 0 0)
(0.0005062360624157557 0 0)
(0.0006174335768323338 0 0)
(0.0007287606891472527 0 0)
(0.0008399439034272642 0 0)
(0.0009508797543498797 0 0)
(0.00106106227937792 0 0)
(0.001169998546147726 0 0)
(0.001276754158868008 0 0)
(0.00138040138830644 0 0)
(0.001479586199589466 0 0)
(0.001572988194281221 0 0)
(0.001658907490915789 0 0)
(0.001735733906084353 0 0)
(0.001801553558884903 0 0)
(0.001854624293392262 0 0)
(0.001892993086817601 0 0)
(0.001914973223814714 0 0)
(0.00191877520573738 0 0)
(0.001903004206374062 0 0)
(0.001866365162292411 0 0)
(0.001808386022187733 0 0)
(0.001729705822407211 0 0)
(0.001633779345052632 0 0)
(0.001527145001993282 0 0)
(0.001416921470166903 0 0)
(0.001306212024670875 0 0)
(0.001195598012274438 0 0)
(0.001085134957405932 0 0)
(0.0009752045147681847 0 0)
(0.0008662512822903703 0 0)
(0.0007590666532590571 0 0)
(0.0006545382623398758 0 0)
(0.0005539068988276569 0 0)
(0.0004584957258644968 0 0)
(0.000369960487323216 0 0)
(0.0002899935771075361 0 0)
(0.00022056758739474 0 0)
(0.0001636135132568196 0 0)
(0.0001212565098603941 0 0)
(9.546726399043986e-05 0 0)
(8.828435356437504e-05 0 0)
(0.0001014164691224106 0 0)
(0.0001363634673525686 0 0)
(0.0001937290387983053 0 0)
(0.0002726695338808838 0 0)
(0.0003691774086846109 0 0)
(0.0004759780235427403 0 0)
(0.0005859113662354753 0 0)
(0.0006961915054141739 0 0)
(0.0008063755417141595 0 0)
(0.0009163828409490755 0 0)
(0.001025806178890974 0 0)
(0.00113419396832824 0 0)
(0.001240726021504 0 0)
(0.001344522419992449 0 0)
(0.001444344582645216 0 0)
(0.00153891407432874 0 0)
(0.001626637007851796 0 0)
(0.001705927551453746 0 0)
(0.001774955665859169 0 0)
(0.00183197040075985 0 0)
(0.001875067221281751 0 0)
(0.001902506394545405 0 0)
(0.001912500736219669 0 0)
(0.001903537220297423 0 0)
(0.001874232003412941 0 0)
(0.001823804185551439 0 0)
(0.001752383023138303 0 0)
(0.001662354719067117 0 0)
(0.001559302132536627 0 0)
(0.001450698965406308 0 0)
(0.001341062307176062 0 0)
(0.001231449904060647 0 0)
(0.001121940931359136 0 0)
(0.001012826137214473 0 0)
(0.0009045014456255848 0 0)
(0.00079765389939713 0 0)
(0.0006931128518578864 0 0)
(0.000592006114440749 0 0)
(0.0004956008095128536 0 0)
(0.0004054411264916867 0 0)
(0.0003231773359399176 0 0)
(0.0002506868742790336 0 0)
(0.0001898885548030521 0 0)
(0.0001428467411637391 0 0)
(0.0001115678260995365 0 0)
(9.80855533548508e-05 0 0)
(0.0001042202693080342 0 0)
(0.0001315861923099176 0 0)
(0.0001811361167141406 0 0)
(0.0002526486610247695 0 0)
(0.0003432894956182499 0 0)
(0.0004467003400796524 0 0)
(0.000555099341374759 0 0)
(0.0006642933514597073 0 0)
(0.000773446395020293 0 0)
(0.0008824779423198164 0 0)
(0.0009910735813186786 0 0)
(0.001098825768863282 0 0)
(0.00120501833483227 0 0)
(0.001308824996747312 0 0)
(0.001409111494311503 0 0)
(0.001504652013772383 0 0)
(0.00159394639212704 0 0)
(0.001675449218943278 0 0)
(0.001747400864257053 0 0)
(0.001808065341403399 0 0)
(0.00185557265189595 0 0)
(0.00188816200147656 0 0)
(0.001904035453521839 0 0)
(0.001901609791231543 0 0)
(0.001879413013254312 0 0)
(0.00183644831439039 0 0)
(0.001772422848465483 0 0)
(0.001688842330987149 0 0)
(0.001590155428016678 0 0)
(0.001483654463906312 0 0)
(0.001375152942959678 0 0)
(0.00126655623027933 0 0)
(0.001158021638462445 0 0)
(0.001049773167606471 0 0)
(0.0009421464381619048 0 0)
(0.0008357419893340216 0 0)
(0.0007313165892476737 0 0)
(0.0006299053583841384 0 0)
(0.0005326995400767204 0 0)
(0.0004411540905545532 0 0)
(0.0003568514192276668 0 0)
(0.0002815957299667169 0 0)
(0.0002172608357365652 0 0)
(0.000165869862881101 0 0)
(0.0001294245491653899 0 0)
(0.0001099668552234785 0 0)
(0.0001093763865185176 0 0)
(0.0001293733214227385 0 0)
(0.0001711585229651376 0 0)
(0.0002350234820821404 0 0)
(0.0003191455528841684 0 0)
(0.0004183510226658792 0 0)
(0.0005248122240980821 0 0)
(0.0006329100891971975 0 0)
(0.0007410532547110838 0 0)
(0.000849120178508438 0 0)
(0.0009568627877380153 0 0)
(0.001063933509671301 0 0)
(0.00116969974265143 0 0)
(0.001273406705976024 0 0)
(0.001374005378452613 0 0)
(0.001470341364805524 0 0)
(0.001560989001216855 0 0)
(0.001644463929283766 0 0)
(0.001719059392569035 0 0)
(0.001783079661984901 0 0)
(0.001834675238407258 0 0)
(0.001872096008146391 0 0)
(0.001893524338641766 0 0)
(0.001897346409393212 0 0)
(0.001882002192717963 0 0)
(0.001846352597335987 0 0)
(0.001789758790901861 0 0)
(0.001713034596314546 0 0)
(0.001619471404394083 0 0)
(0.001515709243911814 0 0)
(0.001408494160428615 0 0)
(0.001300924380661883 0 0)
(0.001193374092312684 0 0)
(0.001086030095026186 0 0)
(0.0009791643000478395 0 0)
(0.0008732958228651051 0 0)
(0.0007691098476111038 0 0)
(0.0006675496674131103 0 0)
(0.0005697318950165982 0 0)
(0.0004770211820942133 0 0)
(0.0003909325024900523 0 0)
(0.0003131923191440756 0 0)
(0.0002456269103355654 0 0)
(0.0001902078181284862 0 0)
(0.0001489246793307765 0 0)
(0.0001238109893766882 0 0)
(0.0001167921947591608 0 0)
(0.0001296621773900501 0 0)
(0.0001638203015295502 0 0)
(0.0002199515842955907 0 0)
(0.0002970851516709038 0 0)
(0.0003912696726245868 0 0)
(0.0004952071335754955 0 0)
(0.0006020829520576196 0 0)
(0.0007092198061609981 0 0)
(0.0008163062767994906 0 0)
(0.0009231685888278413 0 0)
(0.001029501923262446 0 0)
(0.001134770433999854 0 0)
(0.001238269807219909 0 0)
(0.001339054240845908 0 0)
(0.001436015235204928 0 0)
(0.001527828086266369 0 0)
(0.001613040500021566 0 0)
(0.001690034925361914 0 0)
(0.001757124369968431 0 0)
(0.001812527631543862 0 0)
(0.001854470370131524 0 0)
(0.001881170630780866 0 0)
(0.001890946260491684 0 0)
(0.001882223545470479 0 0)
(0.001853700931462852 0 0)
(0.001804528753491998 0 0)
(0.001734909957253224 0 0)
(0.001647153047041606 0 0)
(0.001546845816183162 0 0)
(0.001441216563647554 0 0)
(0.001334655871095401 0 0)
(0.001228091890783611 0 0)
(0.001121656925697998 0 0)
(0.001015586306663364 0 0)
(0.0009103100529698604 0 0)
(0.0008064537626463075 0 0)
(0.0007048627829485839 0 0)
(0.000606590064730829 0 0)
(0.0005129020352136039 0 0)
(0.0004252560212470287 0 0)
(0.0003452902386761416 0 0)
(0.0002747901182462875 0 0)
(0.0002156610155673729 0 0)
(0.0001698819015314739 0 0)
(0.0001394573469598789 0 0)
(0.0001263511424793678 0 0)
(0.0001323971681448556 0 0)
(0.0001591528143826097 0 0)
(0.0002075916524432291 0 0)
(0.0002774317433989123 0 0)
(0.0003658610774581494 0 0)
(0.000466540521546238 0 0)
(0.0005719391094719484 0 0)
(0.0006780440359879547 0 0)
(0.000784125090041204 0 0)
(0.0008900613772599496 0 0)
(0.0009955921242124396 0 0)
(0.001100266495465821 0 0)
(0.001203439593846131 0 0)
(0.001304255815622151 0 0)
(0.001401668487264892 0 0)
(0.001494438532137163 0 0)
(0.001581167568055234 0 0)
(0.001660308742032265 0 0)
(0.001730211005585532 0 0)
(0.001789140198606225 0 0)
(0.001835332434666668 0 0)
(0.001867023077970914 0 0)
(0.001882509045448537 0 0)
(0.001880193298976197 0 0)
(0.001858687440401532 0 0)
(0.001816969495604975 0 0)
(0.00175479399782546 0 0)
(0.001673539332394185 0 0)
(0.001577484084935768 0 0)
(0.001473594356013437 0 0)
(0.001367644411467497 0 0)
(0.001261549670996961 0 0)
(0.001155518086387697 0 0)
(0.001049698769012015 0 0)
(0.0009443906106160428 0 0)
(0.0008400594601886028 0 0)
(0.000737345541834915 0 0)
(0.0006370596102021283 0 0)
(0.0005401699818586589 0 0)
(0.0004477801227498454 0 0)
(0.0003610965237570877 0 0)
(0.0002813864210863988 0 0)
(0.0002099247496056281 0 0)
(0.0001479286602805108 0 0)
(9.647374800840462e-05 0 0)
(5.637322032578946e-05 0 0)
(2.796969970711775e-05 0 0)
(1.074438103202334e-05 0 0)
(2.729321700237278e-06 0 0)
(3.565818185846492e-07 0 0)
(1.694923777133055e-08 0 0)
(2.255543319270252e-10 0 0)
(3.15283965641108e-11 0 0)
(3.129059363203293e-11 0 0)
(3.138338691791285e-11 0 0)
(3.148170184514872e-11 0 0)
(3.157916981201831e-11 0 0)
(3.167489176721577e-11 0 0)
(3.178158755051007e-11 0 0)
(3.185416761610225e-11 0 0)
(3.202342656704593e-11 0 0)
(3.201603158056685e-11 0 0)
(3.218476383406726e-11 0 0)
(3.22623407728632e-11 0 0)
(3.236863719215676e-11 0 0)
(3.246477201641419e-11 0 0)
(3.256172679090463e-11 0 0)
(3.266495756096597e-11 0 0)
(3.274728056465725e-11 0 0)
(3.291745978915871e-11 0 0)
(3.291821993126293e-11 0 0)
(3.309123521893708e-11 0 0)
(3.318076606752542e-11 0 0)
(3.329978232659813e-11 0 0)
(3.341844359545494e-11 0 0)
(3.35099616175575e-11 0 0)
(3.36759735655686e-11 0 0)
(3.366796120478933e-11 0 0)
(3.385795428558741e-11 0 0)
(3.392191812117181e-11 0 0)
(3.40963012787683e-11 0 0)
(3.409586332887446e-11 0 0)
(3.427768391743825e-11 0 0)
(3.437361037786802e-11 0 0)
(3.449134751457505e-11 0 0)
(3.460783639762453e-11 0 0)
(3.471370644280107e-11 0 0)
(3.489722481067482e-11 0 0)
(3.491204951094024e-11 0 0)
(3.510465678601398e-11 0 0)
(3.521208377199201e-11 0 0)
(3.532965691865133e-11 0 0)
(3.545071437148981e-11 0 0)
(3.557643685884748e-11 0 0)
(3.569433798559872e-11 0 0)
(3.580911172568989e-11 0 0)
(3.600064824222403e-11 0 0)
(3.602644098270481e-11 0 0)
(3.621845789360855e-11 0 0)
(3.632451893895883e-11 0 0)
(3.646749124998542e-11 0 0)
(3.659487293076199e-11 0 0)
(3.672772994981652e-11 0 0)
(3.686458060885031e-11 0 0)
(3.697571955777593e-11 0 0)
(3.716561424454258e-11 0 0)
(3.718650464725685e-11 0 0)
(3.738311135019388e-11 0 0)
(3.749771724164624e-11 0 0)
(3.763310742460942e-11 0 0)
(3.776669371705086e-11 0 0)
(3.78849093188386e-11 0 0)
(3.809126281845965e-11 0 0)
(3.811236351429715e-11 0 0)
(3.831542756649778e-11 0 0)
(3.843272868261054e-11 0 0)
(3.857972743162115e-11 0 0)
(3.871066673177409e-11 0 0)
(3.883626767356726e-11 0 0)
(3.897831971103255e-11 0 0)
(3.908852873992902e-11 0 0)
(3.929141722631821e-11 0 0)
(3.931919906960631e-11 0 0)
(3.953537074981446e-11 0 0)
(3.964501256607773e-11 0 0)
(3.979139587008648e-11 0 0)
(3.992779893275278e-11 0 0)
(4.007025998068835e-11 0 0)
(4.02075254380786e-11 0 0)
(4.032223551144264e-11 0 0)
(4.053376723796584e-11 0 0)
(4.055378174089888e-11 0 0)
(4.077332582820042e-11 0 0)
(4.089247713790289e-11 0 0)
(4.10293509484705e-11 0 0)
(4.117466735252087e-11 0 0)
(4.129487784500151e-11 0 0)
(4.151129454563659e-11 0 0)
(4.15317990894194e-11 0 0)
(4.173894938774013e-11 0 0)
(4.186861921199852e-11 0 0)
(4.200390714234429e-11 0 0)
)
;

boundaryField
{
    inlet
    {
        type            calculated;
        value           uniform (0.002015027191159927 0 0);
    }
    outlet
    {
        type            calculated;
        value           uniform (4.205881937325232e-11 0 0);
    }
    frontAndBack
    {
        type            empty;
    }
}


// ************************************************************************* //
