/*--------------------------------*- C++ -*----------------------------------*\
| =========                 |                                                 |
| \\      /  F ield         | OpenFOAM: The Open Source CFD Toolbox           |
|  \\    /   O peration     | Version:  v2012                                 |
|   \\  /    A nd           | Website:  www.openfoam.com                      |
|    \\/     M anipulation  |                                                 |
\*---------------------------------------------------------------------------*/
FoamFile
{
    version     2.0;
    format      ascii;
    class       volScalarField;
    location    "0.009";
    object      p;
}
// * * * * * * * * * * * * * * * * * * * * * * * * * * * * * * * * * * * * * //

dimensions      [1 -1 -2 0 0 0 0];


internalField   nonuniform List<scalar> 
1000
(
101310.9437426504
101313.5844903387
101306.8404564892
101301.5366373998
101295.6946286502
101290.4537064975
101285.9441523788
101282.0869094716
101278.7772265295
101276.5474203175
101275.933586677
101275.9547869118
101276.3265405734
101277.3493756311
101279.3308114494
101282.3354055769
101286.2516317913
101290.9047513417
101296.1482973508
101301.8795692259
101308.0142635197
101314.4618424606
101321.1158966811
101327.8544719009
101334.544475214
101341.0509047756
101347.2551246515
101353.0832466095
101358.5280617846
101363.608412943
101368.1730817993
101371.5676807258
101373.0187245943
101373.1815598491
101373.12060832
101372.8521766273
101372.1127531455
101370.6581855815
101368.2825714948
101364.8913673881
101360.5255551066
101355.3385124753
101349.5335902102
101343.3014218833
101336.7903297893
101330.1132968181
101323.3705169671
101316.6655546557
101310.1046518024
101303.7770598021
101297.7261092426
101291.9490594993
101286.4976492584
101281.744827159
101278.5832169262
101277.507430919
101277.4349582937
101277.478161112
101277.7357675684
101278.3775902511
101279.6262692541
101281.6745983435
101284.6590089753
101288.6226097536
101293.5030398348
101299.1473117664
101305.3507753902
101311.9044567086
101318.6298877351
101325.3896770704
101332.081322024
101338.6329076223
101345.008273029
101351.2058187354
101357.2200577223
101362.9234665618
101367.826909453
101370.9821471209
101372.0174182118
101372.092354899
101372.0368841739
101371.8315416865
101371.2859119555
101370.2246017291
101368.4622853187
101365.8476449983
101362.2901087685
101357.7837007825
101352.4131582092
101346.3395365855
101339.770376381
101332.9230448721
101325.9895062787
101319.110976363
101312.3689932339
101305.7920734419
101299.3749692759
101293.1293574982
101287.2269501402
101282.2683156829
101279.267448093
101278.3936672529
101278.3493425476
101278.3857655859
101278.593675158
101279.0988472625
101280.0774615571
101281.6951495759
101284.097462263
101287.3840758249
101291.5891830145
101296.6684789705
101302.4999804305
101308.9024240614
101315.6668146695
101322.5909656957
101329.5095277728
101336.3162234987
101342.9717104886
101349.4832987376
101355.83835554
101361.8611628695
101366.9724872394
101370.176594693
101371.2017425048
101371.2799932994
101371.2375495644
101371.0796153752
101370.6528599526
101369.8135570879
101368.4017390847
101366.2708422894
101363.3048469107
101359.4390556085
101354.675266238
101349.0880738967
101342.8199969221
101336.0629867298
101329.0261858712
101321.897681726
101314.8142971046
101307.850703557
101301.0351904709
101294.4122398166
101288.2017461767
101283.0623865549
101280.0133238549
101279.136055754
101279.0865281717
101279.1138969562
101279.277913657
101279.6853471585
101280.4838276165
101281.8177069315
101283.8237757269
101286.6133486081
101290.2563290478
101294.7659509136
101300.0899136947
101306.1128580155
101312.6707360041
101319.5741864412
101326.6383932057
101333.7150030292
101340.7134739809
101347.5921986695
101354.2984978444
101360.627359367
101365.9831924075
101369.3680598963
101370.4944271867
101370.5947810394
101370.5639918963
101370.4457499603
101370.1091397244
101369.4313894175
101368.2708787291
101366.4914185595
101363.9734766907
101360.6300501754
101356.4204566591
101351.3608163528
101345.5290097298
101339.0598482305
101332.1267181413
101324.9124871594
101317.5794086449
101310.2492001556
101303.0064118675
101295.9529044868
101289.3645548659
101283.9466496551
101280.7313146044
101279.7790479725
101279.7138720765
101279.7344461592
101279.8652936701
101280.1975590745
101280.8593785565
101281.9790470242
101283.6837051062
101286.0854723341
101289.26893581
101293.277758582
101298.1044461742
101303.6869410902
101309.9130972911
101316.6328553056
101323.6791158838
101330.8955783943
101338.160367628
101345.3858216079
101352.4710770447
101359.1729586288
101364.8753001761
101368.55877437
101369.8619023555
101370.0007664841
101369.9791564058
101369.8897855646
101369.6210418065
101369.0663058515
101368.0994907532
101366.5949710885
101364.435336015
101361.5240157114
101357.7969240488
101353.2330242747
101347.8623485102
101341.7675740853
101335.0751706664
101327.9370383856
101320.5084349808
101312.9294287167
101305.3226476668
101297.8390493702
101290.8069323563
101284.9832837065
101281.4600007827
101280.3601220023
101280.268915085
101280.2822167351
101280.3846788282
101280.6554147789
101281.2087963318
101282.1596320565
101283.6249709677
101285.7131936635
101288.5144821845
101292.089620634
101296.4602781284
101301.6034174362
101307.4506353507
101313.8931881667
101320.7951040509
101328.0141240245
101335.4216165127
101342.9049036684
101350.3297998908
101357.4257519354
101363.5625922612
101367.678829649
101369.2620453285
101369.4674947913
101369.4538223506
101369.3892558727
101369.1760384426
101368.7205169525
101367.908733243
101366.6253390106
101364.7581590497
101362.2079914882
101358.8979881435
101354.7832369519
101349.8593807744
101344.1670739282
101337.7890400279
101330.8398700221
101323.4516588528
101315.7600110639
101307.9019926254
101300.0570083478
101292.5849916427
101286.2716184024
101282.2832375771
101280.9157601164
101280.7715239238
101280.7796074908
101280.858579464
101281.0784247133
101281.5416332
101282.3525212674
101283.6196286355
101285.4468191045
101287.9255588225
101291.1257394797
101295.087432042
101299.8150863351
101305.2744259697
101311.3931744986
101318.0685699692
101325.1819172223
101332.6131622941
101340.2427211032
101347.9217235308
101355.3727034948
101361.9770711693
101366.6449662155
101368.6471198332
101368.9738584882
101368.968707415
101368.9256024843
101368.7589210418
101368.3868056541
101367.7044890886
101366.6053287715
101364.9829134161
101362.7387529741
101359.7896565078
101356.0758932066
101351.569206501
101346.2782213064
101340.2489190899
101333.5601395248
101326.315550586
101318.634605855
101310.6521106903
101302.5540780702
101294.7009945954
101287.8649645197
101283.2706812491
101281.4873103832
101281.2429527213
101281.2445262486
101281.3022727682
101281.4769782473
101281.861969151
101282.5532395267
101283.6519549846
101285.2570468389
101287.4590425028
101290.3325780824
101293.9295489498
101298.2735998251
101303.3559469402
101309.1338768703
101315.5347037695
101322.4652116356
101329.8211397545
101337.4878017371
101345.3169677905
101353.0440587173
101360.0928394484
101365.3878643522
101367.9629776935
101368.4995257604
101368.5125287218
101368.4858629651
101368.3588838325
101368.0581825752
101367.4868812679
101366.5455280445
101365.1330067086
101363.152799062
101360.5188838448
101357.1625550264
101353.0392390701
101348.1338664944
101342.4634466029
101336.0763405669
101329.0483719149
101321.4776290201
101313.4861849272
101305.2510696826
101297.1089031526
101289.7767212961
101284.4870211533
101282.1241088244
101281.6992029257
101281.6925090588
101281.7291347405
101281.8635899623
101282.1783423043
101282.7635914083
101283.7147467418
101285.1263167494
101287.0868903953
101289.6731431606
101292.9443045335
101296.9371837552
101301.6616634397
101307.0981574297
101313.199326791
101319.8956448547
101327.1008114289
101334.711484698
101342.5900247533
101350.4979521052
101357.9243864001
101363.859753043
101367.1448839606
101368.021769803
101368.0764751099
101368.0613098788
101367.9680074829
101367.7296535475
101367.255435112
101366.4521642478
101365.2232673997
101363.4746428068
101361.1192821913
101358.0829430911
101354.3100446459
101349.7686420122
101344.4537146776
101338.3886225223
101331.6244244867
101324.237741767
101316.3334047837
101308.0699489499
101299.7454255195
101291.993410329
101285.9875746297
101282.886449584
101282.1553556479
101282.1206363792
101282.1439448726
101282.2432062918
101282.4965821966
101282.9879240961
101283.8079986266
101285.0475691373
101286.7932609976
101289.1228046208
101292.1002463985
101295.7712788459
101300.1591860981
101305.2623371144
101311.0540783946
101317.4849490464
101324.4858265574
101331.9682435282
101339.8112440046
101347.807801401
101355.5210510067
101362.0482406018
101366.1287486723
101367.5024336292
101367.6464032377
101367.6381109708
101367.5756214998
101367.3928344405
101367.0063949512
101366.3271772767
101365.2625902165
101363.7208074217
101361.6147429151
101358.8669532263
101355.4147684108
101351.214441051
101346.2443972603
101340.5082459675
101334.0364834706
101326.8859568109
101319.1423597157
101310.9413213554
101302.5374845868
101294.4692596304
101287.7949139701
101283.8431857492
101282.6407053694
101282.5360006419
101282.5517834755
101282.6201286365
101282.8196751838
101283.2268814069
101283.929145299
101285.0140250521
101286.5663939074
101288.6640710184
101291.3741431934
101294.7489061126
101298.8216358366
101303.6038091786
101309.0847705005
101315.23252236
101321.9940615602
101329.2946033409
101337.0293564224
101345.024369026
101352.9201935288
101359.947557664
101364.8534781493
101366.9032226005
101367.2306116683
101367.2355568497
101367.1926041116
101367.0564282882
101366.7443879365
101366.1734917504
101365.2542272214
101363.8971337142
101362.0157745901
101359.5309337016
101356.3747604006
101352.4946284399
101347.8567944712
101342.4497421575
101336.286354951
101329.4050181626
101321.8735002169
101313.805585229
101305.4128430685
101297.1377806648
101289.8928511656
101285.0543196768
101283.2058403108
101282.9556265008
101282.9599974898
101283.0048774386
101283.1557473281
101283.4864430048
101284.0807761482
101285.0236893149
101286.3985797331
101288.2834848915
101290.7476360751
101293.8477587963
101297.6244820927
101302.099742383
101307.2754620344
101313.1329670042
101319.6328658689
101326.7146313992
101334.2901518903
101342.2141458058
101350.1956407919
101357.6046285717
101363.2869975043
101366.1559340906
101366.8050594182
101366.8325946987
101366.8091652436
101366.7116772047
101366.4656738321
101365.9917187793
101365.20344603
101364.0135951014
101362.3367971307
101360.0929440507
101357.2107175047
101353.631251376
101349.3117220635
101344.2285871117
101338.3802572644
101331.7895484083
101324.507944588
101316.6281368714
101308.3224753921
101299.9474499479
101292.2601413716
101286.5673735712
101283.9011013406
101283.3739675656
101283.3594478021
101283.386420599
101283.4966817914
101283.7607718768
101284.2583600465
101285.0724587842
101286.2852481143
101287.9748031968
101290.2118914678
101293.0565704803
101296.554996282
101300.7370304463
101305.6145982131
101311.1803818769
101317.4070521508
101324.2467771773
101331.6265297013
101339.4262580081
101347.4123534513
101355.0797437435
101361.425651636
101365.1855043594
101366.3300530831
101366.4294185831
101366.4159326744
101366.3504998592
101366.1618727561
101365.7752536093
101365.1071286292
101364.0721009402
101362.5853849194
101360.5661717062
101357.9406401689
101354.6451120607
101350.6296224503
101345.8614611903
101340.3279162681
101334.0387346102
101327.0305575028
101319.3774579103
101311.2190440157
101302.83833409
101294.8435524274
101288.3945431263
101284.7978849228
101283.8205209642
101283.753537844
101283.766858168
101283.843905894
101284.0489101021
101284.4598917452
101285.1571447654
101286.2216946221
101287.7313480855
101289.7577816463
101292.3635068593
101295.5990564927
101299.5006091786
101304.0879969424
101309.3631241657
101315.3090716757
101321.8893312461
101329.043925408
101336.6738945041
101344.5936381115
101352.4079674506
101359.2872012015
101363.9466312336
101365.7767726439
101366.0374699444
101366.0350299516
101365.9937071094
101365.8537551303
101365.5434843008
101364.9819877091
101364.0857695688
101362.7711530491
101360.9572654537
101358.5688410465
101355.5391446074
101351.8130627093
101347.3502633826
101342.128299954
101336.1457714285
101329.4264008697
101322.0270662943
101314.058990196
101305.7464986066
101297.5718075159
101290.5148068578
101285.9671150632
101284.3460871753
101284.1523551764
101284.1577033835
101284.2077563595
101284.3624405948
101284.6951776898
101285.284493635
101286.2102156127
101287.5502419352
101289.3774181682
101291.756541455
101294.7417716474
101298.3744700223
101302.6810827273
101307.6711804336
101313.3364173905
101319.6500359028
101326.5638322732
101333.9964432643
101341.7991406985
101349.6641823216
101356.9277435792
101362.404671822
101365.068315381
101365.6306739683
101365.649134727
101365.6275894885
101365.5269760153
101365.283325327
101364.8179922338
101364.0495275747
101362.8951292906
101361.2738669976
101359.1091960661
101356.3317239131
101352.8821550625
101348.7143058548
101343.7981070894
101338.1227865581
101331.7008119644
101324.5744771938
101316.8315754974
101308.6485115965
101300.4017993476
101292.8885314675
101287.4408677802
101284.9990356003
101284.5526339509
101284.5436295481
101284.5725913455
101284.6846439157
101284.9485606226
101285.4404511608
101286.239379944
101287.423120707
101289.0652594707
101291.2323906546
101293.9816097541
101297.3582556485
101301.3938735437
101306.1045574857
101311.4898023627
101317.531453472
101324.1912530495
101331.402994923
101339.0483562742
101346.8887375886
101354.4035841753
101360.5701795523
101364.1452093904
101365.1918332249
101365.2757904931
101365.2550174141
101365.1769239317
101364.9774535817
101364.5865918633
101363.9293492307
101362.9278643962
101361.5030537146
101359.576286143
101357.0720708947
101353.9213923146
101350.0650832061
101345.458013127
101340.0748698217
101333.9169190386
101327.0180705177
101319.4542474005
101311.3767290693
101303.0869442878
101295.2128496929
101289.0094367883
101285.6571217435
101284.7622213213
101284.6987302194
101284.7644779454
101284.8757155461
101285.0838677493
101285.4562007651
101286.0749575167
101287.033369607
101288.4236354641
101290.3292652835
101292.8226535091
101295.963049753
101299.7924286483
101304.3320378958
101309.5820829187
101315.5224299625
101322.1128818884
101329.2885796737
101336.9374795611
101344.8572101747
101352.6361250269
101359.3809712299
101363.7943627513
101365.6411181419
101365.9865420611
101365.9627524689
101365.8214237192
101365.5828359507
101365.2034970724
101364.6320924992
101363.7862144811
101362.5612433911
101360.8536416664
101358.5715456236
101355.6358609035
101351.9823443362
101347.5660542745
101342.3644535199
101336.3785545904
101329.6342043936
101322.1940428899
101314.1943434756
101305.8949023695
101297.7920925088
101290.8879489749
101286.5235015613
101284.8011795535
101284.4564440434
101284.4864281972
101284.6198809368
101284.8813321809
101285.2978375063
101285.9134541674
101286.8041493772
101288.0633394194
101289.783728126
101292.0496228681
101294.9319759389
101298.4825597853
101302.7306014169
101307.6836680525
101313.3301289304
101319.6406733848
101326.5634693308
101333.9989389655
101341.762340868
101349.5332520522
101356.6695407256
101362.0090546971
101364.7043544169
101365.5119635211
101365.5569750744
101365.4453294211
101365.2297156787
101364.8614580684
101364.3135121521
101363.5297463279
101362.4248956398
101360.9017962144
101358.8622080864
101356.2126887868
101352.8724959125
101348.7821806541
101343.9087141243
101338.2466150581
101331.8171621806
101324.6730049844
101316.9271361978
101308.7973781767
101300.6627567444
101293.2743083954
101287.9179283486
101285.3743128077
101284.653476566
101284.5926031589
101284.7110921861
101284.9434476896
101285.3490538486
101285.9446380227
101286.7850082665
101287.9473926436
101289.5154874128
101291.5738059126
101294.2037850102
101297.4746684014
101301.4333026746
101306.099123613
101311.4652758935
101317.502607509
101324.1612236957
101331.3564994111
101338.9374275415
101346.6503995318
101354.0161997512
101360.0873266955
101363.7317208973
101365.0780203357
101365.3132985688
101365.2536229937
101365.0682377903
101364.724535546
101364.2006928041
101363.4569310055
101362.428204506
101361.0344714291
101359.1870656628
101356.7901231436
101353.7486392717
101349.9831391942
101345.4422870879
101340.1077791856
101333.9944088731
101327.1507107454
101319.6724988811
101311.7375039981
101303.6500181767
101295.9810762528
101289.8120644916
101286.2831823447
101285.0671152628
101284.8488050907
101284.888186645
101285.0840772407
101285.4579786707
101286.02862284
101286.8332218797
101287.9286907466
101289.3814181764
101291.2659491213
101293.6651561102
101296.6614757796
101300.3219671183
101304.6862115328
101309.7616682386
101315.5244614247
101321.9234413306
101328.879586633
101336.263574262
101343.8648233884
101351.3223439534
101357.906600719
101362.4762117955
101364.5217550273
101365.0538210452
101365.1093235341
101364.9769055493
101364.6861717355
101364.1908047442
101363.4730684728
101362.4902612737
101361.1828252186
101359.4787560445
101357.2924697223
101354.5272706844
101351.0867699782
101346.892007392
101341.89802175
101336.1042588268
101329.5551758004
101322.3390937359
101314.6112203536
101306.6274813187
101298.8222062366
101292.0583091912
101287.5718996201
101285.6954951637
101285.23955105
101285.1629248514
101285.2815617015
101285.5798456301
101286.1009747511
101286.871626737
101287.9294282744
101289.3164195552
101291.08160279
101293.2903205751
101296.0258524596
101299.3763343307
101303.4134114467
101308.1736302218
101313.6501107772
101319.7944631858
101326.5250690257
101333.7207780197
101341.1955426649
101348.6629291208
101355.5671979699
101360.8834420689
101363.781094643
101364.7190845872
101364.8739036179
101364.8656355011
101364.6777475655
101364.2713530887
101363.6086697529
101362.6545871415
101361.3758353108
101359.7374163718
101357.6899189343
101355.1568827521
101352.0364692895
101348.2194605457
101343.6154741042
101338.1784203816
101331.9285205417
101324.9553438798
101317.4166400069
101309.5532955634
101301.7096752588
101294.542607959
101289.2236503644
101286.5213371291
101285.7182671697
101285.5914297476
101285.610526748
101285.7932277546
101286.1855072814
101286.8421521051
101287.8235841116
101289.1765320729
101290.9242421745
101293.0779993991
101295.6592335537
101298.7169428248
101302.3383905598
101306.6474103173
101311.7617258378
101317.7043386285
101324.3160115632
101331.4013777495
101338.5128966805
101346.6807570768
)
;

boundaryField
{
    inlet
    {
        type            uniformFixedValue;
        uniformValue    sine;
        uniformValueCoeffs
        {
            frequency       constant 3000;
            scale           constant 50;
            level           constant 101325;
        }
        value           uniform 101323.6421297957;
    }
    outlet
    {
        type            pressureOutletNSCBC;
        pInf            101325;
        gamma           1.4;
        etaAc           1;
        fieldInf        1;
        lInf            2.25;
        value           uniform 101350.3710325132;
    }
    frontAndBack
    {
        type            empty;
    }
}


// ************************************************************************* //
