/*--------------------------------*- C++ -*----------------------------------*\
| =========                 |                                                 |
| \\      /  F ield         | OpenFOAM: The Open Source CFD Toolbox           |
|  \\    /   O peration     | Version:  v2012                                 |
|   \\  /    A nd           | Website:  www.openfoam.com                      |
|    \\/     M anipulation  |                                                 |
\*---------------------------------------------------------------------------*/
FoamFile
{
    version     2.0;
    format      ascii;
    class       volScalarField;
    location    "0.009";
    object      pMean;
}
// * * * * * * * * * * * * * * * * * * * * * * * * * * * * * * * * * * * * * //

dimensions      [1 -1 -2 0 0 0 0];


internalField   nonuniform List<scalar> 
1000
(
101325.0327275647
101325.0041584151
101325.019731647
101325.0344981364
101325.0551845212
101325.0801775108
101325.1078221033
101325.1408187939
101325.1759802357
101325.2142504465
101325.25350624
101325.2927773803
101325.3318839936
101325.370477219
101325.4079253426
101325.4434827647
101325.4763116686
101325.505825439
101325.5313698609
101325.5526408379
101325.5691370845
101325.5806815702
101325.5869468274
101325.5879146613
101325.5834584331
101325.5737575963
101325.5589007764
101325.5392610835
101325.5150393975
101325.4866220226
101325.4542192516
101325.4184939581
101325.3806148289
101325.3421311221
101325.3036063973
101325.2652223413
101325.2272059248
101325.1900233478
101325.154298535
101325.120803323
101325.0903299826
101325.0636099449
101325.04122864
101325.0236244592
101325.0110837932
101325.0037986914
101325.0018726465
101325.0053305299
101325.014105255
101325.0280506273
101325.0469626285
101325.0706312451
101325.098838752
101325.1312374124
101325.1670051008
101325.2046207329
101325.24267405
101325.2807198734
101325.3186317176
101325.356243467
101325.3931039278
101325.4287420246
101325.4623973648
101325.4933920928
101325.5208781992
101325.5442587258
101325.5629066159
101325.5765269742
101325.5848139633
101325.5877544513
101325.5852731551
101325.577528977
101325.5645631939
101325.5465969223
101325.5236905326
101325.4960923756
101325.4640837704
101325.4286731321
101325.3914143347
101325.3537866879
101325.3161286517
101325.278590609
101325.2413209872
101325.2046640112
101325.1690755272
101325.1351803493
101325.1036722548
101325.0753229905
101325.0508454434
101325.0308971037
101325.0159515819
101325.0063538363
101325.0022445998
101325.0036696892
101325.0105373377
101325.0227496678
101325.0401588677
101325.0626695346
101325.0900898076
101325.1220093546
101325.1573190641
101325.1943109338
101325.2316278693
101325.2689505839
101325.3061486018
101325.3431265755
101325.3794984677
101325.4149239069
101325.4487575711
101325.4804270415
101325.509125285
101325.5342231323
101325.5549703901
101325.5709174806
101325.5815815206
101325.5868365217
101325.5865122149
101325.5807472673
101325.5695412121
101325.5531079337
101325.5314650488
101325.5048640908
101325.4736254811
101325.4388782734
101325.4022695987
101325.3652950185
101325.328279082
101325.2913694836
101325.2546529067
101325.2184346923
101325.1830501471
101325.1490511478
101325.1170016874
101325.087638776
101325.0616323633
101325.0397233942
101325.022478324
101325.0104212589
101325.0038339681
101325.0029207119
101325.007668211
101325.018056404
101325.0339437347
101325.0552560337
101325.0817469595
101325.1129578021
101325.1476445107
101325.1840468965
101325.2207645626
101325.25750488
101325.2941336895
101325.3305968922
101325.3665576697
101325.4017539657
101325.4356179197
101325.4676712136
101325.4971695221
101325.523521279
101325.5459565419
101325.5639547089
101325.5769155658
101325.5845708324
101325.5866079365
101325.5830479805
101325.5738059576
101325.559058527
101325.5388088112
101325.5133401182
101325.4830028858
101325.4489918835
101325.4129900158
101325.3765737861
101325.3400974616
101325.3037162194
101325.2674728871
101325.2316381643
101325.1964745463
101325.1624664862
101325.1300922032
101325.1000242509
101325.0728812692
101325.049406607
101325.0301972184
101325.0158839693
101325.0068620832
101325.0035031798
101325.0059175153
101325.0142218639
101325.0283280732
101325.0482114936
101325.0735917725
101325.1039702256
101325.1380048534
101325.1738629286
101325.2100689253
101325.2463114337
101325.2824535136
101325.3184741513
101325.3540693739
101325.389037929
101325.4228702947
101325.455163523
101325.4852324605
101325.5125392662
101325.5363246361
101325.5560573967
101325.5710648096
101325.5809882346
101325.5853814306
101325.5841416245
101325.5770634531
101325.5642433748
101325.5456311254
101325.5215020764
101325.4922146968
101325.4589932265
101325.4235730579
101325.3876440824
101325.3516381309
101325.3157161244
101325.2798929744
101325.2444089958
101325.2094726797
101325.1755128868
101325.1429366698
101325.1123604075
101325.084343126
101325.059608165
101325.0387489968
101325.0224501552
101325.0111825653
101325.0054433686
101325.0054694095
101325.0115153972
101325.0235982773
101325.0417721756
101325.0657895624
101325.0951491518
101325.1284615614
101325.1637955509
101325.199549935
101325.2353504592
101325.2710658825
101325.3066908716
101325.3419563439
101325.3767007456
101325.4104671143
101325.4429111494
101325.4734030278
101325.5014556947
101325.5263405002
101325.5475316736
101325.5643300254
101325.5763130504
101325.5829453836
101325.584009881
101325.5791894769
101325.5684742741
101325.55173549
101325.5291911618
101325.5011629052
101325.4688510236
101325.4340302187
101325.3985502688
101325.3629651919
101325.3274575004
101325.2920131205
101325.2568555893
101325.2221417429
101325.1882660552
101325.1555680375
101325.12461964
101325.0959182575
101325.0701595392
101325.0479144814
101325.029889899
101325.0166010949
101325.0086318512
101325.0063236099
101325.0100547059
101325.0199572665
101325.0361875411
101325.0585726424
101325.0866668367
101325.1191050063
101325.1538837929
101325.189218818
101325.2246192108
101325.2599467587
101325.2952086364
101325.3301676348
101325.36469045
101325.3983694722
101325.4309013914
101325.4617137003
101325.490358285
101325.5161499335
101325.5385731279
101325.5569312665
101325.5707589599
101325.5794671164
101325.5827442084
101325.5801831806
101325.5716638988
101325.5569746084
101325.5362408021
101325.5097126837
101325.4784910636
101325.4443484702
101325.4093026485
101325.3741100511
101325.3389811214
101325.3038949176
101325.269041389
101325.2345553568
101325.200780751
101325.1680225058
101325.1367930074
101325.1075532606
101325.0809496194
101325.0575379716
101325.0380147494
101325.0229263914
101325.0129050849
101325.0083758694
101325.0098142921
101325.0174592409
101325.0315726808
101325.0520788058
101325.0786439235
101325.1100027903
101325.1441503314
101325.1790730979
101325.2141019914
101325.2490646234
101325.2839882334
101325.3186533907
101325.3529607959
101325.3865330388
101325.4191133592
101325.4501660696
101325.4792924604
101325.5058353169
101325.5293120927
101325.5490238969
101325.564499888
101325.5751019662
101325.5804676055
101325.580101056
101325.5738055307
101325.5612687552
101325.5425355792
101325.5177342488
101325.4878301355
101325.4544897773
101325.4199028536
101325.38507552
101325.3503099376
101325.3155587025
101325.2810053945
101325.2467430535
101325.2130945393
101325.1803136931
101325.148881653
101325.1192069944
101325.0919067577
101325.0675010079
101325.0466790974
101325.0299903788
101325.0181010923
101325.0114901108
101325.0107080353
101325.0160837944
101325.0279722121
101325.0464100403
101325.0711955725
101325.1012458782
101325.1346273055
101325.1691235148
101325.2037903168
101325.2384082702
101325.2729977672
101325.3073838349
101325.3414662556
101325.3749256264
101325.4075116238
101325.4387550563
101325.4682650445
101325.4954490781
101325.5198203293
101325.5407255864
101325.5576599262
101325.5699955597
101325.5772969326
101325.5790424497
101325.5749329119
101325.5646093309
101325.5479954853
101325.5251295874
101325.4967623249
101325.464412664
101325.4303323062
101325.3958713591
101325.3614451217
101325.3270274217
101325.2927610117
101325.2587350557
101325.2252221486
101325.1924614065
101325.1608781117
101325.130860583
101325.102973043
101325.0777221209
101325.0557629289
101325.0376557631
101325.0240677239
101325.015525783
101325.0126215411
101325.0157647876
101325.0253808258
101325.0416185736
101325.0644124779
101325.0929074138
101325.1253410103
101325.1593588918
101325.1936749896
101325.2279576973
101325.2622257041
101325.2963302906
101325.3301871062
101325.3635116176
101325.3960770587
101325.4274553236
101325.4572812608
101325.485002945
101325.5101515051
101325.5321011405
101325.5503425861
101325.5642493967
101325.5733498696
101325.5770928474
101325.5751128197
101325.5669983675
101325.5525800641
101325.5317910082
101325.5051717731
101325.4740163953
101325.4405506753
101325.4064653504
101325.3723778179
101325.3382879986
101325.3043173676
101325.270531899
101325.2371783744
101325.2044643283
101325.1727831473
101325.1424884496
101325.1141118367
101325.0881305412
101325.0651779594
101325.0458036949
101325.0306775569
101325.0203462603
101325.0154366968
101325.0164105443
101325.0237580757
101325.0377179057
101325.058363256
101325.0850716943
101325.1163397722
101325.1497806717
101325.1837435866
101325.2176969165
101325.2516517515
101325.2854695594
101325.3190988389
101325.3522670012
101325.3847891462
101325.4162532526
101325.446339401
101325.47451075
101325.5003396406
101325.5232052151
101325.542624507
101325.5579542968
101325.5687250925
101325.5743426398
101325.574418943
101325.5684744099
101325.5562893299
101325.5376752165
101325.5130035886
101325.4832704801
101325.4505801797
101325.4168833876
101325.3831261472
101325.349349326
101325.3156699683
101325.2821289435
101325.2489499498
101325.2163116137
101325.1845778576
101325.1540693109
101325.1252876108
101325.0986796146
101325.0748567566
101325.0543509957
101325.0378298245
101325.0258460425
101325.0190514564
101325.017940933
101325.0230598797
101325.0347186618
101325.0531174653
101325.0778485976
101325.1077167935
101325.1404310991
101325.1740141164
101325.2076372379
101325.2412723316
101325.2748003623
101325.3081839666
101325.3411811416
101325.3736263092
101325.4051415976
101325.4354292128
101325.4639859161
101325.4904033572
101325.5140868955
101325.5345612382
101325.5511942607
101325.5635044775
101325.5708876345
101325.5729207132
101325.5690937274
101325.5591240659
101325.5427435178
101325.5201469553
101325.4920607794
101325.4603362534
101325.4271037742
101325.3936689792
101325.3602083942
101325.3268219534
101325.2935357798
101325.2605471353
101325.2280130637
101325.1962645514
101325.165598489
101325.1364807558
101325.1093370595
101325.0847469021
101325.0632317121
101325.0454405242
101325.0319352215
101325.0233700622
101325.0202739441
101325.0232212343
101325.0325926537
101325.0486807779
101325.0712836824
101325.0995104231
101325.1313078799
101325.1644545857
101325.1977575658
101325.2310755127
101325.2643166194
101325.2974444233
101325.3302584084
101325.362598418
101325.3941316263
101325.4245682075
101325.4534493656
101325.4803734308
101325.5047835262
101325.5262039965
101325.5440264926
101325.55775596
101325.5667916609
101325.5706803736
101325.5688925646
101325.5610942106
101325.5469512456
101325.5265163105
101325.5002618584
101325.469734603
101325.4370786202
101325.4039879526
101325.370843079
101325.3377623481
101325.3047430931
101325.2719720274
101325.2395681606
101325.2078508344
101325.1770719003
101325.1476879876
101325.1200776417
101325.0948181828
101325.0723882621
101325.0534479605
101325.0385287842
101325.0283157512
101325.0233256424
101325.0241880736
101325.0313017817
101325.0450717017
101325.0654308084
101325.0918141957
101325.1224535903
101325.1550759337
101325.1880438448
101325.2210590548
101325.2539989633
101325.2868766543
101325.3194800898
101325.3517042274
101325.3832100452
101325.4137622796
101325.4428994427
101325.4702697934
101325.4953131767
101325.5175937287
101325.5364940026
101325.5515423113
101325.5621181598
101325.5677711603
101325.5679395293
101325.5622653558
101325.5503502256
101325.5321386864
101325.5078776677
101325.4787813225
101325.4468608664
101325.4141329167
101325.3812977607
101325.3485112223
101325.315763133
101325.2832109563
101325.2509611929
101325.2192955513
101325.1884544995
101325.1588515527
101325.1308573088
101325.1050047032
101325.0817724755
101325.0617817978
101325.0455781746
101325.0338201157
101325.0270583342
101325.0259155474
101325.0308533067
101325.0423144277
101325.0603925891
101325.0847524
101325.114004593
101325.1459320528
101325.1785481002
101325.2112408508
101325.2438854219
101325.2764807306
101325.3088666235
101325.3409301928
101325.3723858867
101325.4029954805
101325.432347675
101325.4600898009
101325.4857042143
101325.5087527393
101325.5286476421
101325.5449099826
101325.5569320236
101325.5642465933
101325.5662850476
101325.5626581888
101325.5529273843
101325.5369468075
101325.5147812832
101325.4873313546
101325.4563510717
101325.4240594618
101325.3915339895
101325.3590495728
101325.3265805895
101325.2942678308
101325.2621944704
101325.2306187511
101325.1997545519
101325.1699906037
101325.1416707691
101325.1153051356
101325.0913498633
101325.0704093877
101325.0530165201
101325.0398239256
101325.0313854285
101325.0283344975
101325.0311609795
101325.0403556743
101325.056121194
101325.0783334966
101325.1059588658
101325.1370012373
101325.1692107209
101325.2015900133
101325.2339360368
101325.2662509334
101325.2984043408
101325.3302934523
101325.3616684715
101325.3923011294
101325.4218184235
101325.4498741799
101325.4759887238
101325.4997234657
101325.5205247793
101325.5379018426
101325.55127249
101325.5601446196
101325.5639624656
101325.5622955021
101325.5546941885
101325.5409235891
101325.5209268365
101325.4953037925
101325.4655051131
101325.4337656583
101325.40157892
101325.3693954863
101325.3372125486
101325.3051372865
101325.2732421667
101325.2417568505
101325.2108853654
101325.1809927498
101325.1524113567
101325.1256296334
101325.1010889648
101325.0793621698
101325.0609736203
101325.0465450183
101325.0365767634
101325.0317308041
101325.0325127887
101325.0393791736
101325.0527161
101325.0725519012
101325.0981795073
101325.1278135678
101325.1592871873
101325.1912147416
101325.2231690185
101325.2551182433
101325.2869357157
101325.3184990325
101325.349542273
101325.3799748788
101325.4093118136
101325.4372879637
101325.4634257603
101325.487428777
101325.5086474527
101325.5267522141
101325.5412511191
101325.5515368748
101325.557099019
101325.5576448024
101325.5524612564
101325.5413756323
101325.5242186968
101325.5013362391
101325.4738314343
101325.4437539674
101325.4127852783
101325.3815498573
101325.3503522326
101325.3192373172
101325.2882440148
101325.257485649
101325.2273817665
101325.1981406797
101325.1700611882
101325.1435802511
101325.119217069
101325.097320537
101325.0784972827
101325.0634065081
101325.0522972
101325.0460273564
101325.0450145655
101325.0498995325
101325.0608765953
101325.0782887312
101325.1016173768
101325.1295819914
101325.1598184153
101325.1910852472
101325.2224203759
101325.2537567281
101325.2850715999
101325.3161624501
101325.3468133595
101325.3769065162
101325.4061593961
101325.4341600455
101325.4605378772
101325.4848834773
101325.5067199097
101325.5255672637
101325.5409808618
101325.5524526965
101325.5593813902
101325.5613711629
101325.5580109324
101325.5487815924
101325.533624865
101325.5126690876
101325.4867139358
101325.4574021212
101325.4266990531
101325.3957010144
101325.3644809552
101325.3334960471
101325.3025749892
101325.2717861561
101325.2415421623
101325.2121377846
101325.1837405336
101325.1568087493
101325.1317828502
101325.1091082106
101325.0892999222
101325.0728923445
101325.0605016497
101325.052535099
101325.0496778841
101325.052477046
101325.0612452336
101325.0762739005
101325.0973817185
101325.1236399644
101325.1530181537
101325.1836556934
101325.2146795561
101325.2456472605
101325.2766418402
101325.3075125354
101325.3379606746
101325.3679913996
101325.3972249082
101325.4253805972
101325.4520303395
101325.4768577707
101325.4992777899
101325.5190383744
101325.535359907
101325.5481039586
101325.5564968409
101325.560104593
101325.5585802384
101325.5513811429
101325.5383111166
101325.5194787592
101325.4953021521
101325.4672370145
101325.4370341769
101325.4063372227
101325.375561588
101325.3446271692
101325.3140529029
101325.2834243365
101325.2532515448
101325.2237335343
101325.1951847269
101325.1679501965
101325.1424540359
101325.1191990153
101325.0984980703
101325.0811177723
101325.067481027
101325.0580669725
101325.0535135909
101325.0543830832
101325.0610529238
101325.0738531613
101325.0927743335
101325.1172106848
101325.1455847684
101325.1756457659
101325.2063430923
101325.2371580973
101325.2677190185
101325.2985334363
101325.3288438353
101325.3586859208
101325.3880390571
101325.4164051334
101325.443379563
101325.468651374
101325.4917688329
101325.5121700878
101325.529653577
101325.5434110577
101325.5532681513
101325.5585372392
101325.5587734456
101325.5536322364
101325.5426854273
101325.5259659827
101325.5037736762
101325.4771118581
101325.447819362
101325.4173499549
101325.3868820717
101325.3564381442
101325.3258685291
101325.2958341937
101325.265507802
101325.2361324996
101325.2074919178
101325.1799817785
101325.1541002389
101325.1303012892
101325.1089080918
101325.0906475724
101325.0758328303
101325.0652655051
101325.059033888
101325.0581170511
101325.0628214018
101325.0734476777
101325.0902031599
101325.112719603
101325.1397558315
101325.1693784895
101325.1996402447
101325.23019151
101325.26079627
101325.2909380867
101325.3215939266
101325.3510560101
101325.3805751644
101325.4090785255
101325.436339345
101325.4620916539
101325.4858451294
101325.5070385335
101325.5253017153
101325.5403092033
101325.5513372782
101325.5581403833
101325.56017975
101325.55702675
101325.5482266296
101325.5336636984
101325.5135390717
101325.4885411031
101325.4602257224
101325.4304062801
101325.4000442733
101325.3698490873
101325.3398245492
101325.3096370083
101325.2803977884
101325.2503330654
101325.2219207852
101325.1943521171
101325.1680363946
101325.1437742492
101325.1217063826
101325.1025219087
101325.0868747053
101325.0750184391
101325.0676362496
101325.0649062766
101325.0677696309
101325.0762011037
101325.0908768713
101325.1113230349
101325.1368411394
101325.1655945406
101325.1957161582
101325.2260213378
101325.2563718199
101325.2867630595
101325.316477002
101325.3469911642
101325.3753690164
101325.4044173941
101325.4320177137
101325.4580005756
101325.4827219278
101325.5044793639
101325.5238223689
101325.5397818587
101325.5520149012
101325.5601826816
101325.5636187651
101325.5626520942
101325.5557316167
101325.5451316772
)
;

boundaryField
{
    inlet
    {
        type            calculated;
        value           uniform 101324.9999999998;
    }
    outlet
    {
        type            calculated;
        value           uniform 101325.5340831901;
    }
    frontAndBack
    {
        type            empty;
    }
}


// ************************************************************************* //
