/*--------------------------------*- C++ -*----------------------------------*\
| =========                 |                                                 |
| \\      /  F ield         | OpenFOAM: The Open Source CFD Toolbox           |
|  \\    /   O peration     | Version:  v2012                                 |
|   \\  /    A nd           | Website:  www.openfoam.com                      |
|    \\/     M anipulation  |                                                 |
\*---------------------------------------------------------------------------*/
FoamFile
{
    version     2.0;
    format      ascii;
    class       volScalarField;
    location    "0.009";
    object      rho;
}
// * * * * * * * * * * * * * * * * * * * * * * * * * * * * * * * * * * * * * //

dimensions      [1 -3 0 0 0 0 0];


internalField   nonuniform List<scalar> 
1000
(
1.17629876227347
1.176322536341231
1.176269029425168
1.176225623114712
1.176175035065304
1.176129041681876
1.176090174046338
1.176057513356504
1.176029603423148
1.176010572127885
1.176005009358736
1.176004638923884
1.17600717790447
1.176015488677164
1.17603195505716
1.176056973268317
1.176089592361652
1.176128356688276
1.176172039180374
1.176219769346656
1.176270826769296
1.176324442771615
1.176379724412326
1.176435657713571
1.17649114266443
1.176545067683336
1.176596459304269
1.176644716234327
1.17668978995684
1.176731846259533
1.176769638838834
1.176797747229405
1.176809759310578
1.176811103632692
1.176810605946327
1.176808403296431
1.176802300149561
1.176790263598125
1.176770586199691
1.176742483650948
1.176706294469519
1.176663290047113
1.176615157157071
1.17656347771046
1.176509483053843
1.17645411148374
1.176398194966852
1.17634259298224
1.176288186757945
1.176235716258958
1.176185540430247
1.176137636063025
1.176092431670513
1.176053019695243
1.17602680258616
1.176017882176788
1.176017281557799
1.176017639756231
1.176019775309226
1.176025096862207
1.176035451230216
1.176052437226459
1.176077186127857
1.176110055237843
1.176150527115828
1.176197332730075
1.17624877467119
1.17630311977731
1.176358887977869
1.176414939934808
1.176470425704936
1.176524749045783
1.176577610220412
1.17662899607269
1.176678861212772
1.17672614844454
1.176766802545503
1.176792962131837
1.176801545366801
1.176802166661627
1.176801706784036
1.17680000435557
1.176795480660892
1.176786681534762
1.176772070435103
1.176750392714696
1.176720897286504
1.176683534371132
1.176639006246298
1.176588647959789
1.176534180040705
1.176477404602891
1.176419913251472
1.176362876907203
1.176306971724391
1.176252434236138
1.176199221002615
1.176147428929154
1.176098482064926
1.176057361006949
1.176032475090344
1.176025228865788
1.176024861276103
1.176025163321863
1.176026887501033
1.176031076867353
1.176039192454216
1.176052607794559
1.176072529847017
1.176099785070406
1.176134656809529
1.176176777392996
1.176225134973978
1.17627822616223
1.176334317692327
1.176391732874252
1.176449100590595
1.176505539632719
1.1765607238486
1.176614713919453
1.176667405173897
1.17671734080614
1.176759718602552
1.176786283441757
1.176794782757973
1.176795431514664
1.176795079615292
1.176793770206274
1.176790232052918
1.176783273536197
1.176771568361414
1.176753901325906
1.17672931040431
1.176697259012437
1.176657761812453
1.176611436995556
1.176559465924298
1.176503439887493
1.176445092818382
1.176385984190172
1.176327248507668
1.176269504990887
1.176212988287424
1.176158067342158
1.176106565780749
1.176063946112825
1.176038660577105
1.176031385449851
1.176030974714721
1.176031201673447
1.176032561846912
1.176035940663762
1.176042562400548
1.176053624130273
1.176070260186895
1.176093393583478
1.17612360385475
1.176161000525435
1.176205149620953
1.176255094239606
1.176309473773022
1.176366717790202
1.176425293657491
1.17648397119777
1.176541999675466
1.176599034148478
1.176654637903427
1.176707111262364
1.176751516408618
1.176779579975209
1.176788918502053
1.176789750510283
1.176789495233644
1.176788514900371
1.176785724116278
1.176780104993036
1.176770483359106
1.176755730044566
1.176734853934686
1.176707133553618
1.176672231404375
1.176630280887894
1.17658192744036
1.17652828854159
1.176470801571493
1.176410982621507
1.176350176962625
1.176289393843037
1.176229334388448
1.176170843332449
1.17611620854467
1.176071279083922
1.176044614729363
1.176036717656438
1.176036177149513
1.176036347757871
1.176037432855656
1.176040188300806
1.176045676708118
1.176054961997464
1.17606909849153
1.176089015904527
1.176115415575891
1.176148659412117
1.176188685032814
1.176234977556434
1.176286606745559
1.176342328014256
1.176400755557481
1.176460593209065
1.176520830345742
1.176580740102933
1.176639486221712
1.176695052592037
1.176742330806144
1.176772870169748
1.176783674211918
1.176784825503214
1.176784646327292
1.176783905355186
1.17678167723449
1.176777077995495
1.176769062255519
1.176756588438742
1.176738683040575
1.176714545299062
1.176683643715403
1.176645803655896
1.176601273859154
1.176550739539119
1.176495249027476
1.17643606157054
1.176374464339584
1.176311618651951
1.176248541302123
1.176186484096098
1.17612816958192
1.176079875552891
1.176050657500969
1.176041536310302
1.176040779930501
1.176040890227777
1.176041739924927
1.176043985106838
1.176048574241015
1.176056459410551
1.176068611259589
1.176085928514144
1.176109158938724
1.176138806454491
1.17617505055938
1.176217699974606
1.176266187201843
1.176319610233922
1.176376841325957
1.176436700670916
1.176498121541965
1.176560169577903
1.176621732169989
1.176680566165294
1.176731447036585
1.176765574508448
1.176778700746977
1.176780404090443
1.176780290725141
1.176779755401339
1.176777987638091
1.176774210967152
1.176767480566368
1.176756840074159
1.176741359409571
1.176720216012652
1.176692772606367
1.176658656640175
1.176617831755373
1.176570634754801
1.176517751240879
1.17646013106522
1.176398869269268
1.176335090071233
1.176269929897381
1.17620487636693
1.176142914293562
1.176090559332202
1.176057484395456
1.176046144060576
1.17604494791697
1.176045014943283
1.17604566983889
1.176047492986983
1.176051334321297
1.176058058916144
1.176068566856017
1.176083719423089
1.176104275051399
1.176130813216615
1.176163666048388
1.176202870234908
1.176248141290315
1.176298879603419
1.176354232784407
1.17641321636682
1.17647483468038
1.176538096025723
1.176601765965507
1.176663543960971
1.176718301408158
1.176757002783557
1.176773602427237
1.176776311368536
1.17677626865475
1.176775911267194
1.176774529326628
1.176771444162011
1.176765787153826
1.176756674124054
1.176743222790978
1.176724616514536
1.176700165455413
1.176669374230552
1.176632008358199
1.176588139100013
1.176538147421078
1.176482686722156
1.176422616292733
1.176358926362732
1.176292734532631
1.176225583131261
1.176160461468413
1.176103772563621
1.176065673125549
1.176050883872593
1.176048857437033
1.176048870479024
1.176049349355826
1.176050798164126
1.176053990846645
1.176059723463504
1.176068834951482
1.176082145698189
1.176100406368741
1.176124235805189
1.176154064220063
1.176190087504647
1.176232232592648
1.176280145030107
1.176333221816374
1.176390689730056
1.176451684007972
1.176515253498737
1.176580169003778
1.176644236753931
1.176702679219065
1.176746580302052
1.176767930357984
1.176772378811191
1.176772486612332
1.1767722655231
1.176771212749451
1.176768719669146
1.1767639830732
1.176756178404665
1.176744467291129
1.176728049454944
1.176706211610898
1.17667838398784
1.176644196846527
1.176603525018865
1.17655650926774
1.176503550281099
1.176445276449983
1.176382500803371
1.176316235301259
1.176247947703658
1.176180429308073
1.176119626351825
1.176075760157829
1.176056164902785
1.176052641208254
1.176052585692253
1.176052889419485
1.176054004436862
1.176056614638068
1.176061468031786
1.17606935582342
1.176081061729812
1.176097320353197
1.176118767465442
1.176145894121289
1.176179005405471
1.176218183066508
1.176263264447413
1.176313856734527
1.176369383128012
1.176429127761577
1.176492233503831
1.176557558902658
1.176623126513449
1.176684700566625
1.176733910978985
1.176761147824966
1.176768417995578
1.176768871548157
1.176768745811048
1.17676797224812
1.176765996081364
1.176762064386941
1.176755404544257
1.176745215849671
1.176730718070882
1.176711189755594
1.176686015251541
1.176654733582026
1.176617079687787
1.176573011696697
1.176522723010189
1.176466636675559
1.176405387696022
1.176339845011742
1.176271322956669
1.17620229290957
1.17613800887408
1.176088204198078
1.176062487146028
1.176056424286241
1.176056136361556
1.176056329653171
1.176057152813275
1.176059254026375
1.17606332865824
1.17607012941438
1.176080408959878
1.176094885623066
1.176114203938592
1.176138894925395
1.176169337356215
1.176205724135098
1.176248041516035
1.176296068226413
1.176349393853741
1.176407444953125
1.176469487698116
1.176534518926601
1.17660082191451
1.176664774467531
1.176718892027871
1.17675272343589
1.176764112546061
1.17676530618209
1.176765237430105
1.176764719334788
1.176763203866265
1.176759999936191
1.176754368605051
1.176745542191232
1.176732759336258
1.176715297956777
1.176692515878936
1.176663893372049
1.176629067544041
1.176587859297062
1.176540298286133
1.176486637067989
1.176427346674823
1.176363137340082
1.176295133408106
1.176225446221739
1.176158540491308
1.176103192379419
1.176070421558479
1.176060449581171
1.176059581278751
1.17605971216275
1.176060278939107
1.17606193375164
1.176065310656124
1.176071134424374
1.176080131146054
1.176093004627304
1.176110400150589
1.176132873964284
1.176160859618484
1.176194632897232
1.176234288771061
1.176279738642522
1.176330716916461
1.176386783805277
1.176447318919115
1.176511453095359
1.17657774379516
1.176643210618251
1.176701475552503
1.176742150623781
1.176759144935175
1.176761859288769
1.176761900288326
1.176761544171163
1.176760415151187
1.17675782805543
1.176753094806003
1.176745473250006
1.176734221649689
1.176718623316123
1.176698021393441
1.176671853216909
1.176639682301261
1.176601228671679
1.176556396594189
1.176505292601519
1.176448234648939
1.176385784322469
1.1763188847933
1.176249290169732
1.176180669772849
1.17612059039454
1.176080465686712
1.176065136583852
1.176063061599437
1.176063097847476
1.176063470030747
1.176064721173856
1.176067463585537
1.176072392298436
1.176080211714694
1.176091613406568
1.176107244477073
1.176127678971852
1.17615338719329
1.176184705920159
1.176221816878986
1.176264735791133
1.176313307553981
1.176367205253303
1.176425926714055
1.176488741055048
1.176554443417086
1.176620621075634
1.176682050540261
1.176729163408112
1.176752949669297
1.176758331520559
1.176758559813633
1.176758365562729
1.176757557299257
1.176755517708487
1.176751588187568
1.176745052673627
1.176735187675587
1.176721285366259
1.176702681507773
1.176678784701457
1.176649106746956
1.176613292405408
1.176571146251895
1.176522654836604
1.176468007028443
1.176407629384235
1.176342290152813
1.176273418179385
1.176203969402331
1.176140222002503
1.17609301357742
1.176070902734819
1.176066531304259
1.176066410894863
1.176066634577205
1.176067548957869
1.176069739017714
1.176073865437559
1.176080616616527
1.176090674038037
1.176104685125812
1.17612323667614
1.176146826638053
1.176175837641407
1.176210517151208
1.176250963854828
1.176297116834208
1.176348749204446
1.176405464059915
1.176466655584782
1.176531328086771
1.176597544407644
1.176661116810621
1.176713731434146
1.176744904370716
1.176754393762084
1.176755217594962
1.176755105785477
1.176754563288903
1.176752999398516
1.176749793970363
1.176744254591276
1.176735673225541
1.176723346888972
1.176706605544448
1.176684837057569
1.17665751334852
1.176624219989197
1.176584685564128
1.17653880441956
1.176486657076561
1.176428547025079
1.176365088125698
1.176297437692772
1.17622794234222
1.176161645709421
1.176108166318149
1.1760783400866
1.176070234990374
1.176069679511656
1.17606978997616
1.176070428922365
1.176072128990845
1.176075537194613
1.176081319390555
1.176090147491694
1.176102666702997
1.176119471369415
1.176141079803594
1.176167910946053
1.176200264664238
1.176238305230229
1.176282048214766
1.176331353067599
1.176385916784324
1.176445241751939
1.176508507148361
1.176574173830502
1.17663896504091
1.176696001903365
1.17673463340854
1.176749807049728
1.176751968476134
1.17675194824759
1.176751605644876
1.176750445315129
1.176747872883216
1.176743217551007
1.176735787047969
1.176724887588837
1.176709848616482
1.176690046032137
1.176664926426868
1.176634032705083
1.176597030278004
1.176553732798826
1.176504128372845
1.17644841338712
1.17638705912404
1.176320987503483
1.176252058396398
1.176184270398885
1.176125749533609
1.176088036771419
1.176074593922764
1.176072987339584
1.176073031692767
1.176073446775631
1.176074729547568
1.176077488880305
1.176082375971069
1.176090052799214
1.176101165334738
1.176116317626231
1.176136046951878
1.176160802344926
1.176190926666919
1.176226639054854
1.176268018667725
1.176314996061872
1.176367349093914
1.176424677779201
1.17648630719003
1.17655100387996
1.176616216067909
1.176676439876481
1.176721849526225
1.176743933772578
1.176748596262681
1.17674874932103
1.176748570692719
1.176747736515009
1.176745716424344
1.176741858375547
1.176735487069206
1.176725915977701
1.176712474073533
1.176694526665914
1.176671498328309
1.17664289730909
1.176608340521907
1.176567578439754
1.176520521485932
1.176467272736875
1.176408182552444
1.17634397856885
1.176276123247597
1.176207738567716
1.176145434507369
1.176100258756523
1.176080009206155
1.176076307285786
1.176076232615326
1.17607647279227
1.176077402026305
1.176079590641711
1.176083669799092
1.176090295155058
1.176100111651363
1.176113729484506
1.176131700847329
1.176154499130493
1.17618250019559
1.176215965480413
1.176255028255301
1.176299684108542
1.17634978224538
1.176405005158066
1.176464803594362
1.17652819619651
1.176593204419534
1.176655512148345
1.176706640184129
1.176736280834626
1.176744958362993
1.176745654449952
1.176745482223131
1.176744834756583
1.17674318096075
1.176739940347387
1.176734491175431
1.176726187885275
1.176714374768258
1.176698399846586
1.176677637148557
1.17665151434995
1.17661954073534
1.176581341919263
1.176536707781834
1.176485648525273
1.176428444988929
1.176365726369655
1.176298746754071
1.176230005421071
1.17616470964182
1.17611326697439
1.17608546707921
1.176078045855087
1.176077519336529
1.176078064572303
1.17607898704751
1.176080713217049
1.176083800905529
1.176088932132379
1.176096880035215
1.176108409168604
1.176124212014789
1.176144888845363
1.176170930888311
1.176202686074378
1.176240330412223
1.176283865379373
1.176333123763138
1.176387771962605
1.176447271879562
1.176510694197937
1.176576360721968
1.176640858254406
1.176696780867255
1.176733372464718
1.176748683850711
1.176751547739553
1.176751350503066
1.176750178758598
1.176748200645271
1.176745055571573
1.176740318087689
1.176733304945991
1.176723148729103
1.17670899097041
1.176690069961298
1.176665729824929
1.176635437770216
1.176598820986341
1.176555692370854
1.176506060032654
1.176450137958315
1.176388445195526
1.176322111379371
1.176253290514774
1.176186098620056
1.176128845388283
1.176092652270362
1.176078369424543
1.176075510598201
1.176075759253743
1.176076865956945
1.176079034126675
1.17608248812759
1.176087593314403
1.176094979658576
1.176105421821036
1.176119688535026
1.176138478876274
1.176162381135206
1.176191824509437
1.176227051194082
1.176268123730628
1.176314945429961
1.176367272972894
1.176424676281523
1.176486329393025
1.176550700261324
1.176615131989055
1.176674300584429
1.176718570964084
1.176740917691314
1.176747613543826
1.17674798673505
1.176747061091125
1.176745273452669
1.176742220248292
1.176737677251752
1.176731179071971
1.176722018764889
1.176709390716637
1.176692480366234
1.176670512893448
1.17664281873019
1.176608904804617
1.176568497044411
1.176521549733666
1.176468238996046
1.176409001048312
1.176344772476089
1.176277359194694
1.176209904045555
1.176148635109022
1.176104216398023
1.176083122802596
1.176077145051973
1.176076640243454
1.176077622855654
1.176079549740663
1.176082913355881
1.176087852414943
1.176094821422847
1.176104460799272
1.176117464587615
1.176134533583949
1.176156343040219
1.176183467054792
1.176216293951676
1.176254984707126
1.17629948224378
1.176349544567476
1.176404757670761
1.17646441957552
1.176527277929667
1.176591229769658
1.176652301762692
1.176702638317553
1.176732854105003
1.176744016240317
1.176745966923517
1.176745472160668
1.176743935146844
1.176741085529864
1.176736742369619
1.176730575858906
1.176722046694272
1.176710491226035
1.176695174280976
1.176675300977666
1.176650083519632
1.176618862818758
1.176581213037406
1.176536982162441
1.1764862925586
1.176429546331721
1.176367537621622
1.176301739874166
1.176234676145913
1.176171081705563
1.176119924418706
1.176090660353468
1.176080575772345
1.176078765370946
1.176079091959044
1.176080716448308
1.176083817142248
1.176088549377148
1.176095221739492
1.176104306199267
1.176116353278141
1.176131981116974
1.176151876888238
1.176176724113611
1.176207078750092
1.176243268849323
1.176285356049108
1.1763331421153
1.17638620263781
1.176443882102093
1.176505107940155
1.176568133916102
1.176629966858933
1.176684558204429
1.176722445164377
1.176739404754512
1.176743816096678
1.176744276268693
1.176743178401997
1.17674076794486
1.176736660876462
1.17673071014244
1.176722561694393
1.176711721718678
1.176697593193663
1.176679466483872
1.176656539792872
1.176628013819999
1.176593233713168
1.176551826455568
1.17650378717218
1.176449484166458
1.17638964944352
1.17632556966764
1.176259366779712
1.17619464232275
1.176138552263431
1.176101347856511
1.176085787281167
1.176082006233952
1.176081370791541
1.176082354628507
1.176084828242208
1.176089149859251
1.176095540705634
1.176104312798654
1.176115814745727
1.176130452875052
1.176148769001307
1.176171453655327
1.17619923759956
1.176232714798312
1.176272188109774
1.176317600244035
1.176368549676721
1.176424359351674
1.176484024452714
1.176546002133912
1.176607917338861
1.176665162359704
1.17670923993829
1.176733264437927
1.176741041293361
1.176742324894897
1.17674225634838
1.176740698582323
1.176737329180009
1.17673183488293
1.176723924580785
1.17671332241585
1.176699738196545
1.176682762216561
1.176661760481822
1.176635888540593
1.176604240692216
1.176566067328547
1.176520986009573
1.176469164039952
1.176411343687914
1.17634883259289
1.176283627984555
1.176218585571961
1.176159152554042
1.176115044853249
1.176092636532343
1.176085978684487
1.176084928163847
1.176085087632446
1.176086603286072
1.176089855733021
1.176095301564698
1.176103441835075
1.176114656334666
1.176129124832975
1.176146940632075
1.176168317082973
1.176193724194392
1.17622391367352
1.176259826658919
1.176302226154826
1.176351028475101
1.176404784943994
1.176462602122051
1.176522773744231
1.176595154175254
)
;

boundaryField
{
    inlet
    {
        type            calculated;
        value           uniform 1.176395950917642;
    }
    outlet
    {
        type            calculated;
        value           uniform 1.176627659823456;
    }
    frontAndBack
    {
        type            empty;
    }
}


// ************************************************************************* //
