/*--------------------------------*- C++ -*----------------------------------*\
| =========                 |                                                 |
| \\      /  F ield         | OpenFOAM: The Open Source CFD Toolbox           |
|  \\    /   O peration     | Version:  v2012                                 |
|   \\  /    A nd           | Website:  www.openfoam.com                      |
|    \\/     M anipulation  |                                                 |
\*---------------------------------------------------------------------------*/
FoamFile
{
    version     2.0;
    format      ascii;
    class       volScalarField;
    location    "0.009";
    object      T;
}
// * * * * * * * * * * * * * * * * * * * * * * * * * * * * * * * * * * * * * //

dimensions      [0 0 0 1 0 0 0];


internalField   nonuniform List<scalar> 
1000
(
299.9871861129997
299.9889424604395
299.9826186051422
299.9779830062215
299.9735849296854
299.9697947218897
299.9663527745764
299.9632593934354
299.96057582999
299.9588258757539
299.9584267000712
299.9585839760323
299.9590374259127
299.9599470477206
299.9616155852751
299.9641331091777
299.9674117606863
299.9713051901875
299.975692489277
299.9804914336978
299.9856360197877
299.9910541086044
299.9966582803346
300.0023459878823
300.0080036845013
300.0135151650591
300.0187774959418
300.0237253402166
300.0283498079876
300.0326644767763
300.0365395921169
300.0394204014417
300.0406525549024
300.0407917595985
300.0407382479276
300.0405053421226
300.0398728798678
300.0386365201687
300.0366221221915
300.0337497384972
300.0300542400101
300.0256653145508
300.0207546765184
300.0154831709133
300.0099758208839
300.0043277933763
299.9986235399338
299.992950507242
299.9873985566876
299.9820432969734
299.9769215513338
299.9720311827485
299.9674161816332
299.9633924076359
299.9607156132633
299.9598046739233
299.9597432235447
299.9597798164884
299.9599980823701
299.9605416672624
299.9615989078166
299.9633329769773
299.9658593339598
299.96921441517
299.9733453760865
299.9781226681297
299.9833730283012
299.9889195545637
299.9946111856926
300.0003316425872
300.005994185199
300.0115379673808
300.0169324034846
300.0221761534575
300.0272645880657
300.0320898355474
300.0362381255721
300.0389073587789
300.0397831496272
300.0398465397488
300.0397996094898
300.0396258935707
300.0391643123616
300.0382664856497
300.0367756212593
300.0345636829545
300.0315540052953
300.0277414719072
300.023197699631
300.0180588757332
300.012500533775
300.0067065494141
300.0008393346382
299.9950183856671
299.9893127159051
299.9837464767703
299.9783152459154
299.9730289245579
299.9680328776586
299.9638355153275
299.9612952795754
299.9605556139756
299.9605180941242
299.9605489291019
299.960724929187
299.9611525638546
299.9619809676051
299.9633503380193
299.965383862227
299.9681658782882
299.971725276105
299.976024486829
299.9809601883415
299.9863788937162
299.9921036672786
299.9979633653737
300.00381804855
300.00957778919
300.0152093122221
300.0207188203007
300.0260956416495
300.0311911327743
300.035515305973
300.0382258925374
300.0390931265579
300.0391593247616
300.0391234208772
300.0389898170444
300.0386288001578
300.0379187808882
300.0367244243517
300.0349217248516
300.0324125015143
300.0291419742277
300.0251116019219
300.0203844224224
300.0150809424113
300.0093635090425
300.0034090421144
299.9973766761485
299.991382192065
299.9854887928148
299.9797204365249
299.974114790737
299.9688580073257
299.9645076914961
299.9619266716772
299.9611840575293
299.9611421333381
299.9611653036285
299.9613041473817
299.9616490440827
299.9623249614962
299.9634540868029
299.9651521976645
299.9675134936669
299.9705971048971
299.9744141770499
299.9789203739639
299.9840179841175
299.9895680973822
299.9954104011582
300.0013884570839
300.0073767111205
300.0132985505467
300.0191187809424
300.0247928466108
300.0301473221515
300.0346783851942
300.0375419083443
300.0384947755475
300.0385796729815
300.0385536289522
300.0384536034589
300.0381688453494
300.0375954926983
300.036613734025
300.0351083449577
300.0329781812698
300.0301496033173
300.0265881425821
300.0223073728505
300.0173731128991
300.0118993531162
300.0060327380323
299.9999279593653
299.9937222925749
299.9875187344101
299.9813888453886
299.9754188517302
299.9698422908326
299.965256227623
299.9625344745635
299.9617283781943
299.9616732083374
299.9616906272681
299.9618013934212
299.9620826594187
299.9626428918656
299.9635906874574
299.9650336590087
299.967066694083
299.9697613612658
299.973154573454
299.9772399281615
299.9819648317193
299.9872342968033
299.9929212588977
299.9988842524252
300.0049909749712
300.0111382792593
300.0172519869652
300.0232467651498
300.0289168965518
300.0337411513545
300.0368573105098
300.0379597168165
300.038077193155
300.038058914428
300.0379833131736
300.0377559674179
300.0372866799475
300.0364687814914
300.035195987379
300.0333689535935
300.0309059551584
300.0277527335886
300.0238914360464
300.0193474043907
300.0141905173325
300.0085277114442
300.002487455823
299.9962010823323
299.9897870931084
299.9833492540818
299.9770153306859
299.9710632223135
299.966133754545
299.9631513444942
299.962220297961
299.9621430931419
299.9621543561526
299.9622410938209
299.9624702743109
299.9629387129252
299.9637435912397
299.9649839821371
299.9667516128969
299.9691227950233
299.9721489422956
299.9758483460435
299.9802014459567
299.9851502786951
299.9906027408368
299.9964436964677
300.0025527071658
300.0088208876363
300.0151528729954
300.0214351204231
300.0274387373168
300.0326306395131
300.0361129359654
300.0374522940465
300.0376260995924
300.0376145354907
300.037559917617
300.0373795446748
300.0369941884306
300.0363074411581
300.035221714487
300.0336420975846
300.0314846449201
300.0286843092946
300.0252030475666
300.0210371140128
300.0162208358606
300.0108241322165
300.0049438917817
299.9986918281925
299.9921826441998
299.9855323018463
299.9788926222935
299.9725682634978
299.9672243222273
299.9638482376014
299.9626906735339
299.9625685792541
299.9625754245365
299.9626422772681
299.9628283779268
299.9632204838496
299.9639068958417
299.9649794855656
299.9665261602635
299.9686243236541
299.9713331057028
299.9746863816657
299.9786878638259
299.9833084775215
299.9884869826608
299.9941363422151
300.0001560460445
300.0064444501842
300.0129003270511
300.0193976905418
300.0257017816688
300.0312892937439
300.0352383234032
300.0369321001365
300.0372085127679
300.0372041568873
300.0371676940884
300.0370266883349
300.036711890044
300.0361346673061
300.0352047980988
300.0338322506157
300.0319336861551
300.0294386979809
300.0262967137074
300.0224837753464
300.0180071166165
300.0129055702647
300.0072457695602
300.0011153622752
299.9946153666933
299.9878598112156
299.9810060876886
299.9743592993195
299.9685730318399
299.9646840978469
299.9631744884713
299.9629676413776
299.9629689751778
299.9630178597653
299.9631657487837
299.9634916425035
299.9640767974893
299.9650068446341
299.96636551842
299.9682294319909
299.9706617368987
299.9737063238714
299.9773831590856
299.9816847502165
299.9865748805443
299.9919919648593
299.9978570479255
300.0040818381498
300.0105692365181
300.0171937809438
300.0237315959419
300.0296951847238
300.0341748148795
300.0363533161144
300.0368072224685
300.0368182238304
300.0367956670717
300.0366882475603
300.0364338625994
300.0359505547693
300.0351541863369
300.033959207183
300.0322839503238
300.0300556197168
300.0272160563295
300.023727504587
300.0195771577017
300.0147793391707
300.0093748931346
300.0034279004108
299.9970212882751
299.9902582939185
299.983288686498
299.9763973442311
299.9701912105617
299.9657136751849
299.9637135001946
299.9633538202403
299.9633481550713
299.9633791598832
299.9634929765012
299.9637594125385
299.9642548200877
299.9650599585322
299.9662548203826
299.9679143810753
299.9701035229351
299.9728723503527
299.976251978636
299.9802507206017
299.9848519378473
299.9900154979881
299.9956824905563
300.0017798152069
300.0082199609459
300.0148864111766
300.0215773540789
300.0278605597675
300.0328819902437
300.0356611765488
300.0364030020731
300.0364492821128
300.0364364537108
300.0363575230751
300.0361558814814
300.0357547024225
300.0350751481224
300.0340355130905
300.0325561773925
300.0305635141084
300.0279946857905
300.0248026307306
300.0209602711206
300.0164632966011
300.0113313997277
300.0056077049615
299.9993569675667
299.9926678217388
299.9856743680504
299.9786288185451
299.9720674410683
299.9669837914977
299.9643587495455
299.963739884724
299.9637104956729
299.9637302268509
299.9638142514353
299.9640287319002
299.9644446467964
299.9651388262064
299.9661880939776
299.9676657659138
299.9696376209894
299.9721578456882
299.9752650800263
299.9789789857228
299.9832981260624
299.9881998784321
299.9936423137912
299.9995668645944
300.0058985989866
300.0125351059627
300.0193011694737
300.0258271557735
300.0313493630929
300.034801465172
300.0359635766417
300.0360853719935
300.0360783573504
300.0360254930811
300.0358708590985
300.0355439382642
300.0349693298985
300.034068698778
300.0327643521293
300.0309826006487
300.0286579033827
300.0257372066902
300.0221834533465
300.017978333318
300.0131248318548
300.0076486757404
300.0015978851056
299.9950448930399
299.9881044025548
299.9809918674173
299.9741629749893
299.968513551565
299.9651685239759
299.9641506386649
299.9640620072772
299.9640753675205
299.9641332211962
299.9643021349497
299.9646468290703
299.9652412826857
299.9661596077194
299.9674736388566
299.9692492332233
299.9715431549677
299.9743996382236
299.9778468073874
299.9818943251324
299.9865331125844
299.9917360220375
299.9974581261043
300.0036360670365
300.0101811038841
300.0169459929207
300.0236265786911
300.0295720498494
300.0337225005653
300.035456556493
300.0357335211087
300.0357377047515
300.0357013676268
300.035586165273
300.0353221839802
300.0348392130685
300.0340615227993
300.0329134235111
300.0313217779877
300.0292195494611
300.026549306245
300.0232664849262
300.0193424850784
300.0147674995279
300.0095523554386
300.0037294513859
299.9973560481806
299.9905283536559
299.9834253522126
299.9764215318856
299.970289249867
299.9661936178902
299.9646289113693
299.9644171082211
299.9644208081938
299.9644587984096
299.9645865074315
299.9648664356989
299.9653695269435
299.9661676799379
299.9673314816117
299.968926976437
299.9710127472484
299.9736367821189
299.9768334340845
299.9806212237645
299.9850017222013
299.9899590606008
299.9954598318963
300.0014527417989
300.0078631582649
300.0145680867626
300.0213212899127
300.0275897459775
300.0323971476307
300.0348242492304
300.0353733980321
300.0353966922795
300.0353768712012
300.0352943976111
300.035086281941
300.0346853211507
300.0340184481075
300.0330118358506
300.0315932527613
300.0296949107872
300.0272564488145
300.0242280294464
300.0205733754447
300.0162725098946
300.0113240186116
300.0057471282054
299.9995853188369
299.9929169433689
299.9858877827873
299.9787994999208
299.9722928988737
299.9674742574368
299.9652173209863
299.9647711096248
299.9647588186668
299.9647816504557
299.9648749844056
299.9650985315213
299.9655197292129
299.9662088432052
299.9672354314424
299.9686655724045
299.9705591521993
299.9729669831143
299.975928100881
299.9794677387812
299.9835959385849
299.9883064464985
299.9935760657822
299.9993642456501
300.0056091157681
300.0122090230803
300.0189662518799
300.0254534552698
300.030822310569
300.0340031547058
300.034971427776
300.035055489215
300.0350440800516
300.0349887243905
300.0348291477731
300.0345020714591
300.0339368417862
300.0330612095153
300.031803438338
300.030095150133
300.0278738701804
300.0250856945349
300.021688309292
300.0176539863568
300.0129719053536
300.0076502381759
300.0017199064578
299.9952435055372
299.9883390995246
299.9812461510194
299.9744794350227
299.9690207616148
299.9659763061028
299.9651489848169
299.9650922844378
299.9651035595476
299.9651687785658
299.9653423101048
299.9656901965104
299.9662804028398
299.9671815108148
299.9684593735067
299.9701746490695
299.9723802303576
299.9751188617835
299.9784211279821
299.9823037674689
299.9867683356808
299.9918004491515
299.9973691413355
300.0034235839958
300.0098799673211
300.0165811861846
300.0231928406404
300.0290130094471
300.0329549475921
300.0345032328486
300.0347237790459
300.0347217145197
300.0346867553731
300.0345683569761
300.0343058700339
300.0338308466161
300.0330726466569
300.0319604734238
300.0304258971514
300.028405224244
300.0258419686653
300.0226894655941
300.0189135436902
300.0144951512866
300.0094330319865
300.0037471790225
299.9974856368978
299.9907424429403
299.9837073736045
299.9767885230114
299.9708153293756
299.9669659017443
299.965593738583
299.9654297477385
299.9654342745275
299.9654766428186
299.9656075791694
299.9658892327404
299.9663880724398
299.9671716665677
299.9683059471972
299.9698525642956
299.9718663483516
299.9743931175657
299.9774678474587
299.9811128791001
299.9853362605803
299.990130867838
299.9954739883119
300.0013247575786
300.0076142533237
300.0142165622476
300.0208712549743
300.0270166967313
300.0316503159127
300.0339037561532
300.0343795053926
300.0343951226696
300.034376895119
300.034291776436
300.0340856491414
300.0336919789105
300.0330418577748
300.0320652303339
300.0306936200409
300.0288622542182
300.026512402393
300.0235938661039
300.0200675282071
300.0159078929294
300.0111057794855
300.005671660894
299.9996412419774
299.9930887307307
299.9861633382319
299.9791836731669
299.9728244051067
299.9682132555512
299.9661463163783
299.9657684465253
299.9657608241351
299.965785339141
299.9658801884498
299.9661035867546
299.9665199578594
299.9671962250791
299.9681982162876
299.9695882101323
299.9714225610438
299.973749575396
299.9766075993422
299.9800232940468
299.9840102330706
299.9885679320323
299.9936809619995
299.9993168767986
300.0054195793214
300.0118888792241
300.0185228365749
300.0248810027414
300.0300981812362
300.0331226846995
300.0340081213325
300.0340791481348
300.0340615738424
300.0339955067048
300.0338267552963
300.033496086925
300.032940058887
300.0320927967646
300.0308873882991
300.0292572986194
300.0271386419694
300.0244730009691
300.0212102787081
300.0173122410768
300.0127574083614
300.0075467768198
300.0017089561946
299.9953081062927
299.9884721670866
299.9814561824812
299.9747916293707
299.9695408540314
299.9667032421904
299.965945729997
299.9658919859021
299.9659476392959
299.9660417986084
299.9662179935082
299.9665331624094
299.967056920069
299.9678681806727
299.969044980004
299.9706579938111
299.9727684811226
299.9754265650742
299.9786677360036
299.9825099298001
299.9869532625164
299.9919806283439
299.9975579371817
300.0036302283524
300.0101026193459
300.0168038151768
300.0233854942514
300.0290919568413
300.0328257430842
300.034388087103
300.0346803114792
300.0346601854193
300.0345406222395
300.0343387787329
300.0340178603019
300.0335344537642
300.03281883984
300.0317825050242
300.0303378460957
300.0284071286044
300.0259234113631
300.0228323057199
300.0190957396014
300.0146945832063
300.0096296201862
300.0039226385347
299.9976265559926
299.9908566076892
299.9838325910018
299.9769745881936
299.9711307874937
299.9674364801899
299.9659785806891
299.9656867693283
299.9657121496697
299.9658251134814
299.9660464250507
299.9663989854856
299.9669200863074
299.9676740284534
299.9687398800646
299.9701961014521
299.972114038882
299.9745537254245
299.97755894929
299.9811544049137
299.9853464437169
299.9901251600444
299.9954656792762
300.0013240649259
300.00761598022
300.0141850404406
300.0207600929832
300.0267978622683
300.0313152354701
300.033595463927
300.0342786944373
300.0343167730018
300.0342223208621
300.0340399125468
300.0337283684856
300.0332648075502
300.0326017399425
300.0316670270013
300.0303784596526
300.0286529123645
300.0264113096982
300.0235853094633
300.0201245713839
300.0160010941451
300.0112101714217
300.0057697293107
299.9997242336341
299.9931692167338
299.9862889445072
299.9794041596055
299.9731505543917
299.9686166853756
299.9664635971976
299.9658534257716
299.9658018969113
299.9659021940422
299.9660988763179
299.9664422108711
299.9669463550978
299.9676576994144
299.9686416099632
299.9699689242532
299.9717111658551
299.9739372465586
299.9767057475393
299.9800562813205
299.9840052487087
299.9885467889145
299.9936561640549
299.9992910789193
300.005379850068
300.0117946330836
300.0183207952928
300.024552870952
300.0296892956275
300.0327724923171
300.0339114554127
300.0341104982066
300.0340600120754
300.033903176094
300.0336124050961
300.0331692351463
300.0325400110121
300.0316696999866
300.0304905795875
300.028927626423
300.0268997203978
300.0243264584255
300.02114056323
300.0172985502828
300.0127848689565
300.0076119614007
300.0018208136137
299.9954924204659
299.9887771126185
299.9819323654945
299.9754414832686
299.9702198574271
299.9672328038155
299.9662034353608
299.9660186403443
299.9660519747871
299.9662177897871
299.9665342865834
299.9670173196289
299.9676983849229
299.9686256546349
299.9698553173119
299.9714504610452
299.9734812164556
299.9760173364017
299.9791155467018
299.9828093040034
299.9871048663189
299.9919819632145
299.9973972384053
300.0032837505552
300.0095320011822
300.0159637560364
300.0222735585525
300.0278442117998
300.031710202133
300.0334407336656
300.0338908576504
300.033937811477
300.0338257855599
300.0335798251002
300.0331607453149
300.0325535389405
300.0317220764838
300.030615965813
300.0291742814735
300.0273246037868
300.0249851041545
300.0220742017245
300.0185250466574
300.0142995391785
300.0093971387979
300.0038553826685
299.9977489242757
299.9912090292057
299.9844522272826
299.9778460926289
299.9721210457901
299.9683235347928
299.9667352193912
299.9663492740366
299.9662844110351
299.9663848327687
299.9666373205965
299.9670784399777
299.9677307698896
299.968626155664
299.9698001763262
299.9712943007633
299.9731638245507
299.9754792188446
299.9783150553673
299.9817319354809
299.9857607401265
299.9903955850849
299.9955954493888
300.0012911923283
300.0073802282973
300.0137050753189
300.020023345189
300.0258648522174
300.0303625755663
300.0328140137004
300.0336075495578
300.0337385248185
300.0337315289958
300.0335725754113
300.0332287668224
300.0326681376302
300.0318609805144
300.0307791425664
300.0293930053062
300.0276607515191
300.0255176741702
300.0228775876711
300.0196480526345
300.0157525521589
300.0111520302925
300.0058635286653
299.9999627717407
299.9935831889358
299.9869285631701
299.980290241764
299.9742240852598
299.9697218009853
299.9674340841146
299.9667538423385
299.9666461424929
299.9666620267188
299.9668165369777
299.9671487535126
299.9677044726474
299.9685348351324
299.9696813515537
299.9711669968963
299.9730013696386
299.9751934861408
299.9777685346843
299.9807931587032
299.9843939559478
299.988724819908
299.993875047374
299.9997424178161
300.0059761808415
300.0116863750748
300.0174099843945
)
;

boundaryField
{
    inlet
    {
        type            fixedValue;
        value           uniform 300;
    }
    outlet
    {
        type            temperatureOutletNSCBC;
        pInf            101325;
        gamma           1.4;
        etaAc           1;
        fieldInf        1;
        lInf            2.25;
        value           uniform 300.020045720482;
    }
    frontAndBack
    {
        type            empty;
    }
}


// ************************************************************************* //
