/*--------------------------------*- C++ -*----------------------------------*\
| =========                 |                                                 |
| \\      /  F ield         | OpenFOAM: The Open Source CFD Toolbox           |
|  \\    /   O peration     | Version:  v2012                                 |
|   \\  /    A nd           | Website:  www.openfoam.com                      |
|    \\/     M anipulation  |                                                 |
\*---------------------------------------------------------------------------*/
FoamFile
{
    version     2.0;
    format      ascii;
    class       volVectorField;
    location    "0.009";
    object      U;
}
// * * * * * * * * * * * * * * * * * * * * * * * * * * * * * * * * * * * * * //

dimensions      [0 1 -1 0 0 0 0];


internalField   nonuniform List<vector> 
1000
(
(-0.002772377070921423 0 0)
(-0.03442858630160439 0 0)
(-0.04261874328379864 0 0)
(-0.05780079939267267 0 0)
(-0.07168858050519306 0 0)
(-0.08460042395439944 0 0)
(-0.09561645103568688 0 0)
(-0.1050375073539077 0 0)
(-0.113146171830379 0 0)
(-0.1186525639225758 0 0)
(-0.1201586081871916 0 0)
(-0.1200203783233432 0 0)
(-0.1191803070362079 0 0)
(-0.1166560552027406 0 0)
(-0.1118077760958085 0 0)
(-0.104450785512162 0 0)
(-0.09486151804452811 0 0)
(-0.08346715365956035 0 0)
(-0.07062873459811458 0 0)
(-0.05659864737703488 0 0)
(-0.04158036555824894 0 0)
(-0.02579386568855978 0 0)
(-0.009504070391868217 0 0)
(0.006986608931606549 0 0)
(0.02335801231293924 0 0)
(0.03928714932429047 0 0)
(0.05447743006342228 0 0)
(0.06873500788465312 0 0)
(0.08204751962149104 0 0)
(0.09448308602798858 0 0)
(0.1056711644652784 0 0)
(0.1139773585207191 0 0)
(0.1175049952428028 0 0)
(0.117892690789773 0 0)
(0.1177846325447825 0 0)
(0.1171000158844707 0 0)
(0.1152997608942223 0 0)
(0.1117393501327157 0 0)
(0.1059258520416956 0 0)
(0.09762767429234277 0 0)
(0.0869461273363432 0 0)
(0.07425365447257334 0 0)
(0.06004587196692469 0 0)
(0.04479252746619349 0 0)
(0.02885993318570445 0 0)
(0.0125201844776056 0 0)
(-0.003987991243385621 0 0)
(-0.020406159315928 0 0)
(-0.03646290027027791 0 0)
(-0.05194395052548897 0 0)
(-0.06676187033761403 0 0)
(-0.08092256671618223 0 0)
(-0.09427005279699066 0 0)
(-0.1058835458897036 0 0)
(-0.1136175574570897 0 0)
(-0.1162811448393471 0 0)
(-0.116477962787814 0 0)
(-0.1163208325058388 0 0)
(-0.1157210423409322 0 0)
(-0.1141401091780133 0 0)
(-0.1110837724056348 0 0)
(-0.1060688877224949 0 0)
(-0.09876159510582527 0 0)
(-0.08905501842607699 0 0)
(-0.07710484208773608 0 0)
(-0.06328787462316321 0 0)
(-0.04810179895858707 0 0)
(-0.03205479877060342 0 0)
(-0.01558841797584642 0 0)
(0.0009544117238310128 0 0)
(0.01732792755634164 0 0)
(0.03336759926495195 0 0)
(0.04898037581825639 0 0)
(0.06414341878489756 0 0)
(0.07884493544056226 0 0)
(0.09280246032943933 0 0)
(0.104824614406184 0 0)
(0.1125512186412662 0 0)
(0.1150560575032833 0 0)
(0.1152212695175836 0 0)
(0.115135455791553 0 0)
(0.1146023843137018 0 0)
(0.1132765931356235 0 0)
(0.1106785208159388 0 0)
(0.1063657152807626 0 0)
(0.0999674581268935 0 0)
(0.09126379229109878 0 0)
(0.08023738619347855 0 0)
(0.06709300545257522 0 0)
(0.0522277144327055 0 0)
(0.03615318424228356 0 0)
(0.01939737644914042 0 0)
(0.002423164839275241 0 0)
(-0.01441983577836542 0 0)
(-0.03092042031915213 0 0)
(-0.04701139824515473 0 0)
(-0.06272423267404709 0 0)
(-0.07803156644891544 0 0)
(-0.09248478706460973 0 0)
(-0.1046044664410421 0 0)
(-0.1119428143330147 0 0)
(-0.114106848896399 0 0)
(-0.114238317381649 0 0)
(-0.1141011514492482 0 0)
(-0.1136191965114264 0 0)
(-0.1123742405894061 0 0)
(-0.1099790301011469 0 0)
(-0.1060184720354568 0 0)
(-0.1001364713913382 0 0)
(-0.09208774879051289 0 0)
(-0.08179104089070535 0 0)
(-0.06935671450331443 0 0)
(-0.05508065187238575 0 0)
(-0.0394039985517108 0 0)
(-0.02284251197046252 0 0)
(-0.005896368942992263 0 0)
(0.01103424462506232 0 0)
(0.0276981407034075 0 0)
(0.04399458965233762 0 0)
(0.05992653480603197 0 0)
(0.07546578960186053 0 0)
(0.0902060779724843 0 0)
(0.1027319753471885 0 0)
(0.1105749737335297 0 0)
(0.1130617863490671 0 0)
(0.113239237928593 0 0)
(0.1131755003613764 0 0)
(0.112763822961049 0 0)
(0.1117273414627618 0 0)
(0.1096726049995503 0 0)
(0.1062176630327939 0 0)
(0.1010032204758875 0 0)
(0.09374667519001559 0 0)
(0.08428769996552758 0 0)
(0.07262881687830643 0 0)
(0.05895479026813085 0 0)
(0.04361691583106102 0 0)
(0.02708154435699225 0 0)
(0.009855584285123556 0 0)
(-0.007597021540050475 0 0)
(-0.02493318980126099 0 0)
(-0.04197342308613579 0 0)
(-0.05866195466988859 0 0)
(-0.07488851534183759 0 0)
(-0.09009372659801496 0 0)
(-0.102661194059203 0 0)
(-0.1101225303693333 0 0)
(-0.1122901936109974 0 0)
(-0.1124247293672099 0 0)
(-0.1123230844738546 0 0)
(-0.1119423315298549 0 0)
(-0.1109383171382818 0 0)
(-0.1089840780935721 0 0)
(-0.1057184033220255 0 0)
(-0.1008064555955515 0 0)
(-0.09397490274914072 0 0)
(-0.08505477468973595 0 0)
(-0.07401488843905743 0 0)
(-0.06098068947184695 0 0)
(-0.04623295401720325 0 0)
(-0.03017742622297658 0 0)
(-0.01328149028512645 0 0)
(0.004007326226036462 0 0)
(0.02133259711145244 0 0)
(0.03846696118202878 0 0)
(0.05529664385978704 0 0)
(0.07169823510129414 0 0)
(0.08718997475113811 0 0)
(0.1003114503450135 0 0)
(0.1085927742559377 0 0)
(0.1113298578380017 0 0)
(0.1115664674676017 0 0)
(0.1115263185145165 0 0)
(0.1112129173809257 0 0)
(0.1103969743935578 0 0)
(0.1087373941420246 0 0)
(0.1058974816002607 0 0)
(0.1015430541058643 0 0)
(0.09538271406344646 0 0)
(0.08720186311041778 0 0)
(0.07689951167993352 0 0)
(0.06451702243319875 0 0)
(0.05024684433272701 0 0)
(0.03441579296562254 0 0)
(0.01744432261858576 0 0)
(-0.0002166664605841331 0 0)
(-0.0181637867977782 0 0)
(-0.0361027705990242 0 0)
(-0.05383724820165502 0 0)
(-0.07111513828591207 0 0)
(-0.08724415847976286 0 0)
(-0.1004968812263266 0 0)
(-0.1083682432320544 0 0)
(-0.1107153859937455 0 0)
(-0.1108846494148142 0 0)
(-0.1108058459070906 0 0)
(-0.1105034658443603 0 0)
(-0.1096841859013407 0 0)
(-0.1080645787966014 0 0)
(-0.1053233167815836 0 0)
(-0.1011493115828506 0 0)
(-0.09526751740350678 0 0)
(-0.08747264966524519 0 0)
(-0.07765853711375555 0 0)
(-0.06584131271973755 0 0)
(-0.0521720161908387 0 0)
(-0.03692888003341807 0 0)
(-0.02048178419185742 0 0)
(-0.003235289043977495 0 0)
(0.01443240990971068 0 0)
(0.03221700397023534 0 0)
(0.04989550029315538 0 0)
(0.06722790867188168 0 0)
(0.08363385443392198 0 0)
(0.09759908160562528 0 0)
(0.1066083256778134 0 0)
(0.1097826058331175 0 0)
(0.1101173940738065 0 0)
(0.1100930021905445 0 0)
(0.1098529726987001 0 0)
(0.1092026669889574 0 0)
(0.1078440057000169 0 0)
(0.1054780764446756 0 0)
(0.1017965200650615 0 0)
(0.09651286982120208 0 0)
(0.08938920582294314 0 0)
(0.08026773482139156 0 0)
(0.06909889693817955 0 0)
(0.05595740091875367 0 0)
(0.04104236870574868 0 0)
(0.02466042305044163 0 0)
(0.007187055327249104 0 0)
(-0.01099307223378393 0 0)
(-0.02954203495559088 0 0)
(-0.04816819989481023 0 0)
(-0.06649686180574792 0 0)
(-0.0837100498796204 0 0)
(-0.09795811830729979 0 0)
(-0.1065871906156642 0 0)
(-0.1092938297364846 0 0)
(-0.1095225246249634 0 0)
(-0.1094651395544417 0 0)
(-0.1092317636493422 0 0)
(-0.1085629933659453 0 0)
(-0.1072091015295442 0 0)
(-0.1048811399310566 0 0)
(-0.1012930146829689 0 0)
(-0.09617910208891384 0 0)
(-0.08932016968710016 0 0)
(-0.08056763028575853 0 0)
(-0.06986645968476778 0 0)
(-0.05727288000779092 0 0)
(-0.04295775163992136 0 0)
(-0.02718863630644414 0 0)
(-0.01029405935766357 0 0)
(0.007380202573648724 0 0)
(0.0255128623229523 0 0)
(0.04382249571534984 0 0)
(0.06198894631581594 0 0)
(0.07936074542875129 0 0)
(0.09438608138544965 0 0)
(0.1044519521905812 0 0)
(0.108314802321092 0 0)
(0.1088150885045823 0 0)
(0.1088072267984592 0 0)
(0.1086279335773464 0 0)
(0.1081139363673954 0 0)
(0.106997762268347 0 0)
(0.1050113342061299 0 0)
(0.1018709439588829 0 0)
(0.09730271654557024 0 0)
(0.09106263433655666 0 0)
(0.08296214167377901 0 0)
(0.07289283210496157 0 0)
(0.06084457496922718 0 0)
(0.04691424113980187 0 0)
(0.03130257167995013 0 0)
(0.01429308600312382 0 0)
(-0.003788289917699016 0 0)
(-0.02261420426528353 0 0)
(-0.04185457234136538 0 0)
(-0.06106487091001835 0 0)
(-0.07935452590936444 0 0)
(-0.0948053968453401 0 0)
(-0.1045746966972759 0 0)
(-0.1079322881557832 0 0)
(-0.108288206647885 0 0)
(-0.1082496031020819 0 0)
(-0.1080707912941063 0 0)
(-0.1075272717512478 0 0)
(-0.1063941987378162 0 0)
(-0.1044088448094108 0 0)
(-0.1013059972253351 0 0)
(-0.09683137826011552 0 0)
(-0.0907623829701919 0 0)
(-0.08292766505935079 0 0)
(-0.07322739119881135 0 0)
(-0.06165115349488974 0 0)
(-0.04828593668252246 0 0)
(-0.03330889879625676 0 0)
(-0.01696752594936401 0 0)
(0.000448221232055975 0 0)
(0.01863789497274446 0 0)
(0.0373059562808058 0 0)
(0.05609716861034202 0 0)
(0.07433880313080052 0 0)
(0.09050504914704526 0 0)
(0.1019194294793503 0 0)
(0.1068101337474018 0 0)
(0.1076091581063938 0 0)
(0.1076207670791957 0 0)
(0.1074926227465345 0 0)
(0.1070935915620887 0 0)
(0.1061810408025028 0 0)
(0.1045115857803711 0 0)
(0.1018220755734432 0 0)
(0.09785260094732226 0 0)
(0.09236117352038395 0 0)
(0.08514411246826506 0 0)
(0.07605638652756334 0 0)
(0.06502882007410303 0 0)
(0.05208041316535972 0 0)
(0.03732295676790838 0 0)
(0.02095191786181917 0 0)
(0.003222028073276931 0 0)
(-0.01557853554510948 0 0)
(-0.03512277759995515 0 0)
(-0.05495001623985557 0 0)
(-0.0741722030786964 0 0)
(-0.090905548165858 0 0)
(-0.1021591941351969 0 0)
(-0.106532095033859 0 0)
(-0.1071315237515852 0 0)
(-0.1071123739361065 0 0)
(-0.1069842215106976 0 0)
(-0.1065513588039223 0 0)
(-0.1056099228589872 0 0)
(-0.1039173537788887 0 0)
(-0.1012267627881339 0 0)
(-0.09729613927691083 0 0)
(-0.09190486681026076 0 0)
(-0.08486963780815215 0 0)
(-0.07606207458141939 0 0)
(-0.06542528615988942 0 0)
(-0.05298323276960756 0 0)
(-0.03883975917899844 0 0)
(-0.02316947520799245 0 0)
(-0.006201606474359936 0 0)
(0.01180281266419143 0 0)
(0.03056291022591537 0 0)
(0.04972435378332247 0 0)
(0.0686414931864832 0 0)
(0.0858922800140606 0 0)
(0.09884019919440477 0 0)
(0.1051354341651415 0 0)
(0.1064562938586968 0 0)
(0.1065011305732239 0 0)
(0.106415917445644 0 0)
(0.1061150626533802 0 0)
(0.1053767422967829 0 0)
(0.1039792103115871 0 0)
(0.1016758272723409 0 0)
(0.09821967918383243 0 0)
(0.09337412459104981 0 0)
(0.08692875264006178 0 0)
(0.07871580919160651 0 0)
(0.06862588608738507 0 0)
(0.05662116989492885 0 0)
(0.0427432297655319 0 0)
(0.02711129805661272 0 0)
(0.009910597786501182 0 0)
(-0.008620789815025388 0 0)
(-0.02818451475663366 0 0)
(-0.04834479622404641 0 0)
(-0.06827672848324047 0 0)
(-0.08622818100141059 0 0)
(-0.09918242310486106 0 0)
(-0.1049708614309639 0 0)
(-0.1060087912662331 0 0)
(-0.1060211543792205 0 0)
(-0.105937195730885 0 0)
(-0.1056051219122063 0 0)
(-0.1048352738049282 0 0)
(-0.1034022625175745 0 0)
(-0.1010729485224428 0 0)
(-0.09761637293071619 0 0)
(-0.09281627394891387 0 0)
(-0.08648413552661549 0 0)
(-0.07847414199838647 0 0)
(-0.06869749884232222 0 0)
(-0.05713166367351749 0 0)
(-0.04382319185669618 0 0)
(-0.02888572751915225 0 0)
(-0.01249174342304317 0 0)
(0.005143093874697327 0 0)
(0.02376787163138709 0 0)
(0.04305242227372039 0 0)
(0.06241112179641719 0 0)
(0.08058317634063668 0 0)
(0.09509874498859158 0 0)
(0.1031362033713187 0 0)
(0.1052913238488173 0 0)
(0.1054310974976221 0 0)
(0.1053764919217037 0 0)
(0.1051591291839354 0 0)
(0.1045726957273454 0 0)
(0.1034128596881425 0 0)
(0.1014473724413653 0 0)
(0.09844053184328498 0 0)
(0.09416157234296894 0 0)
(0.088397861469607 0 0)
(0.08096811985882633 0 0)
(0.07173576641917538 0 0)
(0.06062170465409203 0 0)
(0.04761400919229136 0 0)
(0.03277077786204396 0 0)
(0.01621599960089496 0 0)
(-0.001864950061432414 0 0)
(-0.02121501824555374 0 0)
(-0.04144340544566617 0 0)
(-0.0618210884317433 0 0)
(-0.08080114912653154 0 0)
(-0.09550972677131145 0 0)
(-0.1031038127473793 0 0)
(-0.1048903885111158 0 0)
(-0.1049729063964276 0 0)
(-0.1049223241759172 0 0)
(-0.1046753981130672 0 0)
(-0.1040561163695154 0 0)
(-0.1028527908341179 0 0)
(-0.1008447070895325 0 0)
(-0.09780950394078622 0 0)
(-0.09353517598188046 0 0)
(-0.08783123435726632 0 0)
(-0.08054090985931728 0 0)
(-0.07155276678920698 0 0)
(-0.06081004751871742 0 0)
(-0.04831647448468906 0 0)
(-0.03413732377735676 0 0)
(-0.01839459729934979 0 0)
(-0.001258170826640058 0 0)
(0.01705612709512966 0 0)
(0.03625288108865703 0 0)
(0.05582398820742881 0 0)
(0.07469876455531461 0 0)
(0.09066988999433373 0 0)
(0.1006555925416953 0 0)
(0.1040183840100754 0 0)
(0.1043708754460541 0 0)
(0.1043470914064141 0 0)
(0.1041972727004107 0 0)
(0.1037487994148652 0 0)
(0.1028033119840096 0 0)
(0.1011416273571835 0 0)
(0.0985368281580678 0 0)
(0.09476371060861595 0 0)
(0.08961003706924402 0 0)
(0.08288687172860719 0 0)
(0.07443944162273337 0 0)
(0.06415946574157272 0 0)
(0.05199581284870552 0 0)
(0.03795894286664244 0 0)
(0.02212065343374453 0 0)
(0.004616511451034234 0 0)
(-0.01434067774336976 0 0)
(-0.034413503576606 0 0)
(-0.05498268901976248 0 0)
(-0.07473938700588073 0 0)
(-0.09108849029509415 0 0)
(-0.1007627413553968 0 0)
(-0.1036985141154103 0 0)
(-0.1039514496160426 0 0)
(-0.1039296380541193 0 0)
(-0.1037501784244266 0 0)
(-0.1032656414471606 0 0)
(-0.1022676810076679 0 0)
(-0.1005479269555132 0 0)
(-0.09789161668491995 0 0)
(-0.09409099795007837 0 0)
(-0.08895456986534629 0 0)
(-0.08231831777539428 0 0)
(-0.07405577129413238 0 0)
(-0.06408546907456969 0 0)
(-0.05237725481358108 0 0)
(-0.03895732843268938 0 0)
(-0.02390765864951108 0 0)
(-0.007358972831873137 0 0)
(0.01051050818270261 0 0)
(0.02944619610125006 0 0)
(0.04901481363387417 0 0)
(0.06833186949291269 0 0)
(0.08552476337907902 0 0)
(0.09753537929066416 0 0)
(0.1025575794645984 0 0)
(0.1033582158291716 0 0)
(0.1033520330523554 0 0)
(0.1032645409215164 0 0)
(0.1029244534819682 0 0)
(0.102162523857871 0 0)
(0.1007654694076484 0 0)
(0.09851613879975731 0 0)
(0.09519520339559961 0 0)
(0.09059162630632919 0 0)
(0.08451152577461947 0 0)
(0.07678811400538355 0 0)
(0.06729239317259092 0 0)
(0.05594258423217763 0 0)
(0.0427105028592687 0 0)
(0.02762598149477686 0 0)
(0.01078215165488861 0 0)
(-0.007653315571125707 0 0)
(-0.02740102777839745 0 0)
(-0.0479462494868057 0 0)
(-0.06820799873685172 0 0)
(-0.08594823323184654 0 0)
(-0.09779324065432503 0 0)
(-0.1023169508341959 0 0)
(-0.1029294139712225 0 0)
(-0.1029256061950873 0 0)
(-0.1028094401296122 0 0)
(-0.1024424777106377 0 0)
(-0.101632098571368 0 0)
(-0.1001767930893877 0 0)
(-0.09786810339029846 0 0)
(-0.09450174628927394 0 0)
(-0.08988629413294597 0 0)
(-0.08385262327734505 0 0)
(-0.07626248198868618 0 0)
(-0.06701607402818709 0 0)
(-0.05605900380080388 0 0)
(-0.04338733709821418 0 0)
(-0.02904836081556759 0 0)
(-0.01313807009520558 0 0)
(0.004197259562408405 0 0)
(0.02274104914187346 0 0)
(0.04213417031921109 0 0)
(0.06166474417859326 0 0)
(0.07979587883663614 0 0)
(0.09370430662725848 0 0)
(0.1007254128148659 0 0)
(0.1023095049189169 0 0)
(0.1023743333687794 0 0)
(0.1023238923285254 0 0)
(0.1020813310686223 0 0)
(0.1014805037911329 0 0)
(0.1003205730179719 0 0)
(0.09839177182733386 0 0)
(0.09548027770381304 0 0)
(0.09137722918109074 0 0)
(0.08588653514885748 0 0)
(0.07883356806922433 0 0)
(0.07007417010702539 0 0)
(0.05950342897707087 0 0)
(0.04706351714460257 0 0)
(0.03275023660572094 0 0)
(0.0166191614793843 0 0)
(-0.001203889075871021 0 0)
(-0.0204923240701603 0 0)
(-0.04082466986531093 0 0)
(-0.06132841017320421 0 0)
(-0.08014970049650581 0 0)
(-0.09408825829686047 0 0)
(-0.1006167229758136 0 0)
(-0.1019076077413288 0 0)
(-0.1019434059075342 0 0)
(-0.1018769672404712 0 0)
(-0.1016072620870581 0 0)
(-0.1009604444563499 0 0)
(-0.09974202339579398 0 0)
(-0.09774878071975805 0 0)
(-0.09477922784389621 0 0)
(-0.09064205820590231 0 0)
(-0.08516448261239132 0 0)
(-0.07819980609201455 0 0)
(-0.0696344904718238 0 0)
(-0.0593950698027331 0 0)
(-0.04745345587984074 0 0)
(-0.03382870431829237 0 0)
(-0.01858665946014079 0 0)
(-0.001842944078643563 0 0)
(0.01622175703680763 0 0)
(0.03531030960856545 0 0)
(0.05485271387841282 0 0)
(0.07361801680456941 0 0)
(0.08915092278912538 0 0)
(0.09835032945652539 0 0)
(0.1011459451748214 0 0)
(0.1013869157118209 0 0)
(0.1013635973377072 0 0)
(0.1011966750072306 0 0)
(0.1007372845470318 0 0)
(0.09979093335316935 0 0)
(0.09815601747681342 0 0)
(0.09562326716586105 0 0)
(0.09198555185748464 0 0)
(0.08704469452240085 0 0)
(0.08061959975820963 0 0)
(0.07255488650302552 0 0)
(0.06272873813865662 0 0)
(0.05106015597326075 0 0)
(0.03751684286010928 0 0)
(0.02212342985875402 0 0)
(0.004970884199077911 0 0)
(-0.01376111989816916 0 0)
(-0.03373368735630221 0 0)
(-0.05425265192275767 0 0)
(-0.07382501470845759 0 0)
(-0.08961208774462183 0 0)
(-0.09841939090261066 0 0)
(-0.1008160390652572 0 0)
(-0.100981119458158 0 0)
(-0.1009424599860199 0 0)
(-0.100758092844689 0 0)
(-0.1002547247666652 0 0)
(-0.09924867957936585 0 0)
(-0.09754143113036423 0 0)
(-0.09493479627067104 0 0)
(-0.09123823697706347 0 0)
(-0.08627654016850654 0 0)
(-0.07989670417181738 0 0)
(-0.07197475934007333 0 0)
(-0.06242225052718369 0 0)
(-0.05119129014642287 0 0)
(-0.03827747665424965 0 0)
(-0.02372171098203686 0 0)
(-0.007613402775329028 0 0)
(0.009899303682927053 0 0)
(0.02857345523592594 0 0)
(0.04795611393602244 0 0)
(0.06708102228938267 0 0)
(0.08391598847222891 0 0)
(0.09531638188700643 0 0)
(0.09979341978765273 0 0)
(0.1004312086066602 0 0)
(0.1004287458714557 0 0)
(0.1003244191436275 0 0)
(0.09998318607290463 0 0)
(0.09922369562802089 0 0)
(0.09784980654900609 0 0)
(0.09565681432155043 0 0)
(0.09244001898620691 0 0)
(0.08800146247788306 0 0)
(0.08215690418426627 0 0)
(0.07474297712570975 0 0)
(0.06562469971507999 0 0)
(0.05470316714086581 0 0)
(0.04192321571751153 0 0)
(0.0272812273177027 0 0)
(0.01083502914210391 0 0)
(-0.007276542192411424 0 0)
(-0.02678161638260131 0 0)
(-0.04713119190293584 0 0)
(-0.06714468927776401 0 0)
(-0.08442292454914456 0 0)
(-0.09555810695468234 0 0)
(-0.09952746732537882 0 0)
(-0.1000018738883054 0 0)
(-0.09998843622752113 0 0)
(-0.09986620817985212 0 0)
(-0.09948722089244409 0 0)
(-0.09867258765375815 0 0)
(-0.09722970481352658 0 0)
(-0.09496289628159812 0 0)
(-0.09168162746733327 0 0)
(-0.08720795255597132 0 0)
(-0.08138300729994258 0 0)
(-0.07407367193959909 0 0)
(-0.06517914830142463 0 0)
(-0.05463580736892337 0 0)
(-0.04241998317215145 0 0)
(-0.02855073277716897 0 0)
(-0.01309417085534473 0 0)
(0.003828898600616689 0 0)
(0.02201915684750027 0 0)
(0.0411163720575914 0 0)
(0.06036794791362747 0 0)
(0.07814366729221817 0 0)
(0.09154164062064236 0 0)
(0.09805673994602522 0 0)
(0.09943711633856829 0 0)
(0.09948797253166973 0 0)
(0.09942577555985295 0 0)
(0.09918434197907398 0 0)
(0.09858692754728075 0 0)
(0.09744849180110619 0 0)
(0.09556808947701553 0 0)
(0.09274337423672503 0 0)
(0.08877615294306987 0 0)
(0.08347910466104848 0 0)
(0.0766824650689856 0 0)
(0.06824098524086916 0 0)
(0.05804131994987079 0 0)
(0.04600973358171979 0 0)
(0.03211990178514431 0 0)
(0.01640204613784279 0 0)
(-0.001041010632221966 0 0)
(-0.01999469228894404 0 0)
(-0.04002685050799146 0 0)
(-0.06021579253797003 0 0)
(-0.07861073748494665 0 0)
(-0.09194984480312687 0 0)
(-0.09792914518679119 0 0)
(-0.09902181871412474 0 0)
(-0.09904308096129853 0 0)
(-0.09897335262914138 0 0)
(-0.09869825704551621 0 0)
(-0.09805200570106933 0 0)
(-0.09684731317664141 0 0)
(-0.09489088736479387 0 0)
(-0.09199250495779523 0 0)
(-0.0879722191689097 0 0)
(-0.08266696134527732 0 0)
(-0.07593676382546913 0 0)
(-0.06767042530702638 0 0)
(-0.05779032299512012 0 0)
(-0.04625637439709595 0 0)
(-0.03306946635247647 0 0)
(-0.01827487851242581 0 0)
(-0.001968241379392944 0 0)
(0.01568626150748087 0 0)
(0.03439713003988532 0 0)
(0.05357744527804796 0 0)
(0.07195139657967815 0 0)
(0.08702317312341697 0 0)
(0.09575938131755653 0 0)
(0.09831533468721697 0 0)
(0.0985210611339961 0 0)
(0.09851187926296016 0 0)
(0.09837255812344765 0 0)
(0.09794645163172205 0 0)
(0.09704330192051094 0 0)
(0.09545775335506125 0 0)
(0.09298075359335339 0 0)
(0.08941044746113758 0 0)
(0.08456064484718408 0 0)
(0.07826679811013193 0 0)
(0.07039111021757401 0 0)
(0.06082808134500189 0 0)
(0.04950905481097258 0 0)
(0.03640283251533391 0 0)
(0.02151833507388326 0 0)
(0.004918092021040235 0 0)
(-0.01325337186208588 0 0)
(-0.03268412105739341 0 0)
(-0.05268993951027187 0 0)
(-0.07175761230061867 0 0)
(-0.08684747690494618 0 0)
(-0.09511498007616272 0 0)
(-0.09745949755299482 0 0)
(-0.09774185499101798 0 0)
(-0.09781385546739418 0 0)
(-0.09762253801329289 0 0)
(-0.09705929371305282 0 0)
(-0.09595020647516368 0 0)
(-0.09411859877159924 0 0)
(-0.09139189123470445 0 0)
(-0.08761352704706447 0 0)
(-0.08265097439217003 0 0)
(-0.07639444764626301 0 0)
(-0.06875308101442885 0 0)
(-0.05965248247764764 0 0)
(-0.0490365646137699 0 0)
(-0.03687504576708611 0 0)
(-0.02317247498759645 0 0)
(-0.007972208036089459 0 0)
(0.008627367644572358 0 0)
(0.02641247120614926 0 0)
(0.04495895135586556 0 0)
(0.0633366250314186 0 0)
(0.07938097160828513 0 0)
(0.08989932074116679 0 0)
(0.09435235810728142 0 0)
(0.09533356638553045 0 0)
(0.09552494981346933 0 0)
(0.0955165102086078 0 0)
(0.09520692038680487 0 0)
(0.09443959698687862 0 0)
(0.09306259288795944 0 0)
(0.09088084574079176 0 0)
(0.08768570786626664 0 0)
(0.08329672845668359 0 0)
(0.07757331986537921 0 0)
(0.07040029740667897 0 0)
(0.06167428476425488 0 0)
(0.0513035707562333 0 0)
(0.03921900132492809 0 0)
(0.02538673141714292 0 0)
(0.009818373676843378 0 0)
(-0.007392260599741281 0 0)
(-0.02597319478604648 0 0)
(-0.04536222639946741 0 0)
(-0.06442429185576723 0 0)
(-0.08073282576812166 0 0)
(-0.09099581959322479 0 0)
(-0.09499941264855283 0 0)
(-0.09583759738767325 0 0)
(-0.09592505918017839 0 0)
(-0.09584140657155817 0 0)
(-0.09543517015701927 0 0)
(-0.09456139093926923 0 0)
(-0.09307599294766156 0 0)
(-0.09078862918965713 0 0)
(-0.08750799918452661 0 0)
(-0.08307614476367779 0 0)
(-0.07737031425123381 0 0)
(-0.07029257729411803 0 0)
(-0.06176549087082759 0 0)
(-0.05173387763322103 0 0)
(-0.04016756486997605 0 0)
(-0.02706456900506789 0 0)
(-0.01245601740353608 0 0)
(0.003577591725238196 0 0)
(0.02084825329044526 0 0)
(0.03896740302206115 0 0)
(0.05719904560090133 0 0)
(0.0740077021422979 0 0)
(0.08662265599296901 0 0)
(0.09300874836477864 0 0)
(0.09494404852492359 0 0)
(0.09510933814132788 0 0)
(0.09522989769158545 0 0)
(0.09502660691388515 0 0)
(0.09441603226434463 0 0)
(0.09323919738632627 0 0)
(0.09132400414416129 0 0)
(0.08847337159854221 0 0)
(0.08450905944428956 0 0)
(0.07928106409505167 0 0)
(0.07265642472429799 0 0)
(0.06451567590651507 0 0)
(0.05475892126369769 0 0)
(0.04331209001027068 0 0)
(0.03013436265572389 0 0)
(0.01523083859068843 0 0)
(-0.001323311703474597 0 0)
(-0.01931157073545282 0 0)
(-0.03826596161689969 0 0)
(-0.05730829003501792 0 0)
(-0.07463999605427146 0 0)
(-0.08719553869160418 0 0)
(-0.09310507965993393 0 0)
(-0.09470001699479749 0 0)
(-0.09479107971015174 0 0)
(-0.09483574267067367 0 0)
(-0.09456432554442197 0 0)
(-0.09388749593583841 0 0)
(-0.09265040965561691 0 0)
(-0.09067146754352906 0 0)
(-0.08775940719923946 0 0)
(-0.08375606824653758 0 0)
(-0.07853749485251278 0 0)
(-0.07200037614639329 0 0)
(-0.06405737230231681 0 0)
(-0.05464006331277515 0 0)
(-0.04370274918223138 0 0)
(-0.03122872106257709 0 0)
(-0.01723947025437357 0 0)
(-0.001805367235508344 0 0)
(0.01491367403293519 0 0)
(0.03258654443793184 0 0)
(0.05063074452922049 0 0)
(0.06793024786485677 0 0)
(0.08220912353672234 0 0)
(0.09069649323840781 0 0)
(0.09374365111068902 0 0)
(0.09428723416653738 0 0)
(0.09437018833845416 0 0)
(0.09427652286504004 0 0)
(0.09385197142453547 0 0)
(0.09292521241686602 0 0)
(0.09131829806517566 0 0)
(0.08882588092474474 0 0)
(0.08526129402278403 0 0)
(0.08047398353579135 0 0)
(0.07434043049960583 0 0)
(0.06675178517460673 0 0)
(0.05760917746528605 0 0)
(0.04682725157214183 0 0)
(0.03434598533021996 0 0)
(0.02014962160385242 0 0)
(0.004287577520718499 0 0)
(-0.01307689526535446 0 0)
(-0.03156544210798034 0 0)
(-0.05047421750772256 0 0)
(-0.06845352408372994 0 0)
(-0.08289298805175696 0 0)
(-0.09099810115326089 0 0)
(-0.09362182569843151 0 0)
(-0.09403809476536129 0 0)
(-0.0940064704791158 0 0)
(-0.09384004738125248 0 0)
(-0.09333573942144137 0 0)
(-0.09235304994635825 0 0)
(-0.09070016409550262 0 0)
(-0.08816570320234503 0 0)
(-0.08457086954717959 0 0)
(-0.07978361221192895 0 0)
(-0.07370758678023902 0 0)
(-0.06626899293915238 0 0)
(-0.05740886906587527 0 0)
(-0.04708078330290123 0 0)
(-0.03525496930248848 0 0)
(-0.02193016432340277 0 0)
(-0.00714824342182016 0 0)
(0.008977374314254225 0 0)
(0.02618716457943916 0 0)
(0.04399679906831525 0 0)
(0.06153061690221022 0 0)
(0.07699632729133632 0 0)
(0.08764156233591608 0 0)
(0.0922934694344574 0 0)
(0.09338047257297524 0 0)
(0.09337292678482843 0 0)
(0.09334425185263288 0 0)
(0.09303513789537463 0 0)
(0.09233297977111052 0 0)
(0.09104671751554275 0 0)
(0.08895187372866829 0 0)
(0.08582825589375313 0 0)
(0.08149808459555616 0 0)
(0.07582741569913093 0 0)
(0.06871551359639601 0 0)
(0.06008766584329665 0 0)
(0.04988821835056834 0 0)
(0.03807176319040272 0 0)
(0.02460584069997215 0 0)
(0.009495358690721871 0 0)
(-0.007168467811610734 0 0)
(-0.02510841744610922 0 0)
(-0.04376439486380498 0 0)
(-0.06210122710675163 0 0)
(-0.07798855851692689 0 0)
(-0.08839759403385219 0 0)
(-0.09257100665050602 0 0)
(-0.0934028937180776 0 0)
(-0.09332500204300262 0 0)
(-0.0931523971317975 0 0)
(-0.09272581165657041 0 0)
(-0.09193783689603295 0 0)
(-0.09060223035936643 0 0)
(-0.08848884807639287 0 0)
(-0.08537025507883352 0 0)
(-0.08106422246362723 0 0)
(-0.07544561329944692 0 0)
(-0.06844464620931739 0 0)
(-0.06003587520234115 0 0)
(-0.05021580766140506 0 0)
(-0.03898039763800819 0 0)
(-0.02632077688157868 0 0)
(-0.01224382382050643 0 0)
(0.003195794567938742 0 0)
(0.01983014247588017 0 0)
(0.03728391295557796 0 0)
(0.05487262765459992 0 0)
(0.07120763657471635 0 0)
(0.08375611308600067 0 0)
(0.09044300621078097 0 0)
(0.0923855861458272 0 0)
(0.09258745620787093 0 0)
(0.0923980411057562 0 0)
(0.09207776594506051 0 0)
(0.09145071148130385 0 0)
(0.0903964900483057 0 0)
(0.08870693305048774 0 0)
(0.08611846265644589 0 0)
(0.08237017892847383 0 0)
(0.07725063578652541 0 0)
(0.07062220448467749 0 0)
(0.06242412025737341 0 0)
(0.05265539201919518 0 0)
(0.04134492670947824 0 0)
(0.02851737065360075 0 0)
(0.01417848510232974 0 0)
(-0.001665217373505111 0 0)
(-0.01889644816181935 0 0)
(-0.03711535790967029 0 0)
(-0.05552803421465861 0 0)
(-0.0724680948469405 0 0)
(-0.08501579148443196 0 0)
(-0.09124879125125902 0 0)
(-0.09287324406276383 0 0)
(-0.09297143355923315 0 0)
(-0.09273535200969719 0 0)
(-0.09227860886576504 0 0)
(-0.09147996668031765 0 0)
(-0.09025268619591743 0 0)
(-0.08844696270521707 0 0)
(-0.08585023432011467 0 0)
(-0.08221803357547919 0 0)
(-0.07730662997700793 0 0)
(-0.07090897422921415 0 0)
(-0.06290140189447696 0 0)
(-0.05329692620913416 0 0)
(-0.04226898421969102 0 0)
(-0.03007452635733809 0 0)
(-0.0168318156552395 0 0)
(-0.002421250007245385 0 0)
(0.01359650629776623 0 0)
(0.03012264850365672 0 0)
(0.04986373239552664 0 0)
)
;

boundaryField
{
    inlet
    {
        type            zeroGradient;
    }
    outlet
    {
        type            velocityOutletNSCBCx;
        pInf            101325;
        gamma           1.4;
        etaAc           1;
        fieldInf        (-1 0 0);
        lInf            2.25;
        value           uniform (0.05733740125351858 0 0);
    }
    frontAndBack
    {
        type            empty;
    }
}


// ************************************************************************* //
